  24  24   0   0
  0.4176334E+02  0.3540400E-09  0.1044544E-08  0.2750143E-08  0.5000000E-15
  1.000000000000000E-004
  CAR 
 unknown system                          
      4.23349562    -15.19514701  301      0.17790659      1.00000000
    -15.195  0.0000E+00  0.0000E+00
    -15.130  0.0000E+00  0.0000E+00
    -15.066  0.0000E+00  0.0000E+00
    -15.001  0.0000E+00  0.0000E+00
    -14.936  0.0000E+00  0.0000E+00
    -14.871  0.0000E+00  0.0000E+00
    -14.807  0.0000E+00  0.0000E+00
    -14.742  0.6626E-14  0.4291E-15
    -14.677  0.6271E-11  0.4065E-12
    -14.612  0.2605E-08  0.1691E-09
    -14.548  0.4823E-06  0.3140E-07
    -14.483  0.4021E-04  0.2636E-05
    -14.418  0.1535E-02  0.1020E-03
    -14.353  0.2740E-01  0.1877E-02
    -14.288  0.2353E+00  0.1711E-01
    -14.224  0.9981E+00  0.8175E-01
    -14.159  0.2150E+01  0.2210E+00
    -14.094  0.2533E+01  0.3850E+00
    -14.029  0.2198E+01  0.5274E+00
    -13.965  0.1967E+01  0.6547E+00
    -13.900  0.1364E+01  0.7430E+00
    -13.835  0.9331E+00  0.8035E+00
    -13.770  0.1430E+01  0.8961E+00
    -13.706  0.1797E+01  0.1012E+01
    -13.641  0.1558E+01  0.1113E+01
    -13.576  0.1849E+01  0.1233E+01
    -13.511  0.2834E+01  0.1417E+01
    -13.447  0.3599E+01  0.1650E+01
    -13.382  0.3295E+01  0.1863E+01
    -13.317  0.2391E+01  0.2018E+01
    -13.252  0.2043E+01  0.2150E+01
    -13.188  0.2564E+01  0.2316E+01
    -13.123  0.3388E+01  0.2536E+01
    -13.058  0.3860E+01  0.2786E+01
    -12.993  0.4446E+01  0.3074E+01
    -12.928  0.5144E+01  0.3407E+01
    -12.864  0.4821E+01  0.3719E+01
    -12.799  0.3888E+01  0.3971E+01
    -12.734  0.3912E+01  0.4224E+01
    -12.669  0.4867E+01  0.4539E+01
    -12.605  0.5392E+01  0.4889E+01
    -12.540  0.5364E+01  0.5236E+01
    -12.475  0.5106E+01  0.5567E+01
    -12.410  0.4882E+01  0.5883E+01
    -12.346  0.4991E+01  0.6206E+01
    -12.281  0.5137E+01  0.6539E+01
    -12.216  0.5051E+01  0.6866E+01
    -12.151  0.5510E+01  0.7223E+01
    -12.087  0.6640E+01  0.7653E+01
    -12.022  0.6790E+01  0.8092E+01
    -11.957  0.5848E+01  0.8471E+01
    -11.892  0.4892E+01  0.8788E+01
    -11.828  0.4923E+01  0.9107E+01
    -11.763  0.6862E+01  0.9551E+01
    -11.698  0.9131E+01  0.1014E+02
    -11.633  0.1001E+02  0.1079E+02
    -11.568  0.9716E+01  0.1142E+02
    -11.504  0.8453E+01  0.1197E+02
    -11.439  0.8093E+01  0.1249E+02
    -11.374  0.9994E+01  0.1314E+02
    -11.309  0.1080E+02  0.1384E+02
    -11.245  0.8874E+01  0.1441E+02
    -11.180  0.7741E+01  0.1491E+02
    -11.115  0.9082E+01  0.1550E+02
    -11.050  0.1074E+02  0.1620E+02
    -10.986  0.1122E+02  0.1693E+02
    -10.921  0.1179E+02  0.1769E+02
    -10.856  0.1252E+02  0.1850E+02
    -10.791  0.1261E+02  0.1932E+02
    -10.727  0.1231E+02  0.2011E+02
    -10.662  0.1096E+02  0.2082E+02
    -10.597  0.8578E+01  0.2138E+02
    -10.532  0.7349E+01  0.2185E+02
    -10.468  0.7063E+01  0.2231E+02
    -10.403  0.6211E+01  0.2271E+02
    -10.338  0.4319E+01  0.2299E+02
    -10.273  0.2587E+01  0.2316E+02
    -10.208  0.1845E+01  0.2328E+02
    -10.144  0.1156E+01  0.2336E+02
    -10.079  0.6054E+00  0.2339E+02
    -10.014  0.9281E+00  0.2345E+02
     -9.949  0.1624E+01  0.2356E+02
     -9.885  0.1480E+01  0.2366E+02
     -9.820  0.1068E+01  0.2373E+02
     -9.755  0.1457E+01  0.2382E+02
     -9.690  0.1637E+01  0.2393E+02
     -9.626  0.8968E+00  0.2398E+02
     -9.561  0.2257E+00  0.2400E+02
     -9.496  0.2584E-01  0.2400E+02
     -9.431  0.1339E-02  0.2400E+02
     -9.367  0.1991E-03  0.2400E+02
     -9.302  0.5013E-02  0.2400E+02
     -9.237  0.7070E-01  0.2400E+02
     -9.172  0.4856E+00  0.2404E+02
     -9.108  0.1686E+01  0.2415E+02
     -9.043  0.3157E+01  0.2435E+02
     -8.978  0.3784E+01  0.2460E+02
     -8.913  0.4188E+01  0.2487E+02
     -8.848  0.4906E+01  0.2518E+02
     -8.784  0.4895E+01  0.2550E+02
     -8.719  0.4453E+01  0.2579E+02
     -8.654  0.5139E+01  0.2612E+02
     -8.589  0.7415E+01  0.2660E+02
     -8.525  0.9827E+01  0.2724E+02
     -8.460  0.9385E+01  0.2785E+02
     -8.395  0.5811E+01  0.2822E+02
     -8.330  0.2813E+01  0.2841E+02
     -8.266  0.2382E+01  0.2856E+02
     -8.201  0.3516E+01  0.2879E+02
     -8.136  0.4185E+01  0.2906E+02
     -8.071  0.3263E+01  0.2927E+02
     -8.007  0.2302E+01  0.2942E+02
     -7.942  0.2760E+01  0.2960E+02
     -7.877  0.3934E+01  0.2985E+02
     -7.812  0.4433E+01  0.3014E+02
     -7.748  0.4615E+01  0.3044E+02
     -7.683  0.5218E+01  0.3078E+02
     -7.618  0.5671E+01  0.3114E+02
     -7.553  0.6591E+01  0.3157E+02
     -7.488  0.8788E+01  0.3214E+02
     -7.424  0.1042E+02  0.3281E+02
     -7.359  0.9968E+01  0.3346E+02
     -7.294  0.9065E+01  0.3405E+02
     -7.229  0.8703E+01  0.3461E+02
     -7.165  0.8156E+01  0.3514E+02
     -7.100  0.7238E+01  0.3561E+02
     -7.035  0.6440E+01  0.3602E+02
     -6.970  0.6843E+01  0.3647E+02
     -6.906  0.8694E+01  0.3703E+02
     -6.841  0.1060E+02  0.3772E+02
     -6.776  0.1220E+02  0.3851E+02
     -6.711  0.1201E+02  0.3928E+02
     -6.647  0.9019E+01  0.3987E+02
     -6.582  0.5832E+01  0.4025E+02
     -6.517  0.3669E+01  0.4048E+02
     -6.452  0.2392E+01  0.4064E+02
     -6.387  0.2669E+01  0.4081E+02
     -6.323  0.4666E+01  0.4111E+02
     -6.258  0.6692E+01  0.4155E+02
     -6.193  0.7018E+01  0.4200E+02
     -6.128  0.6283E+01  0.4241E+02
     -6.064  0.5674E+01  0.4278E+02
     -5.999  0.5211E+01  0.4311E+02
     -5.934  0.5000E+01  0.4344E+02
     -5.869  0.5788E+01  0.4381E+02
     -5.805  0.6490E+01  0.4423E+02
     -5.740  0.5803E+01  0.4461E+02
     -5.675  0.4285E+01  0.4489E+02
     -5.610  0.2866E+01  0.4507E+02
     -5.546  0.2624E+01  0.4524E+02
     -5.481  0.4335E+01  0.4552E+02
     -5.416  0.6786E+01  0.4596E+02
     -5.351  0.7674E+01  0.4646E+02
     -5.287  0.6881E+01  0.4690E+02
     -5.222  0.5369E+01  0.4725E+02
     -5.157  0.4714E+01  0.4756E+02
     -5.092  0.6063E+01  0.4795E+02
     -5.027  0.8477E+01  0.4850E+02
     -4.963  0.1082E+02  0.4920E+02
     -4.898  0.1212E+02  0.4998E+02
     -4.833  0.1233E+02  0.5078E+02
     -4.768  0.1212E+02  0.5157E+02
     -4.704  0.1112E+02  0.5229E+02
     -4.639  0.9693E+01  0.5291E+02
     -4.574  0.8745E+01  0.5348E+02
     -4.509  0.8646E+01  0.5404E+02
     -4.445  0.9694E+01  0.5467E+02
     -4.380  0.1041E+02  0.5534E+02
     -4.315  0.1005E+02  0.5599E+02
     -4.250  0.1048E+02  0.5667E+02
     -4.186  0.1238E+02  0.5747E+02
     -4.121  0.1410E+02  0.5839E+02
     -4.056  0.1380E+02  0.5928E+02
     -3.991  0.1255E+02  0.6009E+02
     -3.927  0.1247E+02  0.6090E+02
     -3.862  0.1310E+02  0.6175E+02
     -3.797  0.1364E+02  0.6263E+02
     -3.732  0.1383E+02  0.6353E+02
     -3.667  0.1311E+02  0.6438E+02
     -3.603  0.1250E+02  0.6519E+02
     -3.538  0.1234E+02  0.6599E+02
     -3.473  0.1286E+02  0.6682E+02
     -3.408  0.1449E+02  0.6776E+02
     -3.344  0.1563E+02  0.6877E+02
     -3.279  0.1528E+02  0.6976E+02
     -3.214  0.1508E+02  0.7074E+02
     -3.149  0.1566E+02  0.7175E+02
     -3.085  0.1593E+02  0.7278E+02
     -3.020  0.1555E+02  0.7379E+02
     -2.955  0.1451E+02  0.7473E+02
     -2.890  0.1419E+02  0.7565E+02
     -2.826  0.1505E+02  0.7662E+02
     -2.761  0.1548E+02  0.7762E+02
     -2.696  0.1610E+02  0.7867E+02
     -2.631  0.1688E+02  0.7976E+02
     -2.567  0.1696E+02  0.8086E+02
     -2.502  0.1641E+02  0.8192E+02
     -2.437  0.1557E+02  0.8293E+02
     -2.372  0.1478E+02  0.8389E+02
     -2.307  0.1470E+02  0.8484E+02
     -2.243  0.1594E+02  0.8587E+02
     -2.178  0.1724E+02  0.8699E+02
     -2.113  0.1762E+02  0.8813E+02
     -2.048  0.1763E+02  0.8927E+02
     -1.984  0.1791E+02  0.9043E+02
     -1.919  0.1873E+02  0.9164E+02
     -1.854  0.1896E+02  0.9287E+02
     -1.789  0.1746E+02  0.9400E+02
     -1.725  0.1511E+02  0.9498E+02
     -1.660  0.1364E+02  0.9586E+02
     -1.595  0.1292E+02  0.9670E+02
     -1.530  0.1264E+02  0.9752E+02
     -1.466  0.1247E+02  0.9833E+02
     -1.401  0.1176E+02  0.9909E+02
     -1.336  0.1072E+02  0.9978E+02
     -1.271  0.1006E+02  0.1004E+03
     -1.207  0.1072E+02  0.1011E+03
     -1.142  0.1131E+02  0.1019E+03
     -1.077  0.9814E+01  0.1025E+03
     -1.012  0.7581E+01  0.1030E+03
     -0.947  0.6919E+01  0.1034E+03
     -0.883  0.6969E+01  0.1039E+03
     -0.818  0.5392E+01  0.1042E+03
     -0.753  0.3057E+01  0.1044E+03
     -0.688  0.2301E+01  0.1046E+03
     -0.624  0.2946E+01  0.1048E+03
     -0.559  0.3177E+01  0.1050E+03
     -0.494  0.2360E+01  0.1051E+03
     -0.429  0.1213E+01  0.1052E+03
     -0.365  0.8529E+00  0.1053E+03
     -0.300  0.2017E+01  0.1054E+03
     -0.235  0.3992E+01  0.1057E+03
     -0.170  0.5151E+01  0.1060E+03
     -0.106  0.5097E+01  0.1063E+03
     -0.041  0.4733E+01  0.1066E+03
      0.024  0.5271E+01  0.1070E+03
      0.089  0.6455E+01  0.1074E+03
      0.153  0.6969E+01  0.1078E+03
      0.218  0.6297E+01  0.1082E+03
      0.283  0.4453E+01  0.1085E+03
      0.348  0.2785E+01  0.1087E+03
      0.413  0.2459E+01  0.1089E+03
      0.477  0.3095E+01  0.1091E+03
      0.542  0.4048E+01  0.1093E+03
      0.607  0.4609E+01  0.1096E+03
      0.672  0.4579E+01  0.1099E+03
      0.736  0.4129E+01  0.1102E+03
      0.801  0.3852E+01  0.1104E+03
      0.866  0.3953E+01  0.1107E+03
      0.931  0.3747E+01  0.1109E+03
      0.995  0.3319E+01  0.1112E+03
      1.060  0.4228E+01  0.1114E+03
      1.125  0.7129E+01  0.1119E+03
      1.190  0.1004E+02  0.1125E+03
      1.254  0.1093E+02  0.1133E+03
      1.319  0.1003E+02  0.1139E+03
      1.384  0.8958E+01  0.1145E+03
      1.449  0.8973E+01  0.1151E+03
      1.513  0.1045E+02  0.1157E+03
      1.578  0.1199E+02  0.1165E+03
      1.643  0.1245E+02  0.1173E+03
      1.708  0.1283E+02  0.1182E+03
      1.773  0.1270E+02  0.1190E+03
      1.837  0.1134E+02  0.1197E+03
      1.902  0.1083E+02  0.1204E+03
      1.967  0.1198E+02  0.1212E+03
      2.032  0.1343E+02  0.1221E+03
      2.096  0.1499E+02  0.1230E+03
      2.161  0.1632E+02  0.1241E+03
      2.226  0.1597E+02  0.1251E+03
      2.291  0.1506E+02  0.1261E+03
      2.355  0.1481E+02  0.1271E+03
      2.420  0.1424E+02  0.1280E+03
      2.485  0.1426E+02  0.1289E+03
      2.550  0.1597E+02  0.1299E+03
      2.614  0.1672E+02  0.1310E+03
      2.679  0.1525E+02  0.1320E+03
      2.744  0.1272E+02  0.1328E+03
      2.809  0.1026E+02  0.1335E+03
      2.873  0.8429E+01  0.1340E+03
      2.938  0.7133E+01  0.1345E+03
      3.003  0.6466E+01  0.1349E+03
      3.068  0.5815E+01  0.1353E+03
      3.133  0.4672E+01  0.1356E+03
      3.197  0.3364E+01  0.1358E+03
      3.262  0.1926E+01  0.1359E+03
      3.327  0.7141E+00  0.1360E+03
      3.392  0.1492E+00  0.1360E+03
      3.456  0.1621E-01  0.1360E+03
      3.521  0.8668E-03  0.1360E+03
      3.586  0.2203E-04  0.1360E+03
      3.651  0.2597E-06  0.1360E+03
      3.715  0.1395E-08  0.1360E+03
      3.780  0.3377E-11  0.1360E+03
      3.845  0.3626E-14  0.1360E+03
      3.910  0.0000E+00  0.1360E+03
      3.974  0.0000E+00  0.1360E+03
      4.039  0.0000E+00  0.1360E+03
      4.104  0.0000E+00  0.1360E+03
      4.169  0.0000E+00  0.1360E+03
      4.233  0.0000E+00  0.1360E+03
