   24   24    1    1
  0.4176334E+02  0.3540400E-09  0.1044544E-08  0.2750143E-08  0.5000000E-15
  1.000000000000000E-004
  CAR 
 unknown system                          
    108     54     68
 
  0.0000000E+00  0.0000000E+00  0.0000000E+00  0.9615385E-02
    1      -14.195147
    2      -13.633093
    3      -12.892330
    4      -12.730097
    5      -12.585836
    6      -12.489062
    7      -12.178956
    8      -11.756681
    9      -11.524036
   10      -11.137149
   11      -11.085192
   12      -10.968558
   13       -8.569101
   14       -8.120858
   15       -7.922200
   16       -7.156953
   17       -6.925473
   18       -6.796258
   19       -6.585979
   20       -6.330043
   21       -5.915773
   22       -5.438666
   23       -4.919053
   24       -4.801330
   25       -4.006099
   26       -3.896007
   27       -3.776375
   28       -3.631424
   29       -3.278156
   30       -3.149004
   31       -2.983684
   32       -2.934427
   33       -2.887368
   34       -2.579647
   35       -2.551684
   36       -2.485016
   37       -2.425152
   38       -2.262659
   39       -2.187440
   40       -2.104958
   41       -1.920189
   42       -1.820717
   43       -1.799258
   44       -1.735403
   45       -1.668504
   46       -1.524494
   47       -1.470728
   48       -1.393750
   49       -1.326648
   50       -1.165275
   51       -0.878457
   52       -0.653141
   53       -0.246791
   54        0.188706
   55        0.498421
   56        1.012849
   57        1.155204
   58        1.232560
   59        1.410805
   60        1.587098
   61        1.709653
   62        1.869497
   63        1.960632
   64        2.065155
   65        2.335566
   66        2.362745
   67        2.517570
   68        2.563798
 
  0.7692308E-01 -0.1387779E-16  0.0000000E+00  0.1923077E-01
    1      -14.144267
    2      -13.571763
    3      -12.840183
    4      -12.679204
    5      -12.530264
    6      -12.431114
    7      -12.116687
    8      -11.706525
    9      -11.475101
   10      -11.094384
   11      -11.036563
   12      -10.918982
   13       -8.549840
   14       -8.158682
   15       -7.884665
   16       -7.141460
   17       -6.900368
   18       -6.793524
   19       -6.580158
   20       -6.304867
   21       -5.882245
   22       -5.421000
   23       -4.908493
   24       -4.806079
   25       -4.160348
   26       -3.917655
   27       -3.862124
   28       -3.776346
   29       -3.580074
   30       -3.373271
   31       -3.305236
   32       -3.148258
   33       -2.971604
   34       -2.868600
   35       -2.816950
   36       -2.579341
   37       -2.527747
   38       -2.356307
   39       -2.278143
   40       -2.227272
   41       -2.127159
   42       -2.058434
   43       -2.048417
   44       -1.923014
   45       -1.835904
   46       -1.798524
   47       -1.603457
   48       -1.466079
   49       -1.300764
   50       -1.160517
   51       -0.908824
   52       -0.635465
   53       -0.270456
   54        0.151236
   55        0.701298
   56        1.179561
   57        1.492379
   58        1.609501
   59        1.671311
   60        1.906083
   61        2.026713
   62        2.080102
   63        2.142151
   64        2.192340
   65        2.441312
   66        2.533608
   67        2.673474
   68        2.752041
 
  0.1538462E+00 -0.2775558E-16  0.0000000E+00  0.1923077E-01
    1      -13.994843
    2      -13.388845
    3      -12.684453
    4      -12.527102
    5      -12.365741
    6      -12.262139
    7      -11.934160
    8      -11.561163
    9      -11.333134
   10      -10.969909
   11      -10.897122
   12      -10.773357
   13       -8.511027
   14       -8.256428
   15       -7.842746
   16       -7.128187
   17       -6.873831
   18       -6.778285
   19       -6.592386
   20       -6.263502
   21       -5.808200
   22       -5.417593
   23       -4.975799
   24       -4.923644
   25       -4.837147
   26       -4.304974
   27       -4.177847
   28       -4.071253
   29       -3.923636
   30       -3.839618
   31       -3.802280
   32       -3.608638
   33       -3.382298
   34       -3.257148
   35       -3.144140
   36       -3.057825
   37       -3.000468
   38       -2.829854
   39       -2.703508
   40       -2.526768
   41       -2.466392
   42       -2.301057
   43       -2.234096
   44       -2.124549
   45       -2.014362
   46       -1.851708
   47       -1.766408
   48       -1.639879
   49       -1.324222
   50       -1.219642
   51       -1.033826
   52       -0.815712
   53       -0.281353
   54        0.083605
   55        0.788386
   56        1.249226
   57        1.837592
   58        1.902000
   59        2.129199
   60        2.208160
   61        2.271452
   62        2.398868
   63        2.502094
   64        2.541163
   65        2.693133
   66        2.849914
   67        2.958160
   68        3.108140
 
  0.2307692E+00 -0.4163336E-16  0.0000000E+00  0.1923077E-01
    1      -13.758375
    2      -13.087920
    3      -12.428215
    4      -12.277776
    5      -12.099932
    6      -11.997948
    7      -11.646277
    8      -11.338616
    9      -11.116342
   10      -10.776454
   11      -10.693216
   12      -10.543277
   13       -8.521645
   14       -8.448283
   15       -7.917290
   16       -7.221532
   17       -6.973654
   18       -6.777779
   19       -6.726754
   20       -6.315256
   21       -5.831608
   22       -5.722901
   23       -5.474852
   24       -5.427026
   25       -4.942692
   26       -4.876220
   27       -4.701432
   28       -4.604210
   29       -4.509894
   30       -4.282368
   31       -4.066252
   32       -3.923431
   33       -3.836786
   34       -3.601224
   35       -3.556640
   36       -3.414914
   37       -3.208077
   38       -3.087813
   39       -3.064699
   40       -2.718109
   41       -2.611221
   42       -2.537865
   43       -2.331361
   44       -2.070054
   45       -1.987559
   46       -1.930901
   47       -1.852308
   48       -1.718312
   49       -1.558592
   50       -1.393542
   51       -1.197325
   52       -1.062573
   53       -0.573665
   54        0.090550
   55        0.563294
   56        1.097254
   57        1.767306
   58        1.789902
   59        1.916843
   60        2.087482
   61        2.159483
   62        2.208366
   63        2.378510
   64        2.586833
   65        2.747326
   66        2.799668
   67        2.894130
   68        3.136342
 
  0.3076923E+00 -0.5551115E-16  0.0000000E+00  0.1923077E-01
    1      -13.460226
    2      -12.676304
    3      -12.079955
    4      -11.946263
    5      -11.750972
    6      -11.670991
    7      -11.287944
    8      -11.075741
    9      -10.872087
   10      -10.545077
   11      -10.506747
   12      -10.255558
   13       -8.747161
   14       -8.682160
   15       -8.177783
   16       -7.464300
   17       -7.286556
   18       -7.088553
   19       -6.992918
   20       -6.559447
   21       -6.294525
   22       -6.244265
   23       -6.058845
   24       -5.891437
   25       -5.303528
   26       -4.966578
   27       -4.891854
   28       -4.824553
   29       -4.789248
   30       -4.424921
   31       -4.340687
   32       -4.304382
   33       -4.120407
   34       -3.921666
   35       -3.487472
   36       -3.445754
   37       -3.246488
   38       -3.168073
   39       -3.037941
   40       -2.930959
   41       -2.813146
   42       -2.672482
   43       -2.378497
   44       -2.168322
   45       -2.047461
   46       -1.976564
   47       -1.916761
   48       -1.815632
   49       -1.754456
   50       -1.695436
   51       -1.344892
   52       -1.259934
   53       -0.945875
   54        0.046017
   55        0.377739
   56        0.846650
   57        1.428346
   58        1.526631
   59        1.702274
   60        1.737162
   61        1.879480
   62        2.118858
   63        2.173282
   64        2.302446
   65        2.613742
   66        2.639370
   67        2.732171
   68        3.003538
 
  0.3846154E+00 -0.8326673E-16  0.0000000E+00  0.1923077E-01
    1      -13.153232
    2      -12.168229
    3      -11.661201
    4      -11.590656
    5      -11.364804
    6      -11.324028
    7      -10.944556
    8      -10.823203
    9      -10.717271
   10      -10.547026
   11      -10.377230
   12       -9.958434
   13       -8.945838
   14       -8.919677
   15       -8.469842
   16       -7.763300
   17       -7.699325
   18       -7.550170
   19       -7.507942
   20       -7.016796
   21       -6.852330
   22       -6.811235
   23       -6.753340
   24       -6.173914
   25       -5.307753
   26       -5.108150
   27       -4.820552
   28       -4.732485
   29       -4.618462
   30       -4.462565
   31       -4.328931
   32       -4.221753
   33       -4.148665
   34       -3.775210
   35       -3.743536
   36       -3.523216
   37       -3.361368
   38       -3.265035
   39       -3.201810
   40       -2.988222
   41       -2.861069
   42       -2.646377
   43       -2.555457
   44       -2.378432
   45       -2.239095
   46       -2.174295
   47       -2.117703
   48       -1.955935
   49       -1.744014
   50       -1.701714
   51       -1.512934
   52       -1.349908
   53       -1.105835
   54       -0.065893
   55        0.219106
   56        0.639419
   57        1.103487
   58        1.326064
   59        1.405832
   60        1.622247
   61        1.633275
   62        1.970828
   63        2.123848
   64        2.179430
   65        2.272273
   66        2.538963
   67        2.656383
   68        2.740209
 
  0.4615385E+00 -0.8326673E-16  0.0000000E+00  0.1923077E-01
    1      -12.938724
    2      -11.595389
    3      -11.390848
    4      -11.237461
    5      -11.043936
    6      -10.981179
    7      -10.933579
    8      -10.820864
    9      -10.726840
   10      -10.700566
   11      -10.410237
   12       -9.741117
   13       -9.047747
   14       -8.779329
   15       -8.533303
   16       -8.172561
   17       -8.148068
   18       -7.721780
   19       -7.664341
   20       -7.417811
   21       -7.376994
   22       -7.321123
   23       -7.269550
   24       -6.156238
   25       -5.383954
   26       -5.005721
   27       -4.659038
   28       -4.592111
   29       -4.412278
   30       -4.289416
   31       -4.164290
   32       -4.110602
   33       -4.036169
   34       -3.920203
   35       -3.722436
   36       -3.670742
   37       -3.609083
   38       -3.352109
   39       -3.206426
   40       -3.111443
   41       -3.024197
   42       -2.841540
   43       -2.765736
   44       -2.451274
   45       -2.317486
   46       -2.266563
   47       -2.196318
   48       -1.901096
   49       -1.799676
   50       -1.654473
   51       -1.581703
   52       -1.382155
   53       -1.118044
   54       -0.184337
   55        0.128596
   56        0.509354
   57        0.918005
   58        1.211904
   59        1.281745
   60        1.499687
   61        1.577097
   62        1.791287
   63        1.985584
   64        2.117955
   65        2.307558
   66        2.413648
   67        2.508042
   68        2.663544
 
  0.0000000E+00  0.2500000E+00  0.0000000E+00  0.1923077E-01
    1      -14.188006
    2      -13.577900
    3      -13.065987
    4      -12.866426
    5      -12.579909
    6      -12.301580
    7      -11.965986
    8      -11.773827
    9      -11.569003
   10      -11.298376
   11      -11.092509
   12      -10.833325
   13       -8.623910
   14       -8.561707
   15       -7.488785
   16       -7.269170
   17       -6.946967
   18       -6.763438
   19       -6.687141
   20       -6.064088
   21       -5.835882
   22       -5.316598
   23       -4.887605
   24       -4.712391
   25       -4.133481
   26       -3.944429
   27       -3.717038
   28       -3.606770
   29       -3.428559
   30       -3.357259
   31       -3.220188
   32       -2.800563
   33       -2.747124
   34       -2.626282
   35       -2.495319
   36       -2.484934
   37       -2.434663
   38       -2.340485
   39       -2.203919
   40       -2.105334
   41       -2.052126
   42       -1.974806
   43       -1.830200
   44       -1.720790
   45       -1.648289
   46       -1.517933
   47       -1.455024
   48       -1.409516
   49       -1.281608
   50       -1.136285
   51       -0.884890
   52       -0.587175
   53       -0.109753
   54        0.218668
   55        0.544998
   56        1.039355
   57        1.132771
   58        1.298291
   59        1.505464
   60        1.626079
   61        1.686915
   62        1.761423
   63        2.040676
   64        2.162763
   65        2.278182
   66        2.418898
   67        2.547474
   68        2.617742
 
  0.7692308E-01  0.2500000E+00  0.0000000E+00  0.1923077E-01
    1      -14.135825
    2      -13.501141
    3      -13.046804
    4      -12.830909
    5      -12.522796
    6      -12.212280
    7      -11.866235
    8      -11.735400
    9      -11.527784
   10      -11.270092
   11      -11.048161
   12      -10.769937
   13       -8.671748
   14       -8.553517
   15       -7.445358
   16       -7.292639
   17       -6.933817
   18       -6.770964
   19       -6.618070
   20       -5.998749
   21       -5.787261
   22       -5.291697
   23       -4.887128
   24       -4.754349
   25       -4.203142
   26       -4.122079
   27       -3.872473
   28       -3.728001
   29       -3.564677
   30       -3.466945
   31       -3.437391
   32       -3.115494
   33       -3.038147
   34       -2.842907
   35       -2.677459
   36       -2.581139
   37       -2.562184
   38       -2.489208
   39       -2.379601
   40       -2.263164
   41       -2.227880
   42       -2.114707
   43       -2.072855
   44       -1.931547
   45       -1.900759
   46       -1.833963
   47       -1.527815
   48       -1.438433
   49       -1.251991
   50       -1.121709
   51       -0.896423
   52       -0.637999
   53       -0.060251
   54        0.180370
   55        0.693964
   56        1.158607
   57        1.512641
   58        1.674486
   59        1.743904
   60        1.840450
   61        1.940867
   62        2.078127
   63        2.265260
   64        2.352498
   65        2.512877
   66        2.573432
   67        2.649869
   68        2.851557
 
  0.1538462E+00  0.2500000E+00  0.0000000E+00  0.1923077E-01
    1      -13.986052
    2      -13.304746
    3      -12.910176
    4      -12.681240
    5      -12.356657
    6      -12.026237
    7      -11.669567
    8      -11.605134
    9      -11.388568
   10      -11.136649
   11      -10.906850
   12      -10.631185
   13       -8.733799
   14       -8.507771
   15       -7.419147
   16       -7.327270
   17       -6.894245
   18       -6.748361
   19       -6.586719
   20       -5.947865
   21       -5.740945
   22       -5.343217
   23       -5.007091
   24       -4.932005
   25       -4.816410
   26       -4.472702
   27       -4.390484
   28       -4.080456
   29       -3.981418
   30       -3.746583
   31       -3.698992
   32       -3.501642
   33       -3.385258
   34       -3.162465
   35       -3.073634
   36       -3.051410
   37       -2.986757
   38       -2.874140
   39       -2.700136
   40       -2.642782
   41       -2.539116
   42       -2.435434
   43       -2.401390
   44       -2.154679
   45       -2.022251
   46       -1.971664
   47       -1.642269
   48       -1.540262
   49       -1.350149
   50       -1.222632
   51       -1.000470
   52       -0.872767
   53       -0.155460
   54        0.145034
   55        0.774579
   56        1.212841
   57        1.598781
   58        1.895064
   59        2.008772
   60        2.164385
   61        2.255668
   62        2.351526
   63        2.572505
   64        2.686308
   65        2.834601
   66        2.950035
   67        3.001663
   68        3.127742
 
  0.2307692E+00  0.2500000E+00  0.0000000E+00  0.1923077E-01
    1      -13.750398
    2      -12.993596
    3      -12.658627
    4      -12.423413
    5      -12.089395
    6      -11.761886
    7      -11.411311
    8      -11.380483
    9      -11.167089
   10      -10.909113
   11      -10.689356
   12      -10.433845
   13       -8.863843
   14       -8.493589
   15       -7.500384
   16       -7.447450
   17       -6.911734
   18       -6.789302
   19       -6.730730
   20       -6.060455
   21       -5.910858
   22       -5.767269
   23       -5.580304
   24       -5.298693
   25       -5.125923
   26       -4.957435
   27       -4.757267
   28       -4.647908
   29       -4.462537
   30       -4.118604
   31       -3.995182
   32       -3.883049
   33       -3.809517
   34       -3.623598
   35       -3.384319
   36       -3.294802
   37       -3.184827
   38       -3.152675
   39       -2.865248
   40       -2.731112
   41       -2.682149
   42       -2.619645
   43       -2.529619
   44       -2.102147
   45       -2.074377
   46       -1.960315
   47       -1.864937
   48       -1.696374
   49       -1.527699
   50       -1.480828
   51       -1.162480
   52       -1.063864
   53       -0.512119
   54        0.018679
   55        0.541494
   56        1.113500
   57        1.384957
   58        1.493710
   59        1.627997
   60        1.950649
   61        2.088960
   62        2.317859
   63        2.507397
   64        2.645044
   65        2.713262
   66        2.946001
   67        3.029015
   68        3.233496
 
  0.3076923E+00  0.2500000E+00  0.0000000E+00  0.1923077E-01
    1      -13.454187
    2      -12.577260
    3      -12.299332
    4      -12.073141
    5      -11.738843
    6      -11.467208
    7      -11.136304
    8      -11.072827
    9      -10.903676
   10      -10.627806
   11      -10.483390
   12      -10.206108
   13       -9.062842
   14       -8.631356
   15       -7.802379
   16       -7.662567
   17       -7.206815
   18       -7.122281
   19       -7.054801
   20       -6.510459
   21       -6.301902
   22       -6.271931
   23       -6.048700
   24       -6.003909
   25       -5.472357
   26       -5.067531
   27       -5.023723
   28       -4.797383
   29       -4.512980
   30       -4.428654
   31       -4.280872
   32       -4.106672
   33       -4.088431
   34       -3.881096
   35       -3.434462
   36       -3.394411
   37       -3.125011
   38       -3.077125
   39       -2.960882
   40       -2.871458
   41       -2.777166
   42       -2.596978
   43       -2.538847
   44       -2.411871
   45       -2.077380
   46       -2.024250
   47       -1.926818
   48       -1.837726
   49       -1.814751
   50       -1.683435
   51       -1.416777
   52       -1.215522
   53       -0.900273
   54       -0.154663
   55        0.327707
   56        0.890308
   57        1.122410
   58        1.200457
   59        1.273848
   60        1.553112
   61        2.055722
   62        2.148143
   63        2.295643
   64        2.396007
   65        2.528798
   66        2.646113
   67        2.849305
   68        3.062463
 
  0.3846154E+00  0.2500000E+00  0.0000000E+00  0.1923077E-01
    1      -13.149887
    2      -12.074358
    3      -11.848983
    4      -11.676864
    5      -11.345199
    6      -11.220406
    7      -10.834055
    8      -10.813803
    9      -10.693258
   10      -10.559540
   11      -10.423306
   12       -9.954759
   13       -9.053046
   14       -8.917006
   15       -8.204633
   16       -7.894444
   17       -7.866335
   18       -7.479109
   19       -7.451486
   20       -7.078482
   21       -6.835087
   22       -6.789261
   23       -6.749446
   24       -6.278853
   25       -5.435669
   26       -5.082915
   27       -4.926317
   28       -4.873443
   29       -4.604283
   30       -4.451857
   31       -4.208960
   32       -3.993489
   33       -3.952948
   34       -3.776870
   35       -3.459995
   36       -3.443524
   37       -3.373393
   38       -3.239109
   39       -3.208422
   40       -3.015101
   41       -2.835958
   42       -2.728759
   43       -2.583670
   44       -2.421283
   45       -2.320488
   46       -2.227015
   47       -2.158343
   48       -1.957558
   49       -1.763005
   50       -1.644675
   51       -1.588045
   52       -1.346402
   53       -1.104386
   54       -0.260169
   55        0.170389
   56        0.646377
   57        0.975379
   58        1.125334
   59        1.219818
   60        1.373416
   61        1.730247
   62        1.925908
   63        2.034930
   64        2.220405
   65        2.489124
   66        2.551572
   67        2.617782
   68        2.697459
 
  0.4615385E+00  0.2500000E+00  0.0000000E+00  0.1923077E-01
    1      -12.937668
    2      -11.526542
    3      -11.404825
    4      -11.353305
    5      -11.055740
    6      -10.978620
    7      -10.953990
    8      -10.791051
    9      -10.683432
   10      -10.672739
   11      -10.405670
   12       -9.733970
   13       -9.098557
   14       -8.646022
   15       -8.492137
   16       -8.420985
   17       -8.120288
   18       -7.622068
   19       -7.603033
   20       -7.522260
   21       -7.406315
   22       -7.285120
   23       -7.229209
   24       -6.235364
   25       -5.386736
   26       -5.109746
   27       -4.713133
   28       -4.565414
   29       -4.385425
   30       -4.259152
   31       -4.187497
   32       -4.037356
   33       -4.019798
   34       -3.751364
   35       -3.662152
   36       -3.591662
   37       -3.526545
   38       -3.381796
   39       -3.350976
   40       -3.097980
   41       -2.992170
   42       -2.787938
   43       -2.721703
   44       -2.685457
   45       -2.407772
   46       -2.258763
   47       -2.204939
   48       -1.864733
   49       -1.793591
   50       -1.666188
   51       -1.558238
   52       -1.339126
   53       -1.156570
   54       -0.227565
   55        0.069828
   56        0.507758
   57        0.947300
   58        1.259733
   59        1.333301
   60        1.427568
   61        1.486028
   62        1.692743
   63        1.970576
   64        2.133559
   65        2.344359
   66        2.395054
   67        2.452379
   68        2.543002
 
 -0.4615385E+00  0.2500000E+00  0.0000000E+00  0.1923077E-01
    1      -12.938928
    2      -11.628746
    3      -11.401212
    4      -11.161157
    5      -11.030722
    6      -10.941200
    7      -10.898389
    8      -10.849802
    9      -10.793303
   10      -10.728148
   11      -10.409405
   12       -9.745874
   13       -9.040322
   14       -8.847983
   15       -8.527142
   16       -8.175429
   17       -8.035890
   18       -7.801236
   19       -7.696089
   20       -7.399228
   21       -7.371891
   22       -7.311049
   23       -7.186962
   24       -6.184529
   25       -5.456467
   26       -4.827313
   27       -4.670852
   28       -4.598725
   29       -4.463396
   30       -4.269213
   31       -4.139190
   32       -4.099013
   33       -4.041670
   34       -3.977056
   35       -3.761118
   36       -3.737715
   37       -3.586664
   38       -3.448905
   39       -3.264420
   40       -3.088084
   41       -2.891089
   42       -2.865455
   43       -2.759319
   44       -2.480353
   45       -2.410295
   46       -2.252867
   47       -2.215674
   48       -1.938586
   49       -1.801353
   50       -1.599207
   51       -1.531020
   52       -1.266736
   53       -1.142657
   54       -0.123269
   55        0.084540
   56        0.511041
   57        1.111621
   58        1.274689
   59        1.345414
   60        1.566436
   61        1.664842
   62        1.718441
   63        1.960075
   64        2.148002
   65        2.276863
   66        2.395489
   67        2.479252
   68        2.515322
 
 -0.3846154E+00  0.2500000E+00  0.0000000E+00  0.1923077E-01
    1      -13.154120
    2      -12.194664
    3      -11.590932
    4      -11.572581
    5      -11.363498
    6      -11.320391
    7      -11.024863
    8      -10.809583
    9      -10.719902
   10      -10.542589
   11      -10.405936
   12       -9.968993
   13       -8.893074
   14       -8.832771
   15       -8.583745
   16       -7.936012
   17       -7.576956
   18       -7.528200
   19       -7.421572
   20       -7.103728
   21       -6.898178
   22       -6.760441
   23       -6.643525
   24       -6.198636
   25       -5.219191
   26       -5.123185
   27       -4.934990
   28       -4.723080
   29       -4.512475
   30       -4.476144
   31       -4.362842
   32       -4.226430
   33       -4.155752
   34       -3.815072
   35       -3.734088
   36       -3.534766
   37       -3.491611
   38       -3.304071
   39       -3.230524
   40       -2.978597
   41       -2.816516
   42       -2.709175
   43       -2.598105
   44       -2.354383
   45       -2.292656
   46       -2.195586
   47       -2.035435
   48       -1.943104
   49       -1.834689
   50       -1.619660
   51       -1.444708
   52       -1.211065
   53       -1.121169
   54       -0.056235
   55        0.249783
   56        0.652659
   57        1.282408
   58        1.354591
   59        1.501802
   60        1.705231
   61        1.782364
   62        1.982300
   63        2.053839
   64        2.175361
   65        2.333353
   66        2.458035
   67        2.527646
   68        2.645570
 
 -0.3076923E+00  0.2500000E+00  0.0000000E+00  0.1923077E-01
    1      -13.460856
    2      -12.688557
    3      -12.038431
    4      -11.936581
    5      -11.753372
    6      -11.681743
    7      -11.334131
    8      -11.051071
    9      -10.863720
   10      -10.560078
   11      -10.512817
   12      -10.279506
   13       -8.647748
   14       -8.636696
   15       -8.279818
   16       -7.554086
   17       -7.186988
   18       -7.093027
   19       -6.962449
   20       -6.702385
   21       -6.245963
   22       -6.173928
   23       -6.066076
   24       -5.867696
   25       -5.244582
   26       -5.021330
   27       -4.937430
   28       -4.756364
   29       -4.725361
   30       -4.573846
   31       -4.393532
   32       -4.327842
   33       -4.040998
   34       -3.840084
   35       -3.552526
   36       -3.456453
   37       -3.338608
   38       -3.171305
   39       -3.037972
   40       -2.859723
   41       -2.815187
   42       -2.666356
   43       -2.402762
   44       -2.142770
   45       -2.092435
   46       -1.961965
   47       -1.908749
   48       -1.884957
   49       -1.781661
   50       -1.688839
   51       -1.362653
   52       -1.098569
   53       -0.924367
   54        0.002714
   55        0.425420
   56        0.861465
   57        1.528404
   58        1.548033
   59        1.708943
   60        1.834007
   61        1.892582
   62        2.145812
   63        2.206737
   64        2.319064
   65        2.570040
   66        2.605419
   67        2.680922
   68        2.868898
 
 -0.2307692E+00  0.2500000E+00  0.0000000E+00  0.1923077E-01
    1      -13.757610
    2      -13.083694
    3      -12.442870
    4      -12.303515
    5      -12.098007
    6      -11.968096
    7      -11.628714
    8      -11.327160
    9      -11.119969
   10      -10.802873
   11      -10.691780
   12      -10.543568
   13       -8.504340
   14       -8.478248
   15       -7.875643
   16       -7.269758
   17       -6.934135
   18       -6.771032
   19       -6.728555
   20       -6.375711
   21       -5.832408
   22       -5.690690
   23       -5.462351
   24       -5.422383
   25       -4.965248
   26       -4.889933
   27       -4.693922
   28       -4.602992
   29       -4.414808
   30       -4.293940
   31       -4.221275
   32       -3.890952
   33       -3.786575
   34       -3.635540
   35       -3.540849
   36       -3.342468
   37       -3.194050
   38       -3.079160
   39       -3.062057
   40       -2.712267
   41       -2.671881
   42       -2.539545
   43       -2.251999
   44       -2.116187
   45       -1.990639
   46       -1.925172
   47       -1.893819
   48       -1.758442
   49       -1.545952
   50       -1.487518
   51       -1.190186
   52       -0.933772
   53       -0.592671
   54        0.055846
   55        0.626920
   56        1.113364
   57        1.682058
   58        1.759541
   59        1.869341
   60        1.947268
   61        2.131184
   62        2.249208
   63        2.506873
   64        2.624029
   65        2.789504
   66        2.838845
   67        2.892568
   68        3.046883
 
 -0.1538462E+00  0.2500000E+00  0.0000000E+00  0.1923077E-01
    1      -13.991964
    2      -13.367419
    3      -12.758048
    4      -12.595979
    5      -12.362270
    6      -12.174595
    7      -11.844655
    8      -11.561288
    9      -11.352396
   10      -11.046626
   11      -10.894571
   12      -10.718775
   13       -8.511794
   14       -8.457986
   15       -7.631925
   16       -7.198073
   17       -6.883737
   18       -6.742164
   19       -6.643539
   20       -6.175289
   21       -5.782509
   22       -5.368468
   23       -5.000467
   24       -4.938679
   25       -4.815414
   26       -4.378484
   27       -4.253593
   28       -4.039916
   29       -3.950266
   30       -3.812812
   31       -3.728489
   32       -3.637484
   33       -3.365413
   34       -3.229084
   35       -3.110700
   36       -3.018688
   37       -2.979862
   38       -2.878350
   39       -2.697905
   40       -2.604690
   41       -2.528624
   42       -2.293212
   43       -2.221575
   44       -2.125447
   45       -1.993099
   46       -1.878302
   47       -1.708954
   48       -1.679461
   49       -1.375711
   50       -1.265050
   51       -1.022580
   52       -0.800812
   53       -0.265897
   54        0.114052
   55        0.852805
   56        1.270228
   57        1.715455
   58        1.750633
   59        2.065777
   60        2.149425
   61        2.277195
   62        2.386944
   63        2.566620
   64        2.673908
   65        2.744854
   66        2.889049
   67        3.041176
   68        3.157294
 
 -0.7692308E-01  0.2500000E+00  0.0000000E+00  0.1923077E-01
    1      -14.139113
    2      -13.533170
    3      -12.968461
    4      -12.786957
    5      -12.525652