 running on    8 total cores
 distrk:  each k-point on    8 cores,    1 groups
 distr:  one band on    2 cores,    4 groups
 using from now: INCAR     
 vasp.5.3.5 31Mar14 (build Oct 29 2014 16:16:03) complex                        
  
 POSCAR found type information on POSCAR  P  Si
 POSCAR found :  2 types and      24 ions
 scaLAPACK will be used

 ----------------------------------------------------------------------------- 
|                                                                             |
|  ADVICE TO THIS USER RUNNING 'VASP/VAMP'   (HEAR YOUR MASTER'S VOICE ...):  |
|                                                                             |
|      You have switched on vdW-DFT.                                          |
|      This routine was written and supplied by Jiri Klimes.                  |
|      We recommed that you carefully read and cite the following             |
|      publication                                                            |
|      J. Klimes, D.R. Bowler, A. Michelides                                  |
|        J. Phys.: Cond Matt. 22 022201 (2010)                                |
|      J. Klimes, D.R. Bowler, A. Michelides                                  |
|        Phys. Rev. B. 83, 195131 (2011)                                      |
|      and references therein.                                                |
|                                                                             |
 ----------------------------------------------------------------------------- 


 ----------------------------------------------------------------------------- 
|                                                                             |
|  ADVICE TO THIS USER RUNNING 'VASP/VAMP'   (HEAR YOUR MASTER'S VOICE ...):  |
|                                                                             |
|      You enforced a specific xc-type in the INCAR file,                     |
|      a different type was found on the POTCAR file                          |
|          I HOPE YOU KNOW, WHAT YOU ARE  DOING                               |
|                                                                             |
 ----------------------------------------------------------------------------- 

 LDA part: xc-table for Pade appr. of Perdew

 ----------------------------------------------------------------------------- 
|                                                                             |
|           W    W    AA    RRRRR   N    N  II  N    N   GGGG   !!!           |
|           W    W   A  A   R    R  NN   N  II  NN   N  G    G  !!!           |
|           W    W  A    A  R    R  N N  N  II  N N  N  G       !!!           |
|           W WW W  AAAAAA  RRRRR   N  N N  II  N  N N  G  GGG   !            |
|           WW  WW  A    A  R   R   N   NN  II  N   NN  G    G                |
|           W    W  A    A  R    R  N    N  II  N    N   GGGG   !!!           |
|                                                                             |
|      The distance between some ions is very small                           |
|      please check the nearest neigbor list in the OUTCAR file               |
|          I HOPE YOU KNOW, WHAT YOU ARE  DOING                               |
|                                                                             |
 ----------------------------------------------------------------------------- 



 VERY BAD NEWS! internal error in subroutine IBZKPT:
 Reciprocal lattice and k-lattice belong to different class of lattices. Often results are still useful...      96


 VERY BAD NEWS! internal error in subroutine IBZKPT:
 Reciprocal lattice and k-lattice belong to different class of lattices. Often results are still useful...      96


 VERY BAD NEWS! internal error in subroutine IBZKPT:
 Reciprocal lattice and k-lattice belong to different class of lattices. Often results are still useful...      96


 VERY BAD NEWS! internal error in subroutine IBZKPT:
 Reciprocal lattice and k-lattice belong to different class of lattices. Often results are still useful...      96


 VERY BAD NEWS! internal error in subroutine IBZKPT:
 Reciprocal lattice and k-lattice belong to different class of lattices. Often results are still useful...      96


 VERY BAD NEWS! internal error in subroutine IBZKPT:
 Reciprocal lattice and k-lattice belong to different class of lattices. Often results are still useful...      96


 VERY BAD NEWS! internal error in subroutine IBZKPT:
 Reciprocal lattice and k-lattice belong to different class of lattices. Often results are still useful...      96


 VERY BAD NEWS! internal error in subroutine IBZKPT:
 Reciprocal lattice and k-lattice belong to different class of lattices. Often results are still useful...      96
 POSCAR, INCAR and KPOINTS ok, starting setup
 WARNING: small aliasing (wrap around) errors must be expected
 FFT: planning ...
 WAVECAR not read
 entering main loop
       N       E                     dE             d eps       ncg     rms          rms(c)
Total vdW correction in eV:     15.9773656
DAV:   1     0.513770454136E+03    0.51377E+03   -0.28701E+04  7352   0.790E+02
DAV:   2    -0.504028858630E+02   -0.56417E+03   -0.54961E+03  9768   0.190E+02
DAV:   3    -0.108441995943E+03   -0.58039E+02   -0.57203E+02  8960   0.630E+01
DAV:   4    -0.111308285925E+03   -0.28663E+01   -0.28471E+01 11632   0.149E+01
DAV:   5    -0.111357227331E+03   -0.48941E-01   -0.48879E-01  9968   0.196E+00    0.127E+01
Total vdW correction in eV:     16.3986115
DAV:   6    -0.106512874716E+03    0.48444E+01   -0.11579E+01  8956   0.106E+01    0.631E+00
Total vdW correction in eV:     16.8413919
DAV:   7    -0.106780463175E+03   -0.26759E+00   -0.10927E+01  8808   0.738E+00    0.287E+00
Total vdW correction in eV:     16.9513868
DAV:   8    -0.106677233968E+03    0.10323E+00   -0.95404E-01  8940   0.309E+00    0.167E+00
Total vdW correction in eV:     17.1125604
DAV:   9    -0.106701245089E+03   -0.24011E-01   -0.42102E-01  9064   0.182E+00    0.560E-01
Total vdW correction in eV:     17.1690823
DAV:  10    -0.106702943965E+03   -0.16989E-02   -0.81334E-02  9040   0.930E-01    0.231E-01
Total vdW correction in eV:     17.1838074
DAV:  11    -0.106691326103E+03    0.11618E-01   -0.19394E-02  9248   0.380E-01    0.112E-01
Total vdW correction in eV:     17.1929306
DAV:  12    -0.106682127022E+03    0.91991E-02   -0.29690E-03  9024   0.174E-01    0.417E-02
Total vdW correction in eV:     17.1983870
DAV:  13    -0.106678272612E+03    0.38544E-02   -0.67319E-04  9264   0.705E-02    0.249E-02
Total vdW correction in eV:     17.2038568
DAV:  14    -0.106675318860E+03    0.29538E-02   -0.16729E-04  9104   0.386E-02    0.117E-02
Total vdW correction in eV:     17.2070919
DAV:  15    -0.106675202705E+03    0.11616E-03   -0.80701E-05  8720   0.237E-02    0.851E-03
Total vdW correction in eV:     17.2098922
DAV:  16    -0.106675545418E+03   -0.34271E-03   -0.13928E-04  8128   0.274E-02    0.413E-03
Total vdW correction in eV:     17.2103549
DAV:  17    -0.106675907502E+03   -0.36208E-03   -0.11883E-04  8520   0.205E-02    0.306E-03
Total vdW correction in eV:     17.2101849
DAV:  18    -0.106676136925E+03   -0.22942E-03   -0.59149E-05  7776   0.148E-02    0.149E-03
Total vdW correction in eV:     17.2099847
DAV:  19    -0.106676169689E+03   -0.32764E-04   -0.13649E-05  6784   0.830E-03    0.116E-03
Total vdW correction in eV:     17.2096985
DAV:  20    -0.106676147835E+03    0.21854E-04   -0.35007E-05  7272   0.114E-02    0.732E-04
Total vdW correction in eV:     17.2095942
DAV:  21    -0.106676137237E+03    0.10598E-04   -0.13031E-05  6560   0.109E-02    0.569E-04
Total vdW correction in eV:     17.2095277
DAV:  22    -0.106676060996E+03    0.76240E-04   -0.19698E-05  6888   0.116E-02    0.189E-04
Total vdW correction in eV:     17.2095284
DAV:  23    -0.106676041908E+03    0.19088E-04   -0.53675E-06  6320   0.789E-03    0.126E-04
Total vdW correction in eV:     17.2095338
DAV:  24    -0.106676026741E+03    0.15168E-04   -0.63217E-06  6520   0.829E-03    0.591E-05
Total vdW correction in eV:     17.2095356
DAV:  25    -0.106676023632E+03    0.31087E-05   -0.35963E-06  6536   0.643E-03    0.379E-05
Total vdW correction in eV:     17.2095371
DAV:  26    -0.106676024634E+03   -0.10022E-05   -0.35463E-06  6220   0.655E-03    0.166E-05
Total vdW correction in eV:     17.2095361
DAV:  27    -0.106676023240E+03    0.13946E-05   -0.14375E-06  5668   0.452E-03    0.101E-05
Total vdW correction in eV:     17.2095367
DAV:  28    -0.106676022063E+03    0.11768E-05   -0.14417E-06  6028   0.456E-03    0.783E-06
Total vdW correction in eV:     17.2095366
DAV:  29    -0.106676022014E+03    0.49186E-07   -0.10591E-06  5264   0.423E-03
Total vdW correction in eV:     17.2095364
Total vdW correction in eV:     17.2095366
   1 F= -.10667602E+03 E0= -.10665975E+03  d E =-.325515E-01
