 vasp.5.3.5 31Mar14 (build Oct 29 2014 16:16:03) complex                        
  
 executed on          Linux-UFHPC date 2016.02.09  18:21:16
 running on    8 total cores
 distrk:  each k-point on    8 cores,    1 groups
 distr:  one band on NCORES_PER_BAND=   2 cores,    4 groups


--------------------------------------------------------------------------------------------------------


 INCAR:
 POTCAR:    PAW_PBE P 17Jan2003                   
 POTCAR:   PAW_PBE Si 05Jan2001                   

 ----------------------------------------------------------------------------- 
|                                                                             |
|  ADVICE TO THIS USER RUNNING 'VASP/VAMP'   (HEAR YOUR MASTER'S VOICE ...):  |
|                                                                             |
|      You have switched on vdW-DFT.                                          |
|      This routine was written and supplied by Jiri Klimes.                  |
|      We recommed that you carefully read and cite the following             |
|      publication                                                            |
|      J. Klimes, D.R. Bowler, A. Michelides                                  |
|        J. Phys.: Cond Matt. 22 022201 (2010)                                |
|      J. Klimes, D.R. Bowler, A. Michelides                                  |
|        Phys. Rev. B. 83, 195131 (2011)                                      |
|      and references therein.                                                |
|                                                                             |
 ----------------------------------------------------------------------------- 

 POTCAR:    PAW_PBE P 17Jan2003                   
   VRHFIN =P : s2p3                                                             
   LEXCH  = PE                                                                  
   EATOM  =   176.0430 eV,   12.9388 Ry                                         
                                                                                
   TITEL  = PAW_PBE P 17Jan2003                                                 
   LULTRA =        F    use ultrasoft PP ?                                      
   IUNSCR =        1    unscreen: 0-lin 1-nonlin 2-no                           
   RPACOR =    1.500    partial core radius                                     
   POMASS =   30.974; ZVAL   =    5.000    mass and valenz                      
   RCORE  =    1.900    outmost cutoff radius                                   
   RWIGS  =    2.330; RWIGS  =    1.233    wigner-seitz radius (au A)           
   ENMAX  =  270.000; ENMIN  =  191.280 eV                                      
   ICORE  =        2    local potential                                         
   LCOR   =        T    correct aug charges                                     
   LPAW   =        T    paw PP                                                  
   EAUG   =  342.924                                                            
   DEXC   =    -.002                                                            
   RMAX   =    2.887    core radius for proj-oper                               
   RAUG   =    1.300    factor for augmentation sphere                          
   RDEP   =    1.931    radius for radial grids                                 
   QCUT   =   -4.330; QGAM   =    8.659    optimization parameters              
                                                                                
   Description                                                                  
     l     E      TYP  RCUT    TYP  RCUT                                        
     0   .000     23  1.900                                                     
     0   .000     23  1.900                                                     
     1   .000     23  1.900                                                     
     1   .000     23  1.900                                                     
     2   .000     23  1.900                                                     
  local pseudopotential read in
  partial core-charges read in
  atomic valenz-charges read in
  non local Contribution for L=           0  read in
    real space projection operators read in
  non local Contribution for L=           0  read in
    real space projection operators read in
  non local Contribution for L=           1  read in
    real space projection operators read in
  non local Contribution for L=           1  read in
    real space projection operators read in
    PAW grid and wavefunctions read in
 
   number of l-projection  operators is LMAX  =           4
   number of lm-projection operators is LMMAX =           8
 
 POTCAR:   PAW_PBE Si 05Jan2001                   
   VRHFIN =Si: s2p2                                                             
   LEXCH  = PE                                                                  
   EATOM  =   103.0669 eV,    7.5752 Ry                                         
                                                                                
   TITEL  = PAW_PBE Si 05Jan2001                                                
   LULTRA =        F    use ultrasoft PP ?                                      
   IUNSCR =        1    unscreen: 0-lin 1-nonlin 2-no                           
   RPACOR =    1.500    partial core radius                                     
   POMASS =   28.085; ZVAL   =    4.000    mass and valenz                      
   RCORE  =    1.900    outmost cutoff radius                                   
   RWIGS  =    2.480; RWIGS  =    1.312    wigner-seitz radius (au A)           
   ENMAX  =  245.345; ENMIN  =  184.009 eV                                      
   ICORE  =        2    local potential                                         
   LCOR   =        T    correct aug charges                                     
   LPAW   =        T    paw PP                                                  
   EAUG   =  322.069                                                            
   DEXC   =    -.007                                                            
   RMAX   =    2.944    core radius for proj-oper                               
   RAUG   =    1.300    factor for augmentation sphere                          
   RDEP   =    1.993    radius for radial grids                                 
   QCUT   =   -4.246; QGAM   =    8.493    optimization parameters              
                                                                                
   Description                                                                  
     l     E      TYP  RCUT    TYP  RCUT                                        
     0   .000     23  1.900                                                     
     0   .000     23  1.900                                                     
     1   .000     23  1.900                                                     
     1   .000     23  1.900                                                     
     2   .000      7  1.900                                                     
  local pseudopotential read in
  partial core-charges read in
  atomic valenz-charges read in
  non local Contribution for L=           0  read in
    real space projection operators read in
  non local Contribution for L=           0  read in
    real space projection operators read in
  non local Contribution for L=           1  read in
    real space projection operators read in
  non local Contribution for L=           1  read in
    real space projection operators read in
    PAW grid and wavefunctions read in
 
   number of l-projection  operators is LMAX  =           4
   number of lm-projection operators is LMMAX =           8
 
 Optimization of the real space projectors (new method)

 maximal supplied QI-value         = 19.84
 optimisation between [QCUT,QGAM] = [  8.73, 17.66] = [ 21.34, 87.33] Ry 
 Optimized for a Real-space Cutoff    1.50 Angstroem

   l    n(q)    QCUT    max X(q) W(low)/X(q) W(high)/X(q)  e(spline) 
   0      8     8.731     6.651    0.16E-04    0.15E-04    0.77E-08
   0      8     8.731    90.285    0.16E-03    0.90E-04    0.16E-06
   1      7     8.731     4.328    0.47E-04    0.36E-04    0.45E-07
   1      7     8.731    54.583    0.13E-03    0.39E-03    0.20E-06
 Optimization of the real space projectors (new method)

 maximal supplied QI-value         = 19.84
 optimisation between [QCUT,QGAM] = [  8.73, 17.66] = [ 21.34, 87.33] Ry 
 Optimized for a Real-space Cutoff    1.46 Angstroem

   l    n(q)    QCUT    max X(q) W(low)/X(q) W(high)/X(q)  e(spline) 
   0      8     8.731     8.708    0.16E-04    0.11E-04    0.68E-08
   0      8     8.731   106.241    0.24E-03    0.77E-04    0.13E-06
   1      7     8.731     5.901    0.34E-04    0.38E-04    0.36E-07
   1      7     8.731    73.241    0.12E-03    0.39E-03    0.15E-06

 ----------------------------------------------------------------------------- 
|                                                                             |
|  ADVICE TO THIS USER RUNNING 'VASP/VAMP'   (HEAR YOUR MASTER'S VOICE ...):  |
|                                                                             |
|      You enforced a specific xc-type in the INCAR file,                     |
|      a different type was found on the POTCAR file                          |
|          I HOPE YOU KNOW, WHAT YOU ARE  DOING                               |
|                                                                             |
 ----------------------------------------------------------------------------- 

  PAW_PBE P 17Jan2003                   :
 energy of atom  1       EATOM= -176.0430
 kinetic energy error for atom=    0.0040 (will be added to EATOM!!)
 PAW_PBE Si 05Jan2001                   :
 energy of atom  2       EATOM= -103.0669
 kinetic energy error for atom=    0.0021 (will be added to EATOM!!)
 
 
 POSCAR: Si12                                    
  positions in direct lattice
  No initial velocities read in
 exchange correlation table for  LEXCH =       42
   RHO(1)=    0.500       N(1)  =     2000
   RHO(2)=  100.500       N(2)  =     4000
 


--------------------------------------------------------------------------------------------------------


 ion  position               nearest neighbor table
   1  0.114  0.228  0.233-  15 2.28  21 2.29  21 2.29
   2  0.714  0.028  0.515-  16 2.28  22 2.29  22 2.29
   3  0.458  0.916  0.209-  21 2.28  13 2.30  13 2.30
   4  0.058  0.716  0.491-  22 2.28  14 2.30  14 2.30
   5  0.311  0.622  0.084-  17 2.28  23 2.30  23 2.30
   6  0.311  0.622  0.366-  14 2.23  18 2.28  24 2.31
   7  0.999  0.998  0.086-  19 2.29  19 2.29  13 2.32
   8  0.999  0.998  0.368-  20 2.29  20 2.29
   9  0.655  0.310  0.060-  19 2.28  17 2.29  17 2.29
  10  0.655  0.310  0.342-  20 2.28  18 2.29  18 2.29  24 2.79
  11  0.770  0.539  0.207-  15 2.29  15 2.29  23 2.32
  12  0.370  0.339  0.489-  16 2.29  16 2.29  24 2.32
  13  0.940  0.879  0.158-   3 2.30   3 2.30   7 2.32  23 2.35
  14  0.540  0.679  0.440-   6 2.23   4 2.30   4 2.30  24 2.35
  15  0.205  0.410  0.186-   1 2.28  11 2.29  11 2.29  17 2.37
  16  0.805  0.210  0.468-   2 2.28  12 2.29  12 2.29  20 2.41
  17  0.202  0.404  0.100-   5 2.28   9 2.29   9 2.29  15 2.37
  18  0.202  0.404  0.382-  24 1.34   6 2.28  10 2.29  10 2.29  24 3.05
  19  0.564  0.128  0.108-   9 2.28   7 2.29   7 2.29  21 2.37
  20  0.564  0.128  0.390-  10 2.28   8 2.29   8 2.29  16 2.41
  21  0.567  0.134  0.194-   3 2.28   1 2.29   1 2.29  19 2.37
  22  0.167  0.934  0.476-   4 2.28   2 2.29   2 2.29
  23  0.829  0.658  0.136-   5 2.30   5 2.30  11 2.32  13 2.35
  24  0.429  0.458  0.418-  18 1.34   6 2.31  12 2.32  14 2.35  10 2.79  18 3.05
 

 ----------------------------------------------------------------------------- 
|                                                                             |
|           W    W    AA    RRRRR   N    N  II  N    N   GGGG   !!!           |
|           W    W   A  A   R    R  NN   N  II  NN   N  G    G  !!!           |
|           W    W  A    A  R    R  N N  N  II  N N  N  G       !!!           |
|           W WW W  AAAAAA  RRRRR   N  N N  II  N  N N  G  GGG   !            |
|           WW  WW  A    A  R   R   N   NN  II  N   NN  G    G                |
|           W    W  A    A  R    R  N    N  II  N    N   GGGG   !!!           |
|                                                                             |
|      The distance between some ions is very small                           |
|      please check the nearest neigbor list in the OUTCAR file               |
|          I HOPE YOU KNOW, WHAT YOU ARE  DOING                               |
|                                                                             |
 ----------------------------------------------------------------------------- 

  LATTYP: Found a base centered orthorhombic cell.
 ALAT       =     3.5404000000
 B/A-ratio  =     5.8153587165
 C/A-ratio  =     7.7678875268
  
  Lattice vectors:
  
 A1 = (   1.7702000000,  10.2943480000,   0.0000000000)
 A2 = (   1.7702000000, -10.2943480000,   0.0000000000)
 A3 = (   0.0000000000,   0.0000000000, -27.5014290000)


Analysis of symmetry for initial positions (statically):
=====================================================================
 Subroutine PRICEL returns:
 Original cell was already a primitive cell.
 

 Routine SETGRP: Setting up the symmetry group for a 
 base centered orthorhombic supercell.


 Subroutine GETGRP returns: Found  1 space group operations
 (whereof  1 operations were pure point group operations)
 out of a pool of  8 trial point group operations.


The static configuration has the point symmetry C_1 .


Analysis of symmetry for dynamics (positions and initial velocities):
=====================================================================
 Subroutine PRICEL returns:
 Original cell was already a primitive cell.
 

 Routine SETGRP: Setting up the symmetry group for a 
 base centered orthorhombic supercell.


 Subroutine GETGRP returns: Found  1 space group operations
 (whereof  1 operations were pure point group operations)
 out of a pool of  8 trial point group operations.


The dynamic configuration has the point symmetry C_1 .
 
 
 KPOINTS: pymatgen generated KPOINTS with grid den

Automatic generation of k-mesh.
Space group operators:
 irot       det(A)        alpha          n_x          n_y          n_z        tau_x        tau_y        tau_z
    1     1.000000     0.000000     1.000000     0.000000     0.000000     0.000000     0.000000     0.000000
 
 Subroutine IBZKPT returns following result:
 ===========================================
 
 Found     54 irreducible k-points:
 
 Following reciprocal coordinates:
            Coordinates               Weight
  0.000000  0.000000  0.000000      1.000000
  0.076923 -0.000000  0.000000      2.000000
  0.153846 -0.000000  0.000000      2.000000
  0.230769 -0.000000  0.000000      2.000000
  0.307692 -0.000000  0.000000      2.000000
  0.384615 -0.000000  0.000000      2.000000
  0.461538 -0.000000  0.000000      2.000000
  0.000000  0.250000  0.000000      2.000000
  0.076923  0.250000  0.000000      2.000000
  0.153846  0.250000  0.000000      2.000000
  0.230769  0.250000  0.000000      2.000000
  0.307692  0.250000  0.000000      2.000000
  0.384615  0.250000  0.000000      2.000000
  0.461538  0.250000  0.000000      2.000000
 -0.461538  0.250000  0.000000      2.000000
 -0.384615  0.250000  0.000000      2.000000
 -0.307692  0.250000  0.000000      2.000000
 -0.230769  0.250000  0.000000      2.000000
 -0.153846  0.250000  0.000000      2.000000
 -0.076923  0.250000  0.000000      2.000000
  0.000000  0.500000  0.000000      1.000000
  0.076923  0.500000  0.000000      2.000000
  0.153846  0.500000  0.000000      2.000000
  0.230769  0.500000  0.000000      2.000000
  0.307692  0.500000  0.000000      2.000000
  0.384615  0.500000  0.000000      2.000000
  0.461538  0.500000  0.000000      2.000000
  0.000000  0.000000  0.500000      1.000000
  0.076923 -0.000000  0.500000      2.000000
  0.153846 -0.000000  0.500000      2.000000
  0.230769 -0.000000  0.500000      2.000000
  0.307692 -0.000000  0.500000      2.000000
  0.384615 -0.000000  0.500000      2.000000
  0.461538 -0.000000  0.500000      2.000000
  0.000000  0.250000  0.500000      2.000000
  0.076923  0.250000  0.500000      2.000000
  0.153846  0.250000  0.500000      2.000000
  0.230769  0.250000  0.500000      2.000000
  0.307692  0.250000  0.500000      2.000000
  0.384615  0.250000  0.500000      2.000000
  0.461538  0.250000  0.500000      2.000000
 -0.461538  0.250000  0.500000      2.000000
 -0.384615  0.250000  0.500000      2.000000
 -0.307692  0.250000  0.500000      2.000000
 -0.230769  0.250000  0.500000      2.000000
 -0.153846  0.250000  0.500000      2.000000
 -0.076923  0.250000  0.500000      2.000000
  0.000000  0.500000  0.500000      1.000000
  0.076923  0.500000  0.500000      2.000000
  0.153846  0.500000  0.500000      2.000000
  0.230769  0.500000  0.500000      2.000000
  0.307692  0.500000  0.500000      2.000000
  0.384615  0.500000  0.500000      2.000000
  0.461538  0.500000  0.500000      2.000000
 
 Following cartesian coordinates:
            Coordinates               Weight
  0.000000  0.000000  0.000000      1.000000
  0.021727  0.003736  0.000000      2.000000
  0.043454  0.007472  0.000000      2.000000
  0.065182  0.011209  0.000000      2.000000
  0.086909  0.014945  0.000000      2.000000
  0.108636  0.018681  0.000000      2.000000
  0.130363  0.022417  0.000000      2.000000
  0.000000  0.024285  0.000000      2.000000
  0.021727  0.028021  0.000000      2.000000
  0.043454  0.031758  0.000000      2.000000
  0.065182  0.035494  0.000000      2.000000
  0.086909  0.039230  0.000000      2.000000
  0.108636  0.042966  0.000000      2.000000
  0.130363  0.046702  0.000000      2.000000
 -0.130363  0.001868  0.000000      2.000000
 -0.108636  0.005604  0.000000      2.000000
 -0.086909  0.009340  0.000000      2.000000
 -0.065182  0.013077  0.000000      2.000000
 -0.043454  0.016813  0.000000      2.000000
 -0.021727  0.020549  0.000000      2.000000
  0.000000  0.048570  0.000000      1.000000
  0.021727  0.052307  0.000000      2.000000
  0.043454  0.056043  0.000000      2.000000
  0.065182  0.059779  0.000000      2.000000
  0.086909  0.063515  0.000000      2.000000
  0.108636  0.067251  0.000000      2.000000
  0.130363  0.070987  0.000000      2.000000
  0.000000  0.000000  0.018181      1.000000
  0.021727  0.003736  0.018181      2.000000
  0.043454  0.007472  0.018181      2.000000
  0.065182  0.011209  0.018181      2.000000
  0.086909  0.014945  0.018181      2.000000
  0.108636  0.018681  0.018181      2.000000
  0.130363  0.022417  0.018181      2.000000
  0.000000  0.024285  0.018181      2.000000
  0.021727  0.028021  0.018181      2.000000
  0.043454  0.031758  0.018181      2.000000
  0.065182  0.035494  0.018181      2.000000
  0.086909  0.039230  0.018181      2.000000
  0.108636  0.042966  0.018181      2.000000
  0.130363  0.046702  0.018181      2.000000
 -0.130363  0.001868  0.018181      2.000000
 -0.108636  0.005604  0.018181      2.000000
 -0.086909  0.009340  0.018181      2.000000
 -0.065182  0.013077  0.018181      2.000000
 -0.043454  0.016813  0.018181      2.000000
 -0.021727  0.020549  0.018181      2.000000
  0.000000  0.048570  0.018181      1.000000
  0.021727  0.052307  0.018181      2.000000
  0.043454  0.056043  0.018181      2.000000
  0.065182  0.059779  0.018181      2.000000
  0.086909  0.063515  0.018181      2.000000
  0.108636  0.067251  0.018181      2.000000
  0.130363  0.070987  0.018181      2.000000
 


--------------------------------------------------------------------------------------------------------




 Dimension of arrays:
   k-points           NKPTS =     54   k-points in BZ     NKDIM =     54   number of bands    NBANDS=     68
   number of dos      NEDOS =    301   number of ions     NIONS =     24
   non local maximal  LDIM  =      4   non local SUM 2l+1 LMDIM =      8
   total plane-waves  NPLWV = 192000
   max r-space proj   IRMAX =   2772   max aug-charges    IRDMAX=   6603
   dimension x,y,z NGX =    20 NGY =   60 NGZ =  160
   dimension x,y,z NGXF=    40 NGYF=  120 NGZF=  320
   support grid    NGXF=    40 NGYF=  120 NGZF=  320
   ions per type =              12  12
 NGX,Y,Z   is equivalent  to a cutoff of   9.39,  9.55,  9.67 a.u.
 NGXF,Y,Z  is equivalent  to a cutoff of  18.78, 19.10, 19.34 a.u.


 I would recommend the setting:
   dimension x,y,z NGX =    20 NGY =   59 NGZ =  155
 SYSTEM =  unknown system                          
 POSCAR =  Si12                                    

 Startparameter for this run:
   NWRITE =      2    write-flag & timer
   PREC   = accura    normal or accurate (medium, high low for compatibility)
   ISTART =      0    job   : 0-new  1-cont  2-samecut
   ICHARG =      2    charge: 1-file 2-atom 10-const
   ISPIN  =      1    spin polarized calculation?
   LNONCOLLINEAR =      F non collinear calculations
   LSORBIT =      F    spin-orbit coupling
   INIWAV =      1    electr: 0-lowe 1-rand  2-diag
   LASPH  =      F    aspherical Exc in radial PAW
   METAGGA=      F    non-selfconsistent MetaGGA calc.

 Electronic Relaxation 1
   ENCUT  =  300.0 eV  22.05 Ry    4.70 a.u.   5.00 14.75 38.84*2*pi/ulx,y,z
   ENINI  =  300.0     initial cutoff
   ENAUG  =  342.9 eV  augmentation charge cutoff
   NELM   =     60;   NELMIN=  2; NELMDL= -5     # of ELM steps 
   EDIFF  = 0.1E-05   stopping-criterion for ELM
   LREAL  =      T    real-space projection
   NLSPLINE    = F    spline interpolate recip. space projectors
   LCOMPAT=      F    compatible to vasp.4.4
   GGA_COMPAT  = T    GGA compatible to vasp.4.4-vasp.4.6
   LMAXPAW     = -100 max onsite density
   LMAXMIX     =    2 max onsite mixed and CHGCAR
   VOSKOWN=      0    Vosko Wilk Nusair interpolation
   ROPT   =   -0.00025  -0.00025
 Ionic relaxation
   EDIFFG = 0.1E-04   stopping-criterion for IOM
   NSW    =      0    number of steps for IOM
   NBLOCK =      1;   KBLOCK =      1    inner block; outer block 
   IBRION =     -1    ionic relax: 0-MD 1-quasi-New 2-CG
   NFREE  =      1    steps in history (QN), initial steepest desc. (CG)
   ISIF   =      3    stress and relaxation
   IWAVPR =     10    prediction:  0-non 1-charg 2-wave 3-comb
   ISYM   =      2    0-nonsym 1-usesym 2-fastsym
   LCORR  =      T    Harris-Foulkes like correction to forces

   POTIM  = 0.5000    time-step for ionic-motion
   TEIN   =    0.0    initial temperature
   TEBEG  =    0.0;   TEEND  =   0.0 temperature during run
   SMASS  =  -3.00    Nose mass-parameter (am)
   estimated Nose-frequenzy (Omega)   =  0.10E-29 period in steps =****** mass=  -0.286E-27a.u.
   SCALEE = 1.0000    scale energy and forces
   NPACO  =    256;   APACO  = 16.0  distance and # of slots for P.C.
   PSTRESS=    0.0 pullay stress

  Mass of Ions in am
   POMASS =  30.97 28.09
  Ionic Valenz
   ZVAL   =   5.00  4.00
  Atomic Wigner-Seitz radii
   RWIGS  =  -1.00 -1.00
  virtual crystal weights 
   VCA    =   1.00  1.00
   NELECT =     108.0000    total number of electrons
   NUPDOWN=      -1.0000    fix difference up-down

 DOS related values:
   EMIN   =  10.00;   EMAX   =-10.00  energy-range for DOS
   EFERMI =   0.00
   ISMEAR =     0;   SIGMA  =   0.10  broadening in eV -4-tet -1-fermi 0-gaus

 Electronic relaxation 2 (details)
   IALGO  =     38    algorithm
   LDIAG  =      T    sub-space diagonalisation (order eigenvalues)
   LSUBROT=      F    optimize rotation matrix (better conditioning)
   TURBO    =      0    0=normal 1=particle mesh
   IRESTART =      0    0=no restart 2=restart with 2 vectors
   NREBOOT  =      0    no. of reboots
   NMIN     =      0    reboot dimension
   EREF     =   0.00    reference energy to select bands
   IMIX   =      4    mixing-type and parameters
     AMIX     =   0.40;   BMIX     =  1.00
     AMIX_MAG =   1.60;   BMIX_MAG =  1.00
     AMIN     =   0.10
     WC   =   100.;   INIMIX=   1;  MIXPRE=   1;  MAXMIX= -45

 Intra band minimization:
   WEIMIN = 0.0000     energy-eigenvalue tresh-hold
   EBREAK =  0.37E-08  absolut break condition
   DEPER  =   0.30     relativ break condition  

   TIME   =   0.40     timestep for ELM

  volume/ion in A,a.u.               =      41.76       281.83
  Fermi-wavevector in a.u.,A,eV,Ry     =   0.779018  1.472130  8.256946  0.606868
  Thomas-Fermi vector in A             =   1.882034
 
 Write flags
   LWAVE  =      F    write WAVECAR
   LCHARG =      F    write CHGCAR
   LVTOT  =      F    write LOCPOT, total local potential
   LVHAR  =      F    write LOCPOT, Hartree potential only
   LELF   =      F    write electronic localiz. function (ELF)
   LORBIT =      0    0 simple, 1 ext, 2 COOP (PROOUT)


 Dipole corrections
   LMONO  =      F    monopole corrections only (constant potential shift)
   LDIPOL =      F    correct potential (dipole corrections)
   IDIPOL =      0    1-x, 2-y, 3-z, 4-all directions 
   EPSILON=  1.0000000 bulk dielectric constant

 Exchange correlation treatment:
   GGA     =    BO    GGA type
   LEXCH   =    42    internal setting for exchange type
   VOSKOWN=      0    Vosko Wilk Nusair interpolation
   LHFCALC =     F    Hartree Fock is set to
   LHFONE  =     F    Hartree Fock one center treatment
   AEXX    =    0.0000 exact exchange contribution

 vdW DFT:
   LUSE_VDW   =     T    switch on vdW DFT
   Zab_VDW    =-.8491    correlation parameter
   PARAM1     =0.1833
   PARAM2     =0.2200
   PARAM3     =0.0000

 Linear response parameters
   LEPSILON=     F    determine dielectric tensor
   LRPA    =     F    only Hartree local field effects (RPA)
   LNABLA  =     F    use nabla operator in PAW spheres
   LVEL    =     F    velocity operator in full k-point grid
   LINTERFAST=   F  fast interpolation
   KINTER  =     0    interpolate to denser k-point grid
   CSHIFT  =0.1000    complex shift for real part using Kramers Kronig
   OMEGAMAX=  -1.0    maximum frequency
   DEG_THRESHOLD= 0.2000000E-02 threshold for treating states as degnerate
   RTIME   =    0.100 relaxation time in fs

 Orbital magnetization related:
   ORBITALMAG=     F  switch on orbital magnetization
   LCHIMAG   =     F  perturbation theory with respect to B field
   DQ        =  0.001000  dq finite difference perturbation B field



--------------------------------------------------------------------------------------------------------


 Static calculation
 charge density and potential will be updated during run
 non-spin polarized calculation
 Variant of blocked Davidson
 Davidson routine will perform the subspace rotation
 perform sub-space diagonalisation
    after iterative eigenvector-optimisation
 modified Broyden-mixing scheme, WC =      100.0
 initial mixing is a Kerker type mixing with AMIX =  0.4000 and BMIX =      1.0000
 Hartree-type preconditioning will be used
 using additional bands           14
 real space projection scheme for non local part
 use partial core corrections
 calculate Harris-corrections to forces 
   (improved forces if not selfconsistent)
 use gradient corrections 
 use of overlap-Matrix (Vanderbilt PP)
 Gauss-broadening in eV      SIGMA  =   0.10


--------------------------------------------------------------------------------------------------------


  energy-cutoff  :      300.00
  volume of cell :     1002.32
      direct lattice vectors                 reciprocal lattice vectors
     3.540400000  0.000000000  0.000000000     0.282453960  0.048570342  0.000000000
    -1.770200000 10.294348000  0.000000000     0.000000000  0.097140683  0.000000000
     0.000000000  0.000000000 27.501429000     0.000000000  0.000000000  0.036361747

  length of vectors
     3.540400000 10.445439617 27.501429000     0.286599577  0.097140683  0.036361747


 
 k-points in units of 2pi/SCALE and weight: pymatgen generated KPOINTS with grid den
   0.00000000  0.00000000  0.00000000       0.010
   0.02172723  0.00373618  0.00000000       0.019
   0.04345446  0.00747236  0.00000000       0.019
   0.06518168  0.01120854  0.00000000       0.019
   0.08690891  0.01494472  0.00000000       0.019
   0.10863614  0.01868090  0.00000000       0.019
   0.13036337  0.02241708  0.00000000       0.019
   0.00000000  0.02428517  0.00000000       0.019
   0.02172723  0.02802135  0.00000000       0.019
   0.04345446  0.03175753  0.00000000       0.019
   0.06518168  0.03549371  0.00000000       0.019
   0.08690891  0.03922989  0.00000000       0.019
   0.10863614  0.04296607  0.00000000       0.019
   0.13036337  0.04670225  0.00000000       0.019
  -0.13036337  0.00186809  0.00000000       0.019
  -0.10863614  0.00560427  0.00000000       0.019
  -0.08690891  0.00934045  0.00000000       0.019
  -0.06518168  0.01307663  0.00000000       0.019
  -0.04345446  0.01681281  0.00000000       0.019
  -0.02172723  0.02054899  0.00000000       0.019
   0.00000000  0.04857034  0.00000000       0.010
   0.02172723  0.05230652  0.00000000       0.019
   0.04345446  0.05604270  0.00000000       0.019
   0.06518168  0.05977888  0.00000000       0.019
   0.08690891  0.06351506  0.00000000       0.019
   0.10863614  0.06725124  0.00000000       0.019
   0.13036337  0.07098742  0.00000000       0.019
   0.00000000  0.00000000  0.01818087       0.010
   0.02172723  0.00373618  0.01818087       0.019
   0.04345446  0.00747236  0.01818087       0.019
   0.06518168  0.01120854  0.01818087       0.019
   0.08690891  0.01494472  0.01818087       0.019
   0.10863614  0.01868090  0.01818087       0.019
   0.13036337  0.02241708  0.01818087       0.019
   0.00000000  0.02428517  0.01818087       0.019
   0.02172723  0.02802135  0.01818087       0.019
   0.04345446  0.03175753  0.01818087       0.019
   0.06518168  0.03549371  0.01818087       0.019
   0.08690891  0.03922989  0.01818087       0.019
   0.10863614  0.04296607  0.01818087       0.019
   0.13036337  0.04670225  0.01818087       0.019
  -0.13036337  0.00186809  0.01818087       0.019
  -0.10863614  0.00560427  0.01818087       0.019
  -0.08690891  0.00934045  0.01818087       0.019
  -0.06518168  0.01307663  0.01818087       0.019
  -0.04345446  0.01681281  0.01818087       0.019
  -0.02172723  0.02054899  0.01818087       0.019
   0.00000000  0.04857034  0.01818087       0.010
   0.02172723  0.05230652  0.01818087       0.019
   0.04345446  0.05604270  0.01818087       0.019
   0.06518168  0.05977888  0.01818087       0.019
   0.08690891  0.06351506  0.01818087       0.019
   0.10863614  0.06725124  0.01818087       0.019
   0.13036337  0.07098742  0.01818087       0.019
 
 k-points in reciprocal lattice and weights: pymatgen generated KPOINTS with grid den
   0.00000000  0.00000000  0.00000000       0.010
   0.07692308 -0.00000000  0.00000000       0.019
   0.15384615 -0.00000000  0.00000000       0.019
   0.23076923 -0.00000000  0.00000000       0.019
   0.30769231 -0.00000000  0.00000000       0.019
   0.38461538 -0.00000000  0.00000000       0.019
   0.46153846 -0.00000000  0.00000000       0.019
   0.00000000  0.25000000  0.00000000       0.019
   0.07692308  0.25000000  0.00000000       0.019
   0.15384615  0.25000000  0.00000000       0.019
   0.23076923  0.25000000  0.00000000       0.019
   0.30769231  0.25000000  0.00000000       0.019
   0.38461538  0.25000000  0.00000000       0.019
   0.46153846  0.25000000  0.00000000       0.019
  -0.46153846  0.25000000  0.00000000       0.019
  -0.38461538  0.25000000  0.00000000       0.019
  -0.30769231  0.25000000  0.00000000       0.019
  -0.23076923  0.25000000  0.00000000       0.019
  -0.15384615  0.25000000  0.00000000       0.019
  -0.07692308  0.25000000  0.00000000       0.019
   0.00000000  0.50000000  0.00000000       0.010
   0.07692308  0.50000000  0.00000000       0.019
   0.15384615  0.50000000  0.00000000       0.019
   0.23076923  0.50000000  0.00000000       0.019
   0.30769231  0.50000000  0.00000000       0.019
   0.38461538  0.50000000  0.00000000       0.019
   0.46153846  0.50000000  0.00000000       0.019
   0.00000000  0.00000000  0.50000000       0.010
   0.07692308 -0.00000000  0.50000000       0.019
   0.15384615 -0.00000000  0.50000000       0.019
   0.23076923 -0.00000000  0.50000000       0.019
   0.30769231 -0.00000000  0.50000000       0.019
   0.38461538 -0.00000000  0.50000000       0.019
   0.46153846 -0.00000000  0.50000000       0.019
   0.00000000  0.25000000  0.50000000       0.019
   0.07692308  0.25000000  0.50000000       0.019
   0.15384615  0.25000000  0.50000000       0.019
   0.23076923  0.25000000  0.50000000       0.019
   0.30769231  0.25000000  0.50000000       0.019
   0.38461538  0.25000000  0.50000000       0.019
   0.46153846  0.25000000  0.50000000       0.019
  -0.46153846  0.25000000  0.50000000       0.019
  -0.38461538  0.25000000  0.50000000       0.019
  -0.30769231  0.25000000  0.50000000       0.019
  -0.23076923  0.25000000  0.50000000       0.019
  -0.15384615  0.25000000  0.50000000       0.019
  -0.07692308  0.25000000  0.50000000       0.019
   0.00000000  0.50000000  0.50000000       0.010
   0.07692308  0.50000000  0.50000000       0.019
   0.15384615  0.50000000  0.50000000       0.019
   0.23076923  0.50000000  0.50000000       0.019
   0.30769231  0.50000000  0.50000000       0.019
   0.38461538  0.50000000  0.50000000       0.019
   0.46153846  0.50000000  0.50000000       0.019
 
 position of ions in fractional coordinates (direct lattice) 
   0.11402300  0.22804500  0.23316207
   0.71402300  0.02804500  0.51499159
   0.45808900  0.91617900  0.20939482
   0.05808900  0.71617900  0.49122434
   0.31085400  0.62170900  0.08414979
   0.31085400  0.62170900  0.36597930
   0.99923000  0.99846000  0.08631254
   0.99923000  0.99846000  0.36814206
   0.65492700  0.30985400  0.06041748
   0.65492700  0.30985400  0.34224700
   0.76973800  0.53947500  0.20725292
   0.36973800  0.33947500  0.48908244
   0.93971600  0.87943300  0.15783749
   0.53971600  0.67943300  0.43966701
   0.20515200  0.41030300  0.18578822
   0.80515200  0.21030300  0.46761774
   0.20184900  0.40369900  0.09969156
   0.20184900  0.40369900  0.38152107
   0.56380500  0.12761000  0.10779021
   0.56380500  0.12761000  0.38961973
   0.56710600  0.13421200  0.19387616
   0.16710600  0.93421200  0.47570568
   0.82923400  0.65846800  0.13571444
   0.42923400  0.45846800  0.41754396
 
 position of ions in cartesian coordinates  (Angst):
   0.00000177  2.34757459  6.41229012
   2.47828177  0.28870499 14.16300462
  -0.00000177  9.43146546  5.75865686
  -1.06212177  7.37259586 13.50937136
  -0.00000177  6.40008880  2.31423934
  -0.00000177  6.40008880 10.06495384
   1.77020000 10.27849470  2.37371832
   1.77020000 10.27849470 10.12443282
   1.77020000  3.18974491  1.66156717
   1.77020000  3.18974491  9.41228167
   1.77020177  5.55354339  5.69975143
   0.70808177  3.49467379 13.45046593
   1.77019823  9.05318934  4.34075665
   0.70807823  6.99431974 12.09147115
   0.00000177  4.22380187  5.10944151
   2.47828177  2.16493227 12.86015601
  -0.00000177  4.15581799  2.74166024
  -0.00000177  4.15581799 10.49237474
   1.77020000  1.31366175  2.96438477
   1.77020000  1.31366175 10.71509927
   1.77020000  1.38162503  5.33187152
  -1.06212000  9.61710343 13.08258602
   1.77020000  6.77849874  3.73234107
   0.70808000  4.71962914 11.48305557
 


--------------------------------------------------------------------------------------------------------


 k-point  1 :   0.0000 0.0000 0.0000  plane waves:   11717
 k-point  2 :   0.0769-0.0000 0.0000  plane waves:   11762
 k-point  3 :   0.1538-0.0000 0.0000  plane waves:   11805
 k-point  4 :   0.2308-0.0000 0.0000  plane waves:   11824
 k-point  5 :   0.3077-0.0000 0.0000  plane waves:   11875
 k-point  6 :   0.3846-0.0000 0.0000  plane waves:   11864
 k-point  7 :   0.4615-0.0000 0.0000  plane waves:   11883
 k-point  8 :   0.0000 0.2500 0.0000  plane waves:   11683
 k-point  9 :   0.0769 0.2500 0.0000  plane waves:   11756
 k-point 10 :   0.1538 0.2500 0.0000  plane waves:   11807
 k-point 11 :   0.2308 0.2500 0.0000  plane waves:   11853
 k-point 12 :   0.3077 0.2500 0.0000  plane waves:   11866
 k-point 13 :   0.3846 0.2500 0.0000  plane waves:   11889
 k-point 14 :   0.4615 0.2500 0.0000  plane waves:   11885
 k-point 15 :  -0.4615 0.2500 0.0000  plane waves:   11886
 k-point 16 :  -0.3846 0.2500 0.0000  plane waves:   11867
 k-point 17 :  -0.3077 0.2500 0.0000  plane waves:   11849
 k-point 18 :  -0.2308 0.2500 0.0000  plane waves:   11827
 k-point 19 :  -0.1538 0.2500 0.0000  plane waves:   11801
 k-point 20 :  -0.0769 0.2500 0.0000  plane waves:   11757
 k-point 21 :   0.0000 0.5000 0.0000  plane waves:   11710
 k-point 22 :   0.0769 0.5000 0.0000  plane waves:   11762
 k-point 23 :   0.1538 0.5000 0.0000  plane waves:   11782
 k-point 24 :   0.2308 0.5000 0.0000  plane waves:   11841
 k-point 25 :   0.3077 0.5000 0.0000  plane waves:   11876
 k-point 26 :   0.3846 0.5000 0.0000  plane waves:   11889
 k-point 27 :   0.4615 0.5000 0.0000  plane waves:   11881
 k-point 28 :   0.0000 0.0000 0.5000  plane waves:   11698
 k-point 29 :   0.0769-0.0000 0.5000  plane waves:   11752
 k-point 30 :   0.1538-0.0000 0.5000  plane waves:   11800
 k-point 31 :   0.2308-0.0000 0.5000  plane waves:   11834
 k-point 32 :   0.3077-0.0000 0.5000  plane waves:   11850
 k-point 33 :   0.3846-0.0000 0.5000  plane waves:   11888
 k-point 34 :   0.4615-0.0000 0.5000  plane waves:   11896
 k-point 35 :   0.0000 0.2500 0.5000  plane waves:   11714
 k-point 36 :   0.0769 0.2500 0.5000  plane waves:   11754
 k-point 37 :   0.1538 0.2500 0.5000  plane waves:   11802
 k-point 38 :   0.2308 0.2500 0.5000  plane waves:   11840
 k-point 39 :   0.3077 0.2500 0.5000  plane waves:   11858
 k-point 40 :   0.3846 0.2500 0.5000  plane waves:   11896
 k-point 41 :   0.4615 0.2500 0.5000  plane waves:   11886
 k-point 42 :  -0.4615 0.2500 0.5000  plane waves:   11852
 k-point 43 :  -0.3846 0.2500 0.5000  plane waves:   11838
 k-point 44 :  -0.3077 0.2500 0.5000  plane waves:   11842
 k-point 45 :  -0.2308 0.2500 0.5000  plane waves:   11840
 k-point 46 :  -0.1538 0.2500 0.5000  plane waves:   11804
 k-point 47 :  -0.0769 0.2500 0.5000  plane waves:   11748
 k-point 48 :   0.0000 0.5000 0.5000  plane waves:   11724
 k-point 49 :   0.0769 0.5000 0.5000  plane waves:   11748
 k-point 50 :   0.1538 0.5000 0.5000  plane waves:   11814
 k-point 51 :   0.2308 0.5000 0.5000  plane waves:   11832
 k-point 52 :   0.3077 0.5000 0.5000  plane waves:   11868
 k-point 53 :   0.3846 0.5000 0.5000  plane waves:   11892
 k-point 54 :   0.4615 0.5000 0.5000  plane waves:   11878

 maximum and minimum number of plane-waves per node :      5964     5832

 maximum number of plane-waves:     11896
 maximum index in each direction: 
   IXMAX=    5   IYMAX=   14   IZMAX=   38
   IXMIN=   -5   IYMIN=  -15   IZMIN=  -39

 WARNING: aliasing errors must be expected set NGX to  22 to avoid them
 NGY is ok and might be reduce to  60
 NGZ is ok and might be reduce to 156
 aliasing errors are usually negligible using standard VASP settings
 and one can safely disregard these warnings

 real space projection operators:
  total allocation   :       3793.25 KBytes
  max/ min on nodes  :       1899.38       1893.88


 parallel 3D FFT for wavefunctions:
    minimum data exchange during FFTs selected (reduces bandwidth)
 parallel 3D FFT for charge:
    minimum data exchange during FFTs selected (reduces bandwidth)


 total amount of memory used by VASP on root node   146493. kBytes
========================================================================

   base      :      30000. kBytes
   nonlr-proj:       3452. kBytes
   fftplans  :       9347. kBytes
   grid      :      14649. kBytes
   one-center:         36. kBytes
   wavefun   :      89009. kBytes
 
     INWAV:  cpu time    0.00: real time    0.00
 Broyden mixing: mesh for mixing (old mesh)
   NGX =  9   NGY = 29   NGZ = 77
  (NGX  = 40   NGY  =120   NGZ  =320)
  gives a total of  20097 points

 initial charge density was supplied:
 charge density of overlapping atoms calculated
 number of electron     108.0000000 magnetization 
 keeping initial charge density in first step


--------------------------------------------------------------------------------------------------------


 Maximum index for non-local projection operator         1333
 Maximum index for augmentation-charges          822 (set IRDMAX)


--------------------------------------------------------------------------------------------------------


 First call to EWALD:  gamma=   0.177
 Maximum number of real-space cells 7x 3x 1
 Maximum number of reciprocal cells 1x 3x 7

 FEWALD executed in parallel
    FEWALD:  cpu time    0.00: real time    0.00


----------------------------------------- Iteration    1(   1)  ---------------------------------------


vdW kernel read from vdw_kernel.bindat
  0.0000  0.2424  0.5071  0.7962  1.1119  1.4567  1.8333  2.2446  2.6937  3.1842
  3.7199  4.3049  4.9438  5.6415  6.4036  7.2358  8.1446  9.1372 10.2212 11.4050
 12.6979 14.1099 15.6519 17.3360 19.1751 21.1837 23.3773 25.7729 28.3892 31.2465
 34.3669 37.7748 41.4965 45.5611 50.0000
 
    POTLOK:  cpu time   16.22: real time   16.29
    SETDIJ:  cpu time    0.02: real time    0.02
     EDDAV:  cpu time   67.84: real time   68.25
       DOS:  cpu time    0.01: real time    0.01
    --------------------------------------------
      LOOP:  cpu time   84.09: real time   84.57

 eigenvalue-minimisations  :  7352
 total energy-change (2. order) : 0.5137705E+03  (-0.2870129E+04)
 number of electron     108.0000000 magnetization 
 augmentation part      108.0000000 magnetization 

 Free energy of the ion-electron system (eV)
  ---------------------------------------------------
  alpha Z        PSCENC =        36.80884744
  Ewald energy   TEWEN  =     11981.43893892
  -Hartree energ DENC   =    -15002.49096709
  -exchange      EXHF   =         0.00000000
  -V(xc)+E(xc)   XCENC  =       -87.66209880
  PAW double counting   =      1056.43050070     -732.41190547
  entropy T*S    EENTRO =        -0.04313716
  eigenvalues    EBANDS =       -92.34098486
  atomic energy  EATOM  =      3354.04126044
  ---------------------------------------------------
  free energy    TOTEN  =       513.77045414 eV

  energy without entropy =      513.81359130  energy(sigma->0) =      513.79202272


--------------------------------------------------------------------------------------------------------




----------------------------------------- Iteration    1(   2)  ---------------------------------------


     EDDAV:  cpu time   84.90: real time   85.31
       DOS:  cpu time    0.01: real time    0.01
    --------------------------------------------
      LOOP:  cpu time   84.92: real time   85.33

 eigenvalue-minimisations  :  9768
 total energy-change (2. order) :-0.5641733E+03  (-0.5496105E+03)
 number of electron     108.0000000 magnetization 
 augmentation part      108.0000000 magnetization 

 Free energy of the ion-electron system (eV)
  ---------------------------------------------------
  alpha Z        PSCENC =        36.80884744
  Ewald energy   TEWEN  =     11981.43893892
  -Hartree energ DENC   =    -15002.49096709
  -exchange      EXHF   =         0.00000000
  -V(xc)+E(xc)   XCENC  =       -87.66209880
  PAW double counting   =      1056.43050070     -732.41190547
  entropy T*S    EENTRO =        -0.01695346
  eigenvalues    EBANDS =      -656.54050855
  atomic energy  EATOM  =      3354.04126044
  ---------------------------------------------------
  free energy    TOTEN  =       -50.40288586 eV

  energy without entropy =      -50.38593240  energy(sigma->0) =      -50.39440913


--------------------------------------------------------------------------------------------------------




----------------------------------------- Iteration    1(   3)  ---------------------------------------


     EDDAV:  cpu time   84.11: real time   84.36
       DOS:  cpu time    0.01: real time    0.01
    --------------------------------------------
      LOOP:  cpu time   84.12: real time   84.38

 eigenvalue-minimisations  :  8960
 total energy-change (2. order) :-0.5803911E+02  (-0.5720297E+02)
 number of electron     108.0000000 magnetization 
 augmentation part      108.0000000 magnetization 

 Free energy of the ion-electron system (eV)
  ---------------------------------------------------
  alpha Z        PSCENC =        36.80884744
  Ewald energy   TEWEN  =     11981.43893892
  -Hartree energ DENC   =    -15002.49096709
  -exchange      EXHF   =         0.00000000
  -V(xc)+E(xc)   XCENC  =       -87.66209880
  PAW double counting   =      1056.43050070     -732.41190547
  entropy T*S    EENTRO =        -0.02892335
  eigenvalues    EBANDS =      -714.56764875
  atomic energy  EATOM  =      3354.04126044
  ---------------------------------------------------
  free energy    TOTEN  =      -108.44199594 eV

  energy without entropy =     -108.41307260  energy(sigma->0) =     -108.42753427


--------------------------------------------------------------------------------------------------------




----------------------------------------- Iteration    1(   4)  ---------------------------------------


     EDDAV:  cpu time   95.84: real time   96.44
       DOS:  cpu time    0.01: real time    0.01
    --------------------------------------------
      LOOP:  cpu time   95.85: real time   96.46

 eigenvalue-minimisations  : 11632
 total energy-change (2. order) :-0.2866290E+01  (-0.2847070E+01)
 number of electron     108.0000000 magnetization 
 augmentation part      108.0000000 magnetization 

 Free energy of the ion-electron system (eV)
  ---------------------------------------------------
  alpha Z        PSCENC =        36.80884744
  Ewald energy   TEWEN  =     11981.43893892
  -Hartree energ DENC   =    -15002.49096709
  -exchange      EXHF   =         0.00000000
  -V(xc)+E(xc)   XCENC  =       -87.66209880
  PAW double counting   =      1056.43050070     -732.41190547
  entropy T*S    EENTRO =        -0.03338331
  eigenvalues    EBANDS =      -717.42947877
  atomic energy  EATOM  =      3354.04126044
  ---------------------------------------------------
  free energy    TOTEN  =      -111.30828593 eV

  energy without entropy =     -111.27490261  energy(sigma->0) =     -111.29159427


--------------------------------------------------------------------------------------------------------




----------------------------------------- Iteration    1(   5)  ---------------------------------------


     EDDAV:  cpu time   89.39: real time   89.91
       DOS:  cpu time    0.01: real time    0.01
    CHARGE:  cpu time    4.59: real time    4.62
    MIXING:  cpu time    0.01: real time    0.01
    --------------------------------------------
      LOOP:  cpu time   94.01: real time   94.56

 eigenvalue-minimisations  :  9968
 total energy-change (2. order) :-0.4894141E-01  (-0.4887927E-01)
 number of electron     107.9999994 magnetization 
 augmentation part       -9.7449466 magnetization 

 Broyden mixing:
  rms(total) = 0.12730E+01    rms(broyden)= 0.12727E+01
  rms(prec ) = 0.13722E+01
  weight for this iteration     100.00

 Free energy of the ion-electron system (eV)
  ---------------------------------------------------
  alpha Z        PSCENC =        36.80884744
  Ewald energy   TEWEN  =     11981.43893892
  -Hartree energ DENC   =    -15002.49096709
  -exchange      EXHF   =         0.00000000
  -V(xc)+E(xc)   XCENC  =       -87.66209880
  PAW double counting   =      1056.43050070     -732.41190547
  entropy T*S    EENTRO =        -0.03359292
  eigenvalues    EBANDS =      -717.47821057
  atomic energy  EATOM  =      3354.04126044
  ---------------------------------------------------
  free energy    TOTEN  =      -111.35722733 eV

  energy without entropy =     -111.32363442  energy(sigma->0) =     -111.34043087


--------------------------------------------------------------------------------------------------------




----------------------------------------- Iteration    1(   6)  ---------------------------------------


    POTLOK:  cpu time   14.59: real time   14.68
    SETDIJ:  cpu time    0.01: real time    0.01
     EDDAV:  cpu time   78.51: real time   78.61
       DOS:  cpu time    0.01: real time    0.01
    CHARGE:  cpu time    4.42: real time    4.42
    MIXING:  cpu time    0.01: real time    0.01
    --------------------------------------------
      LOOP:  cpu time   97.56: real time   97.75

 eigenvalue-minimisations  :  8956
 total energy-change (2. order) : 0.4844353E+01  (-0.1157937E+01)
 number of electron     107.9999995 magnetization 
 augmentation part       -9.5612964 magnetization 

 Broyden mixing:
  rms(total) = 0.63101E+00    rms(broyden)= 0.63098E+00
  rms(prec ) = 0.66445E+00
  weight for this iteration     100.00

 eigenvalues of (default mixing * dielectric matrix)
  average eigenvalue GAMMA=   1.5970
  1.5970

 Free energy of the ion-electron system (eV)
  ---------------------------------------------------
  alpha Z        PSCENC =        36.80884744
  Ewald energy   TEWEN  =     11981.43893892
  -Hartree energ DENC   =    -15049.79416929
  -exchange      EXHF   =         0.00000000
  -V(xc)+E(xc)   XCENC  =       -84.37012599
  PAW double counting   =      1128.78581504     -806.99768473
  entropy T*S    EENTRO =        -0.02546346
  eigenvalues    EBANDS =      -666.40029310
  atomic energy  EATOM  =      3354.04126044
  ---------------------------------------------------
  free energy    TOTEN  =      -106.51287472 eV

  energy without entropy =     -106.48741126  energy(sigma->0) =     -106.50014299


--------------------------------------------------------------------------------------------------------




----------------------------------------- Iteration    1(   7)  ---------------------------------------


    POTLOK:  cpu time   14.57: real time   14.58
    SETDIJ:  cpu time    0.01: real time    0.01
     EDDAV:  cpu time   78.59: real time   78.72
       DOS:  cpu time    0.01: real time    0.01
    CHARGE:  cpu time    4.59: real time    4.60
    MIXING:  cpu time    0.01: real time    0.01
    --------------------------------------------
      LOOP:  cpu time   97.79: real time   97.94

 eigenvalue-minimisations  :  8808
 total energy-change (2. order) :-0.2675885E+00  (-0.1092711E+01)
 number of electron     107.9999995 magnetization 
 augmentation part       -9.4441774 magnetization 

 Broyden mixing:
  rms(total) = 0.28696E+00    rms(broyden)= 0.28686E+00
  rms(prec ) = 0.30586E+00
  weight for this iteration     100.00

 eigenvalues of (default mixing * dielectric matrix)
  average eigenvalue GAMMA=   1.2544
  1.1042  1.4046

 Free energy of the ion-electron system (eV)
  ---------------------------------------------------
  alpha Z        PSCENC =        36.80884744
  Ewald energy   TEWEN  =     11981.43893892
  -Hartree energ DENC   =    -15075.98459994
  -exchange      EXHF   =         0.00000000
  -V(xc)+E(xc)   XCENC  =       -81.45071348
  PAW double counting   =      1180.25939448     -859.99660545
  entropy T*S    EENTRO =        -0.03337502
  eigenvalues    EBANDS =      -641.86361057
  atomic energy  EATOM  =      3354.04126044
  ---------------------------------------------------
  free energy    TOTEN  =      -106.78046318 eV

  energy without entropy =     -106.74708816  energy(sigma->0) =     -106.76377567


--------------------------------------------------------------------------------------------------------




----------------------------------------- Iteration    1(   8)  ---------------------------------------


    POTLOK:  cpu time   14.66: real time   14.67
    SETDIJ:  cpu time    0.01: real time    0.01
     EDDAV:  cpu time   79.66: real time   79.76
       DOS:  cpu time    0.01: real time    0.01
    CHARGE:  cpu time    4.38: real time    4.39
    MIXING:  cpu time    0.01: real time    0.01
    --------------------------------------------
      LOOP:  cpu time   98.74: real time   98.86

 eigenvalue-minimisations  :  8940
 total energy-change (2. order) : 0.1032292E+00  (-0.9540436E-01)
 number of electron     107.9999995 magnetization 
 augmentation part       -9.4481095 magnetization 

 Broyden mixing:
  rms(total) = 0.16741E+00    rms(broyden)= 0.16740E+00
  rms(prec ) = 0.17645E+00
  weight for this iteration     100.00

 eigenvalues of (default mixing * dielectric matrix)
  average eigenvalue GAMMA=   1.4786
  2.2306  1.1025  1.1025

 Free energy of the ion-electron system (eV)
  ---------------------------------------------------
  alpha Z        PSCENC =        36.80884744
  Ewald energy   TEWEN  =     11981.43893892
  -Hartree energ DENC   =    -15084.68573348
  -exchange      EXHF   =         0.00000000
  -V(xc)+E(xc)   XCENC  =       -80.80077230
  PAW double counting   =      1184.72728663     -864.58292393
  entropy T*S    EENTRO =        -0.02998937
  eigenvalues    EBANDS =      -633.59414833
  atomic energy  EATOM  =      3354.04126044
  ---------------------------------------------------
  free energy    TOTEN  =      -106.67723397 eV

  energy without entropy =     -106.64724460  energy(sigma->0) =     -106.66223928


--------------------------------------------------------------------------------------------------------




----------------------------------------- Iteration    1(   9)  ---------------------------------------


    POTLOK:  cpu time   14.60: real time   14.63
    SETDIJ:  cpu time    0.01: real time    0.01
     EDDAV:  cpu time   78.55: real time   78.64
       DOS:  cpu time    0.01: real time    0.01
    CHARGE:  cpu time    4.46: real time    4.47
    MIXING:  cpu time    0.02: real time    0.02
    --------------------------------------------
      LOOP:  cpu time   97.65: real time   97.79

 eigenvalue-minimisations  :  9064
 total energy-change (2. order) :-0.2401112E-01  (-0.4210218E-01)
 number of electron     107.9999995 magnetization 
 augmentation part       -9.4429486 magnetization 

 Broyden mixing:
  rms(total) = 0.55996E-01    rms(broyden)= 0.55989E-01
  rms(prec ) = 0.64776E-01
  weight for this iteration     100.00

 eigenvalues of (default mixing * dielectric matrix)
  average eigenvalue GAMMA=   1.3848
  2.5075  1.1349  1.1349  0.7619

 Free energy of the ion-electron system (eV)
  ---------------------------------------------------
  alpha Z        PSCENC =        36.80884744
  Ewald energy   TEWEN  =     11981.43893892
  -Hartree energ DENC   =    -15091.44668661
  -exchange      EXHF   =         0.00000000
  -V(xc)+E(xc)   XCENC  =       -79.88354694
  PAW double counting   =      1192.55436828     -872.64779332
  entropy T*S    EENTRO =        -0.03379320
  eigenvalues    EBANDS =      -627.53284012
  atomic energy  EATOM  =      3354.04126044
  ---------------------------------------------------
  free energy    TOTEN  =      -106.70124509 eV

  energy without entropy =     -106.66745189  energy(sigma->0) =     -106.68434849


--------------------------------------------------------------------------------------------------------




----------------------------------------- Iteration    1(  10)  ---------------------------------------


    POTLOK:  cpu time   14.65: real time   14.67
    SETDIJ:  cpu time    0.02: real time    0.02
     EDDAV:  cpu time   83.18: real time   83.30
       DOS:  cpu time    0.01: real time    0.01
    CHARGE:  cpu time    4.06: real time    4.06
    MIXING:  cpu time    0.01: real time    0.01
    --------------------------------------------
      LOOP:  cpu time  101.94: real time  102.08

 eigenvalue-minimisations  :  9040
 total energy-change (2. order) :-0.1698876E-02  (-0.8133423E-02)
 number of electron     107.9999995 magnetization 
 augmentation part       -9.4372160 magnetization 

 Broyden mixing:
  rms(total) = 0.23116E-01    rms(broyden)= 0.23113E-01
  rms(prec ) = 0.25263E-01
  weight for this iteration     100.00

 eigenvalues of (default mixing * dielectric matrix)
  average eigenvalue GAMMA=   1.4056
  2.5441  1.4072  1.1802  1.1802  0.7166

 Free energy of the ion-electron system (eV)
  ---------------------------------------------------
  alpha Z        PSCENC =        36.80884744
  Ewald energy   TEWEN  =     11981.43893892
  -Hartree energ DENC   =    -15097.22756957
  -exchange      EXHF   =         0.00000000
  -V(xc)+E(xc)   XCENC  =       -79.59021210
  PAW double counting   =      1194.52834174     -874.69233765
  entropy T*S    EENTRO =        -0.03232350
  eigenvalues    EBANDS =      -621.97788970
  atomic energy  EATOM  =      3354.04126044
  ---------------------------------------------------
  free energy    TOTEN  =      -106.70294396 eV

  energy without entropy =     -106.67062047  energy(sigma->0) =     -106.68678222


--------------------------------------------------------------------------------------------------------




----------------------------------------- Iteration    1(  11)  ---------------------------------------


    POTLOK:  cpu time   14.48: real time   14.49
    SETDIJ:  cpu time    0.01: real time    0.01
     EDDAV:  cpu time   78.44: real time   78.53
       DOS:  cpu time    0.01: real time    0.01
    CHARGE:  cpu time    4.55: real time    4.55
    MIXING:  cpu time    0.01: real time    0.01
    --------------------------------------------
      LOOP:  cpu time   97.50: real time   97.62

 eigenvalue-minimisations  :  9248
 total energy-change (2. order) : 0.1161786E-01  (-0.1939354E-02)
 number of electron     107.9999995 magnetization 
 augmentation part       -9.4382221 magnetization 

 Broyden mixing:
  rms(total) = 0.11156E-01    rms(broyden)= 0.11154E-01
  rms(prec ) = 0.12712E-01
  weight for this iteration     100.00

 eigenvalues of (default mixing * dielectric matrix)
  average eigenvalue GAMMA=   1.4015
  2.6330  1.8701  1.1461  1.1461  0.9050  0.7085

 Free energy of the ion-electron system (eV)
  ---------------------------------------------------
  alpha Z        PSCENC =        36.80884744
  Ewald energy   TEWEN  =     11981.43893892
  -Hartree energ DENC   =    -15098.38706736
  -exchange      EXHF   =         0.00000000
  -V(xc)+E(xc)   XCENC  =       -79.56266634
  PAW double counting   =      1192.29342362     -872.40216804
  entropy T*S    EENTRO =        -0.03247945
  eigenvalues    EBANDS =      -620.88941536
  atomic energy  EATOM  =      3354.04126044
  ---------------------------------------------------
  free energy    TOTEN  =      -106.69132610 eV

  energy without entropy =     -106.65884666  energy(sigma->0) =     -106.67508638


--------------------------------------------------------------------------------------------------------




----------------------------------------- Iteration    1(  12)  ---------------------------------------


    POTLOK:  cpu time   14.62: real time   14.65
    SETDIJ:  cpu time    0.01: real time    0.01
     EDDAV:  cpu time   83.44: real time   83.53
       DOS:  cpu time    0.01: real time    0.01
    CHARGE:  cpu time    4.50: real time    4.50
    MIXING:  cpu time    0.02: real time    0.02
    --------------------------------------------
      LOOP:  cpu time  102.60: real time  102.73

 eigenvalue-minimisations  :  9024
 total energy-change (2. order) : 0.9199081E-02  (-0.2969018E-03)
 number of electron     107.9999995 magnetization 
 augmentation part       -9.4405916 magnetization 

 Broyden mixing:
  rms(total) = 0.41734E-02    rms(broyden)= 0.41727E-02
  rms(prec ) = 0.56748E-02
  weight for this iteration     100.00

 eigenvalues of (default mixing * dielectric matrix)
  average eigenvalue GAMMA=   1.3980
  2.6757  2.0039  1.1469  1.1469  1.1690  0.7168  0.9266

 Free energy of the ion-electron system (eV)
  ---------------------------------------------------
  alpha Z        PSCENC =        36.80884744
  Ewald energy   TEWEN  =     11981.43893892
  -Hartree energ DENC   =    -15099.27730361
  -exchange      EXHF   =         0.00000000
  -V(xc)+E(xc)   XCENC  =       -79.54842419
  PAW double counting   =      1190.92375618     -870.99425554
  entropy T*S    EENTRO =        -0.03254630
  eigenvalues    EBANDS =      -620.04240038
  atomic energy  EATOM  =      3354.04126044
  ---------------------------------------------------
  free energy    TOTEN  =      -106.68212702 eV

  energy without entropy =     -106.64958072  energy(sigma->0) =     -106.66585387


--------------------------------------------------------------------------------------------------------




----------------------------------------- Iteration    1(  13)  ---------------------------------------


    POTLOK:  cpu time   14.64: real time   14.65
    SETDIJ:  cpu time    0.01: real time    0.01
     EDDAV:  cpu time   79.01: real time   79.03
       DOS:  cpu time    0.01: real time    0.01
    CHARGE:  cpu time    4.26: real time    4.26
    MIXING:  cpu time    0.01: real time    0.01
    --------------------------------------------
      LOOP:  cpu time   97.96: real time   97.98

 eigenvalue-minimisations  :  9264
 total energy-change (2. order) : 0.3854410E-02  (-0.6731878E-04)
 number of electron     107.9999995 magnetization 
 augmentation part       -9.4403410 magnetization 

 Broyden mixing:
  rms(total) = 0.24883E-02    rms(broyden)= 0.24881E-02
  rms(prec ) = 0.37466E-02
  weight for this iteration     100.00

 eigenvalues of (default mixing * dielectric matrix)
  average eigenvalue GAMMA=   1.4573
  2.7761  2.4217  1.5462  1.1107  1.1107  0.7208  0.9862  0.9862

 Free energy of the ion-electron system (eV)
  ---------------------------------------------------
  alpha Z        PSCENC =        36.80884744
  Ewald energy   TEWEN  =     11981.43893892
  -Hartree energ DENC   =    -15100.33870875
  -exchange      EXHF   =         0.00000000
  -V(xc)+E(xc)   XCENC  =       -79.54143792
  PAW double counting   =      1190.41824362     -870.47563617
  entropy T*S    EENTRO =        -0.03249495
  eigenvalues    EBANDS =      -618.99728526
  atomic energy  EATOM  =      3354.04126044
  ---------------------------------------------------
  free energy    TOTEN  =      -106.67827261 eV

  energy without entropy =     -106.64577767  energy(sigma->0) =     -106.66202514


--------------------------------------------------------------------------------------------------------




----------------------------------------- Iteration    1(  14)  ---------------------------------------


    POTLOK:  cpu time   14.50: real time   14.51
    SETDIJ:  cpu time    0.01: real time    0.01
     EDDAV:  cpu time   84.55: real time   84.57
       DOS:  cpu time    0.01: real time    0.01
    CHARGE:  cpu time    4.52: real time    4.52
    MIXING:  cpu time    0.02: real time    0.02
    --------------------------------------------
      LOOP:  cpu time  103.62: real time  103.64

 eigenvalue-minimisations  :  9104
 total energy-change (2. order) : 0.2953752E-02  (-0.1672872E-04)
 number of electron     107.9999995 magnetization 
 augmentation part       -9.4400348 magnetization 

 Broyden mixing:
  rms(total) = 0.11697E-02    rms(broyden)= 0.11696E-02
  rms(prec ) = 0.21345E-02
  weight for this iteration     100.00

 eigenvalues of (default mixing * dielectric matrix)
  average eigenvalue GAMMA=   1.4906
  2.9218  2.5151  1.7855  1.1252  1.1252  1.2372  0.7230  0.9912  0.9912

 Free energy of the ion-electron system (eV)
  ---------------------------------------------------
  alpha Z        PSCENC =        36.80884744
  Ewald energy   TEWEN  =     11981.43893892
  -Hartree energ DENC   =    -15101.49926537
  -exchange      EXHF   =         0.00000000
  -V(xc)+E(xc)   XCENC  =       -79.53624908
  PAW double counting   =      1190.00377587     -870.05118826
  entropy T*S    EENTRO =        -0.03254743
  eigenvalues    EBANDS =      -617.84889140
  atomic energy  EATOM  =      3354.04126044
  ---------------------------------------------------
  free energy    TOTEN  =      -106.67531886 eV

  energy without entropy =     -106.64277143  energy(sigma->0) =     -106.65904514


--------------------------------------------------------------------------------------------------------




----------------------------------------- Iteration    1(  15)  ---------------------------------------


    POTLOK:  cpu time   14.73: real time   14.74
    SETDIJ:  cpu time    0.01: real time    0.01
     EDDAV:  cpu time   76.54: real time   76.55
       DOS:  cpu time    0.01: real time    0.01
    CHARGE:  cpu time    4.43: real time    4.43
    MIXING:  cpu time    0.01: real time    0.01
    --------------------------------------------
      LOOP:  cpu time   95.74: real time   95.76

 eigenvalue-minimisations  :  8720
 total energy-change (2. order) : 0.1161556E-03  (-0.8070084E-05)
 number of electron     107.9999995 magnetization 
 augmentation part       -9.4397567 magnetization 

 Broyden mixing:
  rms(total) = 0.85130E-03    rms(broyden)= 0.85125E-03
  rms(prec ) = 0.14238E-02
  weight for this iteration     100.00

 eigenvalues of (default mixing * dielectric matrix)
  average eigenvalue GAMMA=   1.6089
  3.6905  2.6603  2.0590  1.7221  1.1305  1.1305  0.7238  1.0010  0.9858  0.9858

 Free energy of the ion-electron system (eV)
  ---------------------------------------------------
  alpha Z        PSCENC =        36.80884744
  Ewald energy   TEWEN  =     11981.43893892
  -Hartree energ DENC   =    -15102.36215963
  -exchange      EXHF   =         0.00000000
  -V(xc)+E(xc)   XCENC  =       -79.53067114
  PAW double counting   =      1189.98060361     -870.02795405
  entropy T*S    EENTRO =        -0.03254462
  eigenvalues    EBANDS =      -616.99152368
  atomic energy  EATOM  =      3354.04126044
  ---------------------------------------------------
  free energy    TOTEN  =      -106.67520270 eV

  energy without entropy =     -106.64265809  energy(sigma->0) =     -106.65893040


--------------------------------------------------------------------------------------------------------




----------------------------------------- Iteration    1(  16)  ---------------------------------------


    POTLOK:  cpu time   14.80: real time   14.80
    SETDIJ:  cpu time    0.01: real time    0.01
     EDDAV:  cpu time   73.72: real time   73.74
       DOS:  cpu time    0.01: real time    0.01
    CHARGE:  cpu time    4.51: real time    4.51
    MIXING:  cpu time    0.01: real time    0.01
    --------------------------------------------
      LOOP:  cpu time   93.07: real time   93.09

 eigenvalue-minimisations  :  8128
 total energy-change (2. order) :-0.3427130E-03  (-0.1392772E-04)
 number of electron     107.9999995 magnetization 
 augmentation part       -9.4397431 magnetization 

 Broyden mixing:
  rms(total) = 0.41309E-03    rms(broyden)= 0.41306E-03
  rms(prec ) = 0.68874E-03
  weight for this iteration     100.00

 eigenvalues of (default mixing * dielectric matrix)
  average eigenvalue GAMMA=   1.6788
  4.5615  2.7391  2.2707  1.7985  1.1271  1.1271  1.1982  0.7233  1.0673  0.9270
  0.9270

 Free energy of the ion-electron system (eV)
  ---------------------------------------------------
  alpha Z        PSCENC =        36.80884744
  Ewald energy   TEWEN  =     11981.43893892
  -Hartree energ DENC   =    -15103.24405861
  -exchange      EXHF   =         0.00000000
  -V(xc)+E(xc)   XCENC  =       -79.52618070
  PAW double counting   =      1189.96541000     -870.01229382
  entropy T*S    EENTRO =        -0.03254822
  eigenvalues    EBANDS =      -616.11492087
  atomic energy  EATOM  =      3354.04126044
  ---------------------------------------------------
  free energy    TOTEN  =      -106.67554542 eV

  energy without entropy =     -106.64299720  energy(sigma->0) =     -106.65927131


--------------------------------------------------------------------------------------------------------




----------------------------------------- Iteration    1(  17)  ---------------------------------------


    POTLOK:  cpu time   14.80: real time   14.81
    SETDIJ:  cpu time    0.01: real time    0.01
     EDDAV:  cpu time   76.35: real time   76.37
       DOS:  cpu time    0.01: real time    0.01
    CHARGE:  cpu time    4.47: real time    4.47
    MIXING:  cpu time    0.02: real time    0.02
    --------------------------------------------
      LOOP:  cpu time   95.67: real time   95.70

 eigenvalue-minimisations  :  8520
 total energy-change (2. order) :-0.3620846E-03  (-0.1188334E-04)
 number of electron     107.9999995 magnetization 
 augmentation part       -9.4396910 magnetization 

 Broyden mixing:
  rms(total) = 0.30573E-03    rms(broyden)= 0.30571E-03
  rms(prec ) = 0.47263E-03
  weight for this iteration     100.00

 eigenvalues of (default mixing * dielectric matrix)
  average eigenvalue GAMMA=   1.7842
  5.6673  2.7739  2.4740  1.8308  1.7312  1.1283  1.1283  0.7231  1.0573  1.0573
  0.9194  0.9194

 Free energy of the ion-electron system (eV)
  ---------------------------------------------------
  alpha Z        PSCENC =        36.80884744
  Ewald energy   TEWEN  =     11981.43893892
  -Hartree energ DENC   =    -15103.59998457
  -exchange      EXHF   =         0.00000000
  -V(xc)+E(xc)   XCENC  =       -79.52441232
  PAW double counting   =      1189.99453480     -870.04209861
  entropy T*S    EENTRO =        -0.03255266
  eigenvalues    EBANDS =      -615.76044096
  atomic energy  EATOM  =      3354.04126044
  ---------------------------------------------------
  free energy    TOTEN  =      -106.67590750 eV

  energy without entropy =     -106.64335485  energy(sigma->0) =     -106.65963117


--------------------------------------------------------------------------------------------------------




----------------------------------------- Iteration    1(  18)  ---------------------------------------


    POTLOK:  cpu time   14.62: real time   14.62
    SETDIJ:  cpu time    0.01: real time    0.01
     EDDAV:  cpu time   68.62: real time   68.64
       DOS:  cpu time    0.01: real time    0.01
    CHARGE:  cpu time    4.41: real time    4.41
    MIXING:  cpu time    0.01: real time    0.01
    --------------------------------------------
      LOOP:  cpu time   87.69: real time   87.72

 eigenvalue-minimisations  :  7776
 total energy-change (2. order) :-0.2294225E-03  (-0.5914880E-05)
 number of electron     107.9999995 magnetization 
 augmentation part       -9.4396480 magnetization 

 Broyden mixing:
  rms(total) = 0.14857E-03    rms(broyden)= 0.14856E-03
  rms(prec ) = 0.26712E-03
  weight for this iteration     100.00

 eigenvalues of (default mixing * dielectric matrix)
  average eigenvalue GAMMA=   1.8015
  6.2170  2.9280  2.5393  1.9239  1.6667  1.1269  1.1269  1.2219  0.7229  1.0648
  1.0648  0.9084  0.9084

 Free energy of the ion-electron system (eV)
  ---------------------------------------------------
  alpha Z        PSCENC =        36.80884744
  Ewald energy   TEWEN  =     11981.43893892
  -Hartree energ DENC   =    -15103.84969529
  -exchange      EXHF   =         0.00000000
  -V(xc)+E(xc)   XCENC  =       -79.52311232
  PAW double counting   =      1190.02071735     -870.06887004
  entropy T*S    EENTRO =        -0.03254926
  eigenvalues    EBANDS =      -615.51167418
  atomic energy  EATOM  =      3354.04126044
  ---------------------------------------------------
  free energy    TOTEN  =      -106.67613692 eV

  energy without entropy =     -106.64358766  energy(sigma->0) =     -106.65986229


--------------------------------------------------------------------------------------------------------




----------------------------------------- Iteration    1(  19)  ---------------------------------------


    POTLOK:  cpu time   14.92: real time   14.92
    SETDIJ:  cpu time    0.01: real time    0.01
     EDDAV:  cpu time   67.06: real time   67.08
       DOS:  cpu time    0.01: real time    0.01
    CHARGE:  cpu time    4.38: real time    4.38
    MIXING:  cpu time    0.02: real time    0.02
    --------------------------------------------
      LOOP:  cpu time   86.40: real time   86.43

 eigenvalue-minimisations  :  6784
 total energy-change (2. order) :-0.3276357E-04  (-0.1364861E-05)
 number of electron     107.9999995 magnetization 
 augmentation part       -9.4396546 magnetization 

 Broyden mixing:
  rms(total) = 0.11619E-03    rms(broyden)= 0.11618E-03
  rms(prec ) = 0.20281E-03
  weight for this iteration     100.00

 eigenvalues of (default mixing * dielectric matrix)
  average eigenvalue GAMMA=   1.8597
  6.6533  3.1296  2.7038  2.2148  1.6451  1.6451  1.1279  1.1279  0.7230  1.0658
  1.0658  1.1039  0.9146  0.9146

 Free energy of the ion-electron system (eV)
  ---------------------------------------------------
  alpha Z        PSCENC =        36.80884744
  Ewald energy   TEWEN  =     11981.43893892
  -Hartree energ DENC   =    -15103.92473592
  -exchange      EXHF   =         0.00000000
  -V(xc)+E(xc)   XCENC  =       -79.52301785
  PAW double counting   =      1190.02023316     -870.06831697
  entropy T*S    EENTRO =        -0.03255005
  eigenvalues    EBANDS =      -615.43682886
  atomic energy  EATOM  =      3354.04126044
  ---------------------------------------------------
  free energy    TOTEN  =      -106.67616969 eV

  energy without entropy =     -106.64361964  energy(sigma->0) =     -106.65989466


--------------------------------------------------------------------------------------------------------




----------------------------------------- Iteration    1(  20)  ---------------------------------------


    POTLOK:  cpu time   14.87: real time   14.88
    SETDIJ:  cpu time    0.01: real time    0.01
     EDDAV:  cpu time   66.40: real time   66.42
       DOS:  cpu time    0.01: real time    0.01
    CHARGE:  cpu time    4.37: real time    4.37
    MIXING:  cpu time    0.02: real time    0.02
    --------------------------------------------
      LOOP:  cpu time   85.69: real time   85.72

 eigenvalue-minimisations  :  7272
 total energy-change (2. order) : 0.2185385E-04  (-0.3500705E-05)
 number of electron     107.9999995 magnetization 
 augmentation part       -9.4396605 magnetization 

 Broyden mixing:
  rms(total) = 0.73229E-04    rms(broyden)= 0.73225E-04
  rms(prec ) = 0.11046E-03
  weight for this iteration     100.00

 eigenvalues of (default mixing * dielectric matrix)
  average eigenvalue GAMMA=   1.8746
  6.8232  3.5833  2.7496  2.4339  1.6883  1.6883  1.1275  1.1275  0.7230  1.1835
  1.1835  0.9124  0.9124  0.9917  0.9917

 Free energy of the ion-electron system (eV)
  ---------------------------------------------------
  alpha Z        PSCENC =        36.80884744
  Ewald energy   TEWEN  =     11981.43893892
  -Hartree energ DENC   =    -15104.00952410
  -exchange      EXHF   =         0.00000000
  -V(xc)+E(xc)   XCENC  =       -79.52295678
  PAW double counting   =      1190.01250516     -870.06034959
  entropy T*S    EENTRO =        -0.03255118
  eigenvalues    EBANDS =      -615.35231816
  atomic energy  EATOM  =      3354.04126044
  ---------------------------------------------------
  free energy    TOTEN  =      -106.67614783 eV

  energy without entropy =     -106.64359666  energy(sigma->0) =     -106.65987225


--------------------------------------------------------------------------------------------------------




----------------------------------------- Iteration    1(  21)  ---------------------------------------


    POTLOK:  cpu time   14.81: real time   14.81
    SETDIJ:  cpu time    0.01: real time    0.01
     EDDAV:  cpu time   61.23: real time   61.25
       DOS:  cpu time    0.01: real time    0.01
    CHARGE:  cpu time    4.42: real time    4.42
    MIXING:  cpu time    0.02: real time    0.02
    --------------------------------------------
      LOOP:  cpu time   80.50: real time   80.52

 eigenvalue-minimisations  :  6560
 total energy-change (2. order) : 0.1059786E-04  (-0.1303075E-05)
 number of electron     107.9999995 magnetization 
 augmentation part       -9.4396603 magnetization 

 Broyden mixing:
  rms(total) = 0.56867E-04    rms(broyden)= 0.56865E-04
  rms(prec ) = 0.77027E-04
  weight for this iteration     100.00

 eigenvalues of (default mixing * dielectric matrix)
  average eigenvalue GAMMA=   2.0383
  7.3945  5.1990  2.8866  2.5919  2.1023  1.7731  1.1288  1.1288  1.3723  1.3723
  0.7230  1.0740  1.0740  0.9160  0.9160  0.9597

 Free energy of the ion-electron system (eV)
  ---------------------------------------------------
  alpha Z        PSCENC =        36.80884744
  Ewald energy   TEWEN  =     11981.43893892
  -Hartree energ DENC   =    -15104.02165100
  -exchange      EXHF   =         0.00000000
  -V(xc)+E(xc)   XCENC  =       -79.52311434
  PAW double counting   =      1190.00987904     -870.05767596
  entropy T*S    EENTRO =        -0.03255165
  eigenvalues    EBANDS =      -615.34007014
  atomic energy  EATOM  =      3354.04126044
  ---------------------------------------------------
  free energy    TOTEN  =      -106.67613724 eV

  energy without entropy =     -106.64358558  energy(sigma->0) =     -106.65986141


--------------------------------------------------------------------------------------------------------




----------------------------------------- Iteration    1(  22)  ---------------------------------------


    POTLOK:  cpu time   14.65: real time   14.66
    SETDIJ:  cpu time    0.01: real time    0.01
     EDDAV:  cpu time   67.73: real time   67.75
       DOS:  cpu time    0.01: real time    0.01
    CHARGE:  cpu time    4.41: real time    4.41
    MIXING:  cpu time    0.02: real time    0.02
    --------------------------------------------
      LOOP:  cpu time   86.83: real time   86.87

 eigenvalue-minimisations  :  6888
 total energy-change (2. order) : 0.7624049E-04  (-0.1969753E-05)
 number of electron     107.9999995 magnetization 
 augmentation part       -9.4396609 magnetization 

 Broyden mixing:
  rms(total) = 0.18854E-04    rms(broyden)= 0.18851E-04
  rms(prec ) = 0.24000E-04
  weight for this iteration     100.00

 eigenvalues of (default mixing * dielectric matrix)
  average eigenvalue GAMMA=   2.0872
  7.9070  6.2264  2.9558  2.6409  2.2479  1.5365  1.5365  1.1286  1.1286  1.2905
  1.2905  0.7230  1.0199  1.0199  1.0119  0.9096  0.9096

 Free energy of the ion-electron system (eV)
  ---------------------------------------------------
  alpha Z        PSCENC =        36.80884744
  Ewald energy   TEWEN  =     11981.43893892
  -Hartree energ DENC   =    -15104.03961060
  -exchange      EXHF   =         0.00000000
  -V(xc)+E(xc)   XCENC  =       -79.52319509
  PAW double counting   =      1190.00809644     -870.05588903
  entropy T*S    EENTRO =        -0.03255186
  eigenvalues    EBANDS =      -615.32195766
  atomic energy  EATOM  =      3354.04126044
  ---------------------------------------------------
  free energy    TOTEN  =      -106.67606100 eV

  energy without entropy =     -106.64350914  energy(sigma->0) =     -106.65978507


--------------------------------------------------------------------------------------------------------




----------------------------------------- Iteration    1(  23)  ---------------------------------------


    POTLOK:  cpu time   14.86: real time   14.86
    SETDIJ:  cpu time    0.01: real time    0.01
     EDDAV:  cpu time   59.47: real time   59.49
       DOS:  cpu time    0.01: real time    0.01
    CHARGE:  cpu time    4.35: real time    4.35
    MIXING:  cpu time    0.02: real time    0.02
    --------------------------------------------
      LOOP:  cpu time   78.73: real time   78.76

 eigenvalue-minimisations  :  6320
 total energy-change (2. order) : 0.1908789E-04  (-0.5367506E-06)
 number of electron     107.9999995 magnetization 
 augmentation part       -9.4396597 magnetization 

 Broyden mixing:
[...]
     31      -4.0885      2.00000
     32      -3.8523      2.00000
     33      -3.7969      2.00000
     34      -3.6275      2.00000
     35      -3.3762      2.00000
     36      -3.3168      2.00000
     37      -3.1562      2.00000
     38      -3.0779      2.00000
     39      -2.9364      2.00000
     40      -2.7295      2.00000
     41      -2.6326      2.00000
     42      -2.6111      2.00000
     43      -2.4439      2.00000
     44      -2.1589      2.00000
     45      -2.0950      2.00000
     46      -1.9871      2.00000
     47      -1.8700      2.00000
     48      -1.7524      2.00000
     49      -1.6258      2.00000
     50      -1.4761      2.00000
     51      -1.1547      2.00000
     52      -0.9543      2.00000
     53      -0.5090      2.00000
     54      -0.0031      1.98952
     55       0.5926      0.00000
     56       1.1498      0.00000
     57       1.3534      0.00000
     58       1.4551      0.00000
     59       1.5811      0.00000
     60       1.8279      0.00000
     61       2.0861      0.00000
     62       2.3934      0.00000
     63       2.5195      0.00000
     64       2.6371      0.00000
     65       2.7810      0.00000
     66       2.9522      0.00000
     67       3.0370      0.00000
     68       3.2033      0.00000

 k-point    52 :       0.3077    0.5000    0.5000
  band No.  band energies     occupation 
      1     -13.4549      2.00000
      2     -12.6027      2.00000
      3     -12.2553      2.00000
      4     -12.0687      2.00000
      5     -11.7403      2.00000
      6     -11.4833      2.00000
      7     -11.1151      2.00000
      8     -11.0910      2.00000
      9     -10.9007      2.00000
     10     -10.6516      2.00000
     11     -10.4863      2.00000
     12     -10.2258      2.00000
     13      -9.0149      2.00000
     14      -8.5797      2.00000
     15      -7.8694      2.00000
     16      -7.7161      2.00000
     17      -7.1604      2.00000
     18      -7.0646      2.00000
     19      -7.0519      2.00000
     20      -6.6849      2.00000
     21      -6.2797      2.00000
     22      -6.1346      2.00000
     23      -6.0391      2.00000
     24      -6.0149      2.00000
     25      -5.4505      2.00000
     26      -5.0615      2.00000
     27      -4.9871      2.00000
     28      -4.7844      2.00000
     29      -4.5719      2.00000
     30      -4.4517      2.00000
     31      -4.4088      2.00000
     32      -4.1723      2.00000
     33      -3.9820      2.00000
     34      -3.8176      2.00000
     35      -3.4182      2.00000
     36      -3.3380      2.00000
     37      -3.1870      2.00000
     38      -3.1650      2.00000
     39      -3.0066      2.00000
     40      -2.8774      2.00000
     41      -2.6980      2.00000
     42      -2.6210      2.00000
     43      -2.5562      2.00000
     44      -2.3490      2.00000
     45      -2.0931      2.00000
     46      -2.0222      2.00000
     47      -1.9562      2.00000
     48      -1.8887      2.00000
     49      -1.8286      2.00000
     50      -1.7042      2.00000
     51      -1.4016      2.00000
     52      -1.0792      2.00000
     53      -0.8881      2.00000
     54      -0.1884      2.00000
     55       0.3714      0.00622
     56       0.8940      0.00000
     57       1.1902      0.00000
     58       1.2412      0.00000
     59       1.3668      0.00000
     60       1.5701      0.00000
     61       2.0572      0.00000
     62       2.1560      0.00000
     63       2.3262      0.00000
     64       2.3832      0.00000
     65       2.4429      0.00000
     66       2.5654      0.00000
     67       2.8352      0.00000
     68       2.9501      0.00000

 k-point    53 :       0.3846    0.5000    0.5000
  band No.  band energies     occupation 
      1     -13.1508      2.00000
      2     -12.1265      2.00000
      3     -11.7587      2.00000
      4     -11.6734      2.00000
      5     -11.3463      2.00000
      6     -11.2175      2.00000
      7     -10.8657      2.00000
      8     -10.8120      2.00000
      9     -10.7092      2.00000
     10     -10.5533      2.00000
     11     -10.4561      2.00000
     12      -9.9649      2.00000
     13      -8.9993      2.00000
     14      -8.8637      2.00000
     15      -8.3428      2.00000
     16      -7.9947      2.00000
     17      -7.7074      2.00000
     18      -7.4805      2.00000
     19      -7.3896      2.00000
     20      -7.1997      2.00000
     21      -6.8123      2.00000
     22      -6.7515      2.00000
     23      -6.6501      2.00000
     24      -6.3204      2.00000
     25      -5.3925      2.00000
     26      -5.1570      2.00000
     27      -4.8632      2.00000
     28      -4.7641      2.00000
     29      -4.6423      2.00000
     30      -4.4762      2.00000
     31      -4.2253      2.00000
     32      -4.1306      2.00000
     33      -3.9517      2.00000
     34      -3.7403      2.00000
     35      -3.6236      2.00000
     36      -3.4986      2.00000
     37      -3.2891      2.00000
     38      -3.2468      2.00000
     39      -3.2028      2.00000
     40      -2.9757      2.00000
     41      -2.9064      2.00000
     42      -2.7161      2.00000
     43      -2.6184      2.00000
     44      -2.4267      2.00000
     45      -2.3138      2.00000
     46      -2.2260      2.00000
     47      -2.1559      2.00000
     48      -1.9619      2.00000
     49      -1.8529      2.00000
     50      -1.6072      2.00000
     51      -1.4786      2.00000
     52      -1.2138      2.00000
     53      -1.1366      2.00000
     54      -0.2566      2.00000
     55       0.2111      0.63870
     56       0.6420      0.00000
     57       1.1669      0.00000
     58       1.2184      0.00000
     59       1.3780      0.00000
     60       1.4798      0.00000
     61       1.7398      0.00000
     62       1.9846      0.00000
     63       2.0385      0.00000
     64       2.1689      0.00000
     65       2.2429      0.00000
     66       2.3671      0.00000
     67       2.5790      0.00000
     68       2.6021      0.00000

 k-point    54 :       0.4615    0.5000    0.5000
  band No.  band energies     occupation 
      1     -12.9379      2.00000
      2     -11.5843      2.00000
      3     -11.4151      2.00000
      4     -11.2596      2.00000
      5     -11.0467      2.00000
      6     -10.9470      2.00000
      7     -10.9344      2.00000
      8     -10.8138      2.00000
      9     -10.7138      2.00000
     10     -10.7072      2.00000
     11     -10.4052      2.00000
     12      -9.7389      2.00000
     13      -9.0912      2.00000
     14      -8.7564      2.00000
     15      -8.5338      2.00000
     16      -8.2111      2.00000
     17      -8.1515      2.00000
     18      -7.7335      2.00000
     19      -7.6503      2.00000
     20      -7.4405      2.00000
     21      -7.3836      2.00000
     22      -7.2597      2.00000
     23      -7.1705      2.00000
     24      -6.2640      2.00000
     25      -5.4550      2.00000
     26      -5.0373      2.00000
     27      -4.6741      2.00000
     28      -4.5733      2.00000
     29      -4.4007      2.00000
     30      -4.2442      2.00000
     31      -4.1616      2.00000
     32      -4.0332      2.00000
     33      -3.9173      2.00000
     34      -3.8602      2.00000
     35      -3.7108      2.00000
     36      -3.6517      2.00000
     37      -3.6050      2.00000
     38      -3.3496      2.00000
     39      -3.2856      2.00000
     40      -3.1558      2.00000
     41      -3.0771      2.00000
     42      -2.8456      2.00000
     43      -2.7702      2.00000
     44      -2.5183      2.00000
     45      -2.4604      2.00000
     46      -2.2791      2.00000
     47      -2.1981      2.00000
     48      -1.8753      2.00000
     49      -1.8191      2.00000
     50      -1.6288      2.00000
     51      -1.4883      2.00000
     52      -1.2293      2.00000
     53      -1.1889      2.00000
     54      -0.2097      2.00000
     55       0.0767      1.84757
     56       0.4623      0.00006
     57       1.1998      0.00000
     58       1.2443      0.00000
     59       1.4024      0.00000
     60       1.5167      0.00000
     61       1.5665      0.00000
     62       1.7895      0.00000
     63       1.8946      0.00000
     64       1.9944      0.00000
     65       2.2268      0.00000
     66       2.3127      0.00000
     67       2.3866      0.00000
     68       2.5148      0.00000


--------------------------------------------------------------------------------------------------------


 soft charge-density along one line, spin component           1
         0         1         2         3         4         5         6         7         8         9
 total charge-density along one line
 
 pseudopotential strength for first ion, spin component:           1
 29.802   0.008  -0.001  -0.023  -0.000  -0.000  -0.001  -0.000
  0.008   0.009   0.000  -0.000  -0.000  -0.000   0.000   0.000
 -0.001   0.000   6.553  -0.001   0.000  -0.003   0.000  -0.000
 -0.023  -0.000  -0.001   6.548   0.000   0.000  -0.003  -0.000
 -0.000  -0.000   0.000   0.000   6.553  -0.000  -0.000  -0.003
 -0.000  -0.000  -0.003   0.000  -0.000   0.015  -0.000   0.000
 -0.001   0.000   0.000  -0.003  -0.000  -0.000   0.015   0.000
 -0.000   0.000  -0.000  -0.000  -0.003   0.000   0.000   0.015
 total augmentation occupancy for first ion, spin component:           1
  1.812  -0.359   0.006   0.249   0.001   0.003   0.115  -0.000
 -0.359   1.278   0.022   0.847   0.003   0.004  -0.432   0.000
  0.006   0.022   1.145   0.012  -0.000  -0.502   0.014   0.000
  0.249   0.847   0.012   1.287   0.001   0.013  -0.419   0.000
  0.001   0.003  -0.000   0.001   1.147   0.000   0.000  -0.526
  0.003   0.004  -0.502   0.013   0.000   0.291  -0.015  -0.000
  0.115  -0.432   0.014  -0.419   0.000  -0.015   0.227  -0.000
 -0.000   0.000   0.000   0.000  -0.526  -0.000  -0.000   0.325


------------------------ aborting loop because EDIFF is reached ----------------------------------------


    CHARGE:  cpu time    4.37: real time    4.37
    FORLOC:  cpu time    0.05: real time    0.05
    FORNL :  cpu time   17.56: real time   17.56
    STRESS:  cpu time   62.20: real time   62.22
    FORCOR:  cpu time   14.73: real time   14.74
    FORHAR:  cpu time    0.15: real time    0.15
    MIXING:  cpu time    0.02: real time    0.02
    OFIELD:  cpu time    0.00: real time    0.00

  FORCE on cell =-STRESS in cart. coord.  units (eV):
  Direction    XX          YY          ZZ          XY          YZ          ZX
  --------------------------------------------------------------------------------------
  Alpha Z    36.80885    36.80885    36.80885
  Ewald   14405.70606 13952.47245-16376.74684    20.61528    65.64220    82.35891
  Hartree 14930.65062 14592.72900-14419.33570    -3.74067    12.76869     5.79860
  E(xc)    -359.34304  -358.93933  -357.90550    -0.37847    -0.52818    -0.27181
  Local  -30894.77501-30113.89438 29219.69331    -3.50003   -60.90941   -59.11283
  n-local  1176.51783  1173.91507  1175.92075     9.68601    14.69418    15.49175
  augment  -203.97236  -205.02825  -205.84869     0.68992     0.73209     1.43285
  Kinetic   934.75737   942.76736   982.85618    -3.46966    -2.74963    -9.53691
  Fock        0.00000     0.00000     0.00000     0.00000     0.00000     0.00000
  -------------------------------------------------------------------------------------
  Total      26.35032    20.83078    55.44236    19.90238    29.64992    36.16056
  in kB      42.12017    33.29735    88.62287    31.81334    47.39448    57.80153
  external pressure =       54.68 kB  Pullay stress =        0.00 kB


 VOLUME and BASIS-vectors are now :
 -----------------------------------------------------------------------------
  energy-cutoff  :      300.00
  volume of cell :     1002.32
      direct lattice vectors                 reciprocal lattice vectors
     3.540400000  0.000000000  0.000000000     0.282453960  0.048570342  0.000000000
    -1.770200000 10.294348000  0.000000000     0.000000000  0.097140683  0.000000000
     0.000000000  0.000000000 27.501429000     0.000000000  0.000000000  0.036361747

  length of vectors
     3.540400000 10.445439617 27.501429000     0.286599577  0.097140683  0.036361747


 FORCES acting on ions
    electron-ion (+dipol)            ewald-force                    non-local-force                 convergence-correction
 -----------------------------------------------------------------------------------------------
   0.337E-01 0.117E+02 0.292E+02   -.971E-02 -.115E+02 -.247E+02   -.574E-01 -.210E+00 -.436E+01   0.200E-07 0.113E-05 -.971E-06
   -.280E+00 0.132E+02 -.565E+03   0.218E+00 -.129E+02 0.568E+03   0.821E-01 -.442E+00 -.350E+01   0.106E-06 -.121E-05 0.516E-05
   0.549E-02 0.631E+02 0.464E+02   -.107E-02 -.646E+02 -.421E+02   -.356E-02 0.156E+01 -.418E+01   0.230E-08 0.152E-05 -.737E-06
   0.601E+00 0.285E+02 -.516E+03   -.589E+00 -.295E+02 0.520E+03   -.109E+00 0.121E+01 -.421E+01   -.291E-06 0.385E-05 0.787E-06
   0.138E-03 -.575E+02 0.526E+03   0.713E-04 0.591E+02 -.531E+03   -.248E-03 -.154E+01 0.429E+01   0.168E-07 -.241E-05 -.218E-05
   0.131E+02 -.107E+03 -.375E+02   -.147E+02 0.109E+03 0.332E+02   0.171E+01 -.172E+01 0.286E+01   0.230E-07 -.152E-06 -.109E-05
   0.148E-02 0.540E+02 0.526E+03   0.150E-04 -.559E+02 -.530E+03   0.174E-02 0.192E+01 0.417E+01   -.120E-07 0.339E-05 -.709E-06
   0.116E+01 0.943E+02 -.845E+02   -.464E+00 -.974E+02 0.814E+02   0.820E-04 0.288E+01 0.435E+01   0.291E-06 -.976E-06 0.167E-05
   -.325E-04 0.190E+01 0.572E+03   -.825E-04 -.211E+01 -.577E+03   0.146E-02 0.207E+00 0.478E+01   -.940E-08 -.155E-06 -.396E-05
   -.446E+01 0.788E+01 -.289E+01   0.307E+01 -.792E+01 0.147E+00   0.175E+01 -.426E+00 0.180E+01   0.343E-06 0.118E-05 -.192E-05
   -.927E-02 -.657E+02 0.609E+02   0.823E-02 0.677E+02 -.567E+02   0.228E-02 -.193E+01 -.406E+01   0.773E-08 -.252E-05 -.344E-06
   -.618E+00 -.425E+02 -.550E+03   0.726E+00 0.453E+02 0.552E+03   0.283E+00 -.349E+01 -.679E+00   0.225E-06 -.274E-05 0.607E-06
   -.338E-02 0.307E+02 0.208E+03   0.895E-04 -.328E+02 -.208E+03   0.575E-02 0.211E+01 0.337E+00   0.322E-08 0.709E-06 -.165E-06
   -.100E+02 -.409E+02 -.258E+03   0.867E+01 0.387E+02 0.258E+03   0.137E+01 0.205E+01 0.587E+00   0.123E-06 0.289E-06 -.957E-06
   0.555E-04 -.121E+02 0.140E+03   -.208E-02 0.124E+02 -.143E+03   -.518E-04 -.275E+00 0.255E+01   0.258E-08 -.227E-05 -.790E-06
   -.437E+01 0.520E+01 -.339E+03   0.340E+01 -.565E+01 0.338E+03   0.344E+00 0.501E+00 0.144E+01   0.968E-07 -.264E-05 0.336E-05
   0.107E-02 -.516E+01 0.346E+03   0.447E-04 0.562E+01 -.344E+03   0.125E-03 -.468E+00 -.251E+01   0.814E-08 -.224E-05 -.255E-05
   0.445E+02 0.166E+02 -.677E+02   -.542E+02 -.234E+02 0.611E+02   -.299E+02 -.237E+02 -.492E+02   -.123E-06 0.936E-06 -.788E-06
   0.595E-02 0.101E+02 0.335E+03   0.425E-05 -.104E+02 -.332E+03   -.813E-02 0.236E+00 -.252E+01   0.484E-08 0.378E-05 -.118E-05
   0.425E+01 0.454E+02 -.143E+03   -.299E+01 -.455E+02 0.144E+03   -.694E+00 -.195E+00 -.108E+01   -.121E-06 -.369E-06 0.992E-06
   -.791E-03 0.126E+02 0.126E+03   0.598E-03 -.130E+02 -.129E+03   0.823E-02 0.378E+00 0.255E+01   -.109E-07 0.204E-05 -.643E-06
   -.340E+00 0.201E+02 -.307E+03   0.292E+00 -.207E+02 0.309E+03   -.359E+00 0.623E+00 -.276E+01   -.628E-07 0.267E-05 0.356E-05
   0.775E-03 -.319E+02 0.254E+03   0.494E-04 0.340E+02 -.254E+03   0.172E-02 -.213E+01 -.360E+00   -.263E-08 -.145E-05 -.140E-05
   -.503E+02 -.539E+02 -.290E+03   0.566E+02 0.612E+02 0.305E+03   0.324E+02 0.241E+02 0.405E+02   0.176E-06 0.843E-06 0.112E-07
 -----------------------------------------------------------------------------------------------
   -.686E+01 -.123E+01 0.921E+01   -.711E-14 0.426E-13 0.171E-12   0.686E+01 0.123E+01 -.921E+01   0.816E-06 0.321E-05 -.422E-05
 
 
 POSITION                                       TOTAL-FORCE (eV/Angst)
 -----------------------------------------------------------------------------------
      0.00000      2.34757      6.41229        -0.033674     -0.021973      0.077508
      2.47828      0.28870     14.16300         0.020149     -0.100537     -0.205398
     -0.00000      9.43147      5.75866         0.000577     -0.013511      0.085779
     -1.06212      7.37260     13.50937        -0.097654      0.203806     -0.680269
     -0.00000      6.40009      2.31424        -0.000324     -0.008791      0.012338
     -0.00000      6.40009     10.06495         0.104264      0.790693     -1.403185
      1.77020     10.27849      2.37372         0.002957      0.001490     -0.004148
      1.77020     10.27849     10.12443         0.693330     -0.148158      1.230774
      1.77020      3.18974      1.66157         0.001056      0.000089      0.011915
      1.77020      3.18974      9.41228         0.352643     -0.467388     -0.946628
      1.77020      5.55354      5.69975         0.000959      0.006190      0.095773
      0.70808      3.49467     13.45047         0.391462     -0.651387      0.847356
      1.77020      9.05319      4.34076         0.002176      0.005702      0.008232
      0.70808      6.99432     12.09147         0.000390     -0.176288      0.872555
      0.00000      4.22380      5.10944        -0.002364      0.027705      0.047422
      2.47828      2.16493     12.86016        -0.620659      0.048496      0.491317
     -0.00000      4.15582      2.74166         0.000954     -0.007072     -0.027909
     -0.00000      4.15582     10.49237       -39.575550    -30.478562    -55.818418
      1.77020      1.31366      2.96438        -0.002460     -0.013559     -0.026499
      1.77020      1.31366     10.71510         0.564414     -0.338316     -0.426040
      1.77020      1.38163      5.33187         0.007747     -0.042053      0.010514
     -1.06212      9.61710     13.08259        -0.407742     -0.017209     -0.454172
      1.77020      6.77850      3.73234         0.002264      0.011804     -0.000829
      0.70808      4.71963     11.48306        38.595086     31.388829     56.202012
 -----------------------------------------------------------------------------------
    total drift:                                0.006848     -0.000050      0.003592


--------------------------------------------------------------------------------------------------------



  FREE ENERGIE OF THE ION-ELECTRON SYSTEM (eV)
  ---------------------------------------------------
  free  energy   TOTEN  =      -106.67602201 eV

  energy  without entropy=     -106.64347048  energy(sigma->0) =     -106.65974624
 


--------------------------------------------------------------------------------------------------------


    POTLOK:  cpu time   14.67: real time   14.68


--------------------------------------------------------------------------------------------------------


     LOOP+:  cpu time 2714.52: real time 2718.38
    4ORBIT:  cpu time    0.00: real time    0.00

 total amount of memory used by VASP on root node   146493. kBytes
========================================================================

   base      :      30000. kBytes
   nonlr-proj:       3452. kBytes
   fftplans  :       9347. kBytes
   grid      :      14649. kBytes
   one-center:         36. kBytes
   wavefun   :      89009. kBytes
 
  
  
 General timing and accounting informations for this job:
 ========================================================
  
                  Total CPU time used (sec):     2731.715
                            User time (sec):     2692.538
                          System time (sec):       39.177
                         Elapsed time (sec):     2736.690
  
                   Maximum memory used (kb):      335116.
                   Average memory used (kb):           0.
  
                          Minor page faults:      8377187
                          Major page faults:           16
                 Voluntary context switches:         1829
