<?xml version="1.0" encoding="ISO-8859-1"?>
<modeling>
 <generator>
  <i name="program" type="string">vasp </i>
  <i name="version" type="string">5.3.5  </i>
  <i name="subversion" type="string">31Mar14 (build Oct 29 2014 16:16:03) complex                          parallel </i>
  <i name="platform" type="string">Linux-UFHPC </i>
  <i name="date" type="string">2016 02 09 </i>
  <i name="time" type="string">17:26:45 </i>
 </generator>
 <incar>
  <i type="string" name="PREC">accurate</i>
  <i type="int" name="IBRION">     2</i>
  <i name="EDIFF">      0.00000100</i>
  <i type="int" name="NSW">     0</i>
  <i type="int" name="ISIF">     3</i>
  <i name="ENCUT">    300.00000000</i>
  <i type="string" name="LREAL"> Auto</i>
  <i type="int" name="ISMEAR">     0</i>
  <i name="SIGMA">      0.10000000</i>
  <i type="logical" name="LWAVE"> F  </i>
  <i type="logical" name="LCHARG"> F  </i>
  <i type="logical" name="LAECHG"> F  </i>
  <i type="string" name="GGA"> Bo</i>
  <i name="PARAM1">      0.18333333</i>
  <i name="PARAM2">      0.22000000</i>
  <i type="logical" name="LUSE_VDW"> T  </i>
  <i name="AGGAC">      0.00000000</i>
 </incar>
 <kpoints>
  <generation param="Gamma">
   <v type="int" name="divisions">      13        4        2 </v>
   <v name="usershift">      0.00000000       0.00000000       0.00000000 </v>
   <v name="genvec1">      0.07692308      -0.00000000       0.00000000 </v>
   <v name="genvec2">      0.00000000       0.25000000       0.00000000 </v>
   <v name="genvec3">      0.00000000       0.00000000       0.50000000 </v>
   <v name="shift">      0.00000000       0.00000000       0.00000000 </v>
  </generation>
  <varray name="kpointlist" >
   <v>       0.00000000       0.00000000       0.00000000 </v>
   <v>       0.07692308      -0.00000000       0.00000000 </v>
   <v>       0.15384615      -0.00000000       0.00000000 </v>
   <v>       0.23076923      -0.00000000       0.00000000 </v>
   <v>       0.30769231      -0.00000000       0.00000000 </v>
   <v>       0.38461538      -0.00000000       0.00000000 </v>
   <v>       0.46153846      -0.00000000       0.00000000 </v>
   <v>       0.00000000       0.25000000       0.00000000 </v>
   <v>       0.07692308       0.25000000       0.00000000 </v>
   <v>       0.15384615       0.25000000       0.00000000 </v>
   <v>       0.23076923       0.25000000       0.00000000 </v>
   <v>       0.30769231       0.25000000       0.00000000 </v>
   <v>       0.38461538       0.25000000       0.00000000 </v>
   <v>       0.46153846       0.25000000       0.00000000 </v>
   <v>      -0.46153846       0.25000000       0.00000000 </v>
   <v>      -0.38461538       0.25000000       0.00000000 </v>
   <v>      -0.30769231       0.25000000       0.00000000 </v>
   <v>      -0.23076923       0.25000000       0.00000000 </v>
   <v>      -0.15384615       0.25000000       0.00000000 </v>
   <v>      -0.07692308       0.25000000       0.00000000 </v>
   <v>       0.00000000       0.50000000       0.00000000 </v>
   <v>       0.07692308       0.50000000       0.00000000 </v>
   <v>       0.15384615       0.50000000       0.00000000 </v>
   <v>       0.23076923       0.50000000       0.00000000 </v>
   <v>       0.30769231       0.50000000       0.00000000 </v>
   <v>       0.38461538       0.50000000       0.00000000 </v>
   <v>       0.46153846       0.50000000       0.00000000 </v>
   <v>       0.00000000       0.00000000       0.50000000 </v>
   <v>       0.07692308      -0.00000000       0.50000000 </v>
   <v>       0.15384615      -0.00000000       0.50000000 </v>
   <v>       0.23076923      -0.00000000       0.50000000 </v>
   <v>       0.30769231      -0.00000000       0.50000000 </v>
   <v>       0.38461538      -0.00000000       0.50000000 </v>
   <v>       0.46153846      -0.00000000       0.50000000 </v>
   <v>       0.00000000       0.25000000       0.50000000 </v>
   <v>       0.07692308       0.25000000       0.50000000 </v>
   <v>       0.15384615       0.25000000       0.50000000 </v>
   <v>       0.23076923       0.25000000       0.50000000 </v>
   <v>       0.30769231       0.25000000       0.50000000 </v>
   <v>       0.38461538       0.25000000       0.50000000 </v>
   <v>       0.46153846       0.25000000       0.50000000 </v>
   <v>      -0.46153846       0.25000000       0.50000000 </v>
   <v>      -0.38461538       0.25000000       0.50000000 </v>
   <v>      -0.30769231       0.25000000       0.50000000 </v>
   <v>      -0.23076923       0.25000000       0.50000000 </v>
   <v>      -0.15384615       0.25000000       0.50000000 </v>
   <v>      -0.07692308       0.25000000       0.50000000 </v>
   <v>       0.00000000       0.50000000       0.50000000 </v>
   <v>       0.07692308       0.50000000       0.50000000 </v>
   <v>       0.15384615       0.50000000       0.50000000 </v>
   <v>       0.23076923       0.50000000       0.50000000 </v>
   <v>       0.30769231       0.50000000       0.50000000 </v>
   <v>       0.38461538       0.50000000       0.50000000 </v>
   <v>       0.46153846       0.50000000       0.50000000 </v>
  </varray>
  <varray name="weights" >
   <v>       0.00961538 </v>
   <v>       0.01923077 </v>
   <v>       0.01923077 </v>
   <v>       0.01923077 </v>
   <v>       0.01923077 </v>
   <v>       0.01923077 </v>
   <v>       0.01923077 </v>
   <v>       0.01923077 </v>
   <v>       0.01923077 </v>
   <v>       0.01923077 </v>
   <v>       0.01923077 </v>
   <v>       0.01923077 </v>
   <v>       0.01923077 </v>
   <v>       0.01923077 </v>
   <v>       0.01923077 </v>
   <v>       0.01923077 </v>
   <v>       0.01923077 </v>
   <v>       0.01923077 </v>
   <v>       0.01923077 </v>
   <v>       0.01923077 </v>
   <v>       0.00961538 </v>
   <v>       0.01923077 </v>
   <v>       0.01923077 </v>
   <v>       0.01923077 </v>
   <v>       0.01923077 </v>
   <v>       0.01923077 </v>
   <v>       0.01923077 </v>
   <v>       0.00961538 </v>
   <v>       0.01923077 </v>
   <v>       0.01923077 </v>
   <v>       0.01923077 </v>
   <v>       0.01923077 </v>
   <v>       0.01923077 </v>
   <v>       0.01923077 </v>
   <v>       0.01923077 </v>
   <v>       0.01923077 </v>
   <v>       0.01923077 </v>
   <v>       0.01923077 </v>
   <v>       0.01923077 </v>
   <v>       0.01923077 </v>
   <v>       0.01923077 </v>
   <v>       0.01923077 </v>
   <v>       0.01923077 </v>
   <v>       0.01923077 </v>
   <v>       0.01923077 </v>
   <v>       0.01923077 </v>
   <v>       0.01923077 </v>
   <v>       0.00961538 </v>
   <v>       0.01923077 </v>
   <v>       0.01923077 </v>
   <v>       0.01923077 </v>
   <v>       0.01923077 </v>
   <v>       0.01923077 </v>
   <v>       0.01923077 </v>
  </varray>
 </kpoints>
 <parameters>
  <separator name="general" >
   <i type="string" name="SYSTEM">unknown system</i>
   <i type="logical" name="LCOMPAT"> F  </i>
  </separator>
  <separator name="electronic" >
   <i type="string" name="PREC">accura</i>
   <i name="ENMAX">    300.00000000</i>
   <i name="ENAUG">    342.92400000</i>
   <i name="EDIFF">      0.00000100</i>
   <i type="int" name="IALGO">    38</i>
   <i type="int" name="IWAVPR">    10</i>
   <i type="int" name="NBANDS">    68</i>
   <i name="NELECT">    108.00000000</i>
   <i type="int" name="TURBO">     0</i>
   <i type="int" name="IRESTART">     0</i>
   <i type="int" name="NREBOOT">     0</i>
   <i type="int" name="NMIN">     0</i>
   <i name="EREF">      0.00000000</i>
   <separator name="electronic smearing" >
    <i type="int" name="ISMEAR">     0</i>
    <i name="SIGMA">      0.10000000</i>
    <i name="KSPACING">      0.50000000</i>
    <i type="logical" name="KGAMMA"> T  </i>
   </separator>
   <separator name="electronic projectors" >
    <i type="logical" name="LREAL"> T  </i>
    <v name="ROPT">     -0.00025000     -0.00025000</v>
    <i type="int" name="LMAXPAW">  -100</i>
    <i type="int" name="LMAXMIX">     2</i>
    <i type="logical" name="NLSPLINE"> F  </i>
   </separator>
   <separator name="electronic startup" >
    <i type="int" name="ISTART">     0</i>
    <i type="int" name="ICHARG">     2</i>
    <i type="int" name="INIWAV">     1</i>
   </separator>
   <separator name="electronic spin" >
    <i type="int" name="ISPIN">     1</i>
    <i type="logical" name="LNONCOLLINEAR"> F  </i>
    <v name="MAGMOM">      1.00000000      1.00000000      1.00000000      1.00000000      1.00000000      1.00000000      1.00000000      1.00000000      1.00000000      1.00000000      1.00000000      1.00000000      1.00000000      1.00000000      1.00000000      1.00000000      1.00000000      1.00000000      1.00000000      1.00000000
      1.00000000      1.00000000      1.00000000      1.00000000</v>
    <i name="NUPDOWN">     -1.00000000</i>
    <i type="logical" name="LSORBIT"> F  </i>
    <v name="SAXIS">      0.00000000      0.00000000      1.00000000</v>
    <i type="logical" name="LSPIRAL"> F  </i>
    <v name="QSPIRAL">      0.00000000      0.00000000      0.00000000</v>
    <i type="logical" name="LZEROZ"> F  </i>
   </separator>
   <separator name="electronic exchange-correlation" >
    <i type="logical" name="LASPH"> F  </i>
    <i type="logical" name="LMETAGGA"> F  </i>
   </separator>
   <separator name="electronic convergence" >
    <i type="int" name="NELM">    60</i>
    <i type="int" name="NELMDL">    -5</i>
    <i type="int" name="NELMIN">     2</i>
    <i name="ENINI">    300.00000000</i>
    <separator name="electronic convergence detail" >
     <i type="logical" name="LDIAG"> T  </i>
     <i type="logical" name="LSUBROT"> F  </i>
     <i name="WEIMIN">      0.00000000</i>
     <i name="EBREAK">      0.00000000</i>
     <i name="DEPER">      0.30000000</i>
     <i type="int" name="NRMM">     4</i>
     <i name="TIME">      0.40000000</i>
    </separator>
   </separator>
   <separator name="electronic mixer" >
    <i name="AMIX">      0.40000000</i>
    <i name="BMIX">      1.00000000</i>
    <i name="AMIN">      0.10000000</i>
    <i name="AMIX_MAG">      1.60000000</i>
    <i name="BMIX_MAG">      1.00000000</i>
    <separator name="electronic mixer details" >
     <i type="int" name="IMIX">     4</i>
     <i type="int" name="MAXMIX">   -45</i>
     <i name="WC">    100.00000000</i>
     <i type="int" name="INIMIX">     1</i>
     <i type="int" name="MIXPRE">     1</i>
     <i type="int" name="MREMOVE">     5</i>
    </separator>
   </separator>
   <separator name="electronic dipolcorrection" >
    <i type="logical" name="LDIPOL"> F  </i>
    <i type="logical" name="LMONO"> F  </i>
    <i type="int" name="IDIPOL">     0</i>
    <i name="EPSILON">      1.00000000</i>
    <v name="DIPOL">   -100.00000000   -100.00000000   -100.00000000</v>
    <i name="EFIELD">      0.00000000</i>
   </separator>
  </separator>
  <separator name="grids" >
   <i type="int" name="NGX">    20</i>
   <i type="int" name="NGY">    60</i>
   <i type="int" name="NGZ">   160</i>
   <i type="int" name="NGXF">    40</i>
   <i type="int" name="NGYF">   120</i>
   <i type="int" name="NGZF">   320</i>
   <i type="logical" name="ADDGRID"> F  </i>
  </separator>
  <separator name="ionic" >
   <i type="int" name="NSW">     0</i>
   <i type="int" name="IBRION">    -1</i>
   <i type="int" name="ISIF">     3</i>
   <i name="PSTRESS">      0.00000000</i>
   <i name="EDIFFG">      0.00001000</i>
   <i type="int" name="NFREE">     1</i>
   <i name="POTIM">      0.50000000</i>
   <i name="SMASS">     -3.00000000</i>
   <i name="SCALEE">      1.00000000</i>
  </separator>
  <separator name="ionic md" >
   <i name="TEBEG">      0.00010000</i>
   <i name="TEEND">      0.00010000</i>
   <i type="int" name="NBLOCK">     1</i>
   <i type="int" name="KBLOCK">     1</i>
   <i type="int" name="NPACO">   256</i>
   <i name="APACO">     16.00000000</i>
  </separator>
  <separator name="symmetry" >
   <i type="int" name="ISYM">     2</i>
   <i name="SYMPREC">      0.00001000</i>
  </separator>
  <separator name="dos" >
   <i type="logical" name="LORBIT"> F  </i>
   <v name="RWIGS">     -1.00000000     -1.00000000</v>
   <i type="int" name="NEDOS">   301</i>
   <i name="EMIN">     10.00000000</i>
   <i name="EMAX">    -10.00000000</i>
   <i name="EFERMI">      0.00000000</i>
  </separator>
  <separator name="writing" >
   <i type="int" name="NWRITE">     2</i>
   <i type="logical" name="LWAVE"> F  </i>
   <i type="logical" name="LCHARG"> F  </i>
   <i type="logical" name="LPARD"> F  </i>
   <i type="logical" name="LVTOT"> F  </i>
   <i type="logical" name="LVHAR"> F  </i>
   <i type="logical" name="LELF"> F  </i>
   <i type="logical" name="LOPTICS"> F  </i>
   <v name="STM">      0.00000000      0.00000000      0.00000000      0.00000000      0.00000000      0.00000000      0.00000000</v>
  </separator>
  <separator name="performance" >
   <i type="int" name="NPAR">     4</i>
   <i type="int" name="NSIM">     4</i>
   <i type="int" name="NBLK">    -1</i>
   <i type="logical" name="LPLANE"> T  </i>
   <i type="logical" name="LSCALAPACK"> T  </i>
   <i type="logical" name="LSCAAWARE"> F  </i>
   <i type="logical" name="LSCALU"> F  </i>
   <i type="logical" name="LASYNC"> F  </i>
   <i type="logical" name="LORBITALREAL"> F  </i>
  </separator>
  <separator name="miscellaneous" >
   <i type="int" name="IDIOT">     3</i>
   <i type="logical" name="LMUSIC"> F  </i>
   <v name="POMASS">     30.97400000     28.08500000</v>
   <v name="DARWINR">      0.00000000      0.00000000</v>
   <v name="DARWINV">      1.00000000      1.00000000</v>
   <i type="logical" name="LCORR"> T  </i>
  </separator>
  <i type="logical" name="GGA_COMPAT"> T  </i>
  <i type="logical" name="LBERRY"> F  </i>
  <i type="int" name="ICORELEVEL">     0</i>
  <i type="logical" name="LDAU"> F  </i>
  <i type="int" name="I_CONSTRAINED_M">     0</i>
  <separator name="electronic exchange-correlation" >
   <i type="string" name="GGA">BO</i>
   <i type="int" name="VOSKOWN">     0</i>
   <i type="logical" name="LHFCALC"> F  </i>
   <i type="string" name="PRECFOCK"></i>
   <i type="logical" name="LSYMGRAD"> F  </i>
   <i type="logical" name="LHFONE"> F  </i>
   <i type="logical" name="LRHFCALC"> F  </i>
   <i type="logical" name="LTHOMAS"> F  </i>
   <i type="logical" name="LMODELHF"> F  </i>
   <i name="ENCUT4O">     -1.00000000</i>
   <i type="int" name="EXXOEP">     0</i>
   <i type="int" name="FOURORBIT">     0</i>
   <i name="AEXX">      0.00000000</i>
   <i name="HFALPHA">      0.00000000</i>
   <i name="MCALPHA">      0.00000000</i>
   <i name="ALDAX">      1.00000000</i>
   <i name="AGGAX">      1.00000000</i>
   <i name="ALDAC">      1.00000000</i>
   <i name="AGGAC">      0.00000000</i>
   <i type="int" name="NKREDX">     1</i>
   <i type="int" name="NKREDY">     1</i>
   <i type="int" name="NKREDZ">     1</i>
   <i type="logical" name="SHIFTRED"> F  </i>
   <i type="logical" name="ODDONLY"> F  </i>
   <i type="logical" name="EVENONLY"> F  </i>
   <i type="int" name="LMAXFOCK">     0</i>
   <i type="int" name="NMAXFOCKAE">     0</i>
   <i type="logical" name="LFOCKAEDFT"> F  </i>
   <i name="HFSCREEN">      0.00000000</i>
   <i name="HFSCREENC">      0.00000000</i>
   <i type="int" name="NBANDSGWLOW">     0</i>
  </separator>
  <separator name="vdW DFT" >
   <i type="logical" name="LUSE_VDW"> T  </i>
   <i name="Zab_VDW">     -0.84910000</i>
   <i name="PARAM1">      0.18333333</i>
   <i name="PARAM2">      0.22000000</i>
   <i name="PARAM3">      0.00000000</i>
  </separator>
  <separator name="model GW" >
   <i type="int" name="MODEL_GW">     0</i>
   <i name="MODEL_EPS0">     25.05800243</i>
   <i name="MODEL_ALPHA">      1.00000000</i>
  </separator>
  <separator name="linear response parameters" >
   <i type="logical" name="LEPSILON"> F  </i>
   <i type="logical" name="LRPA"> F  </i>
   <i type="logical" name="LNABLA"> F  </i>
   <i type="logical" name="LVEL"> F  </i>
   <i type="int" name="KINTER">     0</i>
   <i name="CSHIFT">      0.10000000</i>
   <i name="OMEGAMAX">     -1.00000000</i>
   <i name="DEG_THRESHOLD">      0.00200000</i>
  </separator>
  <separator name="orbital magnetization" >
   <i type="logical" name="NUCIND"> F  </i>
   <v name="MAGPOS">      0.00000000      0.00000000      0.00000000</v>
   <i type="logical" name="LNICSALL"> T  </i>
   <i type="logical" name="ORBITALMAG"> F  </i>
   <i type="logical" name="LMAGBLOCH"> F  </i>
   <i type="logical" name="LCHIMAG"> F  </i>
   <i type="logical" name="LGAUGE"> T  </i>
   <i type="int" name="MAGATOM">     0</i>
   <v name="MAGDIPOL">      0.00000000      0.00000000      0.00000000</v>
   <v name="AVECCONST">      0.00000000      0.00000000      0.00000000</v>
  </separator>
  <separator name="response functions" >
   <i type="logical" name="LADDER"> F  </i>
   <i type="logical" name="LFXC"> F  </i>
   <i type="logical" name="LHARTREE"> T  </i>
   <i type="int" name="IBSE">     0</i>
   <i type="logical" name="LTCTE"> F  </i>
   <i type="logical" name="LTETE"> F  </i>
   <i type="logical" name="LTRIPLET"> F  </i>
   <i type="logical" name="LFXCEPS"> F  </i>
   <i type="logical" name="LFXHEG"> F  </i>
   <i type="logical" name="L2ORDER"> F  </i>
   <i type="logical" name="LUSEW"> F  </i>
   <i name="ENCUTGW">     -2.00000000</i>
   <i name="ENCUTGWSOFT">     -2.00000000</i>
   <i name="ENCUTLF">     -1.00000000</i>
   <i type="int" name="LMAXMP2">    -1</i>
   <i name="SCISSOR">      0.00000000</i>
   <i type="int" name="NOMEGA">     0</i>
   <i type="int" name="NOMEGAR">     0</i>
   <i type="int" name="NBANDSGW">    -1</i>
   <i type="int" name="NBANDSO">    -1</i>
   <i type="int" name="NBANDSV">    -1</i>
   <i type="int" name="NELM">     1</i>
   <i type="int" name="DIM">     3</i>
   <i type="int" name="ANTIRES">     0</i>
   <i name="OMEGAMAX">    -30.00000000</i>
   <i name="OMEGAMIN">    -30.00000000</i>
   <i name="OMEGATL">   -200.00000000</i>
   <i type="int" name="OMEGAGRID">     0</i>
   <i name="CSHIFT">     -0.10000000</i>
   <i type="logical" name="SELFENERGY"> F  </i>
   <i type="logical" name="LSPECTRAL"> F  </i>
   <i type="logical" name="ODDONLYGW"> F  </i>
   <i type="logical" name="EVENONLYGW"> F  </i>
   <i type="int" name="NKREDLFX">     1</i>
   <i type="int" name="NKREDLFY">     1</i>
   <i type="int" name="NKREDLFZ">     1</i>
   <i type="int" name="MAXMEM">  1800</i>
   <i type="int" name="TELESCOPE">     0</i>
   <i type="int" name="TAUPAR">     1</i>
  </separator>
  <separator name="External order field" >
   <i name="OFIELD_KAPPA">      0.00000000</i>
   <v name="OFIELD_K">      0.00000000      0.00000000      0.00000000</v>
   <i name="OFIELD_Q6_NEAR">      0.00000000</i>
   <i name="OFIELD_Q6_FAR">      0.00000000</i>
   <i name="OFIELD_A">      0.00000000</i>
  </separator>
 </parameters>
 <atominfo>
  <atoms>      24 </atoms>
  <types>       2 </types>
  <array name="atoms" >
   <dimension dim="1">ion</dimension>
   <field type="string">element</field>
   <field type="int">atomtype</field>
   <set>
    <rc><c>P </c><c>   1</c></rc>
    <rc><c>P </c><c>   1</c></rc>
    <rc><c>P </c><c>   1</c></rc>
    <rc><c>P </c><c>   1</c></rc>
    <rc><c>P </c><c>   1</c></rc>
    <rc><c>P </c><c>   1</c></rc>
    <rc><c>P </c><c>   1</c></rc>
    <rc><c>P </c><c>   1</c></rc>
    <rc><c>P </c><c>   1</c></rc>
    <rc><c>P </c><c>   1</c></rc>
    <rc><c>P </c><c>   1</c></rc>
    <rc><c>P </c><c>   1</c></rc>
    <rc><c>Si</c><c>   2</c></rc>
    <rc><c>Si</c><c>   2</c></rc>
    <rc><c>Si</c><c>   2</c></rc>
    <rc><c>Si</c><c>   2</c></rc>
    <rc><c>Si</c><c>   2</c></rc>
    <rc><c>Si</c><c>   2</c></rc>
    <rc><c>Si</c><c>   2</c></rc>
    <rc><c>Si</c><c>   2</c></rc>
    <rc><c>Si</c><c>   2</c></rc>
    <rc><c>Si</c><c>   2</c></rc>
    <rc><c>Si</c><c>   2</c></rc>
    <rc><c>Si</c><c>   2</c></rc>
   </set>
  </array>
  <array name="atomtypes" >
   <dimension dim="1">type</dimension>
   <field type="int">atomspertype</field>
   <field type="string">element</field>
   <field>mass</field>
   <field>valence</field>
   <field type="string">pseudopotential</field>
   <set>
    <rc><c>  12</c><c>P </c><c>     30.97400000</c><c>      5.00000000</c><c>  PAW_PBE P 17Jan2003                   </c></rc>
    <rc><c>  12</c><c>Si</c><c>     28.08500000</c><c>      4.00000000</c><c> PAW_PBE Si 05Jan2001                   </c></rc>
   </set>
  </array>
 </atominfo>
 <structure name="initialpos" >
  <crystal>
   <varray name="basis" >
    <v>       3.54040000       0.00000000       0.00000000 </v>
    <v>      -1.77020000      10.29434800       0.00000000 </v>
    <v>       0.00000000       0.00000000      27.50142900 </v>
   </varray>
   <i name="volume">   1002.32009712 </i>
   <varray name="rec_basis" >
    <v>       0.28245396       0.04857034       0.00000000 </v>
    <v>       0.00000000       0.09714068       0.00000000 </v>
    <v>       0.00000000       0.00000000       0.03636175 </v>
   </varray>
  </crystal>
  <varray name="positions" >
   <v>       0.11402300       0.22804500       0.23316207 </v>
   <v>       0.31402300       0.22804500       0.51499159 </v>
   <v>       0.45808900       0.91617900       0.20939482 </v>
   <v>       0.65808900       0.91617900       0.49122434 </v>
   <v>       0.31085400       0.62170900       0.08414979 </v>
   <v>       0.31085400       0.62170900       0.36597930 </v>
   <v>       0.99923000       0.99846000       0.08631254 </v>
   <v>       0.99923000       0.99846000       0.36814206 </v>
   <v>       0.65492700       0.30985400       0.06041748 </v>
   <v>       0.65492700       0.30985400       0.34224700 </v>
   <v>       0.76973800       0.53947500       0.20725292 </v>
   <v>       0.96973800       0.53947500       0.48908244 </v>
   <v>       0.93971600       0.87943300       0.15783749 </v>
   <v>       0.13971600       0.87943300       0.43966701 </v>
   <v>       0.20515200       0.41030300       0.18578822 </v>
   <v>       0.40515200       0.41030300       0.46761774 </v>
   <v>       0.20184900       0.40369900       0.09969156 </v>
   <v>       0.20184900       0.40369900       0.38152107 </v>
   <v>       0.56380500       0.12761000       0.10779021 </v>
   <v>       0.56380500       0.12761000       0.38961973 </v>
   <v>       0.56710600       0.13421200       0.19387616 </v>
   <v>       0.76710600       0.13421200       0.47570568 </v>
   <v>       0.82923400       0.65846800       0.13571444 </v>
   <v>       0.02923400       0.65846800       0.41754396 </v>
  </varray>
 </structure>
 <calculation>
  <scstep>
   <time name="dav">   66.70   66.78</time>
   <time name="total">   82.80   82.89</time>
   <energy>
    <i name="alphaZ">     36.80884744 </i>
    <i name="ewald">  11895.04193001 </i>
    <i name="hartreedc"> -14948.11811130 </i>
    <i name="XCdc">    -88.16086242 </i>
    <i name="pawpsdc">   1056.43050070 </i>
    <i name="pawaedc">   -732.41190547 </i>
    <i name="eentropy">     -0.03715518 </i>
    <i name="bandstr">    -87.05053333 </i>
    <i name="atom">   3354.04126044 </i>
    <i name="e_fr_energy">    486.54397090 </i>
    <i name="e_wo_entrp">    486.58112608 </i>
    <i name="e_0_energy">    486.56254849 </i>
   </energy>
  </scstep>
  <scstep>
   <time name="dav">   83.62   83.64</time>
   <time name="total">   83.63   83.66</time>
   <energy>
    <i name="e_fr_energy">    -72.77329747 </i>
    <i name="e_wo_entrp">    -72.77198603 </i>
    <i name="e_0_energy">    -72.77264175 </i>
   </energy>
  </scstep>
  <scstep>
   <time name="dav">   76.53   76.56</time>
   <time name="total">   76.54   76.57</time>
   <energy>
    <i name="e_fr_energy">   -128.31306995 </i>
    <i name="e_wo_entrp">   -128.31306995 </i>
    <i name="e_0_energy">   -128.31306995 </i>
   </energy>
  </scstep>
  <scstep>
   <time name="dav">   91.21   91.24</time>
   <time name="total">   91.22   91.25</time>
   <energy>
    <i name="e_fr_energy">   -130.73159074 </i>
    <i name="e_wo_entrp">   -130.73159074 </i>
    <i name="e_0_energy">   -130.73159074 </i>
   </energy>
  </scstep>
  <scstep>
   <time name="dav">   84.71   84.73</time>
   <time name="total">   89.34   89.37</time>
   <energy>
    <i name="e_fr_energy">   -130.78900305 </i>
    <i name="e_wo_entrp">   -130.78900305 </i>
    <i name="e_0_energy">   -130.78900305 </i>
   </energy>
  </scstep>
  <scstep>
   <time name="dav">   76.51   76.53</time>
   <time name="total">   95.48   95.51</time>
   <energy>
    <i name="e_fr_energy">   -128.62658141 </i>
    <i name="e_wo_entrp">   -128.62658141 </i>
    <i name="e_0_energy">   -128.62658141 </i>
   </energy>
  </scstep>
  <scstep>
   <time name="dav">   76.15   76.17</time>
   <time name="total">   95.12   95.15</time>
   <energy>
    <i name="e_fr_energy">   -128.37217644 </i>
    <i name="e_wo_entrp">   -128.37217644 </i>
    <i name="e_0_energy">   -128.37217644 </i>
   </energy>
  </scstep>
  <scstep>
   <time name="dav">   77.70   77.72</time>
   <time name="total">   96.85   96.88</time>
   <energy>
    <i name="e_fr_energy">   -128.32034851 </i>
    <i name="e_wo_entrp">   -128.32034851 </i>
    <i name="e_0_energy">   -128.32034851 </i>
   </energy>
  </scstep>
  <scstep>
   <time name="dav">   76.44   76.46</time>
   <time name="total">   95.66   95.68</time>
   <energy>
    <i name="e_fr_energy">   -128.31850888 </i>
    <i name="e_wo_entrp">   -128.31850888 </i>
    <i name="e_0_energy">   -128.31850888 </i>
   </energy>
  </scstep>
  <scstep>
   <time name="dav">   80.40   80.43</time>
   <time name="total">   99.49   99.52</time>
   <energy>
    <i name="e_fr_energy">   -128.30769884 </i>
    <i name="e_wo_entrp">   -128.30769884 </i>
    <i name="e_0_energy">   -128.30769884 </i>
   </energy>
  </scstep>
  <scstep>
   <time name="dav">   78.08   78.10</time>
   <time name="total">   97.13   97.17</time>
   <energy>
    <i name="e_fr_energy">   -128.30091606 </i>
    <i name="e_wo_entrp">   -128.30091606 </i>
    <i name="e_0_energy">   -128.30091606 </i>
   </energy>
  </scstep>
  <scstep>
   <time name="dav">   80.78   80.80</time>
   <time name="total">  100.04  100.07</time>
   <energy>
    <i name="e_fr_energy">   -128.29904836 </i>
    <i name="e_wo_entrp">   -128.29904836 </i>
    <i name="e_0_energy">   -128.29904836 </i>
   </energy>
  </scstep>
  <scstep>
   <time name="dav">   79.48   79.50</time>
   <time name="total">   98.53   98.56</time>
   <energy>
    <i name="e_fr_energy">   -128.29675671 </i>
    <i name="e_wo_entrp">   -128.29675671 </i>
    <i name="e_0_energy">   -128.29675671 </i>
   </energy>
  </scstep>
  <scstep>
   <time name="dav">   78.66   78.68</time>
   <time name="total">   97.88   97.91</time>
   <energy>
    <i name="e_fr_energy">   -128.29652825 </i>
    <i name="e_wo_entrp">   -128.29652825 </i>
    <i name="e_0_energy">   -128.29652825 </i>
   </energy>
  </scstep>
  <scstep>
   <time name="dav">   72.66   72.68</time>
   <time name="total">   91.84   91.86</time>
   <energy>
    <i name="e_fr_energy">   -128.29660339 </i>
    <i name="e_wo_entrp">   -128.29660339 </i>
    <i name="e_0_energy">   -128.29660339 </i>
   </energy>
  </scstep>
  <scstep>
   <time name="dav">   73.76   73.78</time>
   <time name="total">   92.88   92.90</time>
   <energy>
    <i name="e_fr_energy">   -128.29711794 </i>
    <i name="e_wo_entrp">   -128.29711794 </i>
    <i name="e_0_energy">   -128.29711794 </i>
   </energy>
  </scstep>
  <scstep>
   <time name="dav">   70.61   70.63</time>
   <time name="total">   89.54   89.56</time>
   <energy>
    <i name="e_fr_energy">   -128.29727920 </i>
    <i name="e_wo_entrp">   -128.29727920 </i>
    <i name="e_0_energy">   -128.29727920 </i>
   </energy>
  </scstep>
  <scstep>
   <time name="dav">   60.34   60.36</time>
   <time name="total">   79.50   79.53</time>
   <energy>
    <i name="e_fr_energy">   -128.29733815 </i>
    <i name="e_wo_entrp">   -128.29733815 </i>
    <i name="e_0_energy">   -128.29733815 </i>
   </energy>
  </scstep>
  <scstep>
   <time name="dav">   59.97   59.98</time>
   <time name="total">   79.27   79.29</time>
   <energy>
    <i name="e_fr_energy">   -128.29736445 </i>
    <i name="e_wo_entrp">   -128.29736445 </i>
    <i name="e_0_energy">   -128.29736445 </i>
   </energy>
  </scstep>
  <scstep>
   <time name="dav">   65.45   65.48</time>
   <time name="total">   84.56   84.59</time>
   <energy>
    <i name="e_fr_energy">   -128.29727391 </i>
    <i name="e_wo_entrp">   -128.29727391 </i>
    <i name="e_0_energy">   -128.29727391 </i>
   </energy>
  </scstep>
  <scstep>
   <time name="dav">   59.31   59.33</time>
   <time name="total">   78.43   78.46</time>
   <energy>
    <i name="e_fr_energy">   -128.29726321 </i>
    <i name="e_wo_entrp">   -128.29726321 </i>
    <i name="e_0_energy">   -128.29726321 </i>
   </energy>
  </scstep>
  <scstep>
   <time name="dav">   62.33   62.35</time>
   <time name="total">   81.48   81.51</time>
   <energy>
    <i name="e_fr_energy">   -128.29722499 </i>
    <i name="e_wo_entrp">   -128.29722499 </i>
    <i name="e_0_energy">   -128.29722499 </i>
   </energy>
  </scstep>
  <scstep>
   <time name="dav">   56.61   56.62</time>
   <time name="total">   75.62   75.64</time>
   <energy>
    <i name="e_fr_energy">   -128.29721822 </i>
    <i name="e_wo_entrp">   -128.29721822 </i>
    <i name="e_0_energy">   -128.29721822 </i>
   </energy>
  </scstep>
  <scstep>
   <time name="dav">   62.13   62.15</time>
   <time name="total">   81.13   81.15</time>
   <energy>
    <i name="e_fr_energy">   -128.29720594 </i>
    <i name="e_wo_entrp">   -128.29720594 </i>
    <i name="e_0_energy">   -128.29720594 </i>
   </energy>
  </scstep>
  <scstep>
   <time name="dav">   56.37   56.39</time>
   <time name="total">   75.71   75.73</time>
   <energy>
    <i name="e_fr_energy">   -128.29720474 </i>
    <i name="e_wo_entrp">   -128.29720474 </i>
    <i name="e_0_energy">   -128.29720474 </i>
   </energy>
  </scstep>
  <scstep>
   <time name="dav">   55.14   55.16</time>
   <time name="total">   74.36   74.39</time>
   <energy>
    <i name="e_fr_energy">   -128.29720262 </i>
    <i name="e_wo_entrp">   -128.29720262 </i>
    <i name="e_0_energy">   -128.29720262 </i>
   </energy>
  </scstep>
  <scstep>
   <time name="dav">   63.53   63.55</time>
   <time name="total">   78.20   78.23</time>
   <energy>
    <i name="alphaZ">     36.80884744 </i>
    <i name="ewald">  11895.04193001 </i>
    <i name="hartreedc"> -15039.73868719 </i>
    <i name="XCdc">    -80.03364582 </i>
    <i name="pawpsdc">   1165.28394919 </i>
    <i name="pawaedc">   -844.26558044 </i>
    <i name="eentropy">     -0.00000000 </i>
    <i name="bandstr">   -615.43527561 </i>
    <i name="atom">   3354.04126044 </i>
    <i name="e_fr_energy">   -128.29720198 </i>
    <i name="e_wo_entrp">   -128.29720198 </i>
    <i name="e_0_energy">   -128.29720198 </i>
   </energy>
  </scstep>
  <structure>
   <crystal>
    <varray name="basis" >
     <v>       3.54040000       0.00000000       0.00000000 </v>
     <v>      -1.77020000      10.29434800       0.00000000 </v>
     <v>       0.00000000       0.00000000      27.50142900 </v>
    </varray>
    <i name="volume">   1002.32009712 </i>
    <varray name="rec_basis" >
     <v>       0.28245396       0.04857034       0.00000000 </v>
     <v>       0.00000000       0.09714068       0.00000000 </v>
     <v>       0.00000000       0.00000000       0.03636175 </v>
    </varray>
   </crystal>
   <varray name="positions" >
    <v>       0.11402300       0.22804500       0.23316207 </v>
    <v>       0.31402300       0.22804500       0.51499159 </v>
    <v>       0.45808900       0.91617900       0.20939482 </v>
    <v>       0.65808900       0.91617900       0.49122434 </v>
    <v>       0.31085400       0.62170900       0.08414979 </v>
    <v>       0.31085400       0.62170900       0.36597930 </v>
    <v>       0.99923000       0.99846000       0.08631254 </v>
    <v>       0.99923000       0.99846000       0.36814206 </v>
    <v>       0.65492700       0.30985400       0.06041748 </v>
    <v>       0.65492700       0.30985400       0.34224700 </v>
    <v>       0.76973800       0.53947500       0.20725292 </v>
    <v>       0.96973800       0.53947500       0.48908244 </v>
    <v>       0.93971600       0.87943300       0.15783749 </v>
    <v>       0.13971600       0.87943300       0.43966701 </v>
    <v>       0.20515200       0.41030300       0.18578822 </v>
    <v>       0.40515200       0.41030300       0.46761774 </v>
    <v>       0.20184900       0.40369900       0.09969156 </v>
    <v>       0.20184900       0.40369900       0.38152107 </v>
    <v>       0.56380500       0.12761000       0.10779021 </v>
    <v>       0.56380500       0.12761000       0.38961973 </v>
    <v>       0.56710600       0.13421200       0.19387616 </v>
    <v>       0.76710600       0.13421200       0.47570568 </v>
    <v>       0.82923400       0.65846800       0.13571444 </v>
    <v>       0.02923400       0.65846800       0.41754396 </v>
   </varray>
  </structure>
  <varray name="forces" >
   <v>       0.03375422      -0.05933532      -0.03231230 </v>
   <v>      -0.29956283       0.12043499       0.23692811 </v>
   <v>       0.00256979      -0.01946355       0.07733284 </v>
   <v>      -0.14726451       0.04352305       0.14538584 </v>
   <v>      -0.00060750      -0.01054424       0.01683205 </v>
   <v>       7.06769696      -2.34361286      -8.47826208 </v>
   <v>       0.00311247      -0.00295603      -0.00555325 </v>
   <v>       1.32644664      -0.35856214      -0.09107039 </v>
   <v>       0.00129422       0.00317091       0.00529019 </v>
   <v>       0.38485672      -0.01421159      -0.18312975 </v>
   <v>       0.00051593       0.00600123       0.08671225 </v>
   <v>      -0.57212841       0.18162349       0.27759431 </v>
   <v>       0.00197654       0.00878176       0.00698242 </v>
   <v>      -1.09216396       0.14051366      -0.24763732 </v>
   <v>      -0.00124174      -0.00334759       0.04306958 </v>
   <v>      -0.70551370       0.00499815      -0.52740752 </v>
   <v>      -0.00079514      -0.00327846      -0.02182177 </v>
   <v>       0.85156725      -0.01817082       0.45241277 </v>
   <v>       0.00218026      -0.02054335       0.00161215 </v>
   <v>       0.56384760       0.06560591       0.36678784 </v>
   <v>      -0.00641922      -0.01235700      -0.02389494 </v>
   <v>      -0.77364804       0.01820461      -0.47793443 </v>
   <v>       0.00219553       0.02395489      -0.00250892 </v>
   <v>      -6.64266906       2.24957031       8.37459228 </v>
  </varray>
  <varray name="stress" >
   <v>       7.62627036      -6.19286574     -30.72101337 </v>
   <v>      -6.19286585       2.44994534       8.35236816 </v>
   <v>     -30.72101328       8.35236800      15.53784513 </v>
  </varray>
  <energy>
   <i name="e_fr_energy">   -128.29720198 </i>
   <i name="e_wo_entrp">   -128.29720198 </i>
   <i name="e_0_energy">     -0.00000000 </i>
  </energy>
  <time name="totalsc"> 2478.04 2479.19</time>
  <eigenvalues>
   <array>
    <dimension dim="1">band</dimension>
    <dimension dim="2">kpoint</dimension>
    <dimension dim="3">spin</dimension>
    <field>eigene</field>
    <field>occ</field>
    <set>
     <set comment="spin 1">
      <set comment="kpoint 1">
       <r>  -13.6319    1.0000 </r>
       <r>  -13.4681    1.0000 </r>
       <r>  -12.9423    1.0000 </r>
       <r>  -12.7303    1.0000 </r>
       <r>  -12.4879    1.0000 </r>
       <r>  -12.3962    1.0000 </r>
       <r>  -12.2076    1.0000 </r>
       <r>  -12.0087    1.0000 </r>
       <r>  -11.4576    1.0000 </r>
       <r>  -11.3632    1.0000 </r>
       <r>  -11.1075    1.0000 </r>
       <r>  -10.9178    1.0000 </r>
       <r>   -8.0139    1.0000 </r>
       <r>   -7.9331    1.0000 </r>
       <r>   -7.7560    1.0000 </r>
       <r>   -7.7112    1.0000 </r>
       <r>   -6.8311    1.0000 </r>
       <r>   -6.6769    1.0000 </r>
       <r>   -6.5180    1.0000 </r>
       <r>   -6.4199    1.0000 </r>
       <r>   -5.7941    1.0000 </r>
       <r>   -5.7455    1.0000 </r>
       <r>   -4.8139    1.0000 </r>
       <r>   -4.6731    1.0000 </r>
       <r>   -3.9600    1.0000 </r>
       <r>   -3.7535    1.0000 </r>
       <r>   -3.6207    1.0000 </r>
       <r>   -3.4639    1.0000 </r>
       <r>   -3.1683    1.0000 </r>
       <r>   -2.9849    1.0000 </r>
       <r>   -2.8753    1.0000 </r>
       <r>   -2.8647    1.0000 </r>
       <r>   -2.7736    1.0000 </r>
       <r>   -2.6469    1.0000 </r>
       <r>   -2.5564    1.0000 </r>
       <r>   -2.4505    1.0000 </r>
       <r>   -2.3707    1.0000 </r>
       <r>   -2.3136    1.0000 </r>
       <r>   -2.1416    1.0000 </r>
       <r>   -2.1024    1.0000 </r>
       <r>   -1.9725    1.0000 </r>
       <r>   -1.8824    1.0000 </r>
       <r>   -1.7811    1.0000 </r>
       <r>   -1.7167    1.0000 </r>
       <r>   -1.6575    1.0000 </r>
       <r>   -1.5718    1.0000 </r>
       <r>   -1.5155    1.0000 </r>
       <r>   -1.4447    1.0000 </r>
       <r>   -1.3606    1.0000 </r>
       <r>   -1.1990    1.0000 </r>
       <r>   -1.0533    1.0000 </r>
       <r>   -0.8029    1.0000 </r>
       <r>   -0.6171    1.0000 </r>
       <r>   -0.3172    1.0000 </r>
       <r>    0.6344    0.0000 </r>
       <r>    1.2023    0.0000 </r>
       <r>    1.2963    0.0000 </r>
       <r>    1.3819    0.0000 </r>
       <r>    1.4127    0.0000 </r>
       <r>    1.7167    0.0000 </r>
       <r>    1.7706    0.0000 </r>
       <r>    1.7849    0.0000 </r>
       <r>    2.0131    0.0000 </r>
       <r>    2.0660    0.0000 </r>
       <r>    2.2465    0.0000 </r>
       <r>    2.3504    0.0000 </r>
       <r>    2.5046    0.0000 </r>
       <r>    2.7141    0.0000 </r>
      </set>
      <set comment="kpoint 2">
       <r>  -13.5754    1.0000 </r>
       <r>  -13.4068    1.0000 </r>
       <r>  -12.8932    1.0000 </r>
       <r>  -12.6782    1.0000 </r>
       <r>  -12.4321    1.0000 </r>
       <r>  -12.3406    1.0000 </r>
       <r>  -12.1506    1.0000 </r>
       <r>  -11.9465    1.0000 </r>
       <r>  -11.4079    1.0000 </r>
       <r>  -11.3143    1.0000 </r>
       <r>  -11.0595    1.0000 </r>
       <r>  -10.8695    1.0000 </r>
       <r>   -8.0270    1.0000 </r>
       <r>   -7.9601    1.0000 </r>
       <r>   -7.7231    1.0000 </r>
       <r>   -7.6918    1.0000 </r>
       <r>   -6.7978    1.0000 </r>
       <r>   -6.6499    1.0000 </r>
       <r>   -6.5048    1.0000 </r>
       <r>   -6.4140    1.0000 </r>
       <r>   -5.7578    1.0000 </r>
       <r>   -5.7100    1.0000 </r>
       <r>   -4.8239    1.0000 </r>
       <r>   -4.6764    1.0000 </r>
       <r>   -3.9595    1.0000 </r>
       <r>   -3.7829    1.0000 </r>
       <r>   -3.6529    1.0000 </r>
       <r>   -3.5701    1.0000 </r>
       <r>   -3.4184    1.0000 </r>
       <r>   -3.2941    1.0000 </r>
       <r>   -3.2046    1.0000 </r>
       <r>   -3.1542    1.0000 </r>
       <r>   -3.0917    1.0000 </r>
       <r>   -2.9134    1.0000 </r>
       <r>   -2.7876    1.0000 </r>
       <r>   -2.6622    1.0000 </r>
       <r>   -2.5302    1.0000 </r>
       <r>   -2.4062    1.0000 </r>
       <r>   -2.2857    1.0000 </r>
       <r>   -2.1791    1.0000 </r>
       <r>   -2.1162    1.0000 </r>
       <r>   -2.0316    1.0000 </r>
       <r>   -1.9614    1.0000 </r>
       <r>   -1.8966    1.0000 </r>
       <r>   -1.8539    1.0000 </r>
       <r>   -1.7698    1.0000 </r>
       <r>   -1.6695    1.0000 </r>
       <r>   -1.4977    1.0000 </r>
       <r>   -1.4391    1.0000 </r>
       <r>   -1.1518    1.0000 </r>
       <r>   -1.0971    1.0000 </r>
       <r>   -1.0053    1.0000 </r>
       <r>   -0.7916    1.0000 </r>
       <r>   -0.3258    1.0000 </r>
       <r>    1.1073    0.0000 </r>
       <r>    1.5815    0.0000 </r>
       <r>    1.6293    0.0000 </r>
       <r>    1.7497    0.0000 </r>
       <r>    1.8329    0.0000 </r>
       <r>    1.9597    0.0000 </r>
       <r>    2.0392    0.0000 </r>
       <r>    2.2037    0.0000 </r>
       <r>    2.2771    0.0000 </r>
       <r>    2.3281    0.0000 </r>
       <r>    2.4290    0.0000 </r>
       <r>    2.5411    0.0000 </r>
       <r>    2.6785    0.0000 </r>
       <r>    2.8362    0.0000 </r>
      </set>
      <set comment="kpoint 3">
       <r>  -13.4085    1.0000 </r>
       <r>  -13.2239    1.0000 </r>
       <r>  -12.7472    1.0000 </r>
       <r>  -12.5224    1.0000 </r>
       <r>  -12.2664    1.0000 </r>
       <r>  -12.1757    1.0000 </r>
       <r>  -11.9839    1.0000 </r>
       <r>  -11.7643    1.0000 </r>
       <r>  -11.2626    1.0000 </r>
       <r>  -11.1723    1.0000 </r>
       <r>  -10.9205    1.0000 </r>
       <r>  -10.7308    1.0000 </r>
       <r>   -8.1010    1.0000 </r>
       <r>   -7.9982    1.0000 </r>
       <r>   -7.7089    1.0000 </r>
       <r>   -7.6695    1.0000 </r>
       <r>   -6.7258    1.0000 </r>
       <r>   -6.6048    1.0000 </r>
       <r>   -6.4757    1.0000 </r>
       <r>   -6.4257    1.0000 </r>
       <r>   -5.6741    1.0000 </r>
       <r>   -5.6287    1.0000 </r>
       <r>   -4.9509    1.0000 </r>
       <r>   -4.7950    1.0000 </r>
       <r>   -4.3468    1.0000 </r>
       <r>   -4.1487    1.0000 </r>
       <r>   -4.0418    1.0000 </r>
       <r>   -3.9821    1.0000 </r>
       <r>   -3.9374    1.0000 </r>
       <r>   -3.8852    1.0000 </r>
       <r>   -3.6741    1.0000 </r>
       <r>   -3.5876    1.0000 </r>
       <r>   -3.5044    1.0000 </r>
       <r>   -3.2485    1.0000 </r>
       <r>   -3.1677    1.0000 </r>
       <r>   -3.0503    1.0000 </r>
       <r>   -2.9905    1.0000 </r>
       <r>   -2.8960    1.0000 </r>
       <r>   -2.8669    1.0000 </r>
       <r>   -2.6246    1.0000 </r>
       <r>   -2.4015    1.0000 </r>
       <r>   -2.3115    1.0000 </r>
       <r>   -2.1231    1.0000 </r>
       <r>   -2.0785    1.0000 </r>
       <r>   -1.9317    1.0000 </r>
       <r>   -1.8403    1.0000 </r>
       <r>   -1.7223    1.0000 </r>
       <r>   -1.6585    1.0000 </r>
       <r>   -1.5770    1.0000 </r>
       <r>   -1.5507    1.0000 </r>
       <r>   -1.1528    1.0000 </r>
       <r>   -1.0363    1.0000 </r>
       <r>   -0.8890    1.0000 </r>
       <r>   -0.4145    1.0000 </r>
       <r>    1.5366    0.0000 </r>
       <r>    1.7370    0.0000 </r>
       <r>    2.0022    0.0000 </r>
       <r>    2.0859    0.0000 </r>
       <r>    2.2786    0.0000 </r>
       <r>    2.3376    0.0000 </r>
       <r>    2.4996    0.0000 </r>
       <r>    2.5439    0.0000 </r>
       <r>    2.7049    0.0000 </r>
       <r>    2.7233    0.0000 </r>
       <r>    2.8155    0.0000 </r>
       <r>    2.9566    0.0000 </r>
       <r>    3.0245    0.0000 </r>
       <r>    3.1246    0.0000 </r>
      </set>
      <set comment="kpoint 4">
       <r>  -13.1421    1.0000 </r>
       <r>  -12.9230    1.0000 </r>
       <r>  -12.5086    1.0000 </r>
       <r>  -12.2662    1.0000 </r>
       <r>  -11.9977    1.0000 </r>
       <r>  -11.9092    1.0000 </r>
       <r>  -11.7231    1.0000 </r>
       <r>  -11.4768    1.0000 </r>
       <r>  -11.0362    1.0000 </r>
       <r>  -10.9556    1.0000 </r>
       <r>  -10.7109    1.0000 </r>
       <r>  -10.5280    1.0000 </r>
       <r>   -8.2877    1.0000 </r>
       <r>   -8.0749    1.0000 </r>
       <r>   -7.8560    1.0000 </r>
       <r>   -7.7494    1.0000 </r>
       <r>   -6.7723    1.0000 </r>
       <r>   -6.6286    1.0000 </r>
       <r>   -6.5610    1.0000 </r>
       <r>   -6.4646    1.0000 </r>
       <r>   -5.6865    1.0000 </r>
       <r>   -5.6466    1.0000 </r>
       <r>   -5.3549    1.0000 </r>
       <r>   -5.2678    1.0000 </r>
       <r>   -4.8426    1.0000 </r>
       <r>   -4.7444    1.0000 </r>
       <r>   -4.5859    1.0000 </r>
       <r>   -4.5369    1.0000 </r>
       <r>   -4.4586    1.0000 </r>
       <r>   -4.4206    1.0000 </r>
       <r>   -4.1672    1.0000 </r>
       <r>   -4.1078    1.0000 </r>
       <r>   -3.7723    1.0000 </r>
       <r>   -3.7144    1.0000 </r>
       <r>   -3.4534    1.0000 </r>
       <r>   -3.3965    1.0000 </r>
       <r>   -3.2621    1.0000 </r>
       <r>   -3.0872    1.0000 </r>
       <r>   -2.9222    1.0000 </r>
       <r>   -2.7490    1.0000 </r>
       <r>   -2.6423    1.0000 </r>
       <r>   -2.4790    1.0000 </r>
       <r>   -2.3915    1.0000 </r>
       <r>   -2.3120    1.0000 </r>
       <r>   -1.9393    1.0000 </r>
       <r>   -1.8311    1.0000 </r>
       <r>   -1.7712    1.0000 </r>
       <r>   -1.7497    1.0000 </r>
       <r>   -1.6532    1.0000 </r>
       <r>   -1.6073    1.0000 </r>
       <r>   -1.3941    1.0000 </r>
       <r>   -1.2197    1.0000 </r>
       <r>   -1.0753    1.0000 </r>
       <r>   -0.6293    1.0000 </r>
       <r>    1.2517    0.0000 </r>
       <r>    1.6168    0.0000 </r>
       <r>    1.8958    0.0000 </r>
       <r>    1.9740    0.0000 </r>
       <r>    2.0344    0.0000 </r>
       <r>    2.1771    0.0000 </r>
       <r>    2.3277    0.0000 </r>
       <r>    2.4284    0.0000 </r>
       <r>    2.6008    0.0000 </r>
       <r>    2.7028    0.0000 </r>
       <r>    2.7768    0.0000 </r>
       <r>    2.9517    0.0000 </r>
       <r>    2.9869    0.0000 </r>
       <r>    3.0417    0.0000 </r>
      </set>
      <set comment="kpoint 5">
       <r>  -12.8025    1.0000 </r>
       <r>  -12.5114    1.0000 </r>
       <r>  -12.1858    1.0000 </r>
       <r>  -11.9179    1.0000 </r>
       <r>  -11.6411    1.0000 </r>
       <r>  -11.5585    1.0000 </r>
       <r>  -11.4002    1.0000 </r>
       <r>  -11.1187    1.0000 </r>
       <r>  -10.7641    1.0000 </r>
       <r>  -10.7116    1.0000 </r>
       <r>  -10.4881    1.0000 </r>
       <r>  -10.3426    1.0000 </r>
       <r>   -8.5820    1.0000 </r>
       <r>   -8.2894    1.0000 </r>
       <r>   -8.1976    1.0000 </r>
       <r>   -8.0110    1.0000 </r>
       <r>   -7.1336    1.0000 </r>
       <r>   -6.9239    1.0000 </r>
       <r>   -6.8291    1.0000 </r>
       <r>   -6.6391    1.0000 </r>
       <r>   -6.1437    1.0000 </r>
       <r>   -6.0924    1.0000 </r>
       <r>   -5.8924    1.0000 </r>
       <r>   -5.7681    1.0000 </r>
       <r>   -5.1430    1.0000 </r>
       <r>   -5.0599    1.0000 </r>
       <r>   -4.9582    1.0000 </r>
       <r>   -4.7455    1.0000 </r>
       <r>   -4.6769    1.0000 </r>
       <r>   -4.6275    1.0000 </r>
       <r>   -4.3746    1.0000 </r>
       <r>   -4.2395    1.0000 </r>
       <r>   -4.1628    1.0000 </r>
       <r>   -4.0682    1.0000 </r>
       <r>   -3.4221    1.0000 </r>
       <r>   -3.3219    1.0000 </r>
       <r>   -3.1917    1.0000 </r>
       <r>   -3.1416    1.0000 </r>
       <r>   -3.0046    1.0000 </r>
       <r>   -2.9090    1.0000 </r>
       <r>   -2.7831    1.0000 </r>
       <r>   -2.6432    1.0000 </r>
       <r>   -2.5750    1.0000 </r>
       <r>   -2.3744    1.0000 </r>
       <r>   -2.0856    1.0000 </r>
       <r>   -1.9874    1.0000 </r>
       <r>   -1.8264    1.0000 </r>
       <r>   -1.8200    1.0000 </r>
       <r>   -1.7494    1.0000 </r>
       <r>   -1.6693    1.0000 </r>
       <r>   -1.5959    1.0000 </r>
       <r>   -1.5522    1.0000 </r>
       <r>   -1.2530    1.0000 </r>
       <r>   -0.9120    1.0000 </r>
       <r>    0.9305    0.0000 </r>
       <r>    1.3970    0.0000 </r>
       <r>    1.5791    0.0000 </r>
       <r>    1.6692    0.0000 </r>
       <r>    1.8017    0.0000 </r>
       <r>    1.9181    0.0000 </r>
       <r>    2.0655    0.0000 </r>
       <r>    2.2745    0.0000 </r>
       <r>    2.3151    0.0000 </r>
       <r>    2.4100    0.0000 </r>
       <r>    2.5841    0.0000 </r>
       <r>    2.7492    0.0000 </r>
       <r>    2.8309    0.0000 </r>
       <r>    2.8968    0.0000 </r>
      </set>
      <set comment="kpoint 6">
       <r>  -12.4520    1.0000 </r>
       <r>  -12.0033    1.0000 </r>
       <r>  -11.7906    1.0000 </r>
       <r>  -11.4988    1.0000 </r>
       <r>  -11.2322    1.0000 </r>
       <r>  -11.1646    1.0000 </r>
       <r>  -11.0838    1.0000 </r>
       <r>  -10.7758    1.0000 </r>
       <r>  -10.5583    1.0000 </r>
       <r>  -10.5342    1.0000 </r>
       <r>  -10.3889    1.0000 </r>
       <r>  -10.3829    1.0000 </r>
       <r>   -8.7591    1.0000 </r>
       <r>   -8.6813    1.0000 </r>
       <r>   -8.4274    1.0000 </r>
       <r>   -8.3034    1.0000 </r>
       <r>   -7.5758    1.0000 </r>
       <r>   -7.3866    1.0000 </r>
       <r>   -7.3425    1.0000 </r>
       <r>   -7.1208    1.0000 </r>
       <r>   -6.7962    1.0000 </r>
       <r>   -6.6896    1.0000 </r>
       <r>   -6.5887    1.0000 </r>
       <r>   -6.2243    1.0000 </r>
       <r>   -5.1600    1.0000 </r>
       <r>   -5.1291    1.0000 </r>
       <r>   -4.7817    1.0000 </r>
       <r>   -4.6122    1.0000 </r>
       <r>   -4.5315    1.0000 </r>
       <r>   -4.4548    1.0000 </r>
       <r>   -4.2053    1.0000 </r>
       <r>   -4.1445    1.0000 </r>
       <r>   -4.0637    1.0000 </r>
       <r>   -3.9942    1.0000 </r>
       <r>   -3.6520    1.0000 </r>
       <r>   -3.5828    1.0000 </r>
       <r>   -3.4076    1.0000 </r>
       <r>   -3.1987    1.0000 </r>
       <r>   -3.1145    1.0000 </r>
       <r>   -3.0666    1.0000 </r>
       <r>   -2.9085    1.0000 </r>
       <r>   -2.7394    1.0000 </r>
       <r>   -2.5536    1.0000 </r>
       <r>   -2.4085    1.0000 </r>
       <r>   -2.2888    1.0000 </r>
       <r>   -2.2049    1.0000 </r>
       <r>   -2.0213    1.0000 </r>
       <r>   -1.9577    1.0000 </r>
       <r>   -1.9270    1.0000 </r>
       <r>   -1.8205    1.0000 </r>
       <r>   -1.7508    1.0000 </r>
       <r>   -1.5789    1.0000 </r>
       <r>   -1.3220    1.0000 </r>
       <r>   -1.1039    1.0000 </r>
       <r>    0.7438    0.0000 </r>
       <r>    1.1202    0.0000 </r>
       <r>    1.3110    0.0000 </r>
       <r>    1.4767    0.0000 </r>
       <r>    1.6913    0.0000 </r>
       <r>    1.7662    0.0000 </r>
       <r>    1.8870    0.0000 </r>
       <r>    1.9942    0.0000 </r>
       <r>    2.1168    0.0000 </r>
       <r>    2.2966    0.0000 </r>
       <r>    2.3371    0.0000 </r>
       <r>    2.4227    0.0000 </r>
       <r>    2.6190    0.0000 </r>
       <r>    2.7778    0.0000 </r>
      </set>
      <set comment="kpoint 7">
       <r>  -12.2125    1.0000 </r>
       <r>  -11.4301    1.0000 </r>
       <r>  -11.3552    1.0000 </r>
       <r>  -11.0760    1.0000 </r>
       <r>  -10.9870    1.0000 </r>
       <r>  -10.8778    1.0000 </r>
       <r>  -10.8526    1.0000 </r>
       <r>  -10.7712    1.0000 </r>
       <r>  -10.6564    1.0000 </r>
       <r>  -10.5644    1.0000 </r>
       <r>  -10.5200    1.0000 </r>
       <r>  -10.4294    1.0000 </r>
       <r>   -8.9763    1.0000 </r>
       <r>   -8.6173    1.0000 </r>
       <r>   -8.3681    1.0000 </r>
       <r>   -8.3250    1.0000 </r>
       <r>   -8.0069    1.0000 </r>
       <r>   -7.8486    1.0000 </r>
       <r>   -7.6226    1.0000 </r>
       <r>   -7.4987    1.0000 </r>
       <r>   -7.3269    1.0000 </r>
       <r>   -7.2135    1.0000 </r>
       <r>   -7.1092    1.0000 </r>
       <r>   -6.5082    1.0000 </r>
       <r>   -4.9496    1.0000 </r>
       <r>   -4.8445    1.0000 </r>
       <r>   -4.5537    1.0000 </r>
       <r>   -4.4346    1.0000 </r>
       <r>   -4.3263    1.0000 </r>
       <r>   -4.2274    1.0000 </r>
       <r>   -4.1385    1.0000 </r>
       <r>   -3.9792    1.0000 </r>
       <r>   -3.9342    1.0000 </r>
       <r>   -3.8521    1.0000 </r>
       <r>   -3.7615    1.0000 </r>
       <r>   -3.6714    1.0000 </r>
       <r>   -3.5937    1.0000 </r>
       <r>   -3.4992    1.0000 </r>
       <r>   -3.3509    1.0000 </r>
       <r>   -3.2135    1.0000 </r>
       <r>   -3.1840    1.0000 </r>
       <r>   -2.9344    1.0000 </r>
       <r>   -2.6301    1.0000 </r>
       <r>   -2.4701    1.0000 </r>
       <r>   -2.3952    1.0000 </r>
       <r>   -2.2855    1.0000 </r>
       <r>   -2.1394    1.0000 </r>
       <r>   -2.0859    1.0000 </r>
       <r>   -2.0182    1.0000 </r>
       <r>   -1.8392    1.0000 </r>
       <r>   -1.6565    1.0000 </r>
       <r>   -1.5158    1.0000 </r>
       <r>   -1.4377    1.0000 </r>
       <r>   -1.1724    1.0000 </r>
       <r>    0.7174    0.0000 </r>
       <r>    0.9081    0.0000 </r>
       <r>    1.1730    0.0000 </r>
       <r>    1.4243    0.0000 </r>
       <r>    1.5779    0.0000 </r>
       <r>    1.6462    0.0000 </r>
       <r>    1.7452    0.0000 </r>
       <r>    1.8403    0.0000 </r>
       <r>    1.9385    0.0000 </r>
       <r>    2.1555    0.0000 </r>
       <r>    2.2734    0.0000 </r>
       <r>    2.4524    0.0000 </r>
       <r>    2.5200    0.0000 </r>
       <r>    2.5904    0.0000 </r>
      </set>
      <set comment="kpoint 8">
       <r>  -13.5774    1.0000 </r>
       <r>  -13.4126    1.0000 </r>
       <r>  -13.0996    1.0000 </r>
       <r>  -12.9038    1.0000 </r>
       <r>  -12.4892    1.0000 </r>
       <r>  -12.3907    1.0000 </r>
       <r>  -12.0350    1.0000 </r>
       <r>  -11.7982    1.0000 </r>
       <r>  -11.4912    1.0000 </r>
       <r>  -11.4081    1.0000 </r>
       <r>  -11.1071    1.0000 </r>
       <r>  -10.9270    1.0000 </r>
       <r>   -8.4541    1.0000 </r>
       <r>   -8.4228    1.0000 </r>
       <r>   -7.3578    1.0000 </r>
       <r>   -7.2071    1.0000 </r>
       <r>   -6.7129    1.0000 </r>
       <r>   -6.5994    1.0000 </r>
       <r>   -6.5714    1.0000 </r>
       <r>   -6.4924    1.0000 </r>
       <r>   -5.7329    1.0000 </r>
       <r>   -5.6598    1.0000 </r>
       <r>   -4.7286    1.0000 </r>
       <r>   -4.5675    1.0000 </r>
       <r>   -4.0992    1.0000 </r>
       <r>   -3.9520    1.0000 </r>
       <r>   -3.7604    1.0000 </r>
       <r>   -3.4586    1.0000 </r>
       <r>   -3.2884    1.0000 </r>
       <r>   -3.0571    1.0000 </r>
       <r>   -2.9997    1.0000 </r>
       <r>   -2.9293    1.0000 </r>
       <r>   -2.7383    1.0000 </r>
       <r>   -2.6377    1.0000 </r>
       <r>   -2.5012    1.0000 </r>
       <r>   -2.3697    1.0000 </r>
       <r>   -2.3207    1.0000 </r>
       <r>   -2.3040    1.0000 </r>
       <r>   -2.2666    1.0000 </r>
       <r>   -2.1223    1.0000 </r>
       <r>   -2.0194    1.0000 </r>
       <r>   -1.9061    1.0000 </r>
       <r>   -1.8477    1.0000 </r>
       <r>   -1.8092    1.0000 </r>
       <r>   -1.6228    1.0000 </r>
       <r>   -1.5574    1.0000 </r>
       <r>   -1.4216    1.0000 </r>
       <r>   -1.3473    1.0000 </r>
       <r>   -1.2914    1.0000 </r>
       <r>   -1.1301    1.0000 </r>
       <r>   -0.9931    1.0000 </r>
       <r>   -0.7985    1.0000 </r>
       <r>   -0.6197    1.0000 </r>
       <r>   -0.2714    1.0000 </r>
       <r>    0.6399    0.0000 </r>
       <r>    1.2430    0.0000 </r>
       <r>    1.2806    0.0000 </r>
       <r>    1.4228    0.0000 </r>
       <r>    1.4941    0.0000 </r>
       <r>    1.6309    0.0000 </r>
       <r>    1.7951    0.0000 </r>
       <r>    1.8241    0.0000 </r>
       <r>    1.9582    0.0000 </r>
       <r>    2.1716    0.0000 </r>
       <r>    2.3129    0.0000 </r>
       <r>    2.3956    0.0000 </r>
       <r>    2.6314    0.0000 </r>
       <r>    2.7170    0.0000 </r>
      </set>
      <set comment="kpoint 9">
       <r>  -13.5077    1.0000 </r>
       <r>  -13.3357    1.0000 </r>
       <r>  -13.0769    1.0000 </r>
       <r>  -12.8847    1.0000 </r>
       <r>  -12.4323    1.0000 </r>
       <r>  -12.3335    1.0000 </r>
       <r>  -11.9547    1.0000 </r>
       <r>  -11.6987    1.0000 </r>
       <r>  -11.4433    1.0000 </r>
       <r>  -11.3668    1.0000 </r>
       <r>  -11.0612    1.0000 </r>
       <r>  -10.8828    1.0000 </r>
       <r>   -8.5066    1.0000 </r>
       <r>   -8.4563    1.0000 </r>
       <r>   -7.3140    1.0000 </r>
       <r>   -7.1652    1.0000 </r>
       <r>   -6.7271    1.0000 </r>
       <r>   -6.6059    1.0000 </r>
       <r>   -6.5076    1.0000 </r>
       <r>   -6.4337    1.0000 </r>
       <r>   -5.6764    1.0000 </r>
       <r>   -5.6074    1.0000 </r>
       <r>   -4.7329    1.0000 </r>
       <r>   -4.6133    1.0000 </r>
       <r>   -4.1663    1.0000 </r>
       <r>   -4.0252    1.0000 </r>
       <r>   -3.7331    1.0000 </r>
       <r>   -3.5754    1.0000 </r>
       <r>   -3.5120    1.0000 </r>
       <r>   -3.3521    1.0000 </r>
       <r>   -3.3035    1.0000 </r>
       <r>   -3.0825    1.0000 </r>
       <r>   -2.9619    1.0000 </r>
       <r>   -2.9024    1.0000 </r>
       <r>   -2.8054    1.0000 </r>
       <r>   -2.6190    1.0000 </r>
       <r>   -2.5286    1.0000 </r>
       <r>   -2.4325    1.0000 </r>
       <r>   -2.3949    1.0000 </r>
       <r>   -2.2439    1.0000 </r>
       <r>   -2.2078    1.0000 </r>
       <r>   -2.1266    1.0000 </r>
       <r>   -2.0592    1.0000 </r>
       <r>   -1.9396    1.0000 </r>
       <r>   -1.7899    1.0000 </r>
       <r>   -1.7588    1.0000 </r>
       <r>   -1.6741    1.0000 </r>
       <r>   -1.4153    1.0000 </r>
       <r>   -1.3006    1.0000 </r>
       <r>   -1.0759    1.0000 </r>
       <r>   -0.9972    1.0000 </r>
       <r>   -0.9387    1.0000 </r>
       <r>   -0.7909    1.0000 </r>
       <r>   -0.2868    1.0000 </r>
       <r>    1.0995    0.0000 </r>
       <r>    1.5027    0.0000 </r>
       <r>    1.6375    0.0000 </r>
       <r>    1.7215    0.0000 </r>
       <r>    1.8500    0.0000 </r>
       <r>    1.9790    0.0000 </r>
       <r>    2.0367    0.0000 </r>
       <r>    2.1966    0.0000 </r>
       <r>    2.3064    0.0000 </r>
       <r>    2.4161    0.0000 </r>
       <r>    2.5837    0.0000 </r>
       <r>    2.7111    0.0000 </r>
       <r>    2.7361    0.0000 </r>
       <r>    2.9879    0.0000 </r>
      </set>
      <set comment="kpoint 10">
       <r>  -13.3318    1.0000 </r>
       <r>  -13.1393    1.0000 </r>
       <r>  -12.9426    1.0000 </r>
       <r>  -12.7482    1.0000 </r>
       <r>  -12.2651    1.0000 </r>
       <r>  -12.1674    1.0000 </r>
       <r>  -11.7861    1.0000 </r>
       <r>  -11.5010    1.0000 </r>
       <r>  -11.2938    1.0000 </r>
       <r>  -11.2273    1.0000 </r>
       <r>  -10.9199    1.0000 </r>
       <r>  -10.7418    1.0000 </r>
       <r>   -8.5697    1.0000 </r>
       <r>   -8.4725    1.0000 </r>
       <r>   -7.2819    1.0000 </r>
       <r>   -7.1641    1.0000 </r>
       <r>   -6.7257    1.0000 </r>
       <r>   -6.5838    1.0000 </r>
       <r>   -6.4686    1.0000 </r>
       <r>   -6.3998    1.0000 </r>
       <r>   -5.6056    1.0000 </r>
       <r>   -5.5453    1.0000 </r>
       <r>   -4.8401    1.0000 </r>
       <r>   -4.7662    1.0000 </r>
       <r>   -4.4696    1.0000 </r>
       <r>   -4.3140    1.0000 </r>
       <r>   -4.2603    1.0000 </r>
       <r>   -4.2094    1.0000 </r>
       <r>   -3.9244    1.0000 </r>
       <r>   -3.8508    1.0000 </r>
       <r>   -3.6041    1.0000 </r>
       <r>   -3.5346    1.0000 </r>
       <r>   -3.4416    1.0000 </r>
       <r>   -3.2425    1.0000 </r>
       <r>   -3.1264    1.0000 </r>
       <r>   -3.0259    1.0000 </r>
       <r>   -2.8959    1.0000 </r>
       <r>   -2.8100    1.0000 </r>
       <r>   -2.7540    1.0000 </r>
       <r>   -2.6546    1.0000 </r>
       <r>   -2.5256    1.0000 </r>
       <r>   -2.4998    1.0000 </r>
       <r>   -2.3087    1.0000 </r>
       <r>   -2.2394    1.0000 </r>
       <r>   -1.9517    1.0000 </r>
       <r>   -1.8372    1.0000 </r>
       <r>   -1.7814    1.0000 </r>
       <r>   -1.6746    1.0000 </r>
       <r>   -1.4170    1.0000 </r>
       <r>   -1.3573    1.0000 </r>
       <r>   -1.0971    1.0000 </r>
       <r>   -0.9869    1.0000 </r>
       <r>   -0.8869    1.0000 </r>
       <r>   -0.3817    1.0000 </r>
       <r>    1.4846    0.0000 </r>
       <r>    1.5747    0.0000 </r>
       <r>    1.7314    0.0000 </r>
       <r>    2.0368    0.0000 </r>
       <r>    2.1557    0.0000 </r>
       <r>    2.3087    0.0000 </r>
       <r>    2.4516    0.0000 </r>
       <r>    2.6525    0.0000 </r>
       <r>    2.8063    0.0000 </r>
       <r>    2.8682    0.0000 </r>
       <r>    2.9633    0.0000 </r>
       <r>    3.0433    0.0000 </r>
       <r>    3.1336    0.0000 </r>
       <r>    3.1708    0.0000 </r>
      </set>
      <set comment="kpoint 11">
       <r>  -13.0647    1.0000 </r>
       <r>  -12.8282    1.0000 </r>
       <r>  -12.6962    1.0000 </r>
       <r>  -12.4969    1.0000 </r>
       <r>  -11.9951    1.0000 </r>
       <r>  -11.9005    1.0000 </r>
       <r>  -11.5474    1.0000 </r>
       <r>  -11.2246    1.0000 </r>
       <r>  -11.0571    1.0000 </r>
       <r>  -11.0055    1.0000 </r>
       <r>  -10.7006    1.0000 </r>
       <r>  -10.5247    1.0000 </r>
       <r>   -8.6999    1.0000 </r>
       <r>   -8.5282    1.0000 </r>
       <r>   -7.3994    1.0000 </r>
       <r>   -7.3077    1.0000 </r>
       <r>   -6.8095    1.0000 </r>
       <r>   -6.6242    1.0000 </r>
       <r>   -6.5802    1.0000 </r>
       <r>   -6.4835    1.0000 </r>
       <r>   -5.7599    1.0000 </r>
       <r>   -5.6572    1.0000 </r>
       <r>   -5.2000    1.0000 </r>
       <r>   -5.1360    1.0000 </r>
       <r>   -4.9753    1.0000 </r>
       <r>   -4.9447    1.0000 </r>
       <r>   -4.7170    1.0000 </r>
       <r>   -4.5921    1.0000 </r>
       <r>   -4.5051    1.0000 </r>
       <r>   -4.4425    1.0000 </r>
       <r>   -4.0759    1.0000 </r>
       <r>   -3.9459    1.0000 </r>
       <r>   -3.6845    1.0000 </r>
       <r>   -3.6333    1.0000 </r>
       <r>   -3.4794    1.0000 </r>
       <r>   -3.2914    1.0000 </r>
       <r>   -3.1385    1.0000 </r>
       <r>   -3.0221    1.0000 </r>
       <r>   -2.9816    1.0000 </r>
       <r>   -2.7714    1.0000 </r>
       <r>   -2.6312    1.0000 </r>
       <r>   -2.5131    1.0000 </r>
       <r>   -2.4559    1.0000 </r>
       <r>   -2.3966    1.0000 </r>
       <r>   -2.0026    1.0000 </r>
       <r>   -1.9108    1.0000 </r>
       <r>   -1.8518    1.0000 </r>
       <r>   -1.7435    1.0000 </r>
       <r>   -1.6972    1.0000 </r>
       <r>   -1.5917    1.0000 </r>
       <r>   -1.3265    1.0000 </r>
       <r>   -1.2046    1.0000 </r>
       <r>   -1.0361    1.0000 </r>
       <r>   -0.6144    1.0000 </r>
       <r>    1.1827    0.0000 </r>
       <r>    1.3884    0.0000 </r>
       <r>    1.5347    0.0000 </r>
       <r>    1.6736    0.0000 </r>
       <r>    1.7362    0.0000 </r>
       <r>    2.1020    0.0000 </r>
       <r>    2.3253    0.0000 </r>
       <r>    2.4919    0.0000 </r>
       <r>    2.6282    0.0000 </r>
       <r>    2.7496    0.0000 </r>
       <r>    2.8033    0.0000 </r>
       <r>    3.0800    0.0000 </r>
       <r>    3.1358    0.0000 </r>
       <r>    3.2696    0.0000 </r>
      </set>
      <set comment="kpoint 12">
       <r>  -12.7400    1.0000 </r>
       <r>  -12.4124    1.0000 </r>
       <r>  -12.3384    1.0000 </r>
       <r>  -12.1380    1.0000 </r>
       <r>  -11.6385    1.0000 </r>
       <r>  -11.5510    1.0000 </r>
       <r>  -11.2716    1.0000 </r>
       <r>  -10.9108    1.0000 </r>
       <r>  -10.7712    1.0000 </r>
       <r>  -10.7419    1.0000 </r>
       <r>  -10.4612    1.0000 </r>
       <r>  -10.3195    1.0000 </r>
       <r>   -8.8989    1.0000 </r>
       <r>   -8.6774    1.0000 </r>
       <r>   -7.8182    1.0000 </r>
       <r>   -7.6331    1.0000 </r>
       <r>   -7.1143    1.0000 </r>
       <r>   -7.0413    1.0000 </r>
       <r>   -6.8886    1.0000 </r>
       <r>   -6.7888    1.0000 </r>
       <r>   -6.1261    1.0000 </r>
       <r>   -6.0488    1.0000 </r>
       <r>   -5.8467    1.0000 </r>
       <r>   -5.8000    1.0000 </r>
       <r>   -5.3124    1.0000 </r>
       <r>   -5.2407    1.0000 </r>
       <r>   -4.9823    1.0000 </r>
       <r>   -4.8648    1.0000 </r>
       <r>   -4.5172    1.0000 </r>
       <r>   -4.4152    1.0000 </r>
       <r>   -4.3350    1.0000 </r>
       <r>   -4.2470    1.0000 </r>
       <r>   -3.9424    1.0000 </r>
       <r>   -3.8052    1.0000 </r>
       <r>   -3.6130    1.0000 </r>
       <r>   -3.2715    1.0000 </r>
       <r>   -3.1246    1.0000 </r>
       <r>   -3.0165    1.0000 </r>
       <r>   -2.9256    1.0000 </r>
       <r>   -2.8366    1.0000 </r>
       <r>   -2.7875    1.0000 </r>
       <r>   -2.6860    1.0000 </r>
       <r>   -2.5016    1.0000 </r>
       <r>   -2.3919    1.0000 </r>
       <r>   -2.2436    1.0000 </r>
       <r>   -2.0805    1.0000 </r>
       <r>   -1.9270    1.0000 </r>
       <r>   -1.8809    1.0000 </r>
       <r>   -1.8284    1.0000 </r>
       <r>   -1.6879    1.0000 </r>
       <r>   -1.6680    1.0000 </r>
       <r>   -1.5490    1.0000 </r>
       <r>   -1.2368    1.0000 </r>
       <r>   -0.9225    1.0000 </r>
       <r>    0.8439    0.0000 </r>
       <r>    1.1322    0.0000 </r>
       <r>    1.2934    0.0000 </r>
       <r>    1.3619    0.0000 </r>
       <r>    1.4216    0.0000 </r>
       <r>    1.9077    0.0000 </r>
       <r>    2.1847    0.0000 </r>
       <r>    2.3067    0.0000 </r>
       <r>    2.4249    0.0000 </r>
       <r>    2.4879    0.0000 </r>
       <r>    2.5521    0.0000 </r>
       <r>    2.6855    0.0000 </r>
       <r>    2.8509    0.0000 </r>
       <r>    3.0339    0.0000 </r>
      </set>
      <set comment="kpoint 13">
       <r>  -12.4198    1.0000 </r>
       <r>  -11.9116    1.0000 </r>
       <r>  -11.8788    1.0000 </r>
       <r>  -11.6881    1.0000 </r>
       <r>  -11.2316    1.0000 </r>
       <r>  -11.1602    1.0000 </r>
       <r>  -11.0252    1.0000 </r>
       <r>  -10.6524    1.0000 </r>
       <r>  -10.5332    1.0000 </r>
       <r>  -10.5297    1.0000 </r>
       <r>  -10.3960    1.0000 </r>
       <r>  -10.3552    1.0000 </r>
       <r>   -8.8892    1.0000 </r>
       <r>   -8.7787    1.0000 </r>
       <r>   -8.3422    1.0000 </r>
       <r>   -8.0375    1.0000 </r>
       <r>   -7.7085    1.0000 </r>
       <r>   -7.5182    1.0000 </r>
       <r>   -7.3335    1.0000 </r>
       <r>   -7.2835    1.0000 </r>
       <r>   -6.7152    1.0000 </r>
       <r>   -6.6232    1.0000 </r>
       <r>   -6.5883    1.0000 </r>
       <r>   -6.1998    1.0000 </r>
       <r>   -5.2851    1.0000 </r>
       <r>   -5.2512    1.0000 </r>
       <r>   -4.8404    1.0000 </r>
       <r>   -4.7153    1.0000 </r>
       <r>   -4.5452    1.0000 </r>
       <r>   -4.3346    1.0000 </r>
       <r>   -4.1677    1.0000 </r>
       <r>   -4.0369    1.0000 </r>
       <r>   -3.8514    1.0000 </r>
       <r>   -3.7883    1.0000 </r>
       <r>   -3.5481    1.0000 </r>
       <r>   -3.3033    1.0000 </r>
       <r>   -3.2821    1.0000 </r>
       <r>   -3.2116    1.0000 </r>
       <r>   -3.1345    1.0000 </r>
       <r>   -3.0555    1.0000 </r>
       <r>   -2.9298    1.0000 </r>
       <r>   -2.8648    1.0000 </r>
       <r>   -2.6614    1.0000 </r>
       <r>   -2.4826    1.0000 </r>
       <r>   -2.3917    1.0000 </r>
       <r>   -2.2326    1.0000 </r>
       <r>   -2.0568    1.0000 </r>
       <r>   -2.0009    1.0000 </r>
       <r>   -1.9769    1.0000 </r>
       <r>   -1.8146    1.0000 </r>
       <r>   -1.7694    1.0000 </r>
       <r>   -1.6757    1.0000 </r>
       <r>   -1.3671    1.0000 </r>
       <r>   -1.1358    1.0000 </r>
       <r>    0.7085    0.0000 </r>
       <r>    0.9864    0.0000 </r>
       <r>    1.1589    0.0000 </r>
       <r>    1.2865    0.0000 </r>
       <r>    1.4024    0.0000 </r>
       <r>    1.7322    0.0000 </r>
       <r>    1.8916    0.0000 </r>
       <r>    1.9813    0.0000 </r>
       <r>    2.1216    0.0000 </r>
       <r>    2.2166    0.0000 </r>
       <r>    2.3697    0.0000 </r>
       <r>    2.6460    0.0000 </r>
       <r>    2.6914    0.0000 </r>
       <r>    2.7425    0.0000 </r>
      </set>
      <set comment="kpoint 14">
       <r>  -12.2053    1.0000 </r>
       <r>  -11.3813    1.0000 </r>
       <r>  -11.3540    1.0000 </r>
       <r>  -11.1929    1.0000 </r>
       <r>  -10.9976    1.0000 </r>
       <r>  -10.8867    1.0000 </r>
       <r>  -10.8597    1.0000 </r>
       <r>  -10.7887    1.0000 </r>
       <r>  -10.6277    1.0000 </r>
       <r>  -10.5180    1.0000 </r>
       <r>  -10.5078    1.0000 </r>
       <r>  -10.4091    1.0000 </r>
       <r>   -8.8017    1.0000 </r>
       <r>   -8.5288    1.0000 </r>
       <r>   -8.4835    1.0000 </r>
       <r>   -8.3279    1.0000 </r>
       <r>   -8.2542    1.0000 </r>
       <r>   -7.8672    1.0000 </r>
       <r>   -7.6630    1.0000 </r>
       <r>   -7.4448    1.0000 </r>
       <r>   -7.2918    1.0000 </r>
       <r>   -7.2412    1.0000 </r>
       <r>   -7.0697    1.0000 </r>
       <r>   -6.4427    1.0000 </r>
       <r>   -5.0458    1.0000 </r>
       <r>   -4.9468    1.0000 </r>
       <r>   -4.5283    1.0000 </r>
       <r>   -4.4074    1.0000 </r>
       <r>   -4.3055    1.0000 </r>
       <r>   -4.1723    1.0000 </r>
       <r>   -4.0917    1.0000 </r>
       <r>   -4.0509    1.0000 </r>
       <r>   -3.9327    1.0000 </r>
       <r>   -3.8580    1.0000 </r>
       <r>   -3.7035    1.0000 </r>
       <r>   -3.5890    1.0000 </r>
       <r>   -3.5442    1.0000 </r>
       <r>   -3.4161    1.0000 </r>
       <r>   -3.2139    1.0000 </r>
       <r>   -3.1938    1.0000 </r>
       <r>   -3.1290    1.0000 </r>
       <r>   -2.9201    1.0000 </r>
       <r>   -2.6108    1.0000 </r>
       <r>   -2.5695    1.0000 </r>
       <r>   -2.5319    1.0000 </r>
       <r>   -2.4594    1.0000 </r>
       <r>   -2.1374    1.0000 </r>
       <r>   -2.0605    1.0000 </r>
       <r>   -2.0468    1.0000 </r>
       <r>   -1.8232    1.0000 </r>
       <r>   -1.6730    1.0000 </r>
       <r>   -1.5579    1.0000 </r>
       <r>   -1.4688    1.0000 </r>
       <r>   -1.2056    1.0000 </r>
       <r>    0.7115    0.0000 </r>
       <r>    0.8673    0.0000 </r>
       <r>    1.2063    0.0000 </r>
       <r>    1.4787    0.0000 </r>
       <r>    1.5469    0.0000 </r>
       <r>    1.6217    0.0000 </r>
       <r>    1.6908    0.0000 </r>
       <r>    1.8426    0.0000 </r>
       <r>    1.9407    0.0000 </r>
       <r>    2.1099    0.0000 </r>
       <r>    2.2228    0.0000 </r>
       <r>    2.4474    0.0000 </r>
       <r>    2.5443    0.0000 </r>
       <r>    2.5931    0.0000 </r>
      </set>
      <set comment="kpoint 15">
       <r>  -12.2137    1.0000 </r>
       <r>  -11.4637    1.0000 </r>
       <r>  -11.3576    1.0000 </r>
       <r>  -10.9994    1.0000 </r>
       <r>  -10.9797    1.0000 </r>
       <r>  -10.8680    1.0000 </r>
       <r>  -10.8369    1.0000 </r>
       <r>  -10.7394    1.0000 </r>
       <r>  -10.6827    1.0000 </r>
       <r>  -10.6319    1.0000 </r>
       <r>  -10.5143    1.0000 </r>
       <r>  -10.4512    1.0000 </r>
       <r>   -8.9792    1.0000 </r>
       <r>   -8.6858    1.0000 </r>
       <r>   -8.3608    1.0000 </r>
       <r>   -8.2341    1.0000 </r>
       <r>   -8.0241    1.0000 </r>
       <r>   -7.8717    1.0000 </r>
       <r>   -7.5666    1.0000 </r>
       <r>   -7.5314    1.0000 </r>
       <r>   -7.3339    1.0000 </r>
       <r>   -7.2090    1.0000 </r>
       <r>   -7.1478    1.0000 </r>
       <r>   -6.4280    1.0000 </r>
       <r>   -4.8997    1.0000 </r>
       <r>   -4.6635    1.0000 </r>
       <r>   -4.5835    1.0000 </r>
       <r>   -4.5093    1.0000 </r>
       <r>   -4.3402    1.0000 </r>
       <r>   -4.2965    1.0000 </r>
       <r>   -4.1174    1.0000 </r>
       <r>   -4.0696    1.0000 </r>
       <r>   -3.9324    1.0000 </r>
       <r>   -3.9135    1.0000 </r>
       <r>   -3.8131    1.0000 </r>
       <r>   -3.7894    1.0000 </r>
       <r>   -3.6474    1.0000 </r>
       <r>   -3.5612    1.0000 </r>
       <r>   -3.3003    1.0000 </r>
       <r>   -3.2745    1.0000 </r>
       <r>   -2.9605    1.0000 </r>
       <r>   -2.7329    1.0000 </r>
       <r>   -2.6278    1.0000 </r>
       <r>   -2.5141    1.0000 </r>
       <r>   -2.4382    1.0000 </r>
       <r>   -2.3075    1.0000 </r>
       <r>   -2.1183    1.0000 </r>
       <r>   -2.0911    1.0000 </r>
       <r>   -2.0439    1.0000 </r>
       <r>   -1.8594    1.0000 </r>
       <r>   -1.6315    1.0000 </r>
       <r>   -1.5660    1.0000 </r>
       <r>   -1.4124    1.0000 </r>
       <r>   -1.1794    1.0000 </r>
       <r>    0.6635    0.0000 </r>
       <r>    0.9854    0.0000 </r>
       <r>    1.2803    0.0000 </r>
       <r>    1.4394    0.0000 </r>
       <r>    1.6541    0.0000 </r>
       <r>    1.7677    0.0000 </r>
       <r>    1.8181    0.0000 </r>
       <r>    1.9265    0.0000 </r>
       <r>    2.0161    0.0000 </r>
       <r>    2.2001    0.0000 </r>
       <r>    2.2834    0.0000 </r>
       <r>    2.3964    0.0000 </r>
       <r>    2.4510    0.0000 </r>
       <r>    2.6513    0.0000 </r>
      </set>
      <set comment="kpoint 16">
       <r>  -12.4564    1.0000 </r>
       <r>  -12.0299    1.0000 </r>
       <r>  -11.7829    1.0000 </r>
       <r>  -11.4142    1.0000 </r>
       <r>  -11.2285    1.0000 </r>
       <r>  -11.1608    1.0000 </r>
       <r>  -11.0880    1.0000 </r>
       <r>  -10.8556    1.0000 </r>
       <r>  -10.5611    1.0000 </r>
       <r>  -10.5353    1.0000 </r>
       <r>  -10.3803    1.0000 </r>
       <r>  -10.3768    1.0000 </r>
       <r>   -8.9116    1.0000 </r>
       <r>   -8.6701    1.0000 </r>
       <r>   -8.4180    1.0000 </r>
       <r>   -8.0935    1.0000 </r>
       <r>   -7.6195    1.0000 </r>
       <r>   -7.3689    1.0000 </r>
       <r>   -7.2742    1.0000 </r>
       <r>   -7.2426    1.0000 </r>
       <r>   -6.7619    1.0000 </r>
       <r>   -6.7386    1.0000 </r>
       <r>   -6.5927    1.0000 </r>
       <r>   -6.1363    1.0000 </r>
       <r>   -5.1503    1.0000 </r>
       <r>   -4.9786    1.0000 </r>
       <r>   -4.8150    1.0000 </r>
       <r>   -4.7716    1.0000 </r>
       <r>   -4.5235    1.0000 </r>
       <r>   -4.3373    1.0000 </r>
       <r>   -4.2759    1.0000 </r>
       <r>   -4.1914    1.0000 </r>
       <r>   -4.0764    1.0000 </r>
       <r>   -4.0173    1.0000 </r>
       <r>   -3.7227    1.0000 </r>
       <r>   -3.6518    1.0000 </r>
       <r>   -3.4743    1.0000 </r>
       <r>   -3.3339    1.0000 </r>
       <r>   -3.1173    1.0000 </r>
       <r>   -2.9828    1.0000 </r>
       <r>   -2.8487    1.0000 </r>
       <r>   -2.6850    1.0000 </r>
       <r>   -2.5456    1.0000 </r>
       <r>   -2.3939    1.0000 </r>
       <r>   -2.3007    1.0000 </r>
       <r>   -2.1639    1.0000 </r>
       <r>   -2.0143    1.0000 </r>
       <r>   -1.9472    1.0000 </r>
       <r>   -1.8765    1.0000 </r>
       <r>   -1.8296    1.0000 </r>
       <r>   -1.7265    1.0000 </r>
       <r>   -1.6311    1.0000 </r>
       <r>   -1.3108    1.0000 </r>
       <r>   -1.0713    1.0000 </r>
       <r>    0.7247    0.0000 </r>
       <r>    1.1510    0.0000 </r>
       <r>    1.4120    0.0000 </r>
       <r>    1.4562    0.0000 </r>
       <r>    1.8189    0.0000 </r>
       <r>    1.9071    0.0000 </r>
       <r>    2.0285    0.0000 </r>
       <r>    2.1833    0.0000 </r>
       <r>    2.2355    0.0000 </r>
       <r>    2.2691    0.0000 </r>
       <r>    2.3834    0.0000 </r>
       <r>    2.4418    0.0000 </r>
       <r>    2.5118    0.0000 </r>
       <r>    2.6406    0.0000 </r>
      </set>
      <set comment="kpoint 17">
       <r>  -12.8032    1.0000 </r>
       <r>  -12.5238    1.0000 </r>
       <r>  -12.1878    1.0000 </r>
       <r>  -11.8763    1.0000 </r>
       <r>  -11.6381    1.0000 </r>
       <r>  -11.5573    1.0000 </r>
       <r>  -11.3997    1.0000 </r>
       <r>  -11.1646    1.0000 </r>
       <r>  -10.7654    1.0000 </r>
       <r>  -10.7034    1.0000 </r>
       <r>  -10.4748    1.0000 </r>
       <r>  -10.3485    1.0000 </r>
       <r>   -8.6264    1.0000 </r>
       <r>   -8.4826    1.0000 </r>
       <r>   -8.1145    1.0000 </r>
       <r>   -7.7313    1.0000 </r>
       <r>   -7.1412    1.0000 </r>
       <r>   -6.9289    1.0000 </r>
       <r>   -6.8176    1.0000 </r>
       <r>   -6.7708    1.0000 </r>
       <r>   -6.1162    1.0000 </r>
       <r>   -6.0865    1.0000 </r>
       <r>   -5.9018    1.0000 </r>
       <r>   -5.7840    1.0000 </r>
       <r>   -5.2129    1.0000 </r>
       <r>   -5.0764    1.0000 </r>
       <r>   -4.8273    1.0000 </r>
       <r>   -4.7732    1.0000 </r>
       <r>   -4.6925    1.0000 </r>
       <r>   -4.5686    1.0000 </r>
       <r>   -4.3427    1.0000 </r>
       <r>   -4.2542    1.0000 </r>
       <r>   -4.1821    1.0000 </r>
       <r>   -4.1338    1.0000 </r>
       <r>   -3.5550    1.0000 </r>
       <r>   -3.3864    1.0000 </r>
       <r>   -3.1553    1.0000 </r>
       <r>   -3.0988    1.0000 </r>
       <r>   -3.0034    1.0000 </r>
       <r>   -2.8419    1.0000 </r>
       <r>   -2.7772    1.0000 </r>
       <r>   -2.6534    1.0000 </r>
       <r>   -2.5202    1.0000 </r>
       <r>   -2.3367    1.0000 </r>
       <r>   -2.1256    1.0000 </r>
       <r>   -1.9525    1.0000 </r>
       <r>   -1.8378    1.0000 </r>
       <r>   -1.8021    1.0000 </r>
       <r>   -1.7539    1.0000 </r>
       <r>   -1.7098    1.0000 </r>
       <r>   -1.6367    1.0000 </r>
       <r>   -1.5646    1.0000 </r>
       <r>   -1.2473    1.0000 </r>
       <r>   -0.8536    1.0000 </r>
       <r>    0.9240    0.0000 </r>
       <r>    1.3354    0.0000 </r>
       <r>    1.6547    0.0000 </r>
       <r>    1.7094    0.0000 </r>
       <r>    1.9386    0.0000 </r>
       <r>    2.0391    0.0000 </r>
       <r>    2.1301    0.0000 </r>
       <r>    2.2916    0.0000 </r>
       <r>    2.4060    0.0000 </r>
       <r>    2.4501    0.0000 </r>
       <r>    2.5438    0.0000 </r>
       <r>    2.7140    0.0000 </r>
       <r>    2.7535    0.0000 </r>
       <r>    2.8421    0.0000 </r>
      </set>
      <set comment="kpoint 18">
       <r>  -13.1319    1.0000 </r>
       <r>  -12.9188    1.0000 </r>
       <r>  -12.5426    1.0000 </r>
       <r>  -12.2807    1.0000 </r>
       <r>  -11.9967    1.0000 </r>
       <r>  -11.9080    1.0000 </r>
       <r>  -11.6878    1.0000 </r>
       <r>  -11.4595    1.0000 </r>
       <r>  -11.0438    1.0000 </r>
       <r>  -10.9594    1.0000 </r>
       <r>  -10.7006    1.0000 </r>
       <r>  -10.5265    1.0000 </r>
       <r>   -8.3886    1.0000 </r>
       <r>   -8.3262    1.0000 </r>
       <r>   -7.7107    1.0000 </r>
       <r>   -7.4320    1.0000 </r>
       <r>   -6.7695    1.0000 </r>
       <r>   -6.6288    1.0000 </r>
       <r>   -6.5666    1.0000 </r>
       <r>   -6.5022    1.0000 </r>
       <r>   -5.7201    1.0000 </r>
       <r>   -5.6590    1.0000 </r>
       <r>   -5.4855    1.0000 </r>
       <r>   -5.2633    1.0000 </r>
       <r>   -4.9086    1.0000 </r>
       <r>   -4.7586    1.0000 </r>
       <r>   -4.5465    1.0000 </r>
       <r>   -4.4914    1.0000 </r>
       <r>   -4.4466    1.0000 </r>
       <r>   -4.3704    1.0000 </r>
       <r>   -4.1361    1.0000 </r>
       <r>   -4.1038    1.0000 </r>
       <r>   -3.8333    1.0000 </r>
       <r>   -3.7123    1.0000 </r>
       <r>   -3.5298    1.0000 </r>
       <r>   -3.3781    1.0000 </r>
       <r>   -3.2461    1.0000 </r>
       <r>   -2.9809    1.0000 </r>
       <r>   -2.9110    1.0000 </r>
       <r>   -2.6978    1.0000 </r>
       <r>   -2.5935    1.0000 </r>
       <r>   -2.4917    1.0000 </r>
       <r>   -2.3930    1.0000 </r>
       <r>   -2.3372    1.0000 </r>
       <r>   -2.0059    1.0000 </r>
       <r>   -1.8635    1.0000 </r>
       <r>   -1.8058    1.0000 </r>
       <r>   -1.7566    1.0000 </r>
       <r>   -1.6679    1.0000 </r>
       <r>   -1.5666    1.0000 </r>
       <r>   -1.3850    1.0000 </r>
       <r>   -1.2640    1.0000 </r>
       <r>   -1.0606    1.0000 </r>
       <r>   -0.5655    1.0000 </r>
       <r>    1.2811    0.0000 </r>
       <r>    1.5900    0.0000 </r>
       <r>    1.7996    0.0000 </r>
       <r>    1.9440    0.0000 </r>
       <r>    2.0609    0.0000 </r>
       <r>    2.2094    0.0000 </r>
       <r>    2.3098    0.0000 </r>
       <r>    2.4169    0.0000 </r>
       <r>    2.4705    0.0000 </r>
       <r>    2.7761    0.0000 </r>
       <r>    2.8299    0.0000 </r>
       <r>    2.8761    0.0000 </r>
       <r>    2.9937    0.0000 </r>
[...]
       <r>    2.8010    0.0000 </r>
      </set>
      <set comment="kpoint 54">
       <r>  -12.2066    1.0000 </r>
       <r>  -11.4198    1.0000 </r>
       <r>  -11.3773    1.0000 </r>
       <r>  -11.0979    1.0000 </r>
       <r>  -10.9899    1.0000 </r>
       <r>  -10.8784    1.0000 </r>
       <r>  -10.8483    1.0000 </r>
       <r>  -10.7761    1.0000 </r>
       <r>  -10.6500    1.0000 </r>
       <r>  -10.5506    1.0000 </r>
       <r>  -10.5132    1.0000 </r>
       <r>  -10.4266    1.0000 </r>
       <r>   -8.8190    1.0000 </r>
       <r>   -8.5949    1.0000 </r>
       <r>   -8.4557    1.0000 </r>
       <r>   -8.3673    1.0000 </r>
       <r>   -8.0466    1.0000 </r>
       <r>   -8.0039    1.0000 </r>
       <r>   -7.6134    1.0000 </r>
       <r>   -7.4884    1.0000 </r>
       <r>   -7.2956    1.0000 </r>
       <r>   -7.2173    1.0000 </r>
       <r>   -7.0996    1.0000 </r>
       <r>   -6.3513    1.0000 </r>
       <r>   -5.0556    1.0000 </r>
       <r>   -4.8755    1.0000 </r>
       <r>   -4.5409    1.0000 </r>
       <r>   -4.4164    1.0000 </r>
       <r>   -4.3225    1.0000 </r>
       <r>   -4.1969    1.0000 </r>
       <r>   -4.0994    1.0000 </r>
       <r>   -4.0200    1.0000 </r>
       <r>   -3.9320    1.0000 </r>
       <r>   -3.8682    1.0000 </r>
       <r>   -3.8260    1.0000 </r>
       <r>   -3.6998    1.0000 </r>
       <r>   -3.5484    1.0000 </r>
       <r>   -3.4745    1.0000 </r>
       <r>   -3.1888    1.0000 </r>
       <r>   -3.1405    1.0000 </r>
       <r>   -3.0664    1.0000 </r>
       <r>   -2.9438    1.0000 </r>
       <r>   -2.6465    1.0000 </r>
       <r>   -2.6186    1.0000 </r>
       <r>   -2.5037    1.0000 </r>
       <r>   -2.3036    1.0000 </r>
       <r>   -2.1348    1.0000 </r>
       <r>   -2.0495    1.0000 </r>
       <r>   -2.0402    1.0000 </r>
       <r>   -1.8129    1.0000 </r>
       <r>   -1.7200    1.0000 </r>
       <r>   -1.6064    1.0000 </r>
       <r>   -1.4430    1.0000 </r>
       <r>   -1.1993    1.0000 </r>
       <r>    0.6710    0.0000 </r>
       <r>    0.9536    0.0000 </r>
       <r>    1.2744    0.0000 </r>
       <r>    1.4223    0.0000 </r>
       <r>    1.6200    0.0000 </r>
       <r>    1.6858    0.0000 </r>
       <r>    1.7986    0.0000 </r>
       <r>    1.9136    0.0000 </r>
       <r>    2.0059    0.0000 </r>
       <r>    2.0984    0.0000 </r>
       <r>    2.1852    0.0000 </r>
       <r>    2.3882    0.0000 </r>
       <r>    2.5159    0.0000 </r>
       <r>    2.5814    0.0000 </r>
      </set>
     </set>
    </set>
   </array>
  </eigenvalues>
  <separator name="orbital magnetization" >
   <v name="MAGDIPOLOUT">      0.00000000      0.00000000      0.00000000</v>
  </separator>
  <dos>
   <i name="efermi">      0.17876119 </i>
   <total>
    <array>
     <dimension dim="1">gridpoints</dimension>
     <dimension dim="2">spin</dimension>
     <field>energy</field>
     <field>total</field>
     <field>integrated</field>
     <set>
      <set comment="spin 1">
       <r>   -14.6319     0.0000     0.0000 </r>
       <r>   -14.5689     0.0000     0.0000 </r>
       <r>   -14.5059     0.0000     0.0000 </r>
       <r>   -14.4429     0.0000     0.0000 </r>
       <r>   -14.3799     0.0000     0.0000 </r>
       <r>   -14.3168     0.0000     0.0000 </r>
       <r>   -14.2538     0.0000     0.0000 </r>
       <r>   -14.1908     0.0000     0.0000 </r>
       <r>   -14.1278     0.0000     0.0000 </r>
       <r>   -14.0648     0.0000     0.0000 </r>
       <r>   -14.0017     0.0000     0.0000 </r>
       <r>   -13.9387     0.0000     0.0000 </r>
       <r>   -13.8757     0.0002     0.0000 </r>
       <r>   -13.8127     0.0041     0.0003 </r>
       <r>   -13.7497     0.0443     0.0031 </r>
       <r>   -13.6866     0.2595     0.0194 </r>
       <r>   -13.6236     0.8633     0.0738 </r>
       <r>   -13.5606     1.7474     0.1839 </r>
       <r>   -13.4976     2.5178     0.3426 </r>
       <r>   -13.4346     3.2485     0.5473 </r>
       <r>   -13.3715     3.8718     0.7913 </r>
       <r>   -13.3085     3.8913     1.0366 </r>
       <r>   -13.2455     3.6085     1.2640 </r>
       <r>   -13.1825     3.6308     1.4928 </r>
       <r>   -13.1195     4.1219     1.7526 </r>
       <r>   -13.0564     4.5681     2.0404 </r>
       <r>   -12.9934     4.3911     2.3172 </r>
       <r>   -12.9304     4.2648     2.5859 </r>
       <r>   -12.8674     4.8244     2.8900 </r>
       <r>   -12.8044     5.5321     3.2386 </r>
       <r>   -12.7413     5.4799     3.5839 </r>
       <r>   -12.6783     4.2515     3.8519 </r>
       <r>   -12.6153     3.0524     4.0442 </r>
       <r>   -12.5523     3.8139     4.2846 </r>
       <r>   -12.4893     6.3128     4.6824 </r>
       <r>   -12.4262     8.1435     5.1956 </r>
       <r>   -12.3632     8.0923     5.7056 </r>
       <r>   -12.3002     7.4531     6.1753 </r>
       <r>   -12.2372     7.4618     6.6455 </r>
       <r>   -12.1742     7.3649     7.1097 </r>
       <r>   -12.1111     6.1481     7.4971 </r>
       <r>   -12.0481     5.4476     7.8404 </r>
       <r>   -11.9851     6.7228     8.2641 </r>
       <r>   -11.9221     8.0593     8.7720 </r>
       <r>   -11.8591     7.7461     9.2602 </r>
       <r>   -11.7960     6.4539     9.6669 </r>
       <r>   -11.7330     5.7055    10.0264 </r>
       <r>   -11.6700     5.7398    10.3882 </r>
       <r>   -11.6070     6.1583    10.7763 </r>
       <r>   -11.5440     7.0646    11.2215 </r>
       <r>   -11.4809     8.7125    11.7705 </r>
       <r>   -11.4179    10.4551    12.4294 </r>
       <r>   -11.3549    10.6763    13.1022 </r>
       <r>   -11.2919     9.7027    13.7137 </r>
       <r>   -11.2289     9.5383    14.3148 </r>
       <r>   -11.1658     9.8791    14.9374 </r>
       <r>   -11.1028    10.2100    15.5808 </r>
       <r>   -11.0398    10.9650    16.2718 </r>
       <r>   -10.9768    11.5490    16.9997 </r>
       <r>   -10.9138    11.7185    17.7382 </r>
       <r>   -10.8507    11.4613    18.4604 </r>
       <r>   -10.7877    11.1760    19.1648 </r>
       <r>   -10.7247    11.3611    19.8807 </r>
       <r>   -10.6617    10.3955    20.5359 </r>
       <r>   -10.5987     9.1911    21.1151 </r>
       <r>   -10.5356    10.2271    21.7596 </r>
       <r>   -10.4726    11.0557    22.4563 </r>
       <r>   -10.4096     9.7596    23.0714 </r>
       <r>   -10.3466     7.6759    23.5551 </r>
       <r>   -10.2836     4.7545    23.8547 </r>
       <r>   -10.2205     1.8546    23.9716 </r>
       <r>   -10.1575     0.4021    23.9970 </r>
       <r>   -10.0945     0.0456    23.9998 </r>
       <r>   -10.0315     0.0026    24.0000 </r>
       <r>    -9.9685     0.0001    24.0000 </r>
       <r>    -9.9054     0.0000    24.0000 </r>
       <r>    -9.8424     0.0000    24.0000 </r>
       <r>    -9.7794     0.0000    24.0000 </r>
       <r>    -9.7164     0.0000    24.0000 </r>
       <r>    -9.6534     0.0000    24.0000 </r>
       <r>    -9.5903     0.0000    24.0000 </r>
       <r>    -9.5273     0.0000    24.0000 </r>
       <r>    -9.4643     0.0000    24.0000 </r>
       <r>    -9.4013     0.0000    24.0000 </r>
       <r>    -9.3383     0.0000    24.0000 </r>
       <r>    -9.2752     0.0000    24.0000 </r>
       <r>    -9.2122     0.0014    24.0001 </r>
       <r>    -9.1492     0.0240    24.0016 </r>
       <r>    -9.0862     0.1993    24.0142 </r>
       <r>    -9.0231     0.8404    24.0671 </r>
       <r>    -8.9601     1.9791    24.1918 </r>
       <r>    -8.8971     3.0862    24.3863 </r>
       <r>    -8.8341     3.8563    24.6294 </r>
       <r>    -8.7711     4.4125    24.9074 </r>
       <r>    -8.7080     5.4059    25.2481 </r>
       <r>    -8.6450     6.7178    25.6715 </r>
       <r>    -8.5820     6.7999    26.1000 </r>
       <r>    -8.5190     6.1502    26.4876 </r>
       <r>    -8.4560     6.4402    26.8935 </r>
       <r>    -8.3929     7.3669    27.3577 </r>
       <r>    -8.3299     7.7149    27.8439 </r>
       <r>    -8.2669     6.5090    28.2541 </r>
       <r>    -8.2039     4.4338    28.5335 </r>
       <r>    -8.1409     3.4568    28.7514 </r>
       <r>    -8.0778     4.2831    29.0213 </r>
       <r>    -8.0148     5.4779    29.3665 </r>
       <r>    -7.9518     5.0628    29.6856 </r>
       <r>    -7.8888     3.7725    29.9233 </r>
       <r>    -7.8258     3.3906    30.1370 </r>
       <r>    -7.7627     4.1122    30.3961 </r>
       <r>    -7.6997     5.5150    30.7437 </r>
       <r>    -7.6367     6.2488    31.1375 </r>
       <r>    -7.5737     5.9366    31.5116 </r>
       <r>    -7.5107     5.5870    31.8637 </r>
       <r>    -7.4476     5.7574    32.2265 </r>
       <r>    -7.3846     6.7915    32.6545 </r>
       <r>    -7.3216     8.6789    33.2015 </r>
       <r>    -7.2586     9.9036    33.8256 </r>
       <r>    -7.1956     9.5120    34.4251 </r>
       <r>    -7.1325     8.3601    34.9519 </r>
       <r>    -7.0695     6.8155    35.3814 </r>
       <r>    -7.0065     5.1113    35.7035 </r>
       <r>    -6.9435     4.1204    35.9632 </r>
       <r>    -6.8805     4.5569    36.2504 </r>
       <r>    -6.8174     6.7296    36.6745 </r>
       <r>    -6.7544     9.4910    37.2726 </r>
       <r>    -6.6914    11.4597    37.9948 </r>
       <r>    -6.6284    13.1573    38.8240 </r>
       <r>    -6.5654    14.0293    39.7081 </r>
       <r>    -6.5023    12.7686    40.5128 </r>
       <r>    -6.4393    10.0401    41.1455 </r>
       <r>    -6.3763     6.6117    41.5622 </r>
       <r>    -6.3133     3.8716    41.8062 </r>
       <r>    -6.2503     3.1409    42.0041 </r>
       <r>    -6.1872     3.9517    42.2531 </r>
       <r>    -6.1242     4.8516    42.5589 </r>
       <r>    -6.0612     4.4790    42.8412 </r>
       <r>    -5.9982     2.8613    43.0215 </r>
       <r>    -5.9352     1.8639    43.1389 </r>
       <r>    -5.8721     2.6406    43.3053 </r>
       <r>    -5.8091     4.6535    43.5986 </r>
       <r>    -5.7461     6.9653    44.0376 </r>
       <r>    -5.6831     8.5740    44.5779 </r>
       <r>    -5.6201     8.4515    45.1105 </r>
       <r>    -5.5570     6.4092    45.5144 </r>
       <r>    -5.4940     3.8797    45.7589 </r>
       <r>    -5.4310     2.2557    45.9011 </r>
       <r>    -5.3680     2.2843    46.0450 </r>
       <r>    -5.3050     4.0090    46.2977 </r>
       <r>    -5.2419     5.6241    46.6521 </r>
       <r>    -5.1789     5.8449    47.0205 </r>
       <r>    -5.1159     5.7459    47.3826 </r>
       <r>    -5.0529     6.3280    47.7814 </r>
       <r>    -4.9899     7.4896    48.2534 </r>
       <r>    -4.9268     8.5981    48.7952 </r>
       <r>    -4.8638     9.5623    49.3978 </r>
       <r>    -4.8008    10.6334    50.0679 </r>
       <r>    -4.7378    10.8100    50.7492 </r>
       <r>    -4.6748     9.9000    51.3731 </r>
       <r>    -4.6117     9.9282    51.9988 </r>
       <r>    -4.5487    11.4397    52.7197 </r>
       <r>    -4.4857    12.3075    53.4953 </r>
       <r>    -4.4227    12.0931    54.2574 </r>
       <r>    -4.3597    12.0419    55.0163 </r>
       <r>    -4.2966    12.0633    55.7765 </r>
       <r>    -4.2336    12.3016    56.5518 </r>
       <r>    -4.1706    13.5760    57.4073 </r>
       <r>    -4.1076    14.9830    58.3516 </r>
       <r>    -4.0446    15.2338    59.3116 </r>
       <r>    -3.9815    14.8258    60.2459 </r>
       <r>    -3.9185    14.1956    61.1405 </r>
       <r>    -3.8555    12.6766    61.9394 </r>
       <r>    -3.7925    11.1417    62.6416 </r>
       <r>    -3.7295    10.8643    63.3262 </r>
       <r>    -3.6664    11.8882    64.0754 </r>
       <r>    -3.6034    13.3959    64.9196 </r>
       <r>    -3.5404    13.9959    65.8017 </r>
       <r>    -3.4774    13.1014    66.6273 </r>
       <r>    -3.4144    11.7328    67.3667 </r>
       <r>    -3.3513    11.6831    68.1030 </r>
       <r>    -3.2883    13.5397    68.9562 </r>
       <r>    -3.2253    15.4336    69.9289 </r>
       <r>    -3.1623    16.3260    70.9577 </r>
       <r>    -3.0993    16.8585    72.0202 </r>
       <r>    -3.0362    17.5790    73.1280 </r>
       <r>    -2.9732    18.6301    74.3021 </r>
       <r>    -2.9102    18.7578    75.4842 </r>
       <r>    -2.8472    17.0329    76.5576 </r>
       <r>    -2.7842    14.7578    77.4876 </r>
       <r>    -2.7211    13.7178    78.3521 </r>
       <r>    -2.6581    14.9483    79.2942 </r>
       <r>    -2.5951    16.8889    80.3585 </r>
       <r>    -2.5321    17.4270    81.4568 </r>
       <r>    -2.4691    17.6962    82.5720 </r>
       <r>    -2.4060    18.1348    83.7148 </r>
       <r>    -2.3430    18.0725    84.8538 </r>
       <r>    -2.2800    16.6395    85.9024 </r>
       <r>    -2.2170    14.4107    86.8105 </r>
       <r>    -2.1540    13.9702    87.6909 </r>
       <r>    -2.0909    15.9192    88.6942 </r>
       <r>    -2.0279    17.9192    89.8234 </r>
       <r>    -1.9649    18.7902    91.0076 </r>
       <r>    -1.9019    19.7834    92.2544 </r>
       <r>    -1.8389    21.6181    93.6167 </r>
       <r>    -1.7758    22.7427    95.0500 </r>
       <r>    -1.7128    22.0967    96.4425 </r>
       <r>    -1.6498    20.0250    97.7045 </r>
       <r>    -1.5868    16.7624    98.7608 </r>
       <r>    -1.5238    13.1568    99.5900 </r>
       <r>    -1.4607    10.4911   100.2511 </r>
       <r>    -1.3977     9.7153   100.8634 </r>
       <r>    -1.3347     9.9189   101.4885 </r>
       <r>    -1.2717    10.1663   102.1292 </r>
       <r>    -1.2087    10.4081   102.7851 </r>
       <r>    -1.1456    10.5577   103.4504 </r>
       <r>    -1.0826    10.6649   104.1225 </r>
       <r>    -1.0196    10.2498   104.7685 </r>
       <r>    -0.9566     8.9879   105.3349 </r>
       <r>    -0.8936     7.7813   105.8253 </r>
       <r>    -0.8305     6.7274   106.2492 </r>
       <r>    -0.7675     4.9646   106.5621 </r>
       <r>    -0.7045     2.9701   106.7493 </r>
       <r>    -0.6415     2.2320   106.8899 </r>
       <r>    -0.5785     2.4459   107.0441 </r>
       <r>    -0.5154     2.0595   107.1739 </r>
       <r>    -0.4524     1.4862   107.2675 </r>
       <r>    -0.3894     1.9324   107.3893 </r>
       <r>    -0.3264     2.9908   107.5778 </r>
       <r>    -0.2634     3.3032   107.7860 </r>
       <r>    -0.2003     2.2843   107.9299 </r>
       <r>    -0.1373     0.9022   107.9868 </r>
       <r>    -0.0743     0.1888   107.9987 </r>
       <r>    -0.0113     0.0199   107.9999 </r>
       <r>     0.0517     0.0010   108.0000 </r>
       <r>     0.1148     0.0000   108.0000 </r>
       <r>     0.1778     0.0000   108.0000 </r>
       <r>     0.2408     0.0000   108.0000 </r>
       <r>     0.3038     0.0000   108.0000 </r>
       <r>     0.3668     0.0002   108.0000 </r>
       <r>     0.4299     0.0044   108.0003 </r>
       <r>     0.4929     0.0605   108.0041 </r>
       <r>     0.5559     0.4202   108.0306 </r>
       <r>     0.6189     1.5428   108.1278 </r>
       <r>     0.6819     3.1623   108.3271 </r>
       <r>     0.7450     3.8435   108.5693 </r>
       <r>     0.8080     3.2559   108.7745 </r>
       <r>     0.8710     3.0089   108.9641 </r>
       <r>     0.9340     3.5034   109.1849 </r>
       <r>     0.9970     3.7291   109.4199 </r>
       <r>     1.0601     3.8902   109.6651 </r>
       <r>     1.1231     4.8393   109.9701 </r>
       <r>     1.1861     6.1055   110.3548 </r>
       <r>     1.2491     7.3090   110.8154 </r>
       <r>     1.3121     8.5531   111.3544 </r>
       <r>     1.3752     9.5590   111.9569 </r>
       <r>     1.4382    10.2977   112.6058 </r>
       <r>     1.5012    10.5917   113.2733 </r>
       <r>     1.5642    11.1870   113.9783 </r>
       <r>     1.6272    12.7719   114.7832 </r>
       <r>     1.6903    14.4045   115.6910 </r>
       <r>     1.7533    15.0769   116.6411 </r>
       <r>     1.8163    14.4879   117.5541 </r>
       <r>     1.8793    13.5976   118.4111 </r>
       <r>     1.9423    13.8978   119.2869 </r>
       <r>     2.0054    14.6550   120.2105 </r>
       <r>     2.0684    14.4891   121.1236 </r>
       <r>     2.1314    14.0792   122.0108 </r>
       <r>     2.1944    14.6287   122.9327 </r>
       <r>     2.2574    16.0038   123.9413 </r>
       <r>     2.3205    17.3596   125.0353 </r>
       <r>     2.3835    17.5432   126.1409 </r>
       <r>     2.4465    16.8291   127.2014 </r>
       <r>     2.5095    15.8985   128.2034 </r>
       <r>     2.5725    15.0744   129.1534 </r>
       <r>     2.6356    14.5155   130.0681 </r>
       <r>     2.6986    14.2954   130.9690 </r>
       <r>     2.7616    14.2803   131.8690 </r>
       <r>     2.8246    13.5423   132.7224 </r>
       <r>     2.8876    11.3547   133.4380 </r>
       <r>     2.9507     9.0023   134.0053 </r>
       <r>     3.0137     8.0924   134.5153 </r>
       <r>     3.0767     7.6455   134.9971 </r>
       <r>     3.1397     6.5120   135.4075 </r>
       <r>     3.2027     4.7510   135.7069 </r>
       <r>     3.2658     2.8162   135.8844 </r>
       <r>     3.3288     1.3132   135.9671 </r>
       <r>     3.3918     0.4301   135.9942 </r>
       <r>     3.4548     0.0828   135.9995 </r>
       <r>     3.5178     0.0083   136.0000 </r>
       <r>     3.5809     0.0004   136.0000 </r>
       <r>     3.6439     0.0000   136.0000 </r>
       <r>     3.7069     0.0000   136.0000 </r>
       <r>     3.7699     0.0000   136.0000 </r>
       <r>     3.8329     0.0000   136.0000 </r>
       <r>     3.8960     0.0000   136.0000 </r>
       <r>     3.9590     0.0000   136.0000 </r>
       <r>     4.0220     0.0000   136.0000 </r>
       <r>     4.0850     0.0000   136.0000 </r>
       <r>     4.1480     0.0000   136.0000 </r>
       <r>     4.2111     0.0000   136.0000 </r>
       <r>     4.2741     0.0000   136.0000 </r>
      </set>
     </set>
    </array>
   </total>
  </dos>
 </calculation>
 <structure name="finalpos" >
  <crystal>
   <varray name="basis" >
    <v>       3.54040000       0.00000000       0.00000000 </v>
    <v>      -1.77020000      10.29434800       0.00000000 </v>
    <v>       0.00000000       0.00000000      27.50142900 </v>
   </varray>
   <i name="volume">   1002.32009712 </i>
   <varray name="rec_basis" >
    <v>       0.28245396       0.04857034       0.00000000 </v>
    <v>       0.00000000       0.09714068       0.00000000 </v>
    <v>       0.00000000       0.00000000       0.03636175 </v>
   </varray>
  </crystal>
  <varray name="positions" >
   <v>       0.11402300       0.22804500       0.23316207 </v>
   <v>       0.31402300       0.22804500       0.51499159 </v>
   <v>       0.45808900       0.91617900       0.20939482 </v>
   <v>       0.65808900       0.91617900       0.49122434 </v>
   <v>       0.31085400       0.62170900       0.08414979 </v>
   <v>       0.31085400       0.62170900       0.36597930 </v>
   <v>       0.99923000       0.99846000       0.08631254 </v>
   <v>       0.99923000       0.99846000       0.36814206 </v>
   <v>       0.65492700       0.30985400       0.06041748 </v>
   <v>       0.65492700       0.30985400       0.34224700 </v>
   <v>       0.76973800       0.53947500       0.20725292 </v>
   <v>       0.96973800       0.53947500       0.48908244 </v>
   <v>       0.93971600       0.87943300       0.15783749 </v>
   <v>       0.13971600       0.87943300       0.43966701 </v>
   <v>       0.20515200       0.41030300       0.18578822 </v>
   <v>       0.40515200       0.41030300       0.46761774 </v>
   <v>       0.20184900       0.40369900       0.09969156 </v>
   <v>       0.20184900       0.40369900       0.38152107 </v>
   <v>       0.56380500       0.12761000       0.10779021 </v>
   <v>       0.56380500       0.12761000       0.38961973 </v>
   <v>       0.56710600       0.13421200       0.19387616 </v>
   <v>       0.76710600       0.13421200       0.47570568 </v>
   <v>       0.82923400       0.65846800       0.13571444 </v>
   <v>       0.02923400       0.65846800       0.41754396 </v>
  </varray>
 </structure>
</modeling>
