  24  24   0   0
  0.4176334E+02  0.3540400E-09  0.1044544E-08  0.2750143E-08  0.5000000E-15
  1.000000000000000E-004
  CAR 
 unknown system                          
      4.18670426    -14.70550401  301     -0.02226451      1.00000000
    -14.706  0.0000E+00  0.0000E+00
    -14.643  0.0000E+00  0.0000E+00
    -14.580  0.0000E+00  0.0000E+00
    -14.517  0.0000E+00  0.0000E+00
    -14.454  0.0000E+00  0.0000E+00
    -14.391  0.0000E+00  0.0000E+00
    -14.328  0.0000E+00  0.0000E+00
    -14.265  0.8815E-15  0.5551E-16
    -14.202  0.7537E-12  0.4752E-13
    -14.139  0.3128E-09  0.1975E-10
    -14.076  0.6118E-07  0.3872E-08
    -14.013  0.5725E-05  0.3644E-06
    -13.950  0.2616E-03  0.1684E-04
    -13.887  0.5982E-02  0.3936E-03
    -13.824  0.7046E-01  0.4831E-02
    -13.761  0.4413E+00  0.3262E-01
    -13.698  0.1531E+01  0.1290E+00
    -13.635  0.3147E+01  0.3272E+00
    -13.572  0.4318E+01  0.5991E+00
    -13.509  0.4521E+01  0.8839E+00
    -13.446  0.3956E+01  0.1133E+01
    -13.383  0.3504E+01  0.1354E+01
    -13.320  0.3551E+01  0.1577E+01
    -13.257  0.3208E+01  0.1779E+01
    -13.194  0.2826E+01  0.1957E+01
    -13.131  0.3677E+01  0.2189E+01
    -13.068  0.5138E+01  0.2512E+01
    -13.005  0.6080E+01  0.2895E+01
    -12.942  0.6607E+01  0.3311E+01
    -12.879  0.6574E+01  0.3725E+01
    -12.816  0.5860E+01  0.4094E+01
    -12.753  0.4902E+01  0.4403E+01
    -12.690  0.4486E+01  0.4685E+01
    -12.627  0.4785E+01  0.4987E+01
    -12.564  0.5226E+01  0.5316E+01
    -12.501  0.5073E+01  0.5635E+01
    -12.438  0.4579E+01  0.5924E+01
    -12.375  0.4825E+01  0.6228E+01
    -12.312  0.5301E+01  0.6561E+01
    -12.250  0.5228E+01  0.6891E+01
    -12.187  0.6053E+01  0.7272E+01
    -12.124  0.7980E+01  0.7774E+01
    -12.061  0.8129E+01  0.8286E+01
    -11.998  0.6376E+01  0.8688E+01
    -11.935  0.5625E+01  0.9042E+01
    -11.872  0.6169E+01  0.9430E+01
    -11.809  0.6599E+01  0.9846E+01
    -11.746  0.7082E+01  0.1029E+02
    -11.683  0.7800E+01  0.1078E+02
    -11.620  0.8291E+01  0.1131E+02
    -11.557  0.8479E+01  0.1184E+02
    -11.494  0.7644E+01  0.1232E+02
    -11.431  0.6679E+01  0.1274E+02
    -11.368  0.8039E+01  0.1325E+02
    -11.305  0.9943E+01  0.1387E+02
    -11.242  0.9711E+01  0.1449E+02
    -11.179  0.9284E+01  0.1507E+02
    -11.116  0.1054E+02  0.1573E+02
    -11.053  0.1204E+02  0.1649E+02
    -10.990  0.1302E+02  0.1731E+02
    -10.927  0.1400E+02  0.1819E+02
    -10.864  0.1379E+02  0.1906E+02
    -10.801  0.1182E+02  0.1981E+02
    -10.738  0.1000E+02  0.2044E+02
    -10.675  0.8804E+01  0.2099E+02
    -10.612  0.7802E+01  0.2148E+02
    -10.549  0.7014E+01  0.2192E+02
    -10.486  0.5416E+01  0.2226E+02
    -10.423  0.3806E+01  0.2250E+02
    -10.360  0.3999E+01  0.2276E+02
    -10.297  0.4716E+01  0.2305E+02
    -10.234  0.3554E+01  0.2328E+02
    -10.171  0.1538E+01  0.2337E+02
    -10.108  0.8853E+00  0.2343E+02
    -10.045  0.1548E+01  0.2353E+02
     -9.982  0.2197E+01  0.2366E+02
     -9.919  0.2297E+01  0.2381E+02
     -9.857  0.1853E+01  0.2393E+02
     -9.794  0.9149E+00  0.2398E+02
     -9.731  0.2320E+00  0.2400E+02
     -9.668  0.2839E-01  0.2400E+02
     -9.605  0.1642E-02  0.2400E+02
     -9.542  0.4446E-04  0.2400E+02
     -9.479  0.5653E-06  0.2400E+02
     -9.416  0.8159E-06  0.2400E+02
     -9.353  0.5501E-04  0.2400E+02
     -9.290  0.1762E-02  0.2400E+02
     -9.227  0.2718E-01  0.2400E+02
     -9.164  0.2077E+00  0.2401E+02
     -9.101  0.8242E+00  0.2407E+02
     -9.038  0.1848E+01  0.2418E+02
     -8.975  0.2739E+01  0.2436E+02
     -8.912  0.3485E+01  0.2458E+02
     -8.849  0.4505E+01  0.2486E+02
     -8.786  0.5141E+01  0.2518E+02
     -8.723  0.4802E+01  0.2549E+02
     -8.660  0.4346E+01  0.2576E+02
     -8.597  0.4386E+01  0.2603E+02
     -8.534  0.4784E+01  0.2634E+02
     -8.471  0.5073E+01  0.2666E+02
     -8.408  0.4828E+01  0.2696E+02
     -8.345  0.4852E+01  0.2727E+02
     -8.282  0.5757E+01  0.2763E+02
     -8.219  0.6914E+01  0.2806E+02
     -8.156  0.7085E+01  0.2851E+02
     -8.093  0.5571E+01  0.2886E+02
     -8.030  0.3699E+01  0.2909E+02
     -7.967  0.3250E+01  0.2930E+02
     -7.904  0.4669E+01  0.2959E+02
     -7.841  0.6159E+01  0.2998E+02
     -7.778  0.6005E+01  0.3036E+02
     -7.715  0.5425E+01  0.3070E+02
     -7.652  0.5784E+01  0.3106E+02
     -7.589  0.6225E+01  0.3146E+02
     -7.526  0.6683E+01  0.3188E+02
     -7.463  0.7680E+01  0.3236E+02
     -7.401  0.8324E+01  0.3288E+02
     -7.338  0.7752E+01  0.3337E+02
     -7.275  0.6262E+01  0.3377E+02
     -7.212  0.5498E+01  0.3411E+02
     -7.149  0.6279E+01  0.3451E+02
     -7.086  0.7426E+01  0.3498E+02
     -7.023  0.7626E+01  0.3546E+02
     -6.960  0.7258E+01  0.3591E+02
     -6.897  0.7213E+01  0.3637E+02
     -6.834  0.8589E+01  0.3691E+02
     -6.771  0.1108E+02  0.3761E+02
     -6.708  0.1181E+02  0.3835E+02
     -6.645  0.1053E+02  0.3901E+02
     -6.582  0.9533E+01  0.3961E+02
     -6.519  0.8386E+01  0.4014E+02
     -6.456  0.6611E+01  0.4056E+02
     -6.393  0.5342E+01  0.4089E+02
     -6.330  0.5253E+01  0.4123E+02
     -6.267  0.5355E+01  0.4156E+02
     -6.204  0.4257E+01  0.4183E+02
     -6.141  0.3003E+01  0.4202E+02
     -6.078  0.3109E+01  0.4222E+02
     -6.015  0.3779E+01  0.4245E+02
     -5.952  0.4128E+01  0.4271E+02
     -5.889  0.4343E+01  0.4299E+02
     -5.826  0.4485E+01  0.4327E+02
     -5.763  0.4186E+01  0.4353E+02
     -5.700  0.3798E+01  0.4377E+02
     -5.637  0.4496E+01  0.4406E+02
     -5.574  0.6296E+01  0.4445E+02
     -5.511  0.8138E+01  0.4496E+02
     -5.448  0.9007E+01  0.4553E+02
     -5.385  0.8301E+01  0.4605E+02
     -5.322  0.6420E+01  0.4646E+02
     -5.259  0.4803E+01  0.4676E+02
     -5.196  0.4560E+01  0.4705E+02
     -5.133  0.6266E+01  0.4744E+02
     -5.070  0.8878E+01  0.4800E+02
     -5.008  0.1033E+02  0.4865E+02
     -4.945  0.9830E+01  0.4927E+02
     -4.882  0.8752E+01  0.4982E+02
     -4.819  0.9117E+01  0.5040E+02
     -4.756  0.1104E+02  0.5109E+02
     -4.693  0.1230E+02  0.5187E+02
     -4.630  0.1178E+02  0.5261E+02
     -4.567  0.1050E+02  0.5327E+02
     -4.504  0.9442E+01  0.5386E+02
     -4.441  0.9727E+01  0.5448E+02
     -4.378  0.1143E+02  0.5520E+02
     -4.315  0.1273E+02  0.5600E+02
     -4.252  0.1340E+02  0.5684E+02
     -4.189  0.1441E+02  0.5775E+02
     -4.126  0.1514E+02  0.5870E+02
     -4.063  0.1496E+02  0.5964E+02
     -4.000  0.1392E+02  0.6052E+02
     -3.937  0.1231E+02  0.6130E+02
     -3.874  0.1104E+02  0.6199E+02
     -3.811  0.1112E+02  0.6269E+02
     -3.748  0.1192E+02  0.6344E+02
     -3.685  0.1232E+02  0.6422E+02
     -3.622  0.1274E+02  0.6502E+02
     -3.559  0.1356E+02  0.6587E+02
     -3.496  0.1457E+02  0.6679E+02
     -3.433  0.1459E+02  0.6771E+02
     -3.370  0.1337E+02  0.6855E+02
     -3.307  0.1337E+02  0.6940E+02
     -3.244  0.1586E+02  0.7039E+02
     -3.181  0.1835E+02  0.7155E+02
     -3.118  0.1808E+02  0.7269E+02
     -3.055  0.1646E+02  0.7373E+02
     -2.992  0.1571E+02  0.7471E+02
     -2.929  0.1542E+02  0.7569E+02
     -2.866  0.1471E+02  0.7661E+02
     -2.803  0.1501E+02  0.7756E+02
     -2.740  0.1625E+02  0.7858E+02
     -2.677  0.1651E+02  0.7962E+02
     -2.614  0.1584E+02  0.8062E+02
     -2.552  0.1540E+02  0.8159E+02
     -2.489  0.1638E+02  0.8262E+02
     -2.426  0.1703E+02  0.8369E+02
     -2.363  0.1637E+02  0.8472E+02
     -2.300  0.1638E+02  0.8575E+02
     -2.237  0.1701E+02  0.8683E+02
     -2.174  0.1774E+02  0.8794E+02
     -2.111  0.1854E+02  0.8911E+02
     -2.048  0.1915E+02  0.9032E+02
     -1.985  0.1951E+02  0.9155E+02
     -1.922  0.1898E+02  0.9274E+02
     -1.859  0.1677E+02  0.9380E+02
     -1.796  0.1374E+02  0.9466E+02
     -1.733  0.1114E+02  0.9536E+02
     -1.670  0.1060E+02  0.9603E+02
     -1.607  0.1327E+02  0.9687E+02
     -1.544  0.1626E+02  0.9789E+02
     -1.481  0.1507E+02  0.9884E+02
     -1.418  0.1105E+02  0.9954E+02
     -1.355  0.8184E+01  0.1001E+03
     -1.292  0.7322E+01  0.1005E+03
     -1.229  0.8590E+01  0.1011E+03
     -1.166  0.1104E+02  0.1017E+03
     -1.103  0.1193E+02  0.1025E+03
     -1.040  0.1085E+02  0.1032E+03
     -0.977  0.8971E+01  0.1037E+03
     -0.914  0.6634E+01  0.1042E+03
     -0.851  0.4677E+01  0.1045E+03
     -0.788  0.3467E+01  0.1047E+03
     -0.725  0.2329E+01  0.1048E+03
     -0.662  0.1199E+01  0.1049E+03
     -0.599  0.7299E+00  0.1049E+03
     -0.536  0.1336E+01  0.1050E+03
     -0.473  0.3010E+01  0.1052E+03
     -0.410  0.5413E+01  0.1056E+03
     -0.347  0.7105E+01  0.1060E+03
     -0.284  0.6571E+01  0.1064E+03
     -0.221  0.5060E+01  0.1067E+03
     -0.159  0.4770E+01  0.1070E+03
     -0.096  0.6162E+01  0.1074E+03
     -0.033  0.7771E+01  0.1079E+03
      0.030  0.7109E+01  0.1084E+03
      0.093  0.4943E+01  0.1087E+03
      0.156  0.3909E+01  0.1089E+03
      0.219  0.3730E+01  0.1092E+03
      0.282  0.3184E+01  0.1094E+03
      0.345  0.1972E+01  0.1095E+03
      0.408  0.8656E+00  0.1095E+03
      0.471  0.9723E+00  0.1096E+03
      0.534  0.2466E+01  0.1098E+03
      0.597  0.4106E+01  0.1100E+03
      0.660  0.4711E+01  0.1103E+03
      0.723  0.4514E+01  0.1106E+03
      0.786  0.4135E+01  0.1109E+03
      0.849  0.4080E+01  0.1111E+03
      0.912  0.4454E+01  0.1114E+03
      0.975  0.5270E+01  0.1117E+03
      1.038  0.6059E+01  0.1121E+03
      1.101  0.6252E+01  0.1125E+03
      1.164  0.6549E+01  0.1129E+03
      1.227  0.7383E+01  0.1134E+03
      1.290  0.8371E+01  0.1139E+03
      1.353  0.9021E+01  0.1145E+03
      1.416  0.9348E+01  0.1151E+03
      1.479  0.9758E+01  0.1157E+03
      1.542  0.9992E+01  0.1163E+03
      1.605  0.1000E+02  0.1169E+03
      1.668  0.1036E+02  0.1176E+03
      1.731  0.1103E+02  0.1183E+03
      1.794  0.1178E+02  0.1190E+03
      1.857  0.1242E+02  0.1198E+03
      1.920  0.1268E+02  0.1206E+03
      1.983  0.1264E+02  0.1214E+03
      2.046  0.1285E+02  0.1222E+03
      2.109  0.1387E+02  0.1231E+03
      2.172  0.1507E+02  0.1240E+03
      2.235  0.1541E+02  0.1250E+03
      2.297  0.1470E+02  0.1259E+03
      2.360  0.1380E+02  0.1268E+03
      2.423  0.1370E+02  0.1277E+03
      2.486  0.1459E+02  0.1286E+03
      2.549  0.1594E+02  0.1296E+03
      2.612  0.1645E+02  0.1306E+03
      2.675  0.1522E+02  0.1316E+03
      2.738  0.1308E+02  0.1324E+03
      2.801  0.1158E+02  0.1331E+03
      2.864  0.1059E+02  0.1338E+03
      2.927  0.9197E+01  0.1344E+03
      2.990  0.7512E+01  0.1348E+03
      3.053  0.6179E+01  0.1352E+03
      3.116  0.5113E+01  0.1356E+03
      3.179  0.3850E+01  0.1358E+03
      3.242  0.2203E+01  0.1359E+03
      3.305  0.7829E+00  0.1360E+03
      3.368  0.1514E+00  0.1360E+03
      3.431  0.1489E-01  0.1360E+03
      3.494  0.7174E-03  0.1360E+03
      3.557  0.1658E-04  0.1360E+03
      3.620  0.1813E-06  0.1360E+03
      3.683  0.9276E-09  0.1360E+03
      3.746  0.2206E-11  0.1360E+03
      3.809  0.2441E-14  0.1360E+03
      3.872  0.0000E+00  0.1360E+03
      3.935  0.0000E+00  0.1360E+03
      3.998  0.0000E+00  0.1360E+03
      4.061  0.0000E+00  0.1360E+03
      4.124  0.0000E+00  0.1360E+03
      4.187  0.0000E+00  0.1360E+03
