 running on    8 total cores
 distrk:  each k-point on    8 cores,    1 groups
 distr:  one band on    2 cores,    4 groups
 using from now: INCAR     
 vasp.5.3.5 31Mar14 (build Oct 29 2014 16:16:03) complex                        
  
 POSCAR found type information on POSCAR  P  Si
 POSCAR found :  2 types and      24 ions
 scaLAPACK will be used

 ----------------------------------------------------------------------------- 
|                                                                             |
|  ADVICE TO THIS USER RUNNING 'VASP/VAMP'   (HEAR YOUR MASTER'S VOICE ...):  |
|                                                                             |
|      You have switched on vdW-DFT.                                          |
|      This routine was written and supplied by Jiri Klimes.                  |
|      We recommed that you carefully read and cite the following             |
|      publication                                                            |
|      J. Klimes, D.R. Bowler, A. Michelides                                  |
|        J. Phys.: Cond Matt. 22 022201 (2010)                                |
|      J. Klimes, D.R. Bowler, A. Michelides                                  |
|        Phys. Rev. B. 83, 195131 (2011)                                      |
|      and references therein.                                                |
|                                                                             |
 ----------------------------------------------------------------------------- 


 ----------------------------------------------------------------------------- 
|                                                                             |
|  ADVICE TO THIS USER RUNNING 'VASP/VAMP'   (HEAR YOUR MASTER'S VOICE ...):  |
|                                                                             |
|      You enforced a specific xc-type in the INCAR file,                     |
|      a different type was found on the POTCAR file                          |
|          I HOPE YOU KNOW, WHAT YOU ARE  DOING                               |
|                                                                             |
 ----------------------------------------------------------------------------- 

 LDA part: xc-table for Pade appr. of Perdew


 VERY BAD NEWS! internal error in subroutine IBZKPT:
 Reciprocal lattice and k-lattice belong to different class of lattices. Often results are still useful...      96


 VERY BAD NEWS! internal error in subroutine IBZKPT:
 Reciprocal lattice and k-lattice belong to different class of lattices. Often results are still useful...      96


 VERY BAD NEWS! internal error in subroutine IBZKPT:
 Reciprocal lattice and k-lattice belong to different class of lattices. Often results are still useful...      96


 VERY BAD NEWS! internal error in subroutine IBZKPT:
 Reciprocal lattice and k-lattice belong to different class of lattices. Often results are still useful...      96


 VERY BAD NEWS! internal error in subroutine IBZKPT:
 Reciprocal lattice and k-lattice belong to different class of lattices. Often results are still useful...      96


 VERY BAD NEWS! internal error in subroutine IBZKPT:
 Reciprocal lattice and k-lattice belong to different class of lattices. Often results are still useful...      96


 VERY BAD NEWS! internal error in subroutine IBZKPT:
 Reciprocal lattice and k-lattice belong to different class of lattices. Often results are still useful...      96


 VERY BAD NEWS! internal error in subroutine IBZKPT:
 Reciprocal lattice and k-lattice belong to different class of lattices. Often results are still useful...      96
 POSCAR, INCAR and KPOINTS ok, starting setup
 WARNING: small aliasing (wrap around) errors must be expected
 FFT: planning ...
 WAVECAR not read
 entering main loop
       N       E                     dE             d eps       ncg     rms          rms(c)
Total vdW correction in eV:     15.9381807
DAV:   1     0.497716218937E+03    0.49772E+03   -0.28660E+04  7352   0.790E+02
DAV:   2    -0.625744647727E+02   -0.56029E+03   -0.54566E+03  9732   0.189E+02
DAV:   3    -0.120047114981E+03   -0.57473E+02   -0.56708E+02  8828   0.626E+01
DAV:   4    -0.122735183104E+03   -0.26881E+01   -0.26725E+01 11016   0.145E+01
DAV:   5    -0.122792955242E+03   -0.57772E-01   -0.57715E-01  9848   0.216E+00    0.122E+01
Total vdW correction in eV:     16.4108755
DAV:   6    -0.118839827209E+03    0.39531E+01   -0.72593E+00  8728   0.763E+00    0.627E+00
Total vdW correction in eV:     16.9263469
DAV:   7    -0.118802145678E+03    0.37682E-01   -0.91436E+00  8544   0.736E+00    0.237E+00
Total vdW correction in eV:     16.9758697
DAV:   8    -0.118653951721E+03    0.14819E+00   -0.98244E-01  8412   0.337E+00    0.131E+00
Total vdW correction in eV:     17.1317882
DAV:   9    -0.118699122833E+03   -0.45171E-01   -0.56179E-01  8992   0.180E+00    0.545E-01
Total vdW correction in eV:     17.1578884
DAV:  10    -0.118682490769E+03    0.16632E-01   -0.60956E-02  9160   0.809E-01    0.194E-01
Total vdW correction in eV:     17.1763505
DAV:  11    -0.118673608616E+03    0.88822E-02   -0.34294E-02  8728   0.453E-01    0.114E-01
Total vdW correction in eV:     17.1818810
DAV:  12    -0.118669004620E+03    0.46040E-02   -0.21064E-03  9360   0.156E-01    0.454E-02
Total vdW correction in eV:     17.1867483
DAV:  13    -0.118666696743E+03    0.23079E-02   -0.10974E-03  8768   0.804E-02    0.186E-02
Total vdW correction in eV:     17.1908182
DAV:  14    -0.118665420932E+03    0.12758E-02   -0.11945E-04  9184   0.307E-02    0.151E-02
Total vdW correction in eV:     17.1931419
DAV:  15    -0.118665290209E+03    0.13072E-03   -0.38767E-05  8496   0.181E-02    0.777E-03
Total vdW correction in eV:     17.1950839
DAV:  16    -0.118665583839E+03   -0.29363E-03   -0.10940E-04  8440   0.241E-02    0.595E-03
Total vdW correction in eV:     17.1955540
DAV:  17    -0.118665818803E+03   -0.23496E-03   -0.10471E-04  8472   0.196E-02    0.621E-03
Total vdW correction in eV:     17.1954846
DAV:  18    -0.118666030047E+03   -0.21124E-03   -0.42715E-05  7960   0.127E-02    0.258E-03
Total vdW correction in eV:     17.1952838
DAV:  19    -0.118666108839E+03   -0.78792E-04   -0.16191E-05  8000   0.104E-02    0.230E-03
Total vdW correction in eV:     17.1951010
DAV:  20    -0.118666129490E+03   -0.20650E-04   -0.11053E-05  6944   0.779E-03    0.125E-03
Total vdW correction in eV:     17.1949261
DAV:  21    -0.118666087084E+03    0.42405E-04   -0.18590E-05  7304   0.876E-03    0.527E-04
Total vdW correction in eV:     17.1948495
DAV:  22    -0.118666050601E+03    0.36483E-04   -0.99414E-06  6456   0.848E-03    0.472E-04
Total vdW correction in eV:     17.1948387
DAV:  23    -0.118665996374E+03    0.54227E-04   -0.10646E-05  6672   0.795E-03    0.181E-04
Total vdW correction in eV:     17.1948341
DAV:  24    -0.118665974885E+03    0.21489E-04   -0.59843E-06  6376   0.699E-03    0.846E-05
Total vdW correction in eV:     17.1948379
DAV:  25    -0.118665966168E+03    0.87168E-05   -0.44759E-06  6408   0.641E-03    0.443E-05
Total vdW correction in eV:     17.1948392
DAV:  26    -0.118665963114E+03    0.30542E-05   -0.19898E-06  6088   0.508E-03    0.389E-05
Total vdW correction in eV:     17.1948385
DAV:  27    -0.118665961245E+03    0.18693E-05   -0.15425E-06  5840   0.479E-03    0.136E-05
Total vdW correction in eV:     17.1948385
DAV:  28    -0.118665960746E+03    0.49836E-06   -0.12961E-06  5408   0.415E-03
Total vdW correction in eV:     17.1948386
Total vdW correction in eV:     17.1948388
   1 F= -.11866596E+03 E0= -.11864657E+03  d E =-.387869E-01
