<?xml version="1.0" encoding="ISO-8859-1"?>
<modeling>
 <generator>
  <i name="program" type="string">vasp </i>
  <i name="version" type="string">5.3.5  </i>
  <i name="subversion" type="string">31Mar14 (build Oct 29 2014 16:16:03) complex                          parallel </i>
  <i name="platform" type="string">Linux-UFHPC </i>
  <i name="date" type="string">2016 02 09 </i>
  <i name="time" type="string">17:31:03 </i>
 </generator>
 <incar>
  <i type="string" name="PREC">accurate</i>
  <i type="int" name="IBRION">     2</i>
  <i name="EDIFF">      0.00000100</i>
  <i type="int" name="NSW">     0</i>
  <i type="int" name="ISIF">     3</i>
  <i name="ENCUT">    300.00000000</i>
  <i type="string" name="LREAL"> Auto</i>
  <i type="int" name="ISMEAR">     0</i>
  <i name="SIGMA">      0.10000000</i>
  <i type="logical" name="LWAVE"> F  </i>
  <i type="logical" name="LCHARG"> F  </i>
  <i type="logical" name="LAECHG"> F  </i>
  <i type="string" name="GGA"> Bo</i>
  <i name="PARAM1">      0.18333333</i>
  <i name="PARAM2">      0.22000000</i>
  <i type="logical" name="LUSE_VDW"> T  </i>
  <i name="AGGAC">      0.00000000</i>
 </incar>
 <kpoints>
  <generation param="Gamma">
   <v type="int" name="divisions">      13        4        2 </v>
   <v name="usershift">      0.00000000       0.00000000       0.00000000 </v>
   <v name="genvec1">      0.07692308      -0.00000000       0.00000000 </v>
   <v name="genvec2">      0.00000000       0.25000000       0.00000000 </v>
   <v name="genvec3">      0.00000000       0.00000000       0.50000000 </v>
   <v name="shift">      0.00000000       0.00000000       0.00000000 </v>
  </generation>
  <varray name="kpointlist" >
   <v>       0.00000000       0.00000000       0.00000000 </v>
   <v>       0.07692308      -0.00000000       0.00000000 </v>
   <v>       0.15384615      -0.00000000       0.00000000 </v>
   <v>       0.23076923      -0.00000000       0.00000000 </v>
   <v>       0.30769231      -0.00000000       0.00000000 </v>
   <v>       0.38461538      -0.00000000       0.00000000 </v>
   <v>       0.46153846      -0.00000000       0.00000000 </v>
   <v>       0.00000000       0.25000000       0.00000000 </v>
   <v>       0.07692308       0.25000000       0.00000000 </v>
   <v>       0.15384615       0.25000000       0.00000000 </v>
   <v>       0.23076923       0.25000000       0.00000000 </v>
   <v>       0.30769231       0.25000000       0.00000000 </v>
   <v>       0.38461538       0.25000000       0.00000000 </v>
   <v>       0.46153846       0.25000000       0.00000000 </v>
   <v>      -0.46153846       0.25000000       0.00000000 </v>
   <v>      -0.38461538       0.25000000       0.00000000 </v>
   <v>      -0.30769231       0.25000000       0.00000000 </v>
   <v>      -0.23076923       0.25000000       0.00000000 </v>
   <v>      -0.15384615       0.25000000       0.00000000 </v>
   <v>      -0.07692308       0.25000000       0.00000000 </v>
   <v>       0.00000000       0.50000000       0.00000000 </v>
   <v>       0.07692308       0.50000000       0.00000000 </v>
   <v>       0.15384615       0.50000000       0.00000000 </v>
   <v>       0.23076923       0.50000000       0.00000000 </v>
   <v>       0.30769231       0.50000000       0.00000000 </v>
   <v>       0.38461538       0.50000000       0.00000000 </v>
   <v>       0.46153846       0.50000000       0.00000000 </v>
   <v>       0.00000000       0.00000000       0.50000000 </v>
   <v>       0.07692308      -0.00000000       0.50000000 </v>
   <v>       0.15384615      -0.00000000       0.50000000 </v>
   <v>       0.23076923      -0.00000000       0.50000000 </v>
   <v>       0.30769231      -0.00000000       0.50000000 </v>
   <v>       0.38461538      -0.00000000       0.50000000 </v>
   <v>       0.46153846      -0.00000000       0.50000000 </v>
   <v>       0.00000000       0.25000000       0.50000000 </v>
   <v>       0.07692308       0.25000000       0.50000000 </v>
   <v>       0.15384615       0.25000000       0.50000000 </v>
   <v>       0.23076923       0.25000000       0.50000000 </v>
   <v>       0.30769231       0.25000000       0.50000000 </v>
   <v>       0.38461538       0.25000000       0.50000000 </v>
   <v>       0.46153846       0.25000000       0.50000000 </v>
   <v>      -0.46153846       0.25000000       0.50000000 </v>
   <v>      -0.38461538       0.25000000       0.50000000 </v>
   <v>      -0.30769231       0.25000000       0.50000000 </v>
   <v>      -0.23076923       0.25000000       0.50000000 </v>
   <v>      -0.15384615       0.25000000       0.50000000 </v>
   <v>      -0.07692308       0.25000000       0.50000000 </v>
   <v>       0.00000000       0.50000000       0.50000000 </v>
   <v>       0.07692308       0.50000000       0.50000000 </v>
   <v>       0.15384615       0.50000000       0.50000000 </v>
   <v>       0.23076923       0.50000000       0.50000000 </v>
   <v>       0.30769231       0.50000000       0.50000000 </v>
   <v>       0.38461538       0.50000000       0.50000000 </v>
   <v>       0.46153846       0.50000000       0.50000000 </v>
  </varray>
  <varray name="weights" >
   <v>       0.00961538 </v>
   <v>       0.01923077 </v>
   <v>       0.01923077 </v>
   <v>       0.01923077 </v>
   <v>       0.01923077 </v>
   <v>       0.01923077 </v>
   <v>       0.01923077 </v>
   <v>       0.01923077 </v>
   <v>       0.01923077 </v>
   <v>       0.01923077 </v>
   <v>       0.01923077 </v>
   <v>       0.01923077 </v>
   <v>       0.01923077 </v>
   <v>       0.01923077 </v>
   <v>       0.01923077 </v>
   <v>       0.01923077 </v>
   <v>       0.01923077 </v>
   <v>       0.01923077 </v>
   <v>       0.01923077 </v>
   <v>       0.01923077 </v>
   <v>       0.00961538 </v>
   <v>       0.01923077 </v>
   <v>       0.01923077 </v>
   <v>       0.01923077 </v>
   <v>       0.01923077 </v>
   <v>       0.01923077 </v>
   <v>       0.01923077 </v>
   <v>       0.00961538 </v>
   <v>       0.01923077 </v>
   <v>       0.01923077 </v>
   <v>       0.01923077 </v>
   <v>       0.01923077 </v>
   <v>       0.01923077 </v>
   <v>       0.01923077 </v>
   <v>       0.01923077 </v>
   <v>       0.01923077 </v>
   <v>       0.01923077 </v>
   <v>       0.01923077 </v>
   <v>       0.01923077 </v>
   <v>       0.01923077 </v>
   <v>       0.01923077 </v>
   <v>       0.01923077 </v>
   <v>       0.01923077 </v>
   <v>       0.01923077 </v>
   <v>       0.01923077 </v>
   <v>       0.01923077 </v>
   <v>       0.01923077 </v>
   <v>       0.00961538 </v>
   <v>       0.01923077 </v>
   <v>       0.01923077 </v>
   <v>       0.01923077 </v>
   <v>       0.01923077 </v>
   <v>       0.01923077 </v>
   <v>       0.01923077 </v>
  </varray>
 </kpoints>
 <parameters>
  <separator name="general" >
   <i type="string" name="SYSTEM">unknown system</i>
   <i type="logical" name="LCOMPAT"> F  </i>
  </separator>
  <separator name="electronic" >
   <i type="string" name="PREC">accura</i>
   <i name="ENMAX">    300.00000000</i>
   <i name="ENAUG">    342.92400000</i>
   <i name="EDIFF">      0.00000100</i>
   <i type="int" name="IALGO">    38</i>
   <i type="int" name="IWAVPR">    10</i>
   <i type="int" name="NBANDS">    68</i>
   <i name="NELECT">    108.00000000</i>
   <i type="int" name="TURBO">     0</i>
   <i type="int" name="IRESTART">     0</i>
   <i type="int" name="NREBOOT">     0</i>
   <i type="int" name="NMIN">     0</i>
   <i name="EREF">      0.00000000</i>
   <separator name="electronic smearing" >
    <i type="int" name="ISMEAR">     0</i>
    <i name="SIGMA">      0.10000000</i>
    <i name="KSPACING">      0.50000000</i>
    <i type="logical" name="KGAMMA"> T  </i>
   </separator>
   <separator name="electronic projectors" >
    <i type="logical" name="LREAL"> T  </i>
    <v name="ROPT">     -0.00025000     -0.00025000</v>
    <i type="int" name="LMAXPAW">  -100</i>
    <i type="int" name="LMAXMIX">     2</i>
    <i type="logical" name="NLSPLINE"> F  </i>
   </separator>
   <separator name="electronic startup" >
    <i type="int" name="ISTART">     0</i>
    <i type="int" name="ICHARG">     2</i>
    <i type="int" name="INIWAV">     1</i>
   </separator>
   <separator name="electronic spin" >
    <i type="int" name="ISPIN">     1</i>
    <i type="logical" name="LNONCOLLINEAR"> F  </i>
    <v name="MAGMOM">      1.00000000      1.00000000      1.00000000      1.00000000      1.00000000      1.00000000      1.00000000      1.00000000      1.00000000      1.00000000      1.00000000      1.00000000      1.00000000      1.00000000      1.00000000      1.00000000      1.00000000      1.00000000      1.00000000      1.00000000
      1.00000000      1.00000000      1.00000000      1.00000000</v>
    <i name="NUPDOWN">     -1.00000000</i>
    <i type="logical" name="LSORBIT"> F  </i>
    <v name="SAXIS">      0.00000000      0.00000000      1.00000000</v>
    <i type="logical" name="LSPIRAL"> F  </i>
    <v name="QSPIRAL">      0.00000000      0.00000000      0.00000000</v>
    <i type="logical" name="LZEROZ"> F  </i>
   </separator>
   <separator name="electronic exchange-correlation" >
    <i type="logical" name="LASPH"> F  </i>
    <i type="logical" name="LMETAGGA"> F  </i>
   </separator>
   <separator name="electronic convergence" >
    <i type="int" name="NELM">    60</i>
    <i type="int" name="NELMDL">    -5</i>
    <i type="int" name="NELMIN">     2</i>
    <i name="ENINI">    300.00000000</i>
    <separator name="electronic convergence detail" >
     <i type="logical" name="LDIAG"> T  </i>
     <i type="logical" name="LSUBROT"> F  </i>
     <i name="WEIMIN">      0.00000000</i>
     <i name="EBREAK">      0.00000000</i>
     <i name="DEPER">      0.30000000</i>
     <i type="int" name="NRMM">     4</i>
     <i name="TIME">      0.40000000</i>
    </separator>
   </separator>
   <separator name="electronic mixer" >
    <i name="AMIX">      0.40000000</i>
    <i name="BMIX">      1.00000000</i>
    <i name="AMIN">      0.10000000</i>
    <i name="AMIX_MAG">      1.60000000</i>
    <i name="BMIX_MAG">      1.00000000</i>
    <separator name="electronic mixer details" >
     <i type="int" name="IMIX">     4</i>
     <i type="int" name="MAXMIX">   -45</i>
     <i name="WC">    100.00000000</i>
     <i type="int" name="INIMIX">     1</i>
     <i type="int" name="MIXPRE">     1</i>
     <i type="int" name="MREMOVE">     5</i>
    </separator>
   </separator>
   <separator name="electronic dipolcorrection" >
    <i type="logical" name="LDIPOL"> F  </i>
    <i type="logical" name="LMONO"> F  </i>
    <i type="int" name="IDIPOL">     0</i>
    <i name="EPSILON">      1.00000000</i>
    <v name="DIPOL">   -100.00000000   -100.00000000   -100.00000000</v>
    <i name="EFIELD">      0.00000000</i>
   </separator>
  </separator>
  <separator name="grids" >
   <i type="int" name="NGX">    20</i>
   <i type="int" name="NGY">    60</i>
   <i type="int" name="NGZ">   160</i>
   <i type="int" name="NGXF">    40</i>
   <i type="int" name="NGYF">   120</i>
   <i type="int" name="NGZF">   320</i>
   <i type="logical" name="ADDGRID"> F  </i>
  </separator>
  <separator name="ionic" >
   <i type="int" name="NSW">     0</i>
   <i type="int" name="IBRION">    -1</i>
   <i type="int" name="ISIF">     3</i>
   <i name="PSTRESS">      0.00000000</i>
   <i name="EDIFFG">      0.00001000</i>
   <i type="int" name="NFREE">     1</i>
   <i name="POTIM">      0.50000000</i>
   <i name="SMASS">     -3.00000000</i>
   <i name="SCALEE">      1.00000000</i>
  </separator>
  <separator name="ionic md" >
   <i name="TEBEG">      0.00010000</i>
   <i name="TEEND">      0.00010000</i>
   <i type="int" name="NBLOCK">     1</i>
   <i type="int" name="KBLOCK">     1</i>
   <i type="int" name="NPACO">   256</i>
   <i name="APACO">     16.00000000</i>
  </separator>
  <separator name="symmetry" >
   <i type="int" name="ISYM">     2</i>
   <i name="SYMPREC">      0.00001000</i>
  </separator>
  <separator name="dos" >
   <i type="logical" name="LORBIT"> F  </i>
   <v name="RWIGS">     -1.00000000     -1.00000000</v>
   <i type="int" name="NEDOS">   301</i>
   <i name="EMIN">     10.00000000</i>
   <i name="EMAX">    -10.00000000</i>
   <i name="EFERMI">      0.00000000</i>
  </separator>
  <separator name="writing" >
   <i type="int" name="NWRITE">     2</i>
   <i type="logical" name="LWAVE"> F  </i>
   <i type="logical" name="LCHARG"> F  </i>
   <i type="logical" name="LPARD"> F  </i>
   <i type="logical" name="LVTOT"> F  </i>
   <i type="logical" name="LVHAR"> F  </i>
   <i type="logical" name="LELF"> F  </i>
   <i type="logical" name="LOPTICS"> F  </i>
   <v name="STM">      0.00000000      0.00000000      0.00000000      0.00000000      0.00000000      0.00000000      0.00000000</v>
  </separator>
  <separator name="performance" >
   <i type="int" name="NPAR">     4</i>
   <i type="int" name="NSIM">     4</i>
   <i type="int" name="NBLK">    -1</i>
   <i type="logical" name="LPLANE"> T  </i>
   <i type="logical" name="LSCALAPACK"> T  </i>
   <i type="logical" name="LSCAAWARE"> F  </i>
   <i type="logical" name="LSCALU"> F  </i>
   <i type="logical" name="LASYNC"> F  </i>
   <i type="logical" name="LORBITALREAL"> F  </i>
  </separator>
  <separator name="miscellaneous" >
   <i type="int" name="IDIOT">     3</i>
   <i type="logical" name="LMUSIC"> F  </i>
   <v name="POMASS">     30.97400000     28.08500000</v>
   <v name="DARWINR">      0.00000000      0.00000000</v>
   <v name="DARWINV">      1.00000000      1.00000000</v>
   <i type="logical" name="LCORR"> T  </i>
  </separator>
  <i type="logical" name="GGA_COMPAT"> T  </i>
  <i type="logical" name="LBERRY"> F  </i>
  <i type="int" name="ICORELEVEL">     0</i>
  <i type="logical" name="LDAU"> F  </i>
  <i type="int" name="I_CONSTRAINED_M">     0</i>
  <separator name="electronic exchange-correlation" >
   <i type="string" name="GGA">BO</i>
   <i type="int" name="VOSKOWN">     0</i>
   <i type="logical" name="LHFCALC"> F  </i>
   <i type="string" name="PRECFOCK"></i>
   <i type="logical" name="LSYMGRAD"> F  </i>
   <i type="logical" name="LHFONE"> F  </i>
   <i type="logical" name="LRHFCALC"> F  </i>
   <i type="logical" name="LTHOMAS"> F  </i>
   <i type="logical" name="LMODELHF"> F  </i>
   <i name="ENCUT4O">     -1.00000000</i>
   <i type="int" name="EXXOEP">     0</i>
   <i type="int" name="FOURORBIT">     0</i>
   <i name="AEXX">      0.00000000</i>
   <i name="HFALPHA">      0.00000000</i>
   <i name="MCALPHA">      0.00000000</i>
   <i name="ALDAX">      1.00000000</i>
   <i name="AGGAX">      1.00000000</i>
   <i name="ALDAC">      1.00000000</i>
   <i name="AGGAC">      0.00000000</i>
   <i type="int" name="NKREDX">     1</i>
   <i type="int" name="NKREDY">     1</i>
   <i type="int" name="NKREDZ">     1</i>
   <i type="logical" name="SHIFTRED"> F  </i>
   <i type="logical" name="ODDONLY"> F  </i>
   <i type="logical" name="EVENONLY"> F  </i>
   <i type="int" name="LMAXFOCK">     0</i>
   <i type="int" name="NMAXFOCKAE">     0</i>
   <i type="logical" name="LFOCKAEDFT"> F  </i>
   <i name="HFSCREEN">      0.00000000</i>
   <i name="HFSCREENC">      0.00000000</i>
   <i type="int" name="NBANDSGWLOW">     0</i>
  </separator>
  <separator name="vdW DFT" >
   <i type="logical" name="LUSE_VDW"> T  </i>
   <i name="Zab_VDW">     -0.84910000</i>
   <i name="PARAM1">      0.18333333</i>
   <i name="PARAM2">      0.22000000</i>
   <i name="PARAM3">      0.00000000</i>
  </separator>
  <separator name="model GW" >
   <i type="int" name="MODEL_GW">     0</i>
   <i name="MODEL_EPS0">     25.05800243</i>
   <i name="MODEL_ALPHA">      1.00000000</i>
  </separator>
  <separator name="linear response parameters" >
   <i type="logical" name="LEPSILON"> F  </i>
   <i type="logical" name="LRPA"> F  </i>
   <i type="logical" name="LNABLA"> F  </i>
   <i type="logical" name="LVEL"> F  </i>
   <i type="int" name="KINTER">     0</i>
   <i name="CSHIFT">      0.10000000</i>
   <i name="OMEGAMAX">     -1.00000000</i>
   <i name="DEG_THRESHOLD">      0.00200000</i>
  </separator>
  <separator name="orbital magnetization" >
   <i type="logical" name="NUCIND"> F  </i>
   <v name="MAGPOS">      0.00000000      0.00000000      0.00000000</v>
   <i type="logical" name="LNICSALL"> T  </i>
   <i type="logical" name="ORBITALMAG"> F  </i>
   <i type="logical" name="LMAGBLOCH"> F  </i>
   <i type="logical" name="LCHIMAG"> F  </i>
   <i type="logical" name="LGAUGE"> T  </i>
   <i type="int" name="MAGATOM">     0</i>
   <v name="MAGDIPOL">      0.00000000      0.00000000      0.00000000</v>
   <v name="AVECCONST">      0.00000000      0.00000000      0.00000000</v>
  </separator>
  <separator name="response functions" >
   <i type="logical" name="LADDER"> F  </i>
   <i type="logical" name="LFXC"> F  </i>
   <i type="logical" name="LHARTREE"> T  </i>
   <i type="int" name="IBSE">     0</i>
   <i type="logical" name="LTCTE"> F  </i>
   <i type="logical" name="LTETE"> F  </i>
   <i type="logical" name="LTRIPLET"> F  </i>
   <i type="logical" name="LFXCEPS"> F  </i>
   <i type="logical" name="LFXHEG"> F  </i>
   <i type="logical" name="L2ORDER"> F  </i>
   <i type="logical" name="LUSEW"> F  </i>
   <i name="ENCUTGW">     -2.00000000</i>
   <i name="ENCUTGWSOFT">     -2.00000000</i>
   <i name="ENCUTLF">     -1.00000000</i>
   <i type="int" name="LMAXMP2">    -1</i>
   <i name="SCISSOR">      0.00000000</i>
   <i type="int" name="NOMEGA">     0</i>
   <i type="int" name="NOMEGAR">     0</i>
   <i type="int" name="NBANDSGW">    -1</i>
   <i type="int" name="NBANDSO">    -1</i>
   <i type="int" name="NBANDSV">    -1</i>
   <i type="int" name="NELM">     1</i>
   <i type="int" name="DIM">     3</i>
   <i type="int" name="ANTIRES">     0</i>
   <i name="OMEGAMAX">    -30.00000000</i>
   <i name="OMEGAMIN">    -30.00000000</i>
   <i name="OMEGATL">   -200.00000000</i>
   <i type="int" name="OMEGAGRID">     0</i>
   <i name="CSHIFT">     -0.10000000</i>
   <i type="logical" name="SELFENERGY"> F  </i>
   <i type="logical" name="LSPECTRAL"> F  </i>
   <i type="logical" name="ODDONLYGW"> F  </i>
   <i type="logical" name="EVENONLYGW"> F  </i>
   <i type="int" name="NKREDLFX">     1</i>
   <i type="int" name="NKREDLFY">     1</i>
   <i type="int" name="NKREDLFZ">     1</i>
   <i type="int" name="MAXMEM">  1800</i>
   <i type="int" name="TELESCOPE">     0</i>
   <i type="int" name="TAUPAR">     1</i>
  </separator>
  <separator name="External order field" >
   <i name="OFIELD_KAPPA">      0.00000000</i>
   <v name="OFIELD_K">      0.00000000      0.00000000      0.00000000</v>
   <i name="OFIELD_Q6_NEAR">      0.00000000</i>
   <i name="OFIELD_Q6_FAR">      0.00000000</i>
   <i name="OFIELD_A">      0.00000000</i>
  </separator>
 </parameters>
 <atominfo>
  <atoms>      24 </atoms>
  <types>       2 </types>
  <array name="atoms" >
   <dimension dim="1">ion</dimension>
   <field type="string">element</field>
   <field type="int">atomtype</field>
   <set>
    <rc><c>P </c><c>   1</c></rc>
    <rc><c>P </c><c>   1</c></rc>
    <rc><c>P </c><c>   1</c></rc>
    <rc><c>P </c><c>   1</c></rc>
    <rc><c>P </c><c>   1</c></rc>
    <rc><c>P </c><c>   1</c></rc>
    <rc><c>P </c><c>   1</c></rc>
    <rc><c>P </c><c>   1</c></rc>
    <rc><c>P </c><c>   1</c></rc>
    <rc><c>P </c><c>   1</c></rc>
    <rc><c>P </c><c>   1</c></rc>
    <rc><c>P </c><c>   1</c></rc>
    <rc><c>Si</c><c>   2</c></rc>
    <rc><c>Si</c><c>   2</c></rc>
    <rc><c>Si</c><c>   2</c></rc>
    <rc><c>Si</c><c>   2</c></rc>
    <rc><c>Si</c><c>   2</c></rc>
    <rc><c>Si</c><c>   2</c></rc>
    <rc><c>Si</c><c>   2</c></rc>
    <rc><c>Si</c><c>   2</c></rc>
    <rc><c>Si</c><c>   2</c></rc>
    <rc><c>Si</c><c>   2</c></rc>
    <rc><c>Si</c><c>   2</c></rc>
    <rc><c>Si</c><c>   2</c></rc>
   </set>
  </array>
  <array name="atomtypes" >
   <dimension dim="1">type</dimension>
   <field type="int">atomspertype</field>
   <field type="string">element</field>
   <field>mass</field>
   <field>valence</field>
   <field type="string">pseudopotential</field>
   <set>
    <rc><c>  12</c><c>P </c><c>     30.97400000</c><c>      5.00000000</c><c>  PAW_PBE P 17Jan2003                   </c></rc>
    <rc><c>  12</c><c>Si</c><c>     28.08500000</c><c>      4.00000000</c><c> PAW_PBE Si 05Jan2001                   </c></rc>
   </set>
  </array>
 </atominfo>
 <structure name="initialpos" >
  <crystal>
   <varray name="basis" >
    <v>       3.54040000       0.00000000       0.00000000 </v>
    <v>      -1.77020000      10.29434800       0.00000000 </v>
    <v>       0.00000000       0.00000000      27.50142900 </v>
   </varray>
   <i name="volume">   1002.32009712 </i>
   <varray name="rec_basis" >
    <v>       0.28245396       0.04857034       0.00000000 </v>
    <v>       0.00000000       0.09714068       0.00000000 </v>
    <v>       0.00000000       0.00000000       0.03636175 </v>
   </varray>
  </crystal>
  <varray name="positions" >
   <v>       0.11402300       0.22804500       0.23316207 </v>
   <v>       0.41402300       0.52804500       0.51499159 </v>
   <v>       0.45808900       0.91617900       0.20939482 </v>
   <v>       0.75808900       0.21617900       0.49122434 </v>
   <v>       0.31085400       0.62170900       0.08414979 </v>
   <v>       0.31085400       0.62170900       0.36597930 </v>
   <v>       0.99923000       0.99846000       0.08631254 </v>
   <v>       0.99923000       0.99846000       0.36814206 </v>
   <v>       0.65492700       0.30985400       0.06041748 </v>
   <v>       0.65492700       0.30985400       0.34224700 </v>
   <v>       0.76973800       0.53947500       0.20725292 </v>
   <v>       0.06973800       0.83947500       0.48908244 </v>
   <v>       0.93971600       0.87943300       0.15783749 </v>
   <v>       0.23971600       0.17943300       0.43966701 </v>
   <v>       0.20515200       0.41030300       0.18578822 </v>
   <v>       0.50515200       0.71030300       0.46761774 </v>
   <v>       0.20184900       0.40369900       0.09969156 </v>
   <v>       0.20184900       0.40369900       0.38152107 </v>
   <v>       0.56380500       0.12761000       0.10779021 </v>
   <v>       0.56380500       0.12761000       0.38961973 </v>
   <v>       0.56710600       0.13421200       0.19387616 </v>
   <v>       0.86710600       0.43421200       0.47570568 </v>
   <v>       0.82923400       0.65846800       0.13571444 </v>
   <v>       0.12923400       0.95846800       0.41754396 </v>
  </varray>
 </structure>
 <calculation>
  <scstep>
   <time name="dav">   56.98   57.09</time>
   <time name="total">   72.87   73.01</time>
   <energy>
    <i name="alphaZ">     36.80884744 </i>
    <i name="ewald">  11988.66972272 </i>
    <i name="hartreedc"> -15013.98122438 </i>
    <i name="XCdc">    -87.24697585 </i>
    <i name="pawpsdc">   1056.43050070 </i>
    <i name="pawaedc">   -732.41190547 </i>
    <i name="eentropy">     -0.04153473 </i>
    <i name="bandstr">    -96.35311250 </i>
    <i name="atom">   3354.04126044 </i>
    <i name="e_fr_energy">    505.91557838 </i>
    <i name="e_wo_entrp">    505.95711311 </i>
    <i name="e_0_energy">    505.93634574 </i>
   </energy>
  </scstep>
  <scstep>
   <time name="dav">   70.77   70.85</time>
   <time name="total">   70.78   70.87</time>
   <energy>
    <i name="e_fr_energy">    -58.52844190 </i>
    <i name="e_wo_entrp">    -58.50235804 </i>
    <i name="e_0_energy">    -58.51539997 </i>
   </energy>
  </scstep>
  <scstep>
   <time name="dav">   67.03   67.13</time>
   <time name="total">   67.04   67.14</time>
   <energy>
    <i name="e_fr_energy">   -116.71185272 </i>
    <i name="e_wo_entrp">   -116.68734016 </i>
    <i name="e_0_energy">   -116.69959644 </i>
   </energy>
  </scstep>
  <scstep>
   <time name="dav">   81.83   81.97</time>
   <time name="total">   81.84   81.98</time>
   <energy>
    <i name="e_fr_energy">   -119.48561550 </i>
    <i name="e_wo_entrp">   -119.46115661 </i>
    <i name="e_0_energy">   -119.47338605 </i>
   </energy>
  </scstep>
  <scstep>
   <time name="dav">   73.66   73.86</time>
   <time name="total">   77.62   77.83</time>
   <energy>
    <i name="e_fr_energy">   -119.54118364 </i>
    <i name="e_wo_entrp">   -119.51655303 </i>
    <i name="e_0_energy">   -119.52886833 </i>
   </energy>
  </scstep>
  <scstep>
   <time name="dav">   71.76   71.81</time>
   <time name="total">   90.34   90.46</time>
   <energy>
    <i name="e_fr_energy">   -115.00074207 </i>
    <i name="e_wo_entrp">   -114.96923546 </i>
    <i name="e_0_energy">   -114.98498876 </i>
   </energy>
  </scstep>
  <scstep>
   <time name="dav">   69.39   69.45</time>
   <time name="total">   88.07   88.14</time>
   <energy>
    <i name="e_fr_energy">   -114.81337423 </i>
    <i name="e_wo_entrp">   -114.79019199 </i>
    <i name="e_0_energy">   -114.80178311 </i>
   </energy>
  </scstep>
  <scstep>
   <time name="dav">   70.52   70.66</time>
   <time name="total">   89.22   89.37</time>
   <energy>
    <i name="e_fr_energy">   -114.81480540 </i>
    <i name="e_wo_entrp">   -114.78821720 </i>
    <i name="e_0_energy">   -114.80151130 </i>
   </energy>
  </scstep>
  <scstep>
   <time name="dav">   72.66   72.82</time>
   <time name="total">   91.35   91.52</time>
   <energy>
    <i name="e_fr_energy">   -114.78763512 </i>
    <i name="e_wo_entrp">   -114.75916872 </i>
    <i name="e_0_energy">   -114.77340192 </i>
   </energy>
  </scstep>
  <scstep>
   <time name="dav">   71.79   71.86</time>
   <time name="total">   90.49   90.57</time>
   <energy>
    <i name="e_fr_energy">   -114.78998361 </i>
    <i name="e_wo_entrp">   -114.76187536 </i>
    <i name="e_0_energy">   -114.77592948 </i>
   </energy>
  </scstep>
  <scstep>
   <time name="dav">   73.06   73.20</time>
   <time name="total">   91.76   91.93</time>
   <energy>
    <i name="e_fr_energy">   -114.78526364 </i>
    <i name="e_wo_entrp">   -114.75741323 </i>
    <i name="e_0_energy">   -114.77133843 </i>
   </energy>
  </scstep>
  <scstep>
   <time name="dav">   73.08   73.15</time>
   <time name="total">   91.72   91.86</time>
   <energy>
    <i name="e_fr_energy">   -114.77866198 </i>
    <i name="e_wo_entrp">   -114.75083553 </i>
    <i name="e_0_energy">   -114.76474876 </i>
   </energy>
  </scstep>
  <scstep>
   <time name="dav">   72.56   72.63</time>
   <time name="total">   91.27   91.35</time>
   <energy>
    <i name="e_fr_energy">   -114.77458701 </i>
    <i name="e_wo_entrp">   -114.74672879 </i>
    <i name="e_0_energy">   -114.76065790 </i>
   </energy>
  </scstep>
  <scstep>
   <time name="dav">   74.47   74.53</time>
   <time name="total">   93.19   93.28</time>
   <energy>
    <i name="e_fr_energy">   -114.77225463 </i>
    <i name="e_wo_entrp">   -114.74440029 </i>
    <i name="e_0_energy">   -114.75832746 </i>
   </energy>
  </scstep>
  <scstep>
   <time name="dav">   73.25   73.33</time>
   <time name="total">   91.95   92.06</time>
   <energy>
    <i name="e_fr_energy">   -114.77130668 </i>
    <i name="e_wo_entrp">   -114.74343707 </i>
    <i name="e_0_energy">   -114.75737188 </i>
   </energy>
  </scstep>
  <scstep>
   <time name="dav">   67.46   67.58</time>
   <time name="total">   86.17   86.31</time>
   <energy>
    <i name="e_fr_energy">   -114.77114499 </i>
    <i name="e_wo_entrp">   -114.74328132 </i>
    <i name="e_0_energy">   -114.75721316 </i>
   </energy>
  </scstep>
  <scstep>
   <time name="dav">   68.53   68.69</time>
   <time name="total">   87.22   87.41</time>
   <energy>
    <i name="e_fr_energy">   -114.77154154 </i>
    <i name="e_wo_entrp">   -114.74367933 </i>
    <i name="e_0_energy">   -114.75761043 </i>
   </energy>
  </scstep>
  <scstep>
   <time name="dav">   67.96   68.04</time>
   <time name="total">   86.68   86.78</time>
   <energy>
    <i name="e_fr_energy">   -114.77184877 </i>
    <i name="e_wo_entrp">   -114.74398555 </i>
    <i name="e_0_energy">   -114.75791716 </i>
   </energy>
  </scstep>
  <scstep>
   <time name="dav">   62.86   63.11</time>
   <time name="total">   81.57   81.85</time>
   <energy>
    <i name="e_fr_energy">   -114.77201790 </i>
    <i name="e_wo_entrp">   -114.74415573 </i>
    <i name="e_0_energy">   -114.75808681 </i>
   </energy>
  </scstep>
  <scstep>
   <time name="dav">   59.42   59.51</time>
   <time name="total">   78.11   78.25</time>
   <energy>
    <i name="e_fr_energy">   -114.77204023 </i>
    <i name="e_wo_entrp">   -114.74417756 </i>
    <i name="e_0_energy">   -114.75810890 </i>
   </energy>
  </scstep>
  <scstep>
   <time name="dav">   61.35   61.42</time>
   <time name="total">   80.05   80.14</time>
   <energy>
    <i name="e_fr_energy">   -114.77203001 </i>
    <i name="e_wo_entrp">   -114.74416613 </i>
    <i name="e_0_energy">   -114.75809807 </i>
   </energy>
  </scstep>
  <scstep>
   <time name="dav">   57.85   57.99</time>
   <time name="total">   76.55   76.73</time>
   <energy>
    <i name="e_fr_energy">   -114.77200946 </i>
    <i name="e_wo_entrp">   -114.74414586 </i>
    <i name="e_0_energy">   -114.75807766 </i>
   </energy>
  </scstep>
  <scstep>
   <time name="dav">   57.92   57.98</time>
   <time name="total">   76.58   76.73</time>
   <energy>
    <i name="e_fr_energy">   -114.77193048 </i>
    <i name="e_wo_entrp">   -114.74406709 </i>
    <i name="e_0_energy">   -114.75799878 </i>
   </energy>
  </scstep>
  <scstep>
   <time name="dav">   55.83   55.88</time>
   <time name="total">   74.55   74.62</time>
   <energy>
    <i name="e_fr_energy">   -114.77191180 </i>
    <i name="e_wo_entrp">   -114.74404830 </i>
    <i name="e_0_energy">   -114.75798005 </i>
   </energy>
  </scstep>
  <scstep>
   <time name="dav">   58.53   58.62</time>
   <time name="total">   77.25   77.36</time>
   <energy>
    <i name="e_fr_energy">   -114.77190205 </i>
    <i name="e_wo_entrp">   -114.74403853 </i>
    <i name="e_0_energy">   -114.75797029 </i>
   </energy>
  </scstep>
  <scstep>
   <time name="dav">   53.82   53.87</time>
   <time name="total">   68.36   68.42</time>
   <energy>
    <i name="alphaZ">     36.80884744 </i>
    <i name="ewald">  11988.66972272 </i>
    <i name="hartreedc"> -15118.27638429 </i>
    <i name="XCdc">    -79.18108339 </i>
    <i name="pawpsdc">   1189.19606024 </i>
    <i name="pawaedc">   -868.95146005 </i>
    <i name="eentropy">     -0.02786349 </i>
    <i name="bandstr">   -617.05100213 </i>
    <i name="atom">   3354.04126044 </i>
    <i name="e_fr_energy">   -114.77190249 </i>
    <i name="e_wo_entrp">   -114.74403901 </i>
    <i name="e_0_energy">   -114.75797075 </i>
   </energy>
  </scstep>
  <structure>
   <crystal>
    <varray name="basis" >
     <v>       3.54040000       0.00000000       0.00000000 </v>
     <v>      -1.77020000      10.29434800       0.00000000 </v>
     <v>       0.00000000       0.00000000      27.50142900 </v>
    </varray>
    <i name="volume">   1002.32009712 </i>
    <varray name="rec_basis" >
     <v>       0.28245396       0.04857034       0.00000000 </v>
     <v>       0.00000000       0.09714068       0.00000000 </v>
     <v>       0.00000000       0.00000000       0.03636175 </v>
    </varray>
   </crystal>
   <varray name="positions" >
    <v>       0.11402300       0.22804500       0.23316207 </v>
    <v>       0.41402300       0.52804500       0.51499159 </v>
    <v>       0.45808900       0.91617900       0.20939482 </v>
    <v>       0.75808900       0.21617900       0.49122434 </v>
    <v>       0.31085400       0.62170900       0.08414979 </v>
    <v>       0.31085400       0.62170900       0.36597930 </v>
    <v>       0.99923000       0.99846000       0.08631254 </v>
    <v>       0.99923000       0.99846000       0.36814206 </v>
    <v>       0.65492700       0.30985400       0.06041748 </v>
    <v>       0.65492700       0.30985400       0.34224700 </v>
    <v>       0.76973800       0.53947500       0.20725292 </v>
    <v>       0.06973800       0.83947500       0.48908244 </v>
    <v>       0.93971600       0.87943300       0.15783749 </v>
    <v>       0.23971600       0.17943300       0.43966701 </v>
    <v>       0.20515200       0.41030300       0.18578822 </v>
    <v>       0.50515200       0.71030300       0.46761774 </v>
    <v>       0.20184900       0.40369900       0.09969156 </v>
    <v>       0.20184900       0.40369900       0.38152107 </v>
    <v>       0.56380500       0.12761000       0.10779021 </v>
    <v>       0.56380500       0.12761000       0.38961973 </v>
    <v>       0.56710600       0.13421200       0.19387616 </v>
    <v>       0.86710600       0.43421200       0.47570568 </v>
    <v>       0.82923400       0.65846800       0.13571444 </v>
    <v>       0.12923400       0.95846800       0.41754396 </v>
   </varray>
  </structure>
  <varray name="forces" >
   <v>       0.00122331      -0.01322337       0.01219436 </v>
   <v>       0.04286192       0.07963886       0.07388662 </v>
   <v>      -0.00192357      -0.01706349       0.08189733 </v>
   <v>      -0.09064606       0.16305520       0.81692363 </v>
   <v>      -0.00030789      -0.00305150       0.00386825 </v>
   <v>       0.49556828       0.28163987       1.22128895 </v>
   <v>       0.00150010       0.00458539       0.00458403 </v>
   <v>     -14.75101548       8.99109209     -37.64217180 </v>
   <v>       0.00105475      -0.00060797       0.01315986 </v>
   <v>       0.47771849       0.43830003      -0.80730810 </v>
   <v>      -0.00029941       0.00414441       0.09799343 </v>
   <v>      -0.27817196       0.05351307      -0.47483007 </v>
   <v>       0.00291014      -0.00398840       0.01410841 </v>
   <v>      -4.26806140       3.32656437       7.30511123 </v>
   <v>      -0.00175947       0.01686063       0.04978184 </v>
   <v>      -0.23864668      -0.58559897      -1.35405495 </v>
   <v>      -0.00062070       0.00149830      -0.01968467 </v>
   <v>      -0.45654080       0.82320219       0.33987432 </v>
   <v>      -0.00084244      -0.00639157      -0.03294255 </v>
   <v>       4.34045603      -0.64268898      -6.30793783 </v>
   <v>       0.00015745      -0.02211890       0.02133197 </v>
   <v>       0.63986966      -0.34521129      -0.47729781 </v>
   <v>       0.00161072       0.00537824      -0.00037200 </v>
   <v>      14.08390502     -12.54952818      37.06059556 </v>
  </varray>
  <varray name="stress" >
   <v>      23.62869682      -7.68125598      20.62790540 </v>
   <v>      -7.68125617      17.03588637     -19.72733425 </v>
   <v>      20.62790551     -19.72733439      89.25089094 </v>
  </varray>
  <energy>
   <i name="e_fr_energy">   -114.77190249 </i>
   <i name="e_wo_entrp">   -114.75797075 </i>
   <i name="e_0_energy">     -0.02786349 </i>
  </energy>
  <time name="totalsc"> 2262.48 2266.05</time>
  <eigenvalues>
   <array>
    <dimension dim="1">band</dimension>
    <dimension dim="2">kpoint</dimension>
    <dimension dim="3">spin</dimension>
    <field>eigene</field>
    <field>occ</field>
    <set>
     <set comment="spin 1">
      <set comment="kpoint 1">
       <r>  -15.3895    1.0000 </r>
       <r>  -13.5456    1.0000 </r>
       <r>  -12.9422    1.0000 </r>
       <r>  -12.8055    1.0000 </r>
       <r>  -12.5713    1.0000 </r>
       <r>  -12.4834    1.0000 </r>
       <r>  -12.0997    1.0000 </r>
       <r>  -11.9657    1.0000 </r>
       <r>  -11.4543    1.0000 </r>
       <r>  -11.4372    1.0000 </r>
       <r>  -10.9950    1.0000 </r>
       <r>   -9.8987    1.0000 </r>
       <r>   -8.9498    1.0000 </r>
       <r>   -8.0382    1.0000 </r>
       <r>   -7.8345    1.0000 </r>
       <r>   -7.4556    1.0000 </r>
       <r>   -6.8634    1.0000 </r>
       <r>   -6.7166    1.0000 </r>
       <r>   -6.4948    1.0000 </r>
       <r>   -6.2526    1.0000 </r>
       <r>   -5.8275    1.0000 </r>
       <r>   -5.4201    1.0000 </r>
       <r>   -4.9983    1.0000 </r>
       <r>   -4.7408    1.0000 </r>
       <r>   -4.6367    1.0000 </r>
       <r>   -3.9216    1.0000 </r>
       <r>   -3.8284    1.0000 </r>
       <r>   -3.6910    1.0000 </r>
       <r>   -3.4178    1.0000 </r>
       <r>   -3.1329    1.0000 </r>
       <r>   -3.0612    1.0000 </r>
       <r>   -2.9693    1.0000 </r>
       <r>   -2.8481    1.0000 </r>
       <r>   -2.8017    1.0000 </r>
       <r>   -2.5565    1.0000 </r>
       <r>   -2.4606    1.0000 </r>
       <r>   -2.3982    1.0000 </r>
       <r>   -2.3765    1.0000 </r>
       <r>   -2.1572    1.0000 </r>
       <r>   -2.1018    1.0000 </r>
       <r>   -1.9458    1.0000 </r>
       <r>   -1.8282    1.0000 </r>
       <r>   -1.7324    1.0000 </r>
       <r>   -1.6618    1.0000 </r>
       <r>   -1.6475    1.0000 </r>
       <r>   -1.5978    1.0000 </r>
       <r>   -1.4706    1.0000 </r>
       <r>   -1.4369    1.0000 </r>
       <r>   -1.2949    1.0000 </r>
       <r>   -1.1675    1.0000 </r>
       <r>   -1.0223    1.0000 </r>
       <r>   -0.8121    1.0000 </r>
       <r>   -0.5497    1.0000 </r>
       <r>    0.0057    0.8190 </r>
       <r>    0.6130    0.0000 </r>
       <r>    1.1558    0.0000 </r>
       <r>    1.2053    0.0000 </r>
       <r>    1.3185    0.0000 </r>
       <r>    1.4718    0.0000 </r>
       <r>    1.6479    0.0000 </r>
       <r>    1.7103    0.0000 </r>
       <r>    1.9668    0.0000 </r>
       <r>    1.9776    0.0000 </r>
       <r>    2.0470    0.0000 </r>
       <r>    2.1633    0.0000 </r>
       <r>    2.4147    0.0000 </r>
       <r>    2.4444    0.0000 </r>
       <r>    2.6448    0.0000 </r>
      </set>
      <set comment="kpoint 2">
       <r>  -15.3390    1.0000 </r>
       <r>  -13.4842    1.0000 </r>
       <r>  -12.8896    1.0000 </r>
       <r>  -12.7533    1.0000 </r>
       <r>  -12.5137    1.0000 </r>
       <r>  -12.4277    1.0000 </r>
       <r>  -12.0379    1.0000 </r>
       <r>  -11.9117    1.0000 </r>
       <r>  -11.4042    1.0000 </r>
       <r>  -11.3883    1.0000 </r>
       <r>  -10.9466    1.0000 </r>
       <r>   -9.8694    1.0000 </r>
       <r>   -8.9389    1.0000 </r>
       <r>   -8.0750    1.0000 </r>
       <r>   -7.7975    1.0000 </r>
       <r>   -7.4277    1.0000 </r>
       <r>   -6.8302    1.0000 </r>
       <r>   -6.7003    1.0000 </r>
       <r>   -6.4891    1.0000 </r>
       <r>   -6.2657    1.0000 </r>
       <r>   -5.7941    1.0000 </r>
       <r>   -5.4651    1.0000 </r>
       <r>   -5.2134    1.0000 </r>
       <r>   -4.8209    1.0000 </r>
       <r>   -4.7138    1.0000 </r>
       <r>   -3.9489    1.0000 </r>
       <r>   -3.8117    1.0000 </r>
       <r>   -3.7057    1.0000 </r>
       <r>   -3.5672    1.0000 </r>
       <r>   -3.3980    1.0000 </r>
       <r>   -3.3048    1.0000 </r>
       <r>   -3.2522    1.0000 </r>
       <r>   -3.1033    1.0000 </r>
       <r>   -2.9258    1.0000 </r>
       <r>   -2.7523    1.0000 </r>
       <r>   -2.7234    1.0000 </r>
       <r>   -2.5043    1.0000 </r>
       <r>   -2.4766    1.0000 </r>
       <r>   -2.3469    1.0000 </r>
       <r>   -2.2040    1.0000 </r>
       <r>   -2.1566    1.0000 </r>
       <r>   -2.0647    1.0000 </r>
       <r>   -1.9694    1.0000 </r>
       <r>   -1.8712    1.0000 </r>
       <r>   -1.8417    1.0000 </r>
       <r>   -1.6998    1.0000 </r>
       <r>   -1.5248    1.0000 </r>
       <r>   -1.4457    1.0000 </r>
       <r>   -1.1376    1.0000 </r>
       <r>   -1.0587    1.0000 </r>
       <r>   -0.9512    1.0000 </r>
       <r>   -0.8552    1.0000 </r>
       <r>   -0.4334    1.0000 </r>
       <r>    0.0146    0.7842 </r>
       <r>    0.8538    0.0000 </r>
       <r>    1.1153    0.0000 </r>
       <r>    1.4672    0.0000 </r>
       <r>    1.5600    0.0000 </r>
       <r>    1.6854    0.0000 </r>
       <r>    1.7646    0.0000 </r>
       <r>    2.1202    0.0000 </r>
       <r>    2.1432    0.0000 </r>
       <r>    2.2229    0.0000 </r>
       <r>    2.2823    0.0000 </r>
       <r>    2.3546    0.0000 </r>
       <r>    2.6053    0.0000 </r>
       <r>    2.6331    0.0000 </r>
       <r>    2.7647    0.0000 </r>
      </set>
      <set comment="kpoint 3">
       <r>  -15.1907    1.0000 </r>
       <r>  -13.3012    1.0000 </r>
       <r>  -12.7344    1.0000 </r>
       <r>  -12.5975    1.0000 </r>
       <r>  -12.3437    1.0000 </r>
       <r>  -12.2627    1.0000 </r>
       <r>  -11.8574    1.0000 </r>
       <r>  -11.7522    1.0000 </r>
       <r>  -11.2584    1.0000 </r>
       <r>  -11.2462    1.0000 </r>
       <r>  -10.8079    1.0000 </r>
       <r>   -9.7915    1.0000 </r>
       <r>   -8.9287    1.0000 </r>
       <r>   -8.1716    1.0000 </r>
       <r>   -7.7553    1.0000 </r>
       <r>   -7.3828    1.0000 </r>
       <r>   -6.7657    1.0000 </r>
       <r>   -6.7132    1.0000 </r>
       <r>   -6.5045    1.0000 </r>
       <r>   -6.4529    1.0000 </r>
       <r>   -5.8597    1.0000 </r>
       <r>   -5.7177    1.0000 </r>
       <r>   -5.2889    1.0000 </r>
       <r>   -4.9363    1.0000 </r>
       <r>   -4.8526    1.0000 </r>
       <r>   -4.2276    1.0000 </r>
       <r>   -4.2127    1.0000 </r>
       <r>   -4.0883    1.0000 </r>
       <r>   -3.9877    1.0000 </r>
       <r>   -3.9074    1.0000 </r>
       <r>   -3.6965    1.0000 </r>
       <r>   -3.6633    1.0000 </r>
       <r>   -3.4742    1.0000 </r>
       <r>   -3.3576    1.0000 </r>
       <r>   -3.1762    1.0000 </r>
       <r>   -3.0560    1.0000 </r>
       <r>   -2.9738    1.0000 </r>
       <r>   -2.9152    1.0000 </r>
       <r>   -2.7682    1.0000 </r>
       <r>   -2.6326    1.0000 </r>
       <r>   -2.4024    1.0000 </r>
       <r>   -2.3274    1.0000 </r>
       <r>   -2.1611    1.0000 </r>
       <r>   -2.0243    1.0000 </r>
       <r>   -1.9373    1.0000 </r>
       <r>   -1.7612    1.0000 </r>
       <r>   -1.6649    1.0000 </r>
       <r>   -1.4188    1.0000 </r>
       <r>   -1.1973    1.0000 </r>
       <r>   -0.9837    1.0000 </r>
       <r>   -0.9406    1.0000 </r>
       <r>   -0.5825    1.0000 </r>
       <r>   -0.1866    0.9999 </r>
       <r>    0.1253    0.2180 </r>
       <r>    0.4470    0.0000 </r>
       <r>    0.9232    0.0000 </r>
       <r>    1.4916    0.0000 </r>
       <r>    1.6751    0.0000 </r>
       <r>    1.9467    0.0000 </r>
       <r>    2.2474    0.0000 </r>
       <r>    2.3849    0.0000 </r>
       <r>    2.4292    0.0000 </r>
       <r>    2.5950    0.0000 </r>
       <r>    2.6578    0.0000 </r>
       <r>    2.6777    0.0000 </r>
       <r>    2.9171    0.0000 </r>
       <r>    2.9491    0.0000 </r>
       <r>    3.0565    0.0000 </r>
      </set>
      <set comment="kpoint 4">
       <r>  -14.9564    1.0000 </r>
       <r>  -13.0002    1.0000 </r>
       <r>  -12.4859    1.0000 </r>
       <r>  -12.3412    1.0000 </r>
       <r>  -12.0715    1.0000 </r>
       <r>  -11.9961    1.0000 </r>
       <r>  -11.5742    1.0000 </r>
       <r>  -11.4966    1.0000 </r>
       <r>  -11.0340    1.0000 </r>
       <r>  -11.0286    1.0000 </r>
       <r>  -10.6049    1.0000 </r>
       <r>   -9.7044    1.0000 </r>
       <r>   -8.9928    1.0000 </r>
       <r>   -8.3633    1.0000 </r>
       <r>   -7.8288    1.0000 </r>
       <r>   -7.5862    1.0000 </r>
       <r>   -7.0017    1.0000 </r>
       <r>   -6.7064    1.0000 </r>
       <r>   -6.6410    1.0000 </r>
       <r>   -6.6072    1.0000 </r>
       <r>   -6.0324    1.0000 </r>
       <r>   -5.7407    1.0000 </r>
       <r>   -5.4805    1.0000 </r>
       <r>   -5.3414    1.0000 </r>
       <r>   -5.1957    1.0000 </r>
       <r>   -4.8235    1.0000 </r>
       <r>   -4.7535    1.0000 </r>
       <r>   -4.6096    1.0000 </r>
       <r>   -4.5153    1.0000 </r>
       <r>   -4.3627    1.0000 </r>
       <r>   -4.1911    1.0000 </r>
       <r>   -4.0397    1.0000 </r>
       <r>   -3.7905    1.0000 </r>
       <r>   -3.6843    1.0000 </r>
       <r>   -3.4755    1.0000 </r>
       <r>   -3.3189    1.0000 </r>
       <r>   -3.2347    1.0000 </r>
       <r>   -2.9986    1.0000 </r>
       <r>   -2.8939    1.0000 </r>
       <r>   -2.6741    1.0000 </r>
       <r>   -2.5500    1.0000 </r>
       <r>   -2.4876    1.0000 </r>
       <r>   -2.4108    1.0000 </r>
       <r>   -2.1341    1.0000 </r>
       <r>   -1.9138    1.0000 </r>
       <r>   -1.8329    1.0000 </r>
       <r>   -1.7475    1.0000 </r>
       <r>   -1.5012    1.0000 </r>
       <r>   -1.4422    1.0000 </r>
       <r>   -1.1014    1.0000 </r>
       <r>   -1.0532    1.0000 </r>
       <r>   -0.5954    1.0000 </r>
       <r>   -0.3819    1.0000 </r>
       <r>   -0.1473    0.9989 </r>
       <r>    0.4434    0.0000 </r>
       <r>    0.6871    0.0000 </r>
       <r>    1.1993    0.0000 </r>
       <r>    1.6246    0.0000 </r>
       <r>    1.8612    0.0000 </r>
       <r>    2.0240    0.0000 </r>
       <r>    2.2568    0.0000 </r>
       <r>    2.3635    0.0000 </r>
       <r>    2.4175    0.0000 </r>
       <r>    2.6646    0.0000 </r>
       <r>    2.8231    0.0000 </r>
       <r>    2.8682    0.0000 </r>
       <r>    2.9416    0.0000 </r>
       <r>    3.0539    0.0000 </r>
      </set>
      <set comment="kpoint 5">
       <r>  -14.6621    1.0000 </r>
       <r>  -12.5884    1.0000 </r>
       <r>  -12.1694    1.0000 </r>
       <r>  -11.9929    1.0000 </r>
       <r>  -11.7181    1.0000 </r>
       <r>  -11.6456    1.0000 </r>
       <r>  -11.2263    1.0000 </r>
       <r>  -11.1696    1.0000 </r>
       <r>  -10.7859    1.0000 </r>
       <r>  -10.7695    1.0000 </r>
       <r>  -10.4192    1.0000 </r>
       <r>   -9.7135    1.0000 </r>
       <r>   -9.1681    1.0000 </r>
       <r>   -8.6584    1.0000 </r>
       <r>   -8.0899    1.0000 </r>
       <r>   -8.0624    1.0000 </r>
       <r>   -7.2396    1.0000 </r>
       <r>   -7.0007    1.0000 </r>
       <r>   -6.9041    1.0000 </r>
       <r>   -6.7043    1.0000 </r>
       <r>   -6.3708    1.0000 </r>
       <r>   -6.1658    1.0000 </r>
       <r>   -5.9724    1.0000 </r>
       <r>   -5.9036    1.0000 </r>
       <r>   -5.5837    1.0000 </r>
       <r>   -5.2199    1.0000 </r>
       <r>   -5.0186    1.0000 </r>
       <r>   -4.7883    1.0000 </r>
       <r>   -4.7055    1.0000 </r>
       <r>   -4.5044    1.0000 </r>
       <r>   -4.3278    1.0000 </r>
       <r>   -4.2329    1.0000 </r>
       <r>   -4.1592    1.0000 </r>
       <r>   -3.7909    1.0000 </r>
       <r>   -3.4013    1.0000 </r>
       <r>   -3.2711    1.0000 </r>
       <r>   -3.1573    1.0000 </r>
       <r>   -3.0897    1.0000 </r>
       <r>   -3.0097    1.0000 </r>
       <r>   -2.8219    1.0000 </r>
       <r>   -2.7451    1.0000 </r>
       <r>   -2.6220    1.0000 </r>
       <r>   -2.3932    1.0000 </r>
       <r>   -2.1605    1.0000 </r>
       <r>   -2.0682    1.0000 </r>
       <r>   -1.9029    1.0000 </r>
       <r>   -1.8745    1.0000 </r>
       <r>   -1.7545    1.0000 </r>
       <r>   -1.6953    1.0000 </r>
       <r>   -1.3115    1.0000 </r>
       <r>   -1.2211    1.0000 </r>
       <r>   -0.9298    1.0000 </r>
       <r>   -0.6633    1.0000 </r>
       <r>   -0.3618    1.0000 </r>
       <r>    0.2645    0.0030 </r>
       <r>    0.5154    0.0000 </r>
       <r>    0.8767    0.0000 </r>
       <r>    1.4212    0.0000 </r>
       <r>    1.5928    0.0000 </r>
       <r>    1.7798    0.0000 </r>
       <r>    1.9779    0.0000 </r>
       <r>    2.2193    0.0000 </r>
       <r>    2.3626    0.0000 </r>
       <r>    2.4855    0.0000 </r>
       <r>    2.6491    0.0000 </r>
       <r>    2.6805    0.0000 </r>
       <r>    2.8125    0.0000 </r>
       <r>    2.9106    0.0000 </r>
      </set>
      <set comment="kpoint 6">
       <r>  -14.3616    1.0000 </r>
       <r>  -12.0802    1.0000 </r>
       <r>  -11.8546    1.0000 </r>
       <r>  -11.5737    1.0000 </r>
       <r>  -11.3237    1.0000 </r>
       <r>  -11.2504    1.0000 </r>
       <r>  -10.8979    1.0000 </r>
       <r>  -10.8473    1.0000 </r>
       <r>  -10.6309    1.0000 </r>
       <r>  -10.5636    1.0000 </r>
       <r>  -10.4597    1.0000 </r>
       <r>   -9.8681    1.0000 </r>
       <r>   -9.3086    1.0000 </r>
       <r>   -8.8348    1.0000 </r>
       <r>   -8.4787    1.0000 </r>
       <r>   -8.3812    1.0000 </r>
       <r>   -7.6269    1.0000 </r>
       <r>   -7.4634    1.0000 </r>
       <r>   -7.4194    1.0000 </r>
       <r>   -7.0364    1.0000 </r>
       <r>   -6.7650    1.0000 </r>
       <r>   -6.7366    1.0000 </r>
       <r>   -6.6588    1.0000 </r>
       <r>   -6.2072    1.0000 </r>
       <r>   -5.6680    1.0000 </r>
       <r>   -5.2226    1.0000 </r>
       <r>   -5.0281    1.0000 </r>
       <r>   -4.6447    1.0000 </r>
       <r>   -4.5319    1.0000 </r>
       <r>   -4.4070    1.0000 </r>
       <r>   -4.2381    1.0000 </r>
       <r>   -4.1680    1.0000 </r>
       <r>   -4.0728    1.0000 </r>
       <r>   -3.7982    1.0000 </r>
       <r>   -3.6600    1.0000 </r>
       <r>   -3.4011    1.0000 </r>
       <r>   -3.2748    1.0000 </r>
       <r>   -3.1853    1.0000 </r>
       <r>   -3.0848    1.0000 </r>
       <r>   -2.8783    1.0000 </r>
       <r>   -2.8021    1.0000 </r>
       <r>   -2.5962    1.0000 </r>
       <r>   -2.4231    1.0000 </r>
       <r>   -2.3410    1.0000 </r>
       <r>   -2.2584    1.0000 </r>
       <r>   -2.1088    1.0000 </r>
       <r>   -2.0290    1.0000 </r>
       <r>   -1.8771    1.0000 </r>
       <r>   -1.8241    1.0000 </r>
       <r>   -1.4639    1.0000 </r>
       <r>   -1.3855    1.0000 </r>
       <r>   -1.2211    1.0000 </r>
       <r>   -0.8904    1.0000 </r>
       <r>   -0.5130    1.0000 </r>
       <r>    0.0838    0.4236 </r>
       <r>    0.3893    0.0000 </r>
       <r>    0.6948    0.0000 </r>
       <r>    1.1923    0.0000 </r>
       <r>    1.3980    0.0000 </r>
       <r>    1.7001    0.0000 </r>
       <r>    1.7184    0.0000 </r>
       <r>    2.0624    0.0000 </r>
       <r>    2.2265    0.0000 </r>
       <r>    2.2587    0.0000 </r>
       <r>    2.3858    0.0000 </r>
       <r>    2.4563    0.0000 </r>
       <r>    2.6448    0.0000 </r>
       <r>    2.7458    0.0000 </r>
      </set>
      <set comment="kpoint 7">
       <r>  -14.1545    1.0000 </r>
       <r>  -11.6792    1.0000 </r>
       <r>  -11.5056    1.0000 </r>
       <r>  -11.1511    1.0000 </r>
       <r>  -10.9534    1.0000 </r>
       <r>  -10.9505    1.0000 </r>
       <r>  -10.8480    1.0000 </r>
       <r>  -10.7348    1.0000 </r>
       <r>  -10.7093    1.0000 </r>
       <r>  -10.6395    1.0000 </r>
       <r>  -10.5794    1.0000 </r>
       <r>   -9.8300    1.0000 </r>
       <r>   -9.4830    1.0000 </r>
       <r>   -8.7507    1.0000 </r>
       <r>   -8.6918    1.0000 </r>
       <r>   -8.4443    1.0000 </r>
       <r>   -8.0835    1.0000 </r>
       <r>   -7.7947    1.0000 </r>
       <r>   -7.5753    1.0000 </r>
       <r>   -7.4970    1.0000 </r>
       <r>   -7.2907    1.0000 </r>
       <r>   -7.1849    1.0000 </r>
       <r>   -7.0586    1.0000 </r>
       <r>   -6.0901    1.0000 </r>
       <r>   -5.5292    1.0000 </r>
       <r>   -5.1854    1.0000 </r>
       <r>   -4.9190    1.0000 </r>
       <r>   -4.5094    1.0000 </r>
       <r>   -4.4133    1.0000 </r>
       <r>   -4.2780    1.0000 </r>
       <r>   -4.0872    1.0000 </r>
       <r>   -4.0212    1.0000 </r>
       <r>   -3.9380    1.0000 </r>
       <r>   -3.8359    1.0000 </r>
       <r>   -3.6323    1.0000 </r>
       <r>   -3.5933    1.0000 </r>
       <r>   -3.4158    1.0000 </r>
       <r>   -3.2629    1.0000 </r>
       <r>   -3.2439    1.0000 </r>
       <r>   -3.0104    1.0000 </r>
       <r>   -2.9734    1.0000 </r>
       <r>   -2.6987    1.0000 </r>
       <r>   -2.5472    1.0000 </r>
       <r>   -2.4973    1.0000 </r>
       <r>   -2.3465    1.0000 </r>
       <r>   -2.1727    1.0000 </r>
       <r>   -2.1166    1.0000 </r>
       <r>   -1.8335    1.0000 </r>
       <r>   -1.7134    1.0000 </r>
       <r>   -1.5477    1.0000 </r>
       <r>   -1.4631    1.0000 </r>
       <r>   -1.3323    1.0000 </r>
       <r>   -1.1008    1.0000 </r>
       <r>   -0.6030    1.0000 </r>
       <r>   -0.0371    0.9353 </r>
       <r>    0.3161    0.0003 </r>
       <r>    0.6204    0.0000 </r>
       <r>    1.0431    0.0000 </r>
       <r>    1.3659    0.0000 </r>
       <r>    1.5740    0.0000 </r>
       <r>    1.6403    0.0000 </r>
       <r>    1.8474    0.0000 </r>
       <r>    2.0487    0.0000 </r>
       <r>    2.2176    0.0000 </r>
       <r>    2.3681    0.0000 </r>
       <r>    2.4325    0.0000 </r>
       <r>    2.5116    0.0000 </r>
       <r>    2.6161    0.0000 </r>
      </set>
      <set comment="kpoint 8">
       <r>  -15.3885    1.0000 </r>
       <r>  -13.4902    1.0000 </r>
       <r>  -12.9988    1.0000 </r>
       <r>  -12.9781    1.0000 </r>
       <r>  -12.5036    1.0000 </r>
       <r>  -12.4499    1.0000 </r>
       <r>  -12.0281    1.0000 </r>
       <r>  -11.8694    1.0000 </r>
       <r>  -11.4832    1.0000 </r>
       <r>  -11.4530    1.0000 </r>
       <r>  -11.0040    1.0000 </r>
       <r>   -9.8592    1.0000 </r>
       <r>   -8.9896    1.0000 </r>
       <r>   -8.5204    1.0000 </r>
       <r>   -7.5820    1.0000 </r>
       <r>   -7.3909    1.0000 </r>
       <r>   -6.7708    1.0000 </r>
       <r>   -6.6721    1.0000 </r>
       <r>   -6.5965    1.0000 </r>
       <r>   -6.0991    1.0000 </r>
       <r>   -5.7504    1.0000 </r>
       <r>   -5.2420    1.0000 </r>
       <r>   -5.0337    1.0000 </r>
       <r>   -4.6549    1.0000 </r>
       <r>   -4.6096    1.0000 </r>
       <r>   -4.0578    1.0000 </r>
       <r>   -3.9629    1.0000 </r>
       <r>   -3.7113    1.0000 </r>
       <r>   -3.4195    1.0000 </r>
       <r>   -3.2856    1.0000 </r>
       <r>   -3.1327    1.0000 </r>
       <r>   -3.0450    1.0000 </r>
       <r>   -2.8387    1.0000 </r>
       <r>   -2.7136    1.0000 </r>
       <r>   -2.5510    1.0000 </r>
       <r>   -2.4651    1.0000 </r>
       <r>   -2.4002    1.0000 </r>
       <r>   -2.3721    1.0000 </r>
       <r>   -2.2110    1.0000 </r>
       <r>   -2.1550    1.0000 </r>
       <r>   -1.9812    1.0000 </r>
       <r>   -1.9179    1.0000 </r>
       <r>   -1.8848    1.0000 </r>
       <r>   -1.7200    1.0000 </r>
       <r>   -1.6329    1.0000 </r>
       <r>   -1.5539    1.0000 </r>
       <r>   -1.3798    1.0000 </r>
       <r>   -1.3666    1.0000 </r>
       <r>   -1.2323    1.0000 </r>
       <r>   -1.1294    1.0000 </r>
       <r>   -0.9716    1.0000 </r>
       <r>   -0.9136    1.0000 </r>
       <r>   -0.3975    1.0000 </r>
       <r>    0.0840    0.4224 </r>
       <r>    0.5725    0.0000 </r>
       <r>    1.1767    0.0000 </r>
       <r>    1.2213    0.0000 </r>
       <r>    1.3762    0.0000 </r>
       <r>    1.5107    0.0000 </r>
       <r>    1.6737    0.0000 </r>
       <r>    1.7254    0.0000 </r>
       <r>    1.8235    0.0000 </r>
       <r>    1.9460    0.0000 </r>
       <r>    2.2355    0.0000 </r>
       <r>    2.3062    0.0000 </r>
       <r>    2.4140    0.0000 </r>
       <r>    2.5750    0.0000 </r>
       <r>    2.6641    0.0000 </r>
      </set>
      <set comment="kpoint 9">
       <r>  -15.3378    1.0000 </r>
       <r>  -13.4134    1.0000 </r>
       <r>  -12.9622    1.0000 </r>
       <r>  -12.9514    1.0000 </r>
       <r>  -12.4424    1.0000 </r>
       <r>  -12.3770    1.0000 </r>
       <r>  -11.9846    1.0000 </r>
       <r>  -11.7714    1.0000 </r>
       <r>  -11.4418    1.0000 </r>
       <r>  -11.4011    1.0000 </r>
       <r>  -10.9597    1.0000 </r>
       <r>   -9.8228    1.0000 </r>
       <r>   -8.9916    1.0000 </r>
       <r>   -8.5790    1.0000 </r>
       <r>   -7.5574    1.0000 </r>
       <r>   -7.3417    1.0000 </r>
       <r>   -6.7620    1.0000 </r>
       <r>   -6.6814    1.0000 </r>
       <r>   -6.5308    1.0000 </r>
       <r>   -6.0847    1.0000 </r>
       <r>   -5.7025    1.0000 </r>
       <r>   -5.3737    1.0000 </r>
       <r>   -5.0290    1.0000 </r>
       <r>   -4.9365    1.0000 </r>
       <r>   -4.6823    1.0000 </r>
       <r>   -4.1137    1.0000 </r>
       <r>   -3.9760    1.0000 </r>
       <r>   -3.6976    1.0000 </r>
       <r>   -3.5956    1.0000 </r>
       <r>   -3.4054    1.0000 </r>
       <r>   -3.3185    1.0000 </r>
       <r>   -3.2936    1.0000 </r>
       <r>   -3.0306    1.0000 </r>
       <r>   -2.9271    1.0000 </r>
       <r>   -2.8042    1.0000 </r>
       <r>   -2.6940    1.0000 </r>
       <r>   -2.6126    1.0000 </r>
       <r>   -2.4960    1.0000 </r>
       <r>   -2.4420    1.0000 </r>
       <r>   -2.3016    1.0000 </r>
       <r>   -2.1704    1.0000 </r>
       <r>   -2.0509    1.0000 </r>
       <r>   -2.0142    1.0000 </r>
       <r>   -1.8608    1.0000 </r>
       <r>   -1.8344    1.0000 </r>
       <r>   -1.7511    1.0000 </r>
       <r>   -1.5476    1.0000 </r>
       <r>   -1.3225    1.0000 </r>
       <r>   -1.1377    1.0000 </r>
       <r>   -1.0710    1.0000 </r>
       <r>   -0.9239    1.0000 </r>
       <r>   -0.7773    1.0000 </r>
       <r>   -0.3314    1.0000 </r>
       <r>    0.0932    0.3723 </r>
       <r>    0.8227    0.0000 </r>
       <r>    1.0897    0.0000 </r>
       <r>    1.5013    0.0000 </r>
       <r>    1.5762    0.0000 </r>
       <r>    1.6532    0.0000 </r>
       <r>    1.7900    0.0000 </r>
       <r>    1.9481    0.0000 </r>
       <r>    2.2003    0.0000 </r>
       <r>    2.2675    0.0000 </r>
       <r>    2.4353    0.0000 </r>
       <r>    2.5283    0.0000 </r>
       <r>    2.6496    0.0000 </r>
       <r>    2.7145    0.0000 </r>
       <r>    2.9173    0.0000 </r>
      </set>
      <set comment="kpoint 10">
       <r>  -15.1895    1.0000 </r>
       <r>  -13.2169    1.0000 </r>
       <r>  -12.8242    1.0000 </r>
       <r>  -12.7989    1.0000 </r>
       <r>  -12.2740    1.0000 </r>
       <r>  -12.1991    1.0000 </r>
       <r>  -11.8377    1.0000 </r>
       <r>  -11.5744    1.0000 </r>
       <r>  -11.3024    1.0000 </r>
       <r>  -11.2511    1.0000 </r>
       <r>  -10.8185    1.0000 </r>
       <r>   -9.7451    1.0000 </r>
       <r>   -8.9834    1.0000 </r>
       <r>   -8.6447    1.0000 </r>
       <r>   -7.4716    1.0000 </r>
       <r>   -7.3095    1.0000 </r>
       <r>   -6.8647    1.0000 </r>
       <r>   -6.6611    1.0000 </r>
       <r>   -6.5054    1.0000 </r>
       <r>   -6.2745    1.0000 </r>
       <r>   -5.7730    1.0000 </r>
       <r>   -5.6537    1.0000 </r>
       <r>   -5.2202    1.0000 </r>
       <r>   -4.9413    1.0000 </r>
       <r>   -4.8421    1.0000 </r>
       <r>   -4.3861    1.0000 </r>
       <r>   -4.3015    1.0000 </r>
       <r>   -4.1361    1.0000 </r>
       <r>   -4.0244    1.0000 </r>
       <r>   -3.9665    1.0000 </r>
       <r>   -3.7521    1.0000 </r>
       <r>   -3.6284    1.0000 </r>
       <r>   -3.3926    1.0000 </r>
       <r>   -3.2221    1.0000 </r>
       <r>   -3.1079    1.0000 </r>
       <r>   -3.0150    1.0000 </r>
       <r>   -2.9642    1.0000 </r>
       <r>   -2.8568    1.0000 </r>
       <r>   -2.8151    1.0000 </r>
       <r>   -2.6462    1.0000 </r>
       <r>   -2.5885    1.0000 </r>
       <r>   -2.3653    1.0000 </r>
       <r>   -2.3246    1.0000 </r>
       <r>   -1.9914    1.0000 </r>
       <r>   -1.9255    1.0000 </r>
       <r>   -1.8866    1.0000 </r>
       <r>   -1.5517    1.0000 </r>
       <r>   -1.4301    1.0000 </r>
       <r>   -1.1520    1.0000 </r>
       <r>   -1.0664    1.0000 </r>
       <r>   -0.9039    1.0000 </r>
       <r>   -0.4454    1.0000 </r>
       <r>   -0.2208    1.0000 </r>
       <r>    0.1473    0.1378 </r>
       <r>    0.4397    0.0000 </r>
       <r>    0.9217    0.0000 </r>
       <r>    1.4512    0.0000 </r>
       <r>    1.5904    0.0000 </r>
       <r>    1.7261    0.0000 </r>
       <r>    2.1062    0.0000 </r>
       <r>    2.3196    0.0000 </r>
       <r>    2.3565    0.0000 </r>
       <r>    2.7226    0.0000 </r>
       <r>    2.7945    0.0000 </r>
       <r>    2.8520    0.0000 </r>
       <r>    2.9971    0.0000 </r>
       <r>    3.0701    0.0000 </r>
       <r>    3.1151    0.0000 </r>
      </set>
      <set comment="kpoint 11">
       <r>  -14.9554    1.0000 </r>
       <r>  -12.9056    1.0000 </r>
       <r>  -12.5725    1.0000 </r>
       <r>  -12.5439    1.0000 </r>
       <r>  -12.0054    1.0000 </r>
       <r>  -11.9304    1.0000 </r>
       <r>  -11.5962    1.0000 </r>
       <r>  -11.2984    1.0000 </r>
       <r>  -11.0807    1.0000 </r>
       <r>  -11.0195    1.0000 </r>
       <r>  -10.6013    1.0000 </r>
       <r>   -9.6688    1.0000 </r>
       <r>   -9.0318    1.0000 </r>
       <r>   -8.7760    1.0000 </r>
       <r>   -7.5073    1.0000 </r>
       <r>   -7.3985    1.0000 </r>
       <r>   -7.2618    1.0000 </r>
       <r>   -6.7012    1.0000 </r>
       <r>   -6.6498    1.0000 </r>
       <r>   -6.4753    1.0000 </r>
       <r>   -5.9654    1.0000 </r>
       <r>   -5.8244    1.0000 </r>
       <r>   -5.5729    1.0000 </r>
       <r>   -5.2162    1.0000 </r>
       <r>   -5.1442    1.0000 </r>
       <r>   -5.0289    1.0000 </r>
       <r>   -4.7024    1.0000 </r>
       <r>   -4.6640    1.0000 </r>
       <r>   -4.5568    1.0000 </r>
       <r>   -4.3049    1.0000 </r>
       <r>   -4.1554    1.0000 </r>
       <r>   -4.0226    1.0000 </r>
       <r>   -3.7478    1.0000 </r>
       <r>   -3.6057    1.0000 </r>
       <r>   -3.3538    1.0000 </r>
       <r>   -3.2124    1.0000 </r>
       <r>   -3.1489    1.0000 </r>
       <r>   -3.0964    1.0000 </r>
       <r>   -2.9390    1.0000 </r>
       <r>   -2.6979    1.0000 </r>
       <r>   -2.5460    1.0000 </r>
       <r>   -2.5214    1.0000 </r>
       <r>   -2.4484    1.0000 </r>
       <r>   -2.0276    1.0000 </r>
       <r>   -1.9933    1.0000 </r>
       <r>   -1.9101    1.0000 </r>
       <r>   -1.7787    1.0000 </r>
       <r>   -1.5582    1.0000 </r>
       <r>   -1.3954    1.0000 </r>
       <r>   -1.1247    1.0000 </r>
       <r>   -1.0252    1.0000 </r>
       <r>   -0.6514    1.0000 </r>
       <r>   -0.4137    1.0000 </r>
       <r>   -0.1991    0.9999 </r>
       <r>    0.3862    0.0000 </r>
       <r>    0.7222    0.0000 </r>
       <r>    1.1006    0.0000 </r>
       <r>    1.4316    0.0000 </r>
       <r>    1.5817    0.0000 </r>
       <r>    1.6184    0.0000 </r>
       <r>    2.2082    0.0000 </r>
       <r>    2.3963    0.0000 </r>
       <r>    2.5516    0.0000 </r>
       <r>    2.6969    0.0000 </r>
       <r>    2.7372    0.0000 </r>
       <r>    3.0282    0.0000 </r>
       <r>    3.1075    0.0000 </r>
       <r>    3.2337    0.0000 </r>
      </set>
      <set comment="kpoint 12">
       <r>  -14.6613    1.0000 </r>
       <r>  -12.4890    1.0000 </r>
       <r>  -12.2155    1.0000 </r>
       <r>  -12.2092    1.0000 </r>
       <r>  -11.6545    1.0000 </r>
       <r>  -11.5997    1.0000 </r>
       <r>  -11.2826    1.0000 </r>
       <r>  -10.9854    1.0000 </r>
       <r>  -10.8169    1.0000 </r>
       <r>  -10.7483    1.0000 </r>
       <r>  -10.3958    1.0000 </r>
       <r>   -9.7058    1.0000 </r>
       <r>   -9.1624    1.0000 </r>
       <r>   -8.9752    1.0000 </r>
       <r>   -8.0153    1.0000 </r>
       <r>   -7.7123    1.0000 </r>
       <r>   -7.3943    1.0000 </r>
       <r>   -7.1166    1.0000 </r>
       <r>   -6.9668    1.0000 </r>
       <r>   -6.5917    1.0000 </r>
       <r>   -6.3614    1.0000 </r>
       <r>   -6.1951    1.0000 </r>
       <r>   -6.0542    1.0000 </r>
       <r>   -5.9211    1.0000 </r>
       <r>   -5.5624    1.0000 </r>
       <r>   -5.3847    1.0000 </r>
       <r>   -5.0057    1.0000 </r>
       <r>   -4.9429    1.0000 </r>
       <r>   -4.4602    1.0000 </r>
       <r>   -4.3970    1.0000 </r>
       <r>   -4.3263    1.0000 </r>
       <r>   -4.1668    1.0000 </r>
       <r>   -4.0149    1.0000 </r>
       <r>   -3.8016    1.0000 </r>
       <r>   -3.3575    1.0000 </r>
       <r>   -3.3119    1.0000 </r>
       <r>   -3.0505    1.0000 </r>
       <r>   -2.9827    1.0000 </r>
       <r>   -2.9489    1.0000 </r>
       <r>   -2.8587    1.0000 </r>
       <r>   -2.6440    1.0000 </r>
       <r>   -2.5380    1.0000 </r>
       <r>   -2.4198    1.0000 </r>
       <r>   -2.2850    1.0000 </r>
       <r>   -2.1012    1.0000 </r>
       <r>   -1.9608    1.0000 </r>
       <r>   -1.9019    1.0000 </r>
       <r>   -1.7907    1.0000 </r>
       <r>   -1.7352    1.0000 </r>
       <r>   -1.3189    1.0000 </r>
       <r>   -1.2356    1.0000 </r>
       <r>   -0.9506    1.0000 </r>
       <r>   -0.7306    1.0000 </r>
       <r>   -0.5005    1.0000 </r>
       <r>    0.1860    0.0507 </r>
       <r>    0.4586    0.0000 </r>
       <r>    0.7271    0.0000 </r>
       <r>    1.2303    0.0000 </r>
       <r>    1.2864    0.0000 </r>
       <r>    1.3799    0.0000 </r>
       <r>    2.1580    0.0000 </r>
       <r>    2.2630    0.0000 </r>
       <r>    2.3941    0.0000 </r>
       <r>    2.4389    0.0000 </r>
       <r>    2.6124    0.0000 </r>
       <r>    2.6882    0.0000 </r>
       <r>    2.9340    0.0000 </r>
       <r>    3.0812    0.0000 </r>
      </set>
      <set comment="kpoint 13">
       <r>  -14.3612    1.0000 </r>
       <r>  -11.9861    1.0000 </r>
       <r>  -11.8698    1.0000 </r>
       <r>  -11.7627    1.0000 </r>
       <r>  -11.2773    1.0000 </r>
       <r>  -11.2470    1.0000 </r>
       <r>  -10.9487    1.0000 </r>
       <r>  -10.7284    1.0000 </r>
       <r>  -10.6059    1.0000 </r>
       <r>  -10.5433    1.0000 </r>
       <r>  -10.4723    1.0000 </r>
       <r>   -9.8732    1.0000 </r>
       <r>   -9.2766    1.0000 </r>
       <r>   -8.9651    1.0000 </r>
       <r>   -8.4469    1.0000 </r>
       <r>   -8.1166    1.0000 </r>
       <r>   -7.7840    1.0000 </r>
       <r>   -7.7223    1.0000 </r>
       <r>   -7.3622    1.0000 </r>
       <r>   -6.9894    1.0000 </r>
       <r>   -6.7300    1.0000 </r>
       <r>   -6.6891    1.0000 </r>
       <r>   -6.6598    1.0000 </r>
       <r>   -6.2552    1.0000 </r>
       <r>   -5.7373    1.0000 </r>
       <r>   -5.3496    1.0000 </r>
       <r>   -5.0344    1.0000 </r>
       <r>   -4.7881    1.0000 </r>
       <r>   -4.5161    1.0000 </r>
       <r>   -4.3587    1.0000 </r>
       <r>   -4.1328    1.0000 </r>
       <r>   -4.1141    1.0000 </r>
       <r>   -3.8645    1.0000 </r>
       <r>   -3.7418    1.0000 </r>
       <r>   -3.3579    1.0000 </r>
       <r>   -3.3083    1.0000 </r>
       <r>   -3.2817    1.0000 </r>
       <r>   -3.1326    1.0000 </r>
       <r>   -3.0372    1.0000 </r>
       <r>   -2.9493    1.0000 </r>
       <r>   -2.7999    1.0000 </r>
       <r>   -2.6493    1.0000 </r>
       <r>   -2.5408    1.0000 </r>
       <r>   -2.4059    1.0000 </r>
       <r>   -2.2658    1.0000 </r>
       <r>   -2.1128    1.0000 </r>
       <r>   -2.0723    1.0000 </r>
       <r>   -1.8723    1.0000 </r>
       <r>   -1.8468    1.0000 </r>
       <r>   -1.5034    1.0000 </r>
       <r>   -1.3795    1.0000 </r>
       <r>   -1.2658    1.0000 </r>
       <r>   -0.9247    1.0000 </r>
       <r>   -0.5405    1.0000 </r>
       <r>   -0.0178    0.8934 </r>
       <r>    0.2253    0.0141 </r>
       <r>    0.5557    0.0000 </r>
       <r>    1.1374    0.0000 </r>
       <r>    1.1935    0.0000 </r>
       <r>    1.3331    0.0000 </r>
       <r>    1.8157    0.0000 </r>
       <r>    2.0011    0.0000 </r>
       <r>    2.1293    0.0000 </r>
       <r>    2.3198    0.0000 </r>
       <r>    2.4976    0.0000 </r>
       <r>    2.6147    0.0000 </r>
       <r>    2.6675    0.0000 </r>
       <r>    2.8392    0.0000 </r>
      </set>
      <set comment="kpoint 14">
       <r>  -14.1544    1.0000 </r>
       <r>  -11.6779    1.0000 </r>
       <r>  -11.4350    1.0000 </r>
       <r>  -11.2676    1.0000 </r>
       <r>  -10.9665    1.0000 </r>
       <r>  -10.9635    1.0000 </r>
       <r>  -10.8687    1.0000 </r>
       <r>  -10.7050    1.0000 </r>
       <r>  -10.6923    1.0000 </r>
       <r>  -10.5889    1.0000 </r>
       <r>  -10.5850    1.0000 </r>
       <r>   -9.8336    1.0000 </r>
       <r>   -9.4757    1.0000 </r>
       <r>   -8.7188    1.0000 </r>
       <r>   -8.5586    1.0000 </r>
       <r>   -8.4036    1.0000 </r>
       <r>   -8.3330    1.0000 </r>
       <r>   -7.8372    1.0000 </r>
       <r>   -7.5213    1.0000 </r>
       <r>   -7.4855    1.0000 </r>
       <r>   -7.3204    1.0000 </r>
       <r>   -7.1448    1.0000 </r>
       <r>   -7.0595    1.0000 </r>
       <r>   -6.0925    1.0000 </r>
       <r>   -5.6144    1.0000 </r>
       <r>   -5.1490    1.0000 </r>
       <r>   -5.0214    1.0000 </r>
       <r>   -4.4750    1.0000 </r>
       <r>   -4.3975    1.0000 </r>
       <r>   -4.2251    1.0000 </r>
       <r>   -4.1485    1.0000 </r>
       <r>   -4.0361    1.0000 </r>
       <r>   -3.9295    1.0000 </r>
       <r>   -3.6650    1.0000 </r>
       <r>   -3.5682    1.0000 </r>
       <r>   -3.5098    1.0000 </r>
       <r>   -3.3622    1.0000 </r>
       <r>   -3.2859    1.0000 </r>
       <r>   -3.2310    1.0000 </r>
       <r>   -2.9939    1.0000 </r>
       <r>   -2.9401    1.0000 </r>
       <r>   -2.6873    1.0000 </r>
       <r>   -2.6156    1.0000 </r>
       <r>   -2.5641    1.0000 </r>
       <r>   -2.4075    1.0000 </r>
       <r>   -2.1529    1.0000 </r>
       <r>   -2.1189    1.0000 </r>
       <r>   -1.8825    1.0000 </r>
       <r>   -1.7008    1.0000 </r>
       <r>   -1.6008    1.0000 </r>
       <r>   -1.5067    1.0000 </r>
       <r>   -1.3093    1.0000 </r>
       <r>   -1.0693    1.0000 </r>
       <r>   -0.5723    1.0000 </r>
       <r>   -0.0679    0.9746 </r>
       <r>    0.1579    0.1073 </r>
       <r>    0.5066    0.0000 </r>
       <r>    1.0483    0.0000 </r>
       <r>    1.4160    0.0000 </r>
       <r>    1.5012    0.0000 </r>
       <r>    1.5605    0.0000 </r>
       <r>    1.7431    0.0000 </r>
       <r>    2.0518    0.0000 </r>
       <r>    2.2508    0.0000 </r>
       <r>    2.4297    0.0000 </r>
       <r>    2.4548    0.0000 </r>
       <r>    2.5157    0.0000 </r>
       <r>    2.7190    0.0000 </r>
      </set>
      <set comment="kpoint 15">
       <r>  -14.1546    1.0000 </r>
       <r>  -11.6773    1.0000 </r>
       <r>  -11.5392    1.0000 </r>
       <r>  -11.0747    1.0000 </r>
       <r>  -10.9604    1.0000 </r>
       <r>  -10.9375    1.0000 </r>
       <r>  -10.8122    1.0000 </r>
       <r>  -10.7615    1.0000 </r>
       <r>  -10.7105    1.0000 </r>
       <r>  -10.6823    1.0000 </r>
       <r>  -10.5972    1.0000 </r>
       <r>   -9.8325    1.0000 </r>
       <r>   -9.5036    1.0000 </r>
       <r>   -8.7611    1.0000 </r>
       <r>   -8.7178    1.0000 </r>
       <r>   -8.4382    1.0000 </r>
       <r>   -7.9485    1.0000 </r>
       <r>   -7.7690    1.0000 </r>
       <r>   -7.6085    1.0000 </r>
       <r>   -7.5226    1.0000 </r>
       <r>   -7.2844    1.0000 </r>
       <r>   -7.2249    1.0000 </r>
       <r>   -7.0800    1.0000 </r>
       <r>   -6.1172    1.0000 </r>
       <r>   -5.5218    1.0000 </r>
       <r>   -5.1083    1.0000 </r>
       <r>   -4.7400    1.0000 </r>
       <r>   -4.5828    1.0000 </r>
       <r>   -4.4296    1.0000 </r>
       <r>   -4.3699    1.0000 </r>
       <r>   -4.0470    1.0000 </r>
       <r>   -4.0100    1.0000 </r>
       <r>   -3.9601    1.0000 </r>
       <r>   -3.8903    1.0000 </r>
       <r>   -3.7600    1.0000 </r>
       <r>   -3.6621    1.0000 </r>
       <r>   -3.4492    1.0000 </r>
       <r>   -3.3456    1.0000 </r>
       <r>   -3.1591    1.0000 </r>
       <r>   -2.9941    1.0000 </r>
       <r>   -2.8107    1.0000 </r>
       <r>   -2.6876    1.0000 </r>
       <r>   -2.5164    1.0000 </r>
       <r>   -2.4611    1.0000 </r>
       <r>   -2.3589    1.0000 </r>
       <r>   -2.1724    1.0000 </r>
       <r>   -2.1239    1.0000 </r>
       <r>   -1.8954    1.0000 </r>
       <r>   -1.7054    1.0000 </r>
       <r>   -1.5991    1.0000 </r>
       <r>   -1.5021    1.0000 </r>
       <r>   -1.2693    1.0000 </r>
       <r>   -1.0482    1.0000 </r>
       <r>   -0.5748    1.0000 </r>
       <r>   -0.0276    0.9166 </r>
       <r>    0.2238    0.0149 </r>
       <r>    0.5826    0.0000 </r>
       <r>    1.1111    0.0000 </r>
       <r>    1.3623    0.0000 </r>
       <r>    1.6411    0.0000 </r>
       <r>    1.7447    0.0000 </r>
       <r>    1.7740    0.0000 </r>
       <r>    2.1705    0.0000 </r>
       <r>    2.3073    0.0000 </r>
       <r>    2.3581    0.0000 </r>
       <r>    2.4755    0.0000 </r>
       <r>    2.5871    0.0000 </r>
       <r>    2.6457    0.0000 </r>
      </set>
      <set comment="kpoint 16">
       <r>  -14.3618    1.0000 </r>
       <r>  -12.1067    1.0000 </r>
       <r>  -11.8418    1.0000 </r>
       <r>  -11.4891    1.0000 </r>
       <r>  -11.3548    1.0000 </r>
       <r>  -11.2488    1.0000 </r>
       <r>  -10.9402    1.0000 </r>
       <r>  -10.8408    1.0000 </r>
       <r>  -10.6337    1.0000 </r>
       <r>  -10.5970    1.0000 </r>
       <r>  -10.4552    1.0000 </r>
       <r>   -9.8695    1.0000 </r>
       <r>   -9.2952    1.0000 </r>
       <r>   -8.7464    1.0000 </r>
       <r>   -8.4962    1.0000 </r>
       <r>   -8.4801    1.0000 </r>
       <r>   -7.6215    1.0000 </r>
       <r>   -7.4445    1.0000 </r>
       <r>   -7.3337    1.0000 </r>
       <r>   -7.0334    1.0000 </r>
       <r>   -6.8131    1.0000 </r>
       <r>   -6.7807    1.0000 </r>
       <r>   -6.6646    1.0000 </r>
       <r>   -6.2034    1.0000 </r>
       <r>   -5.5890    1.0000 </r>
       <r>   -5.0897    1.0000 </r>
       <r>   -4.9924    1.0000 </r>
       <r>   -4.8400    1.0000 </r>
       <r>   -4.4573    1.0000 </r>
       <r>   -4.4125    1.0000 </r>
       <r>   -4.2953    1.0000 </r>
       <r>   -4.2057    1.0000 </r>
       <r>   -4.0843    1.0000 </r>
       <r>   -3.7902    1.0000 </r>
       <r>   -3.7267    1.0000 </r>
       <r>   -3.4126    1.0000 </r>
       <r>   -3.3000    1.0000 </r>
       <r>   -3.1861    1.0000 </r>
       <r>   -3.0847    1.0000 </r>
       <r>   -3.0137    1.0000 </r>
       <r>   -2.7539    1.0000 </r>
       <r>   -2.5936    1.0000 </r>
       <r>   -2.4493    1.0000 </r>
       <r>   -2.2711    1.0000 </r>
       <r>   -2.2111    1.0000 </r>
       <r>   -2.1071    1.0000 </r>
       <r>   -1.9500    1.0000 </r>
       <r>   -1.8757    1.0000 </r>
       <r>   -1.7914    1.0000 </r>
       <r>   -1.4748    1.0000 </r>
       <r>   -1.4104    1.0000 </r>
       <r>   -1.2473    1.0000 </r>
       <r>   -0.8744    1.0000 </r>
       <r>   -0.5071    1.0000 </r>
       <r>    0.0801    0.4443 </r>
       <r>    0.3551    0.0000 </r>
       <r>    0.7623    0.0000 </r>
       <r>    1.2616    0.0000 </r>
       <r>    1.3786    0.0000 </r>
       <r>    1.7712    0.0000 </r>
       <r>    1.8913    0.0000 </r>
       <r>    2.0996    0.0000 </r>
       <r>    2.2595    0.0000 </r>
       <r>    2.3489    0.0000 </r>
       <r>    2.4183    0.0000 </r>
       <r>    2.5492    0.0000 </r>
       <r>    2.6302    0.0000 </r>
       <r>    2.6998    0.0000 </r>
      </set>
      <set comment="kpoint 17">
       <r>  -14.6623    1.0000 </r>
       <r>  -12.6007    1.0000 </r>
       <r>  -12.1567    1.0000 </r>
       <r>  -11.9514    1.0000 </r>
       <r>  -11.7383    1.0000 </r>
       <r>  -11.6464    1.0000 </r>
       <r>  -11.2567    1.0000 </r>
       <r>  -11.1733    1.0000 </r>
       <r>  -10.7800    1.0000 </r>
       <r>  -10.7764    1.0000 </r>
       <r>  -10.4252    1.0000 </r>
       <r>   -9.7286    1.0000 </r>
       <r>   -9.1122    1.0000 </r>
       <r>   -8.5595    1.0000 </r>
       <r>   -8.1919    1.0000 </r>
       <r>   -8.1122    1.0000 </r>
       <r>   -7.2504    1.0000 </r>
       <r>   -7.0051    1.0000 </r>
       <r>   -6.8748    1.0000 </r>
       <r>   -6.6983    1.0000 </r>
       <r>   -6.3500    1.0000 </r>
       <r>   -6.1587    1.0000 </r>
       <r>   -5.9802    1.0000 </r>
       <r>   -5.9259    1.0000 </r>
       <r>   -5.5329    1.0000 </r>
       <r>   -5.1580    1.0000 </r>
       <r>   -5.0058    1.0000 </r>
       <r>   -4.8702    1.0000 </r>
       <r>   -4.6560    1.0000 </r>
       <r>   -4.5978    1.0000 </r>
       <r>   -4.3276    1.0000 </r>
       <r>   -4.2528    1.0000 </r>
       <r>   -4.1578    1.0000 </r>
       <r>   -3.7529    1.0000 </r>
       <r>   -3.4660    1.0000 </r>
       <r>   -3.2776    1.0000 </r>
       <r>   -3.1347    1.0000 </r>
       <r>   -3.0783    1.0000 </r>
       <r>   -2.9877    1.0000 </r>
       <r>   -2.8243    1.0000 </r>
       <r>   -2.7793    1.0000 </r>
       <r>   -2.6298    1.0000 </r>
       <r>   -2.4050    1.0000 </r>
       <r>   -2.1353    1.0000 </r>
       <r>   -2.0200    1.0000 </r>
       <r>   -1.8986    1.0000 </r>
       <r>   -1.8621    1.0000 </r>
       <r>   -1.7207    1.0000 </r>
       <r>   -1.6804    1.0000 </r>
       <r>   -1.3209    1.0000 </r>
       <r>   -1.2122    1.0000 </r>
       <r>   -1.0394    1.0000 </r>
       <r>   -0.6793    1.0000 </r>
       <r>   -0.4411    1.0000 </r>
       <r>    0.2651    0.0029 </r>
       <r>    0.5394    0.0000 </r>
       <r>    1.0077    0.0000 </r>
       <r>    1.4965    0.0000 </r>
       <r>    1.6278    0.0000 </r>
       <r>    1.8975    0.0000 </r>
       <r>    1.9860    0.0000 </r>
       <r>    2.2480    0.0000 </r>
       <r>    2.3690    0.0000 </r>
       <r>    2.4964    0.0000 </r>
       <r>    2.6510    0.0000 </r>
       <r>    2.6709    0.0000 </r>
       <r>    2.7604    0.0000 </r>
       <r>    2.8555    0.0000 </r>
      </set>
      <set comment="kpoint 18">
       <r>  -14.9564    1.0000 </r>
       <r>  -12.9960    1.0000 </r>
       <r>  -12.4886    1.0000 </r>
       <r>  -12.3558    1.0000 </r>
       <r>  -12.0647    1.0000 </r>
       <r>  -11.9956    1.0000 </r>
       <r>  -11.5635    1.0000 </r>
       <r>  -11.4966    1.0000 </r>
       <r>  -11.0361    1.0000 </r>
       <r>  -11.0317    1.0000 </r>
       <r>  -10.6035    1.0000 </r>
       <r>   -9.7118    1.0000 </r>
       <r>   -8.9425    1.0000 </r>
       <r>   -8.4037    1.0000 </r>
       <r>   -7.7871    1.0000 </r>
       <r>   -7.6950    1.0000 </r>
       <r>   -6.9757    1.0000 </r>
       <r>   -6.6970    1.0000 </r>
       <r>   -6.6432    1.0000 </r>
       <r>   -6.5587    1.0000 </r>
       <r>   -6.0274    1.0000 </r>
       <r>   -5.7440    1.0000 </r>
       <r>   -5.5563    1.0000 </r>
       <r>   -5.3377    1.0000 </r>
       <r>   -5.1459    1.0000 </r>
       <r>   -4.8374    1.0000 </r>
       <r>   -4.7279    1.0000 </r>
       <r>   -4.6014    1.0000 </r>
       <r>   -4.5174    1.0000 </r>
       <r>   -4.3957    1.0000 </r>
       <r>   -4.1842    1.0000 </r>
       <r>   -4.0170    1.0000 </r>
       <r>   -3.7823    1.0000 </r>
       <r>   -3.6997    1.0000 </r>
       <r>   -3.4549    1.0000 </r>
       <r>   -3.3388    1.0000 </r>
       <r>   -3.1975    1.0000 </r>
       <r>   -2.9991    1.0000 </r>
       <r>   -2.8897    1.0000 </r>
       <r>   -2.7006    1.0000 </r>
       <r>   -2.5378    1.0000 </r>
       <r>   -2.4990    1.0000 </r>
       <r>   -2.4191    1.0000 </r>
       <r>   -2.0675    1.0000 </r>
       <r>   -1.9065    1.0000 </r>
       <r>   -1.8300    1.0000 </r>
       <r>   -1.7537    1.0000 </r>
       <r>   -1.4852    1.0000 </r>
       <r>   -1.4377    1.0000 </r>
       <r>   -1.1258    1.0000 </r>
       <r>   -1.0807    1.0000 </r>
       <r>   -0.6919    1.0000 </r>
       <r>   -0.4736    1.0000 </r>
       <r>   -0.1852    0.9998 </r>
       <r>    0.4616    0.0000 </r>
       <r>    0.7562    0.0000 </r>
       <r>    1.2833    0.0000 </r>
       <r>    1.6966    0.0000 </r>
       <r>    1.8225    0.0000 </r>
       <r>    1.9961    0.0000 </r>
       <r>    2.2284    0.0000 </r>
       <r>    2.3369    0.0000 </r>
       <r>    2.4081    0.0000 </r>
       <r>    2.7074    0.0000 </r>
       <r>    2.7673    0.0000 </r>
       <r>    2.9102    0.0000 </r>
       <r>    2.9320    0.0000 </r>
       <r>    3.0732    0.0000 </r>
      </set>
      <set comment="kpoint 19">
       <r>  -15.1904    1.0000 </r>
       <r>  -13.2798    1.0000 </r>
       <r>  -12.7571    1.0000 </r>
       <r>  -12.6709    1.0000 </r>
       <r>  -12.3090    1.0000 </r>
[...]
       <r>    2.8234    0.0000 </r>
      </set>
      <set comment="kpoint 54">
       <r>  -14.1545    1.0000 </r>
       <r>  -11.6760    1.0000 </r>
       <r>  -11.4942    1.0000 </r>
       <r>  -11.1732    1.0000 </r>
       <r>  -10.9726    1.0000 </r>
       <r>  -10.9545    1.0000 </r>
       <r>  -10.8535    1.0000 </r>
       <r>  -10.7269    1.0000 </r>
       <r>  -10.6618    1.0000 </r>
       <r>  -10.6257    1.0000 </r>
       <r>  -10.6134    1.0000 </r>
       <r>   -9.8360    1.0000 </r>
       <r>   -9.4963    1.0000 </r>
       <r>   -8.6853    1.0000 </r>
       <r>   -8.6685    1.0000 </r>
       <r>   -8.4449    1.0000 </r>
       <r>   -8.1235    1.0000 </r>
       <r>   -7.8224    1.0000 </r>
       <r>   -7.5650    1.0000 </r>
       <r>   -7.5037    1.0000 </r>
       <r>   -7.2954    1.0000 </r>
       <r>   -7.1753    1.0000 </r>
       <r>   -7.0770    1.0000 </r>
       <r>   -6.1202    1.0000 </r>
       <r>   -5.6155    1.0000 </r>
       <r>   -5.0552    1.0000 </r>
       <r>   -4.9472    1.0000 </r>
       <r>   -4.4862    1.0000 </r>
       <r>   -4.4301    1.0000 </r>
       <r>   -4.2859    1.0000 </r>
       <r>   -4.1075    1.0000 </r>
       <r>   -4.0044    1.0000 </r>
       <r>   -3.9409    1.0000 </r>
       <r>   -3.7732    1.0000 </r>
       <r>   -3.6461    1.0000 </r>
       <r>   -3.5767    1.0000 </r>
       <r>   -3.4034    1.0000 </r>
       <r>   -3.2626    1.0000 </r>
       <r>   -3.1999    1.0000 </r>
       <r>   -3.0325    1.0000 </r>
       <r>   -2.9185    1.0000 </r>
       <r>   -2.7050    1.0000 </r>
       <r>   -2.5922    1.0000 </r>
       <r>   -2.3867    1.0000 </r>
       <r>   -2.3220    1.0000 </r>
       <r>   -2.2017    1.0000 </r>
       <r>   -2.0979    1.0000 </r>
       <r>   -1.9600    1.0000 </r>
       <r>   -1.7214    1.0000 </r>
       <r>   -1.6634    1.0000 </r>
       <r>   -1.5234    1.0000 </r>
       <r>   -1.2387    1.0000 </r>
       <r>   -1.0271    1.0000 </r>
       <r>   -0.5248    1.0000 </r>
       <r>   -0.0737    0.9791 </r>
       <r>    0.0945    0.3652 </r>
       <r>    0.3962    0.0000 </r>
       <r>    1.1606    0.0000 </r>
       <r>    1.3478    0.0000 </r>
       <r>    1.5774    0.0000 </r>
       <r>    1.6320    0.0000 </r>
       <r>    1.8567    0.0000 </r>
       <r>    2.0421    0.0000 </r>
       <r>    2.2285    0.0000 </r>
       <r>    2.3455    0.0000 </r>
       <r>    2.4559    0.0000 </r>
       <r>    2.6024    0.0000 </r>
       <r>    2.6832    0.0000 </r>
      </set>
     </set>
    </set>
   </array>
  </eigenvalues>
  <separator name="orbital magnetization" >
   <v name="MAGDIPOLOUT">      0.00000000      0.00000000      0.00000000</v>
  </separator>
  <dos>
   <i name="efermi">      0.07017354 </i>
   <total>
    <array>
     <dimension dim="1">gridpoints</dimension>
     <dimension dim="2">spin</dimension>
     <field>energy</field>
     <field>total</field>
     <field>integrated</field>
     <set>
      <set comment="spin 1">
       <r>   -16.3895     0.0000     0.0000 </r>
       <r>   -16.3208     0.0000     0.0000 </r>
       <r>   -16.2520     0.0000     0.0000 </r>
       <r>   -16.1832     0.0000     0.0000 </r>
       <r>   -16.1144     0.0000     0.0000 </r>
       <r>   -16.0457     0.0000     0.0000 </r>
       <r>   -15.9769     0.0000     0.0000 </r>
       <r>   -15.9081     0.0000     0.0000 </r>
       <r>   -15.8394     0.0000     0.0000 </r>
       <r>   -15.7706     0.0000     0.0000 </r>
       <r>   -15.7018     0.0000     0.0000 </r>
       <r>   -15.6331     0.0007     0.0000 </r>
       <r>   -15.5643     0.0169     0.0012 </r>
       <r>   -15.4955     0.1865     0.0140 </r>
       <r>   -15.4267     0.9264     0.0777 </r>
       <r>   -15.3580     2.1430     0.2251 </r>
       <r>   -15.2892     2.5227     0.3986 </r>
       <r>   -15.2204     2.1715     0.5479 </r>
       <r>   -15.1517     1.8947     0.6782 </r>
       <r>   -15.0829     1.1935     0.7603 </r>
       <r>   -15.0141     1.0181     0.8303 </r>
       <r>   -14.9453     1.6121     0.9412 </r>
       <r>   -14.8766     1.3924     1.0370 </r>
       <r>   -14.8078     0.5871     1.0773 </r>
       <r>   -14.7390     0.6037     1.1188 </r>
       <r>   -14.6703     1.4140     1.2161 </r>
       <r>   -14.6015     1.5711     1.3241 </r>
       <r>   -14.5327     0.7619     1.3765 </r>
       <r>   -14.4639     0.4355     1.4065 </r>
       <r>   -14.3952     1.1007     1.4822 </r>
       <r>   -14.3264     1.7024     1.5993 </r>
       <r>   -14.2576     1.3593     1.6927 </r>
       <r>   -14.1889     1.3639     1.7865 </r>
       <r>   -14.1201     1.7012     1.9035 </r>
       <r>   -14.0513     1.0795     1.9778 </r>
       <r>   -13.9825     0.2896     1.9977 </r>
       <r>   -13.9138     0.0321     1.9999 </r>
       <r>   -13.8450     0.0015     2.0000 </r>
       <r>   -13.7762     0.0004     2.0000 </r>
       <r>   -13.7075     0.0080     2.0006 </r>
       <r>   -13.6387     0.0848     2.0064 </r>
       <r>   -13.5699     0.4458     2.0371 </r>
       <r>   -13.5011     1.2296     2.1216 </r>
       <r>   -13.4324     1.9116     2.2531 </r>
       <r>   -13.3636     2.0002     2.3907 </r>
       <r>   -13.2948     1.8897     2.5206 </r>
       <r>   -13.2261     1.7868     2.6435 </r>
       <r>   -13.1573     1.6553     2.7573 </r>
       <r>   -13.0885     1.8024     2.8813 </r>
       <r>   -13.0197     2.9660     3.0853 </r>
       <r>   -12.9510     4.7424     3.4114 </r>
       <r>   -12.8822     5.2602     3.7731 </r>
       <r>   -12.8134     4.4303     4.0778 </r>
       <r>   -12.7447     3.4408     4.3144 </r>
       <r>   -12.6759     2.8222     4.5085 </r>
       <r>   -12.6071     3.5403     4.7520 </r>
       <r>   -12.5383     5.4855     5.1292 </r>
       <r>   -12.4696     6.7472     5.5933 </r>
       <r>   -12.4008     6.3702     6.0313 </r>
       <r>   -12.3320     5.5255     6.4113 </r>
       <r>   -12.2633     5.3870     6.7818 </r>
       <r>   -12.1945     5.5654     7.1645 </r>
       <r>   -12.1257     5.7100     7.5572 </r>
       <r>   -12.0570     6.5143     8.0052 </r>
       <r>   -11.9882     7.7159     8.5359 </r>
       <r>   -11.9194     7.7731     9.0704 </r>
       <r>   -11.8506     7.1688     9.5634 </r>
       <r>   -11.7819     6.5401    10.0132 </r>
       <r>   -11.7131     6.7464    10.4772 </r>
       <r>   -11.6443     7.9663    11.0250 </r>
       <r>   -11.5756     8.4191    11.6040 </r>
       <r>   -11.5068     8.3817    12.1804 </r>
       <r>   -11.4380     8.5793    12.7704 </r>
       <r>   -11.3692     8.3914    13.3475 </r>
       <r>   -11.3005     9.2625    13.9845 </r>
       <r>   -11.2317    10.2068    14.6864 </r>
       <r>   -11.1629     7.9371    15.2323 </r>
       <r>   -11.0942     6.0022    15.6451 </r>
       <r>   -11.0254     7.9264    16.1902 </r>
       <r>   -10.9566    10.6314    16.9213 </r>
       <r>   -10.8878    10.6625    17.6546 </r>
       <r>   -10.8191    10.2092    18.3567 </r>
       <r>   -10.7503    10.5026    19.0790 </r>
       <r>   -10.6815    10.2272    19.7823 </r>
       <r>   -10.6128    10.1881    20.4829 </r>
       <r>   -10.5440     8.8854    21.0940 </r>
       <r>   -10.4752     5.9538    21.5035 </r>
       <r>   -10.4064     4.0113    21.7793 </r>
       <r>   -10.3377     2.3247    21.9392 </r>
       <r>   -10.2689     0.7585    21.9914 </r>
       <r>   -10.2001     0.1174    21.9994 </r>
       <r>   -10.1314     0.0092    22.0001 </r>
       <r>   -10.0626     0.0306    22.0022 </r>
       <r>    -9.9938     0.3731    22.0278 </r>
       <r>    -9.9250     2.0553    22.1692 </r>
       <r>    -9.8563     5.3493    22.5370 </r>
       <r>    -9.7875     7.4069    23.0464 </r>
       <r>    -9.7187     6.8162    23.5152 </r>
       <r>    -9.6500     4.6982    23.8383 </r>
       <r>    -9.5812     2.3426    23.9994 </r>
       <r>    -9.5124     1.6485    24.1128 </r>
       <r>    -9.4436     1.7362    24.2322 </r>
       <r>    -9.3749     1.3542    24.3253 </r>
       <r>    -9.3061     1.5252    24.4302 </r>
       <r>    -9.2373     1.9878    24.5669 </r>
       <r>    -9.1686     2.0807    24.7100 </r>
       <r>    -9.0998     2.5238    24.8835 </r>
       <r>    -9.0310     4.2231    25.1740 </r>
       <r>    -8.9623     6.7252    25.6364 </r>
       <r>    -8.8935     6.6527    26.0940 </r>
       <r>    -8.8247     4.7173    26.4184 </r>
       <r>    -8.7559     4.8112    26.7492 </r>
       <r>    -8.6872     5.5286    27.1295 </r>
       <r>    -8.6184     4.6306    27.4479 </r>
       <r>    -8.5496     3.9481    27.7194 </r>
       <r>    -8.4809     4.9222    28.0579 </r>
       <r>    -8.4121     5.8469    28.4600 </r>
       <r>    -8.3433     4.6994    28.7832 </r>
       <r>    -8.2745     2.6849    28.9678 </r>
       <r>    -8.2058     2.0633    29.1097 </r>
       <r>    -8.1370     3.0680    29.3207 </r>
       <r>    -8.0682     4.0890    29.6019 </r>
       <r>    -7.9995     3.3958    29.8355 </r>
       <r>    -7.9307     2.1092    29.9805 </r>
       <r>    -7.8619     2.5346    30.1548 </r>
       <r>    -7.7931     4.6219    30.4727 </r>
       <r>    -7.7244     5.9684    30.8831 </r>
       <r>    -7.6556     6.2224    31.3111 </r>
       <r>    -7.5868     7.1540    31.8031 </r>
       <r>    -7.5181     8.4020    32.3809 </r>
       <r>    -7.4493     8.8405    32.9888 </r>
       <r>    -7.3805     8.6929    33.5867 </r>
       <r>    -7.3117     8.1141    34.1447 </r>
       <r>    -7.2430     7.1061    34.6334 </r>
       <r>    -7.1742     5.7245    35.0271 </r>
       <r>    -7.1054     5.0818    35.3765 </r>
       <r>    -7.0367     5.8335    35.7777 </r>
       <r>    -6.9679     6.1245    36.1989 </r>
       <r>    -6.8991     5.3291    36.5654 </r>
       <r>    -6.8303     6.2698    36.9966 </r>
       <r>    -6.7616    10.1259    37.6929 </r>
       <r>    -6.6928    13.9193    38.6502 </r>
       <r>    -6.6240    13.5487    39.5819 </r>
       <r>    -6.5553     9.4321    40.2306 </r>
       <r>    -6.4865     6.0170    40.6444 </r>
       <r>    -6.4177     4.3814    40.9457 </r>
       <r>    -6.3489     3.8724    41.2120 </r>
       <r>    -6.2802     4.7596    41.5394 </r>
       <r>    -6.2114     6.1642    41.9633 </r>
       <r>    -6.1426     6.8259    42.4327 </r>
       <r>    -6.0739     6.5724    42.8847 </r>
       <r>    -6.0051     5.6843    43.2756 </r>
       <r>    -5.9363     5.3794    43.6455 </r>
       <r>    -5.8675     5.5831    44.0295 </r>
       <r>    -5.7988     5.8764    44.4336 </r>
       <r>    -5.7300     6.6520    44.8911 </r>
       <r>    -5.6612     7.0710    45.3774 </r>
       <r>    -5.5925     6.9919    45.8582 </r>
       <r>    -5.5237     6.5595    46.3093 </r>
       <r>    -5.4549     5.4081    46.6812 </r>
       <r>    -5.3862     4.9311    47.0204 </r>
       <r>    -5.3174     5.5885    47.4047 </r>
       <r>    -5.2486     6.4822    47.8505 </r>
       <r>    -5.1798     7.2877    48.3517 </r>
       <r>    -5.1111     7.6407    48.8771 </r>
       <r>    -5.0423     8.6320    49.4708 </r>
       <r>    -4.9735     9.8139    50.1457 </r>
       <r>    -4.9048     9.4536    50.7958 </r>
       <r>    -4.8360     8.7698    51.3989 </r>
       <r>    -4.7672     8.5315    51.9856 </r>
       <r>    -4.6984     8.6682    52.5818 </r>
       <r>    -4.6297     8.9677    53.1985 </r>
       <r>    -4.5609     8.8726    53.8087 </r>
       <r>    -4.4921     9.1967    54.4411 </r>
       <r>    -4.4234    10.0601    55.1330 </r>
       <r>    -4.3546    10.7011    55.8689 </r>
       <r>    -4.2858    10.8970    56.6183 </r>
       <r>    -4.2170    11.6984    57.4228 </r>
       <r>    -4.1483    13.2265    58.3324 </r>
       <r>    -4.0795    13.9309    59.2904 </r>
       <r>    -4.0107    14.0002    60.2533 </r>
       <r>    -3.9420    12.7054    61.1270 </r>
       <r>    -3.8732    10.1016    61.8217 </r>
       <r>    -3.8044     9.8499    62.4991 </r>
       <r>    -3.7356    12.1451    63.3343 </r>
       <r>    -3.6669    12.9746    64.2266 </r>
       <r>    -3.5981    11.2480    65.0002 </r>
       <r>    -3.5293     8.9710    65.6171 </r>
       <r>    -3.4606     9.1135    66.2439 </r>
       <r>    -3.3918    12.4798    67.1021 </r>
       <r>    -3.3230    15.4630    68.1655 </r>
       <r>    -3.2542    16.3789    69.2919 </r>
       <r>    -3.1855    16.2839    70.4118 </r>
       <r>    -3.1167    16.2527    71.5295 </r>
       <r>    -3.0479    17.2142    72.7133 </r>
       <r>    -2.9792    18.1966    73.9647 </r>
       <r>    -2.9104    17.3626    75.1588 </r>
       <r>    -2.8416    15.3971    76.2176 </r>
       <r>    -2.7728    14.0636    77.1848 </r>
       <r>    -2.7041    14.3389    78.1709 </r>
       <r>    -2.6353    15.3968    79.2298 </r>
       <r>    -2.5665    16.2566    80.3478 </r>
       <r>    -2.4978    17.2503    81.5341 </r>
       <r>    -2.4290    17.9436    82.7681 </r>
       <r>    -2.3602    16.6586    83.9137 </r>
       <r>    -2.2915    13.0880    84.8138 </r>
       <r>    -2.2227    11.4392    85.6005 </r>
       <r>    -2.1539    13.7382    86.5453 </r>
       <r>    -2.0851    16.0347    87.6480 </r>
       <r>    -2.0164    15.9835    88.7472 </r>
       <r>    -1.9476    16.9771    89.9147 </r>
       <r>    -1.8788    19.3151    91.2431 </r>
       <r>    -1.8101    18.8174    92.5372 </r>
       <r>    -1.7413    16.0421    93.6404 </r>
       <r>    -1.6725    13.1238    94.5429 </r>
       <r>    -1.6037    10.6388    95.2746 </r>
       <r>    -1.5350    10.7000    96.0104 </r>
       <r>    -1.4662    11.9921    96.8351 </r>
       <r>    -1.3974    12.1323    97.6695 </r>
       <r>    -1.3287    11.2998    98.4466 </r>
       <r>    -1.2599    10.5420    99.1716 </r>
       <r>    -1.1911    10.3544    99.8837 </r>
       <r>    -1.1223    11.0132   100.6410 </r>
       <r>    -1.0536    11.8885   101.4586 </r>
       <r>    -0.9848    11.7365   102.2658 </r>
       <r>    -0.9160    10.8152   103.0095 </r>
       <r>    -0.8473     8.4212   103.5887 </r>
       <r>    -0.7785     5.4497   103.9635 </r>
       <r>    -0.7097     4.3793   104.2646 </r>
       <r>    -0.6409     5.0445   104.6115 </r>
       <r>    -0.5722     6.4016   105.0518 </r>
       <r>    -0.5034     6.9344   105.5287 </r>
       <r>    -0.4346     6.2374   105.9576 </r>
       <r>    -0.3659     5.2301   106.3173 </r>
       <r>    -0.2971     4.2678   106.6108 </r>
       <r>    -0.2283     3.6885   106.8645 </r>
       <r>    -0.1595     3.3679   107.0961 </r>
       <r>    -0.0908     3.0916   107.3087 </r>
       <r>    -0.0220     3.5797   107.5549 </r>
       <r>     0.0468     4.6380   107.8738 </r>
       <r>     0.1155     5.7098   108.2665 </r>
       <r>     0.1843     6.2179   108.6941 </r>
       <r>     0.2531     5.5419   109.0752 </r>
       <r>     0.3219     4.3894   109.3771 </r>
       <r>     0.3906     4.6282   109.6954 </r>
       <r>     0.4594     5.8949   110.1008 </r>
       <r>     0.5282     6.1128   110.5212 </r>
       <r>     0.5969     4.9812   110.8637 </r>
       <r>     0.6657     3.7699   111.1230 </r>
       <r>     0.7345     3.7211   111.3789 </r>
       <r>     0.8033     4.2994   111.6746 </r>
       <r>     0.8720     4.2869   111.9694 </r>
       <r>     0.9408     3.7589   112.2279 </r>
       <r>     1.0096     3.7172   112.4835 </r>
       <r>     1.0783     4.6980   112.8066 </r>
       <r>     1.1471     6.1103   113.2268 </r>
       <r>     1.2159     7.0785   113.7136 </r>
       <r>     1.2846     7.2146   114.2098 </r>
       <r>     1.3534     7.5446   114.7286 </r>
       <r>     1.4222     8.7622   115.3312 </r>
       <r>     1.4910    10.0323   116.0211 </r>
       <r>     1.5597    11.3050   116.7986 </r>
       <r>     1.6285    12.4651   117.6558 </r>
       <r>     1.6973    12.9205   118.5444 </r>
       <r>     1.7660    12.3143   119.3913 </r>
       <r>     1.8348    10.1890   120.0920 </r>
       <r>     1.9036     7.7516   120.6251 </r>
       <r>     1.9724     6.9849   121.1054 </r>
       <r>     2.0411     7.7052   121.6353 </r>
       <r>     2.1099     8.9565   122.2513 </r>
       <r>     2.1787    11.1785   123.0200 </r>
       <r>     2.2474    14.3555   124.0073 </r>
       <r>     2.3162    16.1820   125.1201 </r>
       <r>     2.3850    17.0541   126.2929 </r>
       <r>     2.4538    17.1801   127.4744 </r>
       <r>     2.5225    15.2225   128.5213 </r>
       <r>     2.5913    14.4656   129.5161 </r>
       <r>     2.6601    16.7582   130.6686 </r>
       <r>     2.7288    17.0992   131.8445 </r>
       <r>     2.7976    13.8386   132.7962 </r>
       <r>     2.8664    10.8697   133.5438 </r>
       <r>     2.9352     9.3217   134.1848 </r>
       <r>     3.0039     8.1373   134.7444 </r>
       <r>     3.0727     7.1474   135.2360 </r>
       <r>     3.1415     5.6332   135.6234 </r>
       <r>     3.2102     3.2678   135.8481 </r>
       <r>     3.2790     1.5094   135.9519 </r>
       <r>     3.3478     0.5650   135.9908 </r>
       <r>     3.4166     0.1219   135.9991 </r>
       <r>     3.4853     0.0119   136.0000 </r>
       <r>     3.5541     0.0005   136.0000 </r>
       <r>     3.6229     0.0000   136.0000 </r>
       <r>     3.6916     0.0000   136.0000 </r>
       <r>     3.7604     0.0000   136.0000 </r>
       <r>     3.8292     0.0000   136.0000 </r>
       <r>     3.8980     0.0000   136.0000 </r>
       <r>     3.9667     0.0000   136.0000 </r>
       <r>     4.0355     0.0000   136.0000 </r>
       <r>     4.1043     0.0000   136.0000 </r>
       <r>     4.1730     0.0000   136.0000 </r>
       <r>     4.2418     0.0000   136.0000 </r>
      </set>
     </set>
    </array>
   </total>
  </dos>
 </calculation>
 <structure name="finalpos" >
  <crystal>
   <varray name="basis" >
    <v>       3.54040000       0.00000000       0.00000000 </v>
    <v>      -1.77020000      10.29434800       0.00000000 </v>
    <v>       0.00000000       0.00000000      27.50142900 </v>
   </varray>
   <i name="volume">   1002.32009712 </i>
   <varray name="rec_basis" >
    <v>       0.28245396       0.04857034       0.00000000 </v>
    <v>       0.00000000       0.09714068       0.00000000 </v>
    <v>       0.00000000       0.00000000       0.03636175 </v>
   </varray>
  </crystal>
  <varray name="positions" >
   <v>       0.11402300       0.22804500       0.23316207 </v>
   <v>       0.41402300       0.52804500       0.51499159 </v>
   <v>       0.45808900       0.91617900       0.20939482 </v>
   <v>       0.75808900       0.21617900       0.49122434 </v>
   <v>       0.31085400       0.62170900       0.08414979 </v>
   <v>       0.31085400       0.62170900       0.36597930 </v>
   <v>       0.99923000       0.99846000       0.08631254 </v>
   <v>       0.99923000       0.99846000       0.36814206 </v>
   <v>       0.65492700       0.30985400       0.06041748 </v>
   <v>       0.65492700       0.30985400       0.34224700 </v>
   <v>       0.76973800       0.53947500       0.20725292 </v>
   <v>       0.06973800       0.83947500       0.48908244 </v>
   <v>       0.93971600       0.87943300       0.15783749 </v>
   <v>       0.23971600       0.17943300       0.43966701 </v>
   <v>       0.20515200       0.41030300       0.18578822 </v>
   <v>       0.50515200       0.71030300       0.46761774 </v>
   <v>       0.20184900       0.40369900       0.09969156 </v>
   <v>       0.20184900       0.40369900       0.38152107 </v>
   <v>       0.56380500       0.12761000       0.10779021 </v>
   <v>       0.56380500       0.12761000       0.38961973 </v>
   <v>       0.56710600       0.13421200       0.19387616 </v>
   <v>       0.86710600       0.43421200       0.47570568 </v>
   <v>       0.82923400       0.65846800       0.13571444 </v>
   <v>       0.12923400       0.95846800       0.41754396 </v>
  </varray>
 </structure>
</modeling>
