  24  24   0   0
  0.4176334E+02  0.3540400E-09  0.1044544E-08  0.2750143E-08  0.5000000E-15
  1.000000000000000E-004
  CAR 
 unknown system                          
      4.25437179    -14.76835518  301     -0.00686501      1.00000000
    -14.768  0.0000E+00  0.0000E+00
    -14.705  0.0000E+00  0.0000E+00
    -14.642  0.0000E+00  0.0000E+00
    -14.578  0.0000E+00  0.0000E+00
    -14.515  0.0000E+00  0.0000E+00
    -14.451  0.0000E+00  0.0000E+00
    -14.388  0.0000E+00  0.0000E+00
    -14.324  0.1111E-14  0.7046E-16
    -14.261  0.1005E-11  0.6378E-13
    -14.198  0.4060E-09  0.2581E-10
    -14.134  0.7604E-07  0.4847E-08
    -14.071  0.6704E-05  0.4299E-06
    -14.007  0.2846E-03  0.1847E-04
    -13.944  0.5989E-02  0.3982E-03
    -13.881  0.6464E-01  0.4497E-02
    -13.817  0.3703E+00  0.2798E-01
    -13.754  0.1166E+01  0.1019E+00
    -13.690  0.2124E+01  0.2366E+00
    -13.627  0.2523E+01  0.3965E+00
    -13.564  0.2469E+01  0.5531E+00
    -13.500  0.2440E+01  0.7078E+00
    -13.437  0.2654E+01  0.8761E+00
    -13.373  0.3369E+01  0.1090E+01
    -13.310  0.4107E+01  0.1350E+01
    -13.247  0.4166E+01  0.1614E+01
    -13.183  0.4067E+01  0.1872E+01
    -13.120  0.4601E+01  0.2164E+01
    -13.056  0.5185E+01  0.2493E+01
    -12.993  0.4805E+01  0.2797E+01
    -12.929  0.4607E+01  0.3089E+01
    -12.866  0.5592E+01  0.3444E+01
    -12.803  0.6177E+01  0.3836E+01
    -12.739  0.5644E+01  0.4194E+01
    -12.676  0.4780E+01  0.4497E+01
    -12.612  0.4033E+01  0.4752E+01
    -12.549  0.4318E+01  0.5026E+01
    -12.486  0.5606E+01  0.5382E+01
    -12.422  0.6490E+01  0.5793E+01
    -12.359  0.6842E+01  0.6227E+01
    -12.295  0.7044E+01  0.6674E+01
    -12.232  0.6482E+01  0.7085E+01
    -12.169  0.5535E+01  0.7436E+01
    -12.105  0.5299E+01  0.7772E+01
    -12.042  0.6151E+01  0.8162E+01
    -11.978  0.7413E+01  0.8632E+01
    -11.915  0.7975E+01  0.9137E+01
    -11.852  0.7358E+01  0.9604E+01
    -11.788  0.5850E+01  0.9975E+01
    -11.725  0.4985E+01  0.1029E+02
    -11.661  0.5462E+01  0.1064E+02
    -11.598  0.6281E+01  0.1104E+02
    -11.534  0.7467E+01  0.1151E+02
    -11.471  0.9614E+01  0.1212E+02
    -11.408  0.1110E+02  0.1282E+02
    -11.344  0.1031E+02  0.1348E+02
    -11.281  0.9052E+01  0.1405E+02
    -11.217  0.9773E+01  0.1467E+02
    -11.154  0.1138E+02  0.1539E+02
    -11.091  0.1163E+02  0.1613E+02
    -11.027  0.1077E+02  0.1681E+02
    -10.964  0.1013E+02  0.1745E+02
    -10.900  0.1013E+02  0.1810E+02
    -10.837  0.1064E+02  0.1877E+02
    -10.774  0.1149E+02  0.1950E+02
    -10.710  0.1114E+02  0.2021E+02
    -10.647  0.9006E+01  0.2078E+02
    -10.583  0.8450E+01  0.2131E+02
    -10.520  0.9878E+01  0.2194E+02
    -10.457  0.9350E+01  0.2253E+02
    -10.393  0.7396E+01  0.2300E+02
    -10.330  0.6755E+01  0.2343E+02
    -10.266  0.5499E+01  0.2378E+02
    -10.203  0.2702E+01  0.2395E+02
    -10.139  0.6944E+00  0.2399E+02
    -10.076  0.8876E-01  0.2400E+02
    -10.013  0.5500E-02  0.2400E+02
     -9.949  0.1625E-03  0.2400E+02
     -9.886  0.2259E-05  0.2400E+02
     -9.822  0.1463E-07  0.2400E+02
     -9.759  0.4381E-10  0.2400E+02
     -9.696  0.6027E-13  0.2400E+02
     -9.632  0.2222E-14  0.2400E+02
     -9.569  0.1973E-11  0.2400E+02
     -9.505  0.7941E-09  0.2400E+02
     -9.442  0.1467E-06  0.2400E+02
     -9.379  0.1252E-04  0.2400E+02
     -9.315  0.4981E-03  0.2400E+02
     -9.252  0.9345E-02  0.2400E+02
     -9.188  0.8386E-01  0.2401E+02
     -9.125  0.3698E+00  0.2403E+02
     -9.062  0.8689E+00  0.2408E+02
     -8.998  0.1406E+01  0.2417E+02
     -8.935  0.2254E+01  0.2432E+02
     -8.871  0.3309E+01  0.2453E+02
     -8.808  0.3676E+01  0.2476E+02
     -8.744  0.3806E+01  0.2500E+02
     -8.681  0.4876E+01  0.2531E+02
     -8.618  0.6132E+01  0.2570E+02
     -8.554  0.6571E+01  0.2612E+02
     -8.491  0.6827E+01  0.2655E+02
     -8.427  0.7281E+01  0.2701E+02
     -8.364  0.7464E+01  0.2748E+02
     -8.301  0.7020E+01  0.2793E+02
     -8.237  0.5591E+01  0.2828E+02
     -8.174  0.4161E+01  0.2855E+02
     -8.110  0.4227E+01  0.2881E+02
     -8.047  0.5344E+01  0.2915E+02
     -7.984  0.5851E+01  0.2952E+02
     -7.920  0.5043E+01  0.2984E+02
     -7.857  0.3602E+01  0.3007E+02
     -7.793  0.3335E+01  0.3028E+02
     -7.730  0.5156E+01  0.3061E+02
     -7.667  0.6504E+01  0.3102E+02
     -7.603  0.5698E+01  0.3139E+02
     -7.540  0.4892E+01  0.3170E+02
     -7.476  0.5217E+01  0.3203E+02
     -7.413  0.6455E+01  0.3244E+02
     -7.349  0.8519E+01  0.3298E+02
     -7.286  0.1013E+02  0.3362E+02
     -7.223  0.1009E+02  0.3426E+02
     -7.159  0.8313E+01  0.3478E+02
     -7.096  0.6224E+01  0.3518E+02
     -7.032  0.5230E+01  0.3551E+02
     -6.969  0.5103E+01  0.3583E+02
     -6.906  0.5802E+01  0.3620E+02
     -6.842  0.7456E+01  0.3668E+02
     -6.779  0.9062E+01  0.3725E+02
     -6.715  0.1008E+02  0.3789E+02
     -6.652  0.1174E+02  0.3863E+02
     -6.589  0.1328E+02  0.3948E+02
     -6.525  0.1198E+02  0.4024E+02
     -6.462  0.9014E+01  0.4081E+02
     -6.398  0.6312E+01  0.4121E+02
     -6.335  0.4065E+01  0.4146E+02
     -6.272  0.2870E+01  0.4165E+02
     -6.208  0.2997E+01  0.4184E+02
     -6.145  0.3825E+01  0.4208E+02
     -6.081  0.4241E+01  0.4235E+02
     -6.018  0.3707E+01  0.4258E+02
     -5.954  0.3286E+01  0.4279E+02
     -5.891  0.3760E+01  0.4303E+02
     -5.828  0.4643E+01  0.4332E+02
     -5.764  0.6356E+01  0.4373E+02
     -5.701  0.8908E+01  0.4429E+02
     -5.637  0.9939E+01  0.4492E+02
     -5.574  0.8077E+01  0.4543E+02
     -5.511  0.4969E+01  0.4575E+02
     -5.447  0.2759E+01  0.4592E+02
     -5.384  0.2304E+01  0.4607E+02
     -5.320  0.3515E+01  0.4629E+02
     -5.257  0.5544E+01  0.4665E+02
     -5.194  0.7107E+01  0.4710E+02
     -5.130  0.7709E+01  0.4758E+02
     -5.067  0.7312E+01  0.4805E+02
     -5.003  0.7528E+01  0.4853E+02
     -4.940  0.8740E+01  0.4908E+02
     -4.877  0.9307E+01  0.4967E+02
     -4.813  0.9566E+01  0.5028E+02
     -4.750  0.9995E+01  0.5091E+02
     -4.686  0.1045E+02  0.5157E+02
     -4.623  0.1072E+02  0.5225E+02
     -4.559  0.1067E+02  0.5293E+02
     -4.496  0.1113E+02  0.5363E+02
     -4.433  0.1227E+02  0.5441E+02
     -4.369  0.1269E+02  0.5522E+02
     -4.306  0.1198E+02  0.5598E+02
     -4.242  0.1216E+02  0.5675E+02
     -4.179  0.1407E+02  0.5764E+02
     -4.116  0.1533E+02  0.5861E+02
     -4.052  0.1476E+02  0.5955E+02
     -3.989  0.1409E+02  0.6044E+02
     -3.925  0.1332E+02  0.6129E+02
     -3.862  0.1203E+02  0.6205E+02
     -3.799  0.1135E+02  0.6277E+02
     -3.735  0.1180E+02  0.6352E+02
     -3.672  0.1309E+02  0.6435E+02
     -3.608  0.1449E+02  0.6527E+02
     -3.545  0.1447E+02  0.6618E+02
     -3.482  0.1279E+02  0.6699E+02
     -3.418  0.1134E+02  0.6771E+02
     -3.355  0.1194E+02  0.6847E+02
     -3.291  0.1389E+02  0.6935E+02
     -3.228  0.1519E+02  0.7031E+02
     -3.164  0.1598E+02  0.7133E+02
     -3.101  0.1694E+02  0.7240E+02
     -3.038  0.1769E+02  0.7352E+02
     -2.974  0.1821E+02  0.7468E+02
     -2.911  0.1858E+02  0.7586E+02
     -2.847  0.1754E+02  0.7697E+02
     -2.784  0.1480E+02  0.7791E+02
     -2.721  0.1299E+02  0.7873E+02
     -2.657  0.1406E+02  0.7962E+02
     -2.594  0.1558E+02  0.8061E+02
     -2.530  0.1591E+02  0.8162E+02
     -2.467  0.1720E+02  0.8271E+02
     -2.404  0.1885E+02  0.8390E+02
     -2.340  0.1866E+02  0.8509E+02
     -2.277  0.1664E+02  0.8614E+02
     -2.213  0.1450E+02  0.8706E+02
     -2.150  0.1386E+02  0.8794E+02
     -2.087  0.1504E+02  0.8889E+02
     -2.023  0.1663E+02  0.8995E+02
     -1.960  0.1780E+02  0.9108E+02
     -1.896  0.1900E+02  0.9228E+02
     -1.833  0.1987E+02  0.9354E+02
     -1.769  0.2018E+02  0.9482E+02
     -1.706  0.1989E+02  0.9608E+02
     -1.643  0.1749E+02  0.9719E+02
     -1.579  0.1337E+02  0.9804E+02
     -1.516  0.1127E+02  0.9875E+02
     -1.452  0.1226E+02  0.9953E+02
     -1.389  0.1389E+02  0.1004E+03
     -1.326  0.1392E+02  0.1013E+03
     -1.262  0.1171E+02  0.1020E+03
     -1.199  0.8656E+01  0.1026E+03
     -1.135  0.6816E+01  0.1030E+03
     -1.072  0.7065E+01  0.1035E+03
     -1.009  0.8727E+01  0.1040E+03
     -0.945  0.9986E+01  0.1047E+03
     -0.882  0.8951E+01  0.1052E+03
     -0.818  0.6169E+01  0.1056E+03
     -0.755  0.4263E+01  0.1059E+03
     -0.692  0.4179E+01  0.1061E+03
     -0.628  0.4755E+01  0.1064E+03
     -0.565  0.4189E+01  0.1067E+03
     -0.501  0.2490E+01  0.1069E+03
     -0.438  0.1414E+01  0.1070E+03
     -0.374  0.1488E+01  0.1071E+03
     -0.311  0.1988E+01  0.1072E+03
     -0.248  0.2772E+01  0.1074E+03
     -0.184  0.3757E+01  0.1076E+03
     -0.121  0.3630E+01  0.1078E+03
     -0.057  0.2051E+01  0.1080E+03
      0.006  0.8020E+00  0.1080E+03
      0.069  0.9279E+00  0.1081E+03
      0.133  0.1921E+01  0.1082E+03
      0.196  0.2648E+01  0.1084E+03
      0.260  0.2392E+01  0.1085E+03
      0.323  0.1616E+01  0.1086E+03
      0.386  0.1769E+01  0.1087E+03
      0.450  0.3029E+01  0.1089E+03
      0.513  0.3651E+01  0.1091E+03
      0.577  0.3123E+01  0.1093E+03
      0.640  0.2276E+01  0.1095E+03
      0.703  0.2051E+01  0.1096E+03
      0.767  0.3431E+01  0.1098E+03
      0.830  0.5380E+01  0.1102E+03
      0.894  0.5397E+01  0.1105E+03
      0.957  0.3801E+01  0.1108E+03
      1.021  0.3178E+01  0.1110E+03
      1.084  0.4314E+01  0.1112E+03
      1.147  0.6080E+01  0.1116E+03
      1.211  0.7434E+01  0.1121E+03
      1.274  0.8627E+01  0.1126E+03
      1.338  0.9845E+01  0.1133E+03
      1.401  0.1059E+02  0.1139E+03
      1.464  0.1080E+02  0.1146E+03
      1.528  0.1089E+02  0.1153E+03
      1.591  0.1113E+02  0.1160E+03
      1.655  0.1179E+02  0.1168E+03
      1.718  0.1270E+02  0.1176E+03
      1.781  0.1307E+02  0.1184E+03
      1.845  0.1312E+02  0.1192E+03
      1.908  0.1291E+02  0.1200E+03
      1.972  0.1235E+02  0.1208E+03
      2.035  0.1214E+02  0.1216E+03
      2.098  0.1314E+02  0.1224E+03
      2.162  0.1487E+02  0.1234E+03
      2.225  0.1588E+02  0.1244E+03
      2.289  0.1635E+02  0.1254E+03
      2.352  0.1650E+02  0.1265E+03
      2.416  0.1589E+02  0.1275E+03
      2.479  0.1509E+02  0.1284E+03
      2.542  0.1435E+02  0.1293E+03
      2.606  0.1337E+02  0.1302E+03
      2.669  0.1281E+02  0.1310E+03
      2.733  0.1311E+02  0.1318E+03
      2.796  0.1323E+02  0.1327E+03
      2.859  0.1181E+02  0.1334E+03
      2.923  0.9402E+01  0.1340E+03
      2.986  0.7868E+01  0.1345E+03
      3.050  0.7315E+01  0.1350E+03
      3.113  0.6333E+01  0.1354E+03
      3.176  0.4658E+01  0.1357E+03
      3.240  0.2910E+01  0.1359E+03
      3.303  0.1506E+01  0.1360E+03
      3.367  0.5514E+00  0.1360E+03
      3.430  0.1170E+00  0.1360E+03
      3.493  0.1270E-01  0.1360E+03
      3.557  0.6673E-03  0.1360E+03
      3.620  0.1649E-04  0.1360E+03
      3.684  0.1890E-06  0.1360E+03
      3.747  0.9950E-09  0.1360E+03
      3.811  0.2394E-11  0.1360E+03
      3.874  0.2559E-14  0.1360E+03
      3.937  0.0000E+00  0.1360E+03
      4.001  0.0000E+00  0.1360E+03
      4.064  0.0000E+00  0.1360E+03
      4.128  0.0000E+00  0.1360E+03
      4.191  0.0000E+00  0.1360E+03
      4.254  0.0000E+00  0.1360E+03
