   24   24    1    1
  0.4176334E+02  0.3540400E-09  0.1044544E-08  0.2750143E-08  0.5000000E-15
  1.000000000000000E-004
  CAR 
 unknown system                          
    108     54     68
 
  0.0000000E+00  0.0000000E+00  0.0000000E+00  0.9615385E-02
    1      -13.768355
    2      -13.475876
    3      -13.055305
    4      -12.737695
    5      -12.512448
    6      -12.409672
    7      -12.287038
    8      -12.016961
    9      -11.499694
   10      -11.370449
   11      -11.179353
   12      -10.925714
   13       -8.020050
   14       -7.939960
   15       -7.762813
   16       -7.627381
   17       -6.822808
   18       -6.658957
   19       -6.555244
   20       -6.427834
   21       -5.795991
   22       -5.751224
   23       -4.865225
   24       -4.683105
   25       -4.033617
   26       -3.785218
   27       -3.632184
   28       -3.467431
   29       -3.179372
   30       -2.992028
   31       -2.904431
   32       -2.866562
   33       -2.781158
   34       -2.704745
   35       -2.629868
   36       -2.424948
   37       -2.370243
   38       -2.321812
   39       -2.210019
   40       -2.149530
   41       -1.986065
   42       -1.914213
   43       -1.783817
   44       -1.732330
   45       -1.665014
   46       -1.578986
   47       -1.524998
   48       -1.424545
   49       -1.368076
   50       -1.184566
   51       -1.049700
   52       -1.000913
   53       -0.598595
   54       -0.201616
   55        0.844959
   56        1.012319
   57        1.244073
   58        1.372163
   59        1.410520
   60        1.654922
   61        1.763640
   62        1.786279
   63        1.985356
   64        2.060625
   65        2.206072
   66        2.367797
   67        2.500423
   68        2.559955
 
  0.7692308E-01 -0.1387779E-16  0.0000000E+00  0.1923077E-01
    1      -13.717983
    2      -13.414555
    3      -13.008608
    4      -12.685530
    5      -12.456319
    6      -12.353781
    7      -12.228848
    8      -11.954771
    9      -11.449572
   10      -11.321542
   11      -11.129765
   12      -10.877358
   13       -8.045995
   14       -7.982201
   15       -7.726825
   16       -7.563815
   17       -6.787097
   18       -6.635922
   19       -6.537165
   20       -6.421782
   21       -5.760378
   22       -5.715434
   23       -4.898357
   24       -4.686080
   25       -4.046788
   26       -3.822544
   27       -3.671989
   28       -3.579380
   29       -3.435573
   30       -3.314671
   31       -3.220063
   32       -3.164275
   33       -3.079514
   34       -2.957132
   35       -2.822255
   36       -2.671873
   37       -2.559554
   38       -2.414007
   39       -2.305967
   40       -2.225695
   41       -2.129532
   42       -2.049305
   43       -1.966199
   44       -1.903945
   45       -1.856387
   46       -1.777986
   47       -1.668619
   48       -1.485638
   49       -1.430954
   50       -1.357745
   51       -1.119909
   52       -0.981331
   53       -0.623422
   54       -0.180211
   55        1.177205
   56        1.332572
   57        1.567202
   58        1.638477
   59        1.824275
   60        1.987698
   61        2.027680
   62        2.198957
   63        2.248571
   64        2.287115
   65        2.346466
   66        2.488167
   67        2.672065
   68        2.828310
 
  0.1538462E+00 -0.2775558E-16  0.0000000E+00  0.1923077E-01
    1      -13.572162
    2      -13.231661
    3      -12.868211
    4      -12.529759
    5      -12.289692
    6      -12.188327
    7      -12.058694
    8      -11.772435
    9      -11.302464
   10      -11.179656
   11      -10.984759
   12      -10.738625
   13       -8.122994
   14       -8.084395
   15       -7.685625
   16       -7.432074
   17       -6.712030
   18       -6.618031
   19       -6.483673
   20       -6.432144
   21       -5.679965
   22       -5.634050
   23       -5.154039
   24       -4.802872
   25       -4.441556
   26       -4.154731
   27       -4.036439
   28       -3.994843
   29       -3.935910
   30       -3.825401
   31       -3.700910
   32       -3.646788
   33       -3.536284
   34       -3.321645
   35       -3.194460
   36       -3.048570
   37       -3.012139
   38       -2.903421
   39       -2.859340
   40       -2.637351
   41       -2.338590
   42       -2.270082
   43       -2.164946
   44       -2.088033
   45       -2.010088
   46       -1.898422
   47       -1.837128
   48       -1.700618
   49       -1.589572
   50       -1.431995
   51       -1.156435
   52       -0.973411
   53       -0.729497
   54       -0.207015
   55        1.363795
   56        1.518046
   57        1.756955
   58        2.011389
   59        2.187234
   60        2.267152
   61        2.337525
   62        2.457521
   63        2.567313
   64        2.700817
   65        2.766019
   66        2.989586
   67        3.033450
   68        3.118691
 
  0.2307692E+00 -0.4163336E-16  0.0000000E+00  0.1923077E-01
    1      -13.349518
    2      -12.930775
    3      -12.632799
    4      -12.273474
    5      -12.018975
    6      -11.920924
    7      -11.791240
    8      -11.484729
    9      -11.070539
   10      -10.963002
   11      -10.758874
   12      -10.535685
   13       -8.298432
   14       -8.277563
   15       -7.758777
   16       -7.347859
   17       -6.809047
   18       -6.640666
   19       -6.570134
   20       -6.511606
   21       -5.727388
   22       -5.672972
   23       -5.577388
   24       -5.275453
   25       -4.989469
   26       -4.746611
   27       -4.555092
   28       -4.496070
   29       -4.444701
   30       -4.309173
   31       -4.122859
   32       -4.101870
   33       -3.892883
   34       -3.746418
   35       -3.618051
   36       -3.404292
   37       -3.237215
   38       -3.049682
   39       -2.932631
   40       -2.762367
   41       -2.661469
   42       -2.484787
   43       -2.375937
   44       -2.315598
   45       -2.071057
   46       -1.860837
   47       -1.813932
   48       -1.757087
   49       -1.661718
   50       -1.447911
   51       -1.397374
   52       -1.068410
   53       -0.999388
   54       -0.312717
   55        0.852831
   56        1.194221
   57        1.539005
   58        1.934489
   59        2.014374
   60        2.132221
   61        2.239929
   62        2.330554
   63        2.431543
   64        2.667212
   65        2.738271
   66        2.880122
   67        2.951397
   68        3.032599
 
  0.3076923E+00 -0.5551115E-16  0.0000000E+00  0.1923077E-01
    1      -13.088660
    2      -12.519199
    3      -12.299807
    4      -11.925157
    5      -11.659419
    6      -11.568877
    7      -11.457636
    8      -11.126463
    9      -10.786329
   10      -10.719013
   11      -10.492999
   12      -10.350056
   13       -8.615093
   14       -8.587974
   15       -8.019021
   16       -7.491849
   17       -7.231018
   18       -6.935779
   19       -6.915054
   20       -6.828008
   21       -6.172460
   22       -6.101031
   23       -5.898828
   24       -5.672567
   25       -5.253368
   26       -5.143782
   27       -4.816144
   28       -4.729774
   29       -4.691634
   30       -4.628012
   31       -4.417156
   32       -4.256949
   33       -4.157377
   34       -4.104388
   35       -3.636060
   36       -3.331729
   37       -3.194564
   38       -3.119315
   39       -3.009005
   40       -2.896040
   41       -2.790494
   42       -2.652576
   43       -2.527285
   44       -2.349606
   45       -2.174198
   46       -1.993845
   47       -1.854717
   48       -1.821406
   49       -1.753330
   50       -1.663324
   51       -1.548041
   52       -1.361032
   53       -1.216969
   54       -0.533293
   55        0.450781
   56        0.805186
   57        1.279463
   58        1.584193
   59        1.706505
   60        1.870704
   61        2.034526
   62        2.163035
   63        2.280720
   64        2.424400
   65        2.533868
   66        2.684844
   67        2.756205
   68        2.884191
 
  0.3846154E+00 -0.8326673E-16  0.0000000E+00  0.1923077E-01
    1      -12.851122
    2      -12.011125
    3      -11.872948
    4      -11.506018
    5      -11.248110
    6      -11.175125
    7      -11.125632
    8      -10.783492
    9      -10.565440
   10      -10.541252
   11      -10.390791
   12      -10.301409
   13       -8.950904
   14       -8.765381
   15       -8.311636
   16       -7.958912
   17       -7.707275
   18       -7.402318
   19       -7.372463
   20       -7.347481
   21       -6.794865
   22       -6.697193
   23       -6.595509
   24       -5.792831
   25       -5.303563
   26       -5.147105
   27       -4.758421
   28       -4.642801
   29       -4.551670
   30       -4.462688
   31       -4.416981
   32       -4.168503
   33       -4.092599
   34       -4.004788
   35       -3.702379
   36       -3.591878
   37       -3.359472
   38       -3.205336
   39       -3.115220
   40       -3.035368
   41       -2.868736
   42       -2.728018
   43       -2.594225
   44       -2.401586
   45       -2.365977
   46       -2.208555
   47       -2.021395
   48       -1.965643
   49       -1.898055
   50       -1.779018
   51       -1.656396
   52       -1.522171
   53       -1.299651
   54       -0.782979
   55        0.231710
   56        0.599374
   57        1.029543
   58        1.320457
   59        1.492824
   60        1.773209
   61        1.796364
   62        1.947167
   63        2.117135
   64        2.283819
   65        2.330799
   66        2.361308
   67        2.548534
   68        2.798223
 
  0.4615385E+00 -0.8326673E-16  0.0000000E+00  0.1923077E-01
    1      -12.707546
    2      -11.438445
    3      -11.395750
    4      -11.083331
    5      -11.042638
    6      -10.884467
    7      -10.858303
    8      -10.778570
    9      -10.664141
   10      -10.571065
   11      -10.487781
   12      -10.309055
   13       -8.922506
   14       -8.624911
   15       -8.491857
   16       -8.373889
   17       -8.014243
   18       -7.961300
   19       -7.650221
   20       -7.505882
   21       -7.348884
   22       -7.220142
   23       -7.116744
   24       -5.928726
   25       -5.182789
   26       -4.854279
   27       -4.675531
   28       -4.449003
   29       -4.355018
   30       -4.259350
   31       -4.151243
   32       -4.006285
   33       -3.964375
   34       -3.874559
   35       -3.809378
   36       -3.765613
   37       -3.569468
   38       -3.496910
   39       -3.274573
   40       -3.193195
   41       -2.980713
   42       -2.906884
   43       -2.737448
   44       -2.630176
   45       -2.456237
   46       -2.292381
   47       -2.132578
   48       -2.041941
   49       -1.884982
   50       -1.724727
   51       -1.650597
   52       -1.521274
   53       -1.392002
   54       -0.921030
   55        0.104630
   56        0.536570
   57        0.835510
   58        1.219590
   59        1.433702
   60        1.667307
   61        1.705719
   62        1.762426
   63        1.930489
   64        2.122402
   65        2.164311
   66        2.399804
   67        2.507758
   68        2.620292
 
  0.0000000E+00  0.2500000E+00  0.0000000E+00  0.1923077E-01
    1      -13.725785
    2      -13.420529
    3      -13.184156
    4      -12.911177
    5      -12.515454
    6      -12.403125
    7      -12.146252
    8      -11.806287
    9      -11.523282
   10      -11.415463
   11      -11.175892
   12      -10.934780
   13       -8.455857
   14       -8.394041
   15       -7.346996
   16       -7.161878
   17       -6.759252
   18       -6.606652
   19       -6.565686
   20       -6.477352
   21       -5.731891
   22       -5.663882
   23       -4.788512
   24       -4.581553
   25       -4.150691
   26       -3.961347
   27       -3.783307
   28       -3.471912
   29       -3.305898
   30       -3.065252
   31       -3.044914
   32       -2.930489
   33       -2.779758
   34       -2.644975
   35       -2.524470
   36       -2.446712
   37       -2.371317
   38       -2.323048
   39       -2.292387
   40       -2.096755
   41       -2.005663
   42       -1.926706
   43       -1.890007
   44       -1.817939
   45       -1.662024
   46       -1.564579
   47       -1.404449
   48       -1.328052
   49       -1.298888
   50       -1.111407
   51       -1.018207
   52       -0.956471
   53       -0.628935
   54       -0.156061
   55        0.796945
   56        1.107388
   57        1.261128
   58        1.388787
   59        1.458157
   60        1.612448
   61        1.772775
   62        1.792998
   63        1.912244
   64        2.113624
   65        2.299576
   66        2.387923
   67        2.616799
   68        2.695264
 
  0.7692308E-01  0.2500000E+00  0.0000000E+00  0.1923077E-01
    1      -13.665048
    2      -13.343780
    3      -13.161288
    4      -12.892071
    5      -12.457729
    6      -12.345620
    7      -12.066552
    8      -11.706707
    9      -11.471767
   10      -11.374110
   11      -11.128624
   12      -10.890549
   13       -8.513071
   14       -8.451352
   15       -7.294840
   16       -7.073183
   17       -6.769232
   18       -6.614044
   19       -6.481595
   20       -6.391741
   21       -5.690981
   22       -5.617835
   23       -4.903649
   24       -4.629031
   25       -4.180509
   26       -4.034757
   27       -3.772056
   28       -3.643408
   29       -3.538274
   30       -3.345393
   31       -3.247867
   32       -3.122163
   33       -2.978377
   34       -2.919721
   35       -2.871781
   36       -2.637282
   37       -2.555725
   38       -2.464711
   39       -2.423653
   40       -2.272774
   41       -2.231218
   42       -2.149979
   43       -2.074949
   44       -1.943790
   45       -1.782559
   46       -1.731047
   47       -1.674617
   48       -1.400569
   49       -1.299500
   50       -1.195688
   51       -1.042712
   52       -0.923587
   53       -0.660736
   54       -0.130245
   55        1.107803
   56        1.416696
   57        1.540873
   58        1.682586
   59        1.843903
   60        1.907867
   61        2.004262
   62        2.114627
   63        2.263871
   64        2.427057
   65        2.525594
   66        2.619647
   67        2.723296
   68        2.860512
 
  0.1538462E+00  0.2500000E+00  0.0000000E+00  0.1923077E-01
    1      -13.517172
    2      -13.147549
    3      -13.022166
    4      -12.755590
    5      -12.289178
    6      -12.179323
    7      -11.900707
    8      -11.508979
    9      -11.315669
   10      -11.234663
   11      -10.983859
   12      -10.749424
   13       -8.576680
   14       -8.479816
   15       -7.253555
   16       -6.996098
   17       -6.755769
   18       -6.591532
   19       -6.441713
   20       -6.349196
   21       -5.646849
   22       -5.574871
   23       -5.146118
   24       -4.779921
   25       -4.496524
   26       -4.318925
   27       -4.250981
   28       -4.197184
   29       -3.927713
   30       -3.831799
   31       -3.657108
   32       -3.523852
   33       -3.454957
   34       -3.326442
   35       -3.108301
   36       -3.008772
   37       -2.903418
   38       -2.900156
   39       -2.758202
   40       -2.667135
   41       -2.546333
   42       -2.466576
   43       -2.325699
   44       -2.253523
   45       -2.004757
   46       -1.889758
   47       -1.833303
   48       -1.728769
   49       -1.427287
   50       -1.233893
   51       -1.085970
   52       -0.924285
   53       -0.746387
   54       -0.175689
   55        1.328485
   56        1.539168
   57        1.662710
   58        1.747602
   59        2.059897
   60        2.188274
   61        2.275975
   62        2.435881
   63        2.754470
   64        2.805135
   65        2.931630
   66        3.043321
   67        3.118552
   68        3.132355
 
  0.2307692E+00  0.2500000E+00  0.0000000E+00  0.1923077E-01
    1      -13.304521
    2      -12.836961
    3      -12.761883
    4      -12.504269
    5      -12.016915
    6      -11.912216
    7      -11.664115
    8      -11.232408
    9      -11.069633
   10      -11.012899
   11      -10.753987
   12      -10.532273
   13       -8.706929
   14       -8.535036
   15       -7.330764
   16       -7.055894
   17       -6.835498
   18       -6.632647
   19       -6.598608
   20       -6.572090
   21       -5.778224
   22       -5.713678
   23       -5.401322
   24       -5.145370
   25       -5.002653
   26       -4.961353
   27       -4.678656
   28       -4.600931
   29       -4.491294
   30       -4.399127
   31       -4.031555
   32       -3.971237
   33       -3.876321
   34       -3.674437
   35       -3.454624
   36       -3.269948
   37       -3.145993
   38       -3.028872
   39       -2.953962
   40       -2.821581
   41       -2.644822
   42       -2.572839
   43       -2.465476
   44       -2.378434
   45       -2.165339
   46       -1.923771
   47       -1.880253
   48       -1.749988
   49       -1.700991
   50       -1.410974
   51       -1.328462
   52       -1.031427
   53       -0.971908
   54       -0.321662
   55        0.941954
   56        1.119146
   57        1.295822
   58        1.528091
   59        1.669528
   60        1.961181
   61        2.068524
   62        2.300154
   63        2.607274
   64        2.732123
   65        2.790776
   66        2.947826
   67        3.096696
   68        3.245214
 
  0.3076923E+00  0.2500000E+00  0.0000000E+00  0.1923077E-01
    1      -13.062908
    2      -12.422272
    3      -12.381964
    4      -12.145308
    5      -11.656584
    6      -11.562342
    7      -11.382098
    8      -10.918371
    9      -10.774612
   10      -10.749289
   11      -10.482419
   12      -10.326942
   13       -8.905856
   14       -8.682854
   15       -7.641468
   16       -7.542792
   17       -7.236436
   18       -7.048569
   19       -6.898312
   20       -6.889740
   21       -6.132551
   22       -6.082602
   23       -5.852727
   24       -5.732844
   25       -5.319410
   26       -5.226030
   27       -4.963659
   28       -4.871572
   29       -4.509895
   30       -4.395328
   31       -4.345693
   32       -4.267580
   33       -4.128446
   34       -3.947409
   35       -3.560611
   36       -3.279911
   37       -3.150150
   38       -3.051267
   39       -2.936885
   40       -2.868004
   41       -2.797396
   42       -2.638152
   43       -2.494770
   44       -2.390108
   45       -2.233775
   46       -2.194196
   47       -1.971188
   48       -1.882249
   49       -1.810918
   50       -1.687704
   51       -1.545587
   52       -1.339443
   53       -1.202716
   54       -0.578335
   55        0.462607
   56        0.795097
   57        0.964011
   58        1.291177
   59        1.365712
   60        1.589409
   61        1.938237
   62        2.217538
   63        2.356352
   64        2.513739
   65        2.554401
   66        2.679102
   67        2.816831
   68        3.027201
 
  0.3846154E+00  0.2500000E+00  0.0000000E+00  0.1923077E-01
    1      -12.842414
    2      -11.924229
    3      -11.900369
    4      -11.695412
    5      -11.243911
    6      -11.173425
    7      -11.108748
    8      -10.659800
    9      -10.539572
   10      -10.534052
   11      -10.403327
   12      -10.295269
   13       -8.896204
   14       -8.815082
   15       -8.231856
   16       -8.045037
   17       -7.715455
   18       -7.675788
   19       -7.324790
   20       -7.290379
   21       -6.750075
   22       -6.630570
   23       -6.595819
   24       -5.910649
   25       -5.291265
   26       -5.255707
   27       -4.865377
   28       -4.722987
   29       -4.559710
   30       -4.349979
   31       -4.197406
   32       -4.146609
   33       -4.037926
   34       -3.797269
   35       -3.591425
   36       -3.345108
   37       -3.289580
   38       -3.221066
   39       -3.100463
   40       -3.057018
   41       -2.872904
   42       -2.864830
   43       -2.659834
   44       -2.509821
   45       -2.441638
   46       -2.236072
   47       -2.051699
   48       -2.007538
   49       -1.932346
   50       -1.794224
   51       -1.631558
   52       -1.519870
   53       -1.334257
   54       -0.841763
   55        0.238023
   56        0.532506
   57        0.813795
   58        1.240703
   59        1.296262
   60        1.432170
   61        1.738117
   62        1.881727
   63        2.101093
   64        2.221530
   65        2.352996
   66        2.652754
   67        2.707501
   68        2.791433
 
  0.4615385E+00  0.2500000E+00  0.0000000E+00  0.1923077E-01
    1      -12.706429
    2      -11.401305
    3      -11.362753
    4      -11.200296
    5      -11.049392
    6      -10.893891
    7      -10.868098
    8      -10.796121
    9      -10.635239
   10      -10.516890
   11      -10.489661
   12      -10.296906
   13       -8.844978
   14       -8.593951
   15       -8.490638
   16       -8.335569
   17       -8.261157
   18       -7.879590
   19       -7.731726
   20       -7.451886
   21       -7.310127
   22       -7.248136
   23       -7.077204
   24       -6.026962
   25       -5.133740
   26       -4.955142
   27       -4.657735
   28       -4.419522
   29       -4.345036
   30       -4.199182
   31       -4.108681
   32       -4.078209
   33       -3.960915
   34       -3.867391
   35       -3.789175
   36       -3.597434
   37       -3.577945
   38       -3.422529
   39       -3.246611
   40       -3.198040
   41       -3.085576
   42       -2.929077
   43       -2.645408
   44       -2.584450
   45       -2.540691
   46       -2.427365
   47       -2.095526
   48       -2.059357
   49       -1.922653
   50       -1.701422
   51       -1.659431
   52       -1.509696
   53       -1.383375
   54       -0.935595
   55        0.144281
   56        0.437602
   57        0.768370
   58        1.174329
   59        1.485390
   60        1.574123
   61        1.635121
   62        1.711609
   63        1.848694
   64        2.142556
   65        2.288465
   66        2.384697
   67        2.513830
   68        2.547488
 
 -0.4615385E+00  0.2500000E+00  0.0000000E+00  0.1923077E-01
    1      -12.709618
    2      -11.471192
    3      -11.387453
    4      -11.037423
    5      -11.006635
    6      -10.878585
    7      -10.849213
    8      -10.746677
    9      -10.689925
   10      -10.639270
   11      -10.480833
   12      -10.321868
   13       -9.075859
   14       -8.693085
   15       -8.367770
   16       -8.246893
   17       -8.030987
   18       -7.878525
   19       -7.594876
   20       -7.538326
   21       -7.399951
   22       -7.216181
   23       -7.155065
   24       -6.011951
   25       -5.050129
   26       -4.706591
   27       -4.663073
   28       -4.516406
   29       -4.379273
   30       -4.309755
   31       -4.163200
   32       -4.135093
   33       -3.942224
   34       -3.921873
   35       -3.820341
   36       -3.740270
   37       -3.649310
   38       -3.563897
   39       -3.330340
   40       -3.291352
   41       -3.062462
   42       -2.746993
   43       -2.643837
   44       -2.523206
   45       -2.369422
   46       -2.310944
   47       -2.105576
   48       -2.062120
   49       -1.937254
   50       -1.738043
   51       -1.611305
   52       -1.467416
   53       -1.353484
   54       -0.897291
   55        0.116314
   56        0.466618
   57        0.878630
   58        1.193619
   59        1.445168
   60        1.722496
   61        1.810070
   62        1.867119
   63        1.886285
   64        2.110456
   65        2.244793
   66        2.353614
   67        2.435936
   68        2.606487
 
 -0.3846154E+00  0.2500000E+00  0.0000000E+00  0.1923077E-01
    1      -12.857549
    2      -12.037443
    3      -11.838637
    4      -11.421630
    5      -11.244878
    6      -11.182997
    7      -11.148640
    8      -10.863204
    9      -10.568221
   10      -10.541242
   11      -10.386334
   12      -10.332420
   13       -8.860752
   14       -8.677521
   15       -8.424660
   16       -8.094813
   17       -7.739102
   18       -7.375492
   19       -7.264314
   20       -7.154176
   21       -6.872256
   22       -6.746724
   23       -6.599886
   24       -5.851814
   25       -5.148248
   26       -4.985039
   27       -4.960642
   28       -4.786859
   29       -4.568011
   30       -4.350155
   31       -4.310067
   32       -4.208849
   33       -4.143254
   34       -4.023685
   35       -3.716990
   36       -3.657825
   37       -3.489664
   38       -3.341349
   39       -3.130155
   40       -3.056222
   41       -2.923879
   42       -2.715581
   43       -2.543089
   44       -2.414167
   45       -2.277843
   46       -2.175564
   47       -2.000313
   48       -1.883114
   49       -1.803561
   50       -1.768110
   51       -1.629627
   52       -1.429621
   53       -1.295524
   54       -0.797199
   55        0.192941
   56        0.591390
   57        1.138770
   58        1.292602
   59        1.488286
   60        1.838529
   61        1.964850
   62        2.058142
   63        2.125829
   64        2.192488
   65        2.324924
   66        2.480444
   67        2.509837
   68        2.676065
 
 -0.3076923E+00  0.2500000E+00  0.0000000E+00  0.1923077E-01
    1      -13.096705
    2      -12.531395
    3      -12.264993
    4      -11.883752
    5      -11.658106
    6      -11.571506
    7      -11.494503
    8      -11.172506
    9      -10.782320
   10      -10.710775
   11      -10.513088
   12      -10.356174
   13       -8.490403
   14       -8.347884
   15       -8.120777
   16       -7.934326
   17       -7.237477
   18       -6.935824
   19       -6.807990
   20       -6.637620
   21       -6.238063
   22       -6.093791
   23       -5.907825
   24       -5.625359
   25       -5.171338
   26       -5.083167
   27       -4.948609
   28       -4.827227
   29       -4.688830
   30       -4.579310
   31       -4.403412
   32       -4.251717
   33       -4.190594
   34       -4.096513
   35       -3.619751
   36       -3.392759
   37       -3.241022
   38       -3.146738
   39       -3.013300
   40       -2.932169
   41       -2.776600
   42       -2.637052
   43       -2.577709
   44       -2.363095
   45       -2.126283
   46       -1.959441
   47       -1.819674
   48       -1.800358
   49       -1.741954
   50       -1.647708
   51       -1.443322
   52       -1.346647
   53       -1.237453
   54       -0.599890
   55        0.413396
   56        0.852176
   57        1.443994
   58        1.502070
   59        1.719937
   60        1.989364
   61        2.047493
   62        2.225064
   63        2.310147
   64        2.368986
   65        2.452810
   66        2.733348
   67        2.779687
   68        2.810968
 
 -0.2307692E+00  0.2500000E+00  0.0000000E+00  0.1923077E-01
    1      -13.350863
    2      -12.926504
    3      -12.626171
    4      -12.288143
    5      -12.020488
    6      -11.921650
    7      -11.797324
    8      -11.467566
    9      -11.070084
   10      -10.966710
   11      -10.763358
   12      -10.534336
   13       -8.334968
   14       -8.054214
   15       -7.722199
   16       -7.708001
   17       -6.817091
   18       -6.635891
   19       -6.572140
   20       -6.437171
   21       -5.712066
   22       -5.671343
   23       -5.409444
   24       -5.270523
   25       -4.967761
   26       -4.770535
   27       -4.546324
   28       -4.532515
   29       -4.447329
   30       -4.401531
   31       -4.194233
   32       -4.116799
   33       -3.799902
   34       -3.734814
   35       -3.547798
   36       -3.384719
   37       -3.249248
   38       -3.113959
   39       -2.934603
   40       -2.829110
   41       -2.668152
   42       -2.489685
   43       -2.383908
   44       -2.317206
   45       -2.041517
   46       -1.834120
   47       -1.789471
   48       -1.734013
   49       -1.678946
   50       -1.487826
   51       -1.392857
   52       -1.062694
   53       -0.942171
   54       -0.394748
   55        0.824452
   56        1.188852
   57        1.677575
   58        1.831567
   59        1.928616
   60        2.068383
   61        2.269888
   62        2.391355
   63        2.446607
   64        2.654792
   65        2.783585
   66        2.964826
   67        3.002666
   68        3.032041
 
 -0.1538462E+00  0.2500000E+00  0.0000000E+00  0.1923077E-01
    1      -13.560047
    2      -13.210166
    3      -12.907622
    4      -12.603251
    5      -12.292950
    6      -12.186487
    7      -12.013520
    8      -11.684043
    9      -11.311392
   10      -11.199004
   11      -10.981390
   12      -10.736746
   13       -8.316218
   14       -8.150073
   15       -7.484352
   16       -7.412868
   17       -6.703312
   18       -6.611408
   19       -6.488884
   20       -6.469510
   21       -5.648630
   22       -5.599201
   23       -4.989902
   24       -4.777358
   25       -4.490611
   26       -4.226033
   27       -4.112751
   28       -4.027654
   29       -3.913560
   30       -3.866560
   31       -3.687466
   32       -3.586677
   33       -3.529427
   34       -3.330159
   35       -3.199543
   36       -3.105967
   37       -2.965565
   38       -2.877781
   39       -2.830327
   40       -2.657739
   41       -2.453915
   42       -2.423133
   43       -2.183885
   44       -2.112658
   45       -1.989418
   46       -1.844542
   47       -1.723072
   48       -1.685754
   49       -1.546230
   50       -1.470211
   51       -1.145999
   52       -0.958004
   53       -0.684313
   54       -0.256561
   55        1.309049
   56        1.380169
   57        1.818750
   58        1.899148
   59        2.171534
   60        2.262338
   61        2.411011
   62        2.558268
   63        2.751810
   64        2.766480
   65        2.839862
   66        2.909264
   67        3.024680
   68        3.179192
 
 -0.7692308E-01  0.2500000E+00  0.0000000E+00  0.1923077E-01
    1      -13.690078
    2      -13.375848
    3      -13.097051
    4      -12.813630
    5      -12.460032