 running on    8 total cores
 distrk:  each k-point on    8 cores,    1 groups
 distr:  one band on    2 cores,    4 groups
 using from now: INCAR     
 vasp.5.3.5 31Mar14 (build Oct 29 2014 16:16:03) complex                        
  
 POSCAR found type information on POSCAR  P  Si
 POSCAR found :  2 types and      24 ions
 scaLAPACK will be used

 ----------------------------------------------------------------------------- 
|                                                                             |
|  ADVICE TO THIS USER RUNNING 'VASP/VAMP'   (HEAR YOUR MASTER'S VOICE ...):  |
|                                                                             |
|      You have switched on vdW-DFT.                                          |
|      This routine was written and supplied by Jiri Klimes.                  |
|      We recommed that you carefully read and cite the following             |
|      publication                                                            |
|      J. Klimes, D.R. Bowler, A. Michelides                                  |
|        J. Phys.: Cond Matt. 22 022201 (2010)                                |
|      J. Klimes, D.R. Bowler, A. Michelides                                  |
|        Phys. Rev. B. 83, 195131 (2011)                                      |
|      and references therein.                                                |
|                                                                             |
 ----------------------------------------------------------------------------- 


 ----------------------------------------------------------------------------- 
|                                                                             |
|  ADVICE TO THIS USER RUNNING 'VASP/VAMP'   (HEAR YOUR MASTER'S VOICE ...):  |
|                                                                             |
|      You enforced a specific xc-type in the INCAR file,                     |
|      a different type was found on the POTCAR file                          |
|          I HOPE YOU KNOW, WHAT YOU ARE  DOING                               |
|                                                                             |
 ----------------------------------------------------------------------------- 

 LDA part: xc-table for Pade appr. of Perdew


 VERY BAD NEWS! internal error in subroutine IBZKPT:
 Reciprocal lattice and k-lattice belong to different class of lattices. Often results are still useful...      96


 VERY BAD NEWS! internal error in subroutine IBZKPT:
 Reciprocal lattice and k-lattice belong to different class of lattices. Often results are still useful...      96


 VERY BAD NEWS! internal error in subroutine IBZKPT:
 Reciprocal lattice and k-lattice belong to different class of lattices. Often results are still useful...      96


 VERY BAD NEWS! internal error in subroutine IBZKPT:
 Reciprocal lattice and k-lattice belong to different class of lattices. Often results are still useful...      96


 VERY BAD NEWS! internal error in subroutine IBZKPT:
 Reciprocal lattice and k-lattice belong to different class of lattices. Often results are still useful...      96


 VERY BAD NEWS! internal error in subroutine IBZKPT:
 Reciprocal lattice and k-lattice belong to different class of lattices. Often results are still useful...      96


 VERY BAD NEWS! internal error in subroutine IBZKPT:
 Reciprocal lattice and k-lattice belong to different class of lattices. Often results are still useful...      96


 VERY BAD NEWS! internal error in subroutine IBZKPT:
 Reciprocal lattice and k-lattice belong to different class of lattices. Often results are still useful...      96
 POSCAR, INCAR and KPOINTS ok, starting setup
 WARNING: small aliasing (wrap around) errors must be expected
 FFT: planning ...
 WAVECAR not read
 entering main loop
       N       E                     dE             d eps       ncg     rms          rms(c)
Total vdW correction in eV:     15.9368268
DAV:   1     0.491616524111E+03    0.49162E+03   -0.28647E+04  7352   0.790E+02
DAV:   2    -0.679855689216E+02   -0.55960E+03   -0.54453E+03  9756   0.189E+02
DAV:   3    -0.124589332027E+03   -0.56604E+02   -0.55894E+02  8792   0.623E+01
DAV:   4    -0.127154814077E+03   -0.25655E+01   -0.25538E+01 10952   0.143E+01
DAV:   5    -0.127214028726E+03   -0.59215E-01   -0.59157E-01  9960   0.216E+00    0.114E+01
Total vdW correction in eV:     16.4223032
DAV:   6    -0.124111894054E+03    0.31021E+01   -0.54927E+00  8728   0.663E+00    0.614E+00
Total vdW correction in eV:     16.9942553
DAV:   7    -0.123932912431E+03    0.17898E+00   -0.64017E+00  8568   0.635E+00    0.203E+00
Total vdW correction in eV:     17.0605670
DAV:   8    -0.123833762046E+03    0.99150E-01   -0.77284E-01  8504   0.296E+00    0.966E-01
Total vdW correction in eV:     17.1986042
DAV:   9    -0.123857335001E+03   -0.23573E-01   -0.27267E-01  8824   0.135E+00    0.309E-01
Total vdW correction in eV:     17.2095925
DAV:  10    -0.123845018435E+03    0.12317E-01   -0.16016E-02  9104   0.467E-01    0.140E-01
Total vdW correction in eV:     17.2293044
DAV:  11    -0.123836731335E+03    0.82871E-02   -0.13494E-02  8920   0.301E-01    0.888E-02
Total vdW correction in eV:     17.2322854
DAV:  12    -0.123834142592E+03    0.25887E-02   -0.18672E-03  8736   0.145E-01    0.340E-02
Total vdW correction in eV:     17.2372878
DAV:  13    -0.123832087343E+03    0.20552E-02   -0.78457E-04  8816   0.722E-02    0.146E-02
Total vdW correction in eV:     17.2402354
DAV:  14    -0.123831400435E+03    0.68691E-03   -0.76497E-05 10224   0.225E-02    0.124E-02
Total vdW correction in eV:     17.2431751
DAV:  15    -0.123831155177E+03    0.24526E-03   -0.57125E-05  8984   0.234E-02    0.574E-03
Total vdW correction in eV:     17.2448556
DAV:  16    -0.123831431015E+03   -0.27584E-03   -0.74469E-05  8088   0.198E-02    0.449E-03
Total vdW correction in eV:     17.2453521
DAV:  17    -0.123831775450E+03   -0.34443E-03   -0.14015E-04  8072   0.205E-02    0.205E-03
Total vdW correction in eV:     17.2452072
DAV:  18    -0.123831887716E+03   -0.11227E-03   -0.37589E-05  8024   0.119E-02    0.123E-03
Total vdW correction in eV:     17.2449388
DAV:  19    -0.123831939272E+03   -0.51557E-04   -0.10592E-05  6216   0.720E-03    0.760E-04
Total vdW correction in eV:     17.2447687
DAV:  20    -0.123831927290E+03    0.11983E-04   -0.18444E-05  7232   0.765E-03    0.612E-04
Total vdW correction in eV:     17.2446401
DAV:  21    -0.123831873723E+03    0.53567E-04   -0.16400E-05  6784   0.864E-03    0.307E-04
Total vdW correction in eV:     17.2446296
DAV:  22    -0.123831819464E+03    0.54259E-04   -0.87281E-06  6296   0.809E-03    0.149E-04
Total vdW correction in eV:     17.2446312
DAV:  23    -0.123831800028E+03    0.19436E-04   -0.37223E-06  6064   0.615E-03    0.842E-05
Total vdW correction in eV:     17.2446334
DAV:  24    -0.123831783661E+03    0.16367E-04   -0.62908E-06  6364   0.703E-03    0.388E-05
Total vdW correction in eV:     17.2446356
DAV:  25    -0.123831780423E+03    0.32381E-05   -0.14690E-06  5688   0.473E-03    0.212E-05
Total vdW correction in eV:     17.2446359
DAV:  26    -0.123831776908E+03    0.35151E-05   -0.17538E-06  5720   0.458E-03    0.108E-05
Total vdW correction in eV:     17.2446358
DAV:  27    -0.123831776094E+03    0.81405E-06   -0.61617E-07  5212   0.312E-03
Total vdW correction in eV:     17.2446359
Total vdW correction in eV:     17.2446364
   1 F= -.12383178E+03 E0= -.12383019E+03  d E =-.317318E-02
