<?xml version="1.0" encoding="ISO-8859-1"?>
<modeling>
 <generator>
  <i name="program" type="string">vasp </i>
  <i name="version" type="string">5.3.5  </i>
  <i name="subversion" type="string">31Mar14 (build Oct 29 2014 16:16:03) complex                          parallel </i>
  <i name="platform" type="string">Linux-UFHPC </i>
  <i name="date" type="string">2016 01 29 </i>
  <i name="time" type="string">17:18:07 </i>
 </generator>
 <incar>
  <i type="string" name="PREC">accurate</i>
  <i type="int" name="IBRION">     2</i>
  <i name="EDIFF">      0.00000100</i>
  <i type="int" name="NSW">    50</i>
  <i type="int" name="ISIF">     3</i>
  <i name="ENCUT">    600.00000000</i>
  <i type="string" name="LREAL"> Auto</i>
  <i type="int" name="ISMEAR">     0</i>
  <i name="SIGMA">      0.10000000</i>
  <i type="logical" name="LWAVE"> F  </i>
  <i type="logical" name="LCHARG"> T  </i>
  <i type="logical" name="LAECHG"> T  </i>
  <i type="string" name="GGA"> Bo</i>
  <i name="PARAM1">      0.18333333</i>
  <i name="PARAM2">      0.22000000</i>
  <i type="logical" name="LUSE_VDW"> T  </i>
  <i name="AGGAC">      0.00000000</i>
 </incar>
 <kpoints>
  <generation param="Gamma">
   <v type="int" name="divisions">       8        8        2 </v>
   <v name="usershift">      0.00000000       0.00000000       0.00000000 </v>
   <v name="genvec1">      0.12500000      -0.00000000       0.00000000 </v>
   <v name="genvec2">      0.00000000       0.12500000       0.00000000 </v>
   <v name="genvec3">      0.00000000       0.00000000       0.50000000 </v>
   <v name="shift">      0.00000000       0.00000000       0.00000000 </v>
  </generation>
  <varray name="kpointlist" >
   <v>       0.00000000       0.00000000       0.00000000 </v>
   <v>       0.12500000      -0.00000000       0.00000000 </v>
   <v>       0.25000000      -0.00000000       0.00000000 </v>
   <v>       0.37500000      -0.00000000       0.00000000 </v>
   <v>       0.50000000      -0.00000000       0.00000000 </v>
   <v>       0.12500000       0.12500000       0.00000000 </v>
   <v>       0.25000000       0.12500000       0.00000000 </v>
   <v>       0.37500000       0.12500000       0.00000000 </v>
   <v>       0.25000000       0.25000000       0.00000000 </v>
   <v>       0.37500000       0.25000000       0.00000000 </v>
   <v>       0.00000000       0.00000000       0.50000000 </v>
   <v>       0.12500000      -0.00000000       0.50000000 </v>
   <v>       0.25000000      -0.00000000       0.50000000 </v>
   <v>       0.37500000      -0.00000000       0.50000000 </v>
   <v>       0.50000000      -0.00000000       0.50000000 </v>
   <v>       0.12500000       0.12500000       0.50000000 </v>
   <v>       0.25000000       0.12500000       0.50000000 </v>
   <v>       0.37500000       0.12500000       0.50000000 </v>
   <v>       0.25000000       0.25000000       0.50000000 </v>
   <v>       0.37500000       0.25000000       0.50000000 </v>
  </varray>
  <varray name="weights" >
   <v>       0.00781250 </v>
   <v>       0.04687500 </v>
   <v>       0.04687500 </v>
   <v>       0.04687500 </v>
   <v>       0.02343750 </v>
   <v>       0.04687500 </v>
   <v>       0.09375000 </v>
   <v>       0.09375000 </v>
   <v>       0.04687500 </v>
   <v>       0.04687500 </v>
   <v>       0.00781250 </v>
   <v>       0.04687500 </v>
   <v>       0.04687500 </v>
   <v>       0.04687500 </v>
   <v>       0.02343750 </v>
   <v>       0.04687500 </v>
   <v>       0.09375000 </v>
   <v>       0.09375000 </v>
   <v>       0.04687500 </v>
   <v>       0.04687500 </v>
  </varray>
 </kpoints>
 <parameters>
  <separator name="general" >
   <i type="string" name="SYSTEM"></i>
   <i type="logical" name="LCOMPAT"> F  </i>
  </separator>
  <separator name="electronic" >
   <i type="string" name="PREC">accura</i>
   <i name="ENMAX">    600.00000000</i>
   <i name="ENAUG">    368.79200000</i>
   <i name="EDIFF">      0.00000100</i>
   <i type="int" name="IALGO">    38</i>
   <i type="int" name="IWAVPR">    11</i>
   <i type="int" name="NBANDS">    24</i>
   <i name="NELECT">     36.00000000</i>
   <i type="int" name="TURBO">     0</i>
   <i type="int" name="IRESTART">     0</i>
   <i type="int" name="NREBOOT">     0</i>
   <i type="int" name="NMIN">     0</i>
   <i name="EREF">      0.00000000</i>
   <separator name="electronic smearing" >
    <i type="int" name="ISMEAR">     0</i>
    <i name="SIGMA">      0.10000000</i>
    <i name="KSPACING">      0.50000000</i>
    <i type="logical" name="KGAMMA"> T  </i>
   </separator>
   <separator name="electronic projectors" >
    <i type="logical" name="LREAL"> T  </i>
    <v name="ROPT">     -0.00025000     -0.00025000     -0.00025000</v>
    <i type="int" name="LMAXPAW">  -100</i>
    <i type="int" name="LMAXMIX">     2</i>
    <i type="logical" name="NLSPLINE"> F  </i>
   </separator>
   <separator name="electronic startup" >
    <i type="int" name="ISTART">     0</i>
    <i type="int" name="ICHARG">     2</i>
    <i type="int" name="INIWAV">     1</i>
   </separator>
   <separator name="electronic spin" >
    <i type="int" name="ISPIN">     1</i>
    <i type="logical" name="LNONCOLLINEAR"> F  </i>
    <v name="MAGMOM">      1.00000000      1.00000000      1.00000000      1.00000000      1.00000000      1.00000000</v>
    <i name="NUPDOWN">     -1.00000000</i>
    <i type="logical" name="LSORBIT"> F  </i>
    <v name="SAXIS">      0.00000000      0.00000000      1.00000000</v>
    <i type="logical" name="LSPIRAL"> F  </i>
    <v name="QSPIRAL">      0.00000000      0.00000000      0.00000000</v>
    <i type="logical" name="LZEROZ"> F  </i>
   </separator>
   <separator name="electronic exchange-correlation" >
    <i type="logical" name="LASPH"> F  </i>
    <i type="logical" name="LMETAGGA"> F  </i>
   </separator>
   <separator name="electronic convergence" >
    <i type="int" name="NELM">    60</i>
    <i type="int" name="NELMDL">     0</i>
    <i type="int" name="NELMIN">     2</i>
    <i name="ENINI">    600.00000000</i>
    <separator name="electronic convergence detail" >
     <i type="logical" name="LDIAG"> T  </i>
     <i type="logical" name="LSUBROT"> F  </i>
     <i name="WEIMIN">      0.00100000</i>
     <i name="EBREAK">      0.00000001</i>
     <i name="DEPER">      0.30000000</i>
     <i type="int" name="NRMM">     4</i>
     <i name="TIME">      0.40000000</i>
    </separator>
   </separator>
   <separator name="electronic mixer" >
    <i name="AMIX">      0.40000000</i>
    <i name="BMIX">      1.00000000</i>
    <i name="AMIN">      0.10000000</i>
    <i name="AMIX_MAG">      1.60000000</i>
    <i name="BMIX_MAG">      1.00000000</i>
    <separator name="electronic mixer details" >
     <i type="int" name="IMIX">     4</i>
     <i type="int" name="MAXMIX">   -45</i>
     <i name="WC">    100.00000000</i>
     <i type="int" name="INIMIX">     1</i>
     <i type="int" name="MIXPRE">     1</i>
     <i type="int" name="MREMOVE">     5</i>
    </separator>
   </separator>
   <separator name="electronic dipolcorrection" >
    <i type="logical" name="LDIPOL"> F  </i>
    <i type="logical" name="LMONO"> F  </i>
    <i type="int" name="IDIPOL">     0</i>
    <i name="EPSILON">      1.00000000</i>
    <v name="DIPOL">   -100.00000000   -100.00000000   -100.00000000</v>
    <i name="EFIELD">      0.00000000</i>
   </separator>
  </separator>
  <separator name="grids" >
   <i type="int" name="NGX">    36</i>
   <i type="int" name="NGY">    36</i>
   <i type="int" name="NGZ">   120</i>
   <i type="int" name="NGXF">    72</i>
   <i type="int" name="NGYF">    72</i>
   <i type="int" name="NGZF">   240</i>
   <i type="logical" name="ADDGRID"> F  </i>
  </separator>
  <separator name="ionic" >
   <i type="int" name="NSW">    50</i>
   <i type="int" name="IBRION">     2</i>
   <i type="int" name="ISIF">     3</i>
   <i name="PSTRESS">      0.00000000</i>
   <i name="EDIFFG">      0.00001000</i>
   <i type="int" name="NFREE">     1</i>
   <i name="POTIM">      0.50000000</i>
   <i name="SMASS">     -3.00000000</i>
   <i name="SCALEE">      1.00000000</i>
  </separator>
  <separator name="ionic md" >
   <i name="TEBEG">      0.00010000</i>
   <i name="TEEND">      0.00010000</i>
   <i type="int" name="NBLOCK">     1</i>
   <i type="int" name="KBLOCK">    50</i>
   <i type="int" name="NPACO">   256</i>
   <i name="APACO">     16.00000000</i>
  </separator>
  <separator name="symmetry" >
   <i type="int" name="ISYM">     2</i>
   <i name="SYMPREC">      0.00001000</i>
  </separator>
  <separator name="dos" >
   <i type="logical" name="LORBIT"> F  </i>
   <v name="RWIGS">     -1.00000000     -1.00000000     -1.00000000</v>
   <i type="int" name="NEDOS">   301</i>
   <i name="EMIN">     10.00000000</i>
   <i name="EMAX">    -10.00000000</i>
   <i name="EFERMI">      0.00000000</i>
  </separator>
  <separator name="writing" >
   <i type="int" name="NWRITE">     2</i>
   <i type="logical" name="LWAVE"> F  </i>
   <i type="logical" name="LCHARG"> T  </i>
   <i type="logical" name="LPARD"> F  </i>
   <i type="logical" name="LVTOT"> F  </i>
   <i type="logical" name="LVHAR"> F  </i>
   <i type="logical" name="LELF"> F  </i>
   <i type="logical" name="LOPTICS"> F  </i>
   <v name="STM">      0.00000000      0.00000000      0.00000000      0.00000000      0.00000000      0.00000000      0.00000000</v>
  </separator>
  <separator name="performance" >
   <i type="int" name="NPAR">     4</i>
   <i type="int" name="NSIM">     4</i>
   <i type="int" name="NBLK">    -1</i>
   <i type="logical" name="LPLANE"> T  </i>
   <i type="logical" name="LSCALAPACK"> T  </i>
   <i type="logical" name="LSCAAWARE"> F  </i>
   <i type="logical" name="LSCALU"> F  </i>
   <i type="logical" name="LASYNC"> F  </i>
   <i type="logical" name="LORBITALREAL"> F  </i>
  </separator>
  <separator name="miscellaneous" >
   <i type="int" name="IDIOT">     3</i>
   <i type="logical" name="LMUSIC"> F  </i>
   <v name="POMASS">     35.45300000    127.60000000    208.98000000</v>
   <v name="DARWINR">      0.00000000      0.00000000      0.00000000</v>
   <v name="DARWINV">      1.00000000      1.00000000      1.00000000</v>
   <i type="logical" name="LCORR"> T  </i>
  </separator>
  <i type="logical" name="GGA_COMPAT"> T  </i>
  <i type="logical" name="LBERRY"> F  </i>
  <i type="int" name="ICORELEVEL">     0</i>
  <i type="logical" name="LDAU"> F  </i>
  <i type="int" name="I_CONSTRAINED_M">     0</i>
  <separator name="electronic exchange-correlation" >
   <i type="string" name="GGA">BO</i>
   <i type="int" name="VOSKOWN">     0</i>
   <i type="logical" name="LHFCALC"> F  </i>
   <i type="string" name="PRECFOCK"></i>
   <i type="logical" name="LSYMGRAD"> F  </i>
   <i type="logical" name="LHFONE"> F  </i>
   <i type="logical" name="LRHFCALC"> F  </i>
   <i type="logical" name="LTHOMAS"> F  </i>
   <i type="logical" name="LMODELHF"> F  </i>
   <i name="ENCUT4O">     -1.00000000</i>
   <i type="int" name="EXXOEP">     0</i>
   <i type="int" name="FOURORBIT">     0</i>
   <i name="AEXX">      0.00000000</i>
   <i name="HFALPHA">      0.00000000</i>
   <i name="MCALPHA">      0.00000000</i>
   <i name="ALDAX">      1.00000000</i>
   <i name="AGGAX">      1.00000000</i>
   <i name="ALDAC">      1.00000000</i>
   <i name="AGGAC">      0.00000000</i>
   <i type="int" name="NKREDX">     1</i>
   <i type="int" name="NKREDY">     1</i>
   <i type="int" name="NKREDZ">     1</i>
   <i type="logical" name="SHIFTRED"> F  </i>
   <i type="logical" name="ODDONLY"> F  </i>
   <i type="logical" name="EVENONLY"> F  </i>
   <i type="int" name="LMAXFOCK">     0</i>
   <i type="int" name="NMAXFOCKAE">     0</i>
   <i type="logical" name="LFOCKAEDFT"> F  </i>
   <i name="HFSCREEN">      0.00000000</i>
   <i name="HFSCREENC">      0.00000000</i>
   <i type="int" name="NBANDSGWLOW">     0</i>
  </separator>
  <separator name="vdW DFT" >
   <i type="logical" name="LUSE_VDW"> T  </i>
   <i name="Zab_VDW">     -0.84910000</i>
   <i name="PARAM1">      0.18333333</i>
   <i name="PARAM2">      0.22000000</i>
   <i name="PARAM3">      0.00000000</i>
  </separator>
  <separator name="model GW" >
   <i type="int" name="MODEL_GW">     0</i>
   <i name="MODEL_EPS0">     22.67628009</i>
   <i name="MODEL_ALPHA">      1.00000000</i>
  </separator>
  <separator name="linear response parameters" >
   <i type="logical" name="LEPSILON"> F  </i>
   <i type="logical" name="LRPA"> F  </i>
   <i type="logical" name="LNABLA"> F  </i>
   <i type="logical" name="LVEL"> F  </i>
   <i type="int" name="KINTER">     0</i>
   <i name="CSHIFT">      0.10000000</i>
   <i name="OMEGAMAX">     -1.00000000</i>
   <i name="DEG_THRESHOLD">      0.00200000</i>
  </separator>
  <separator name="orbital magnetization" >
   <i type="logical" name="NUCIND"> F  </i>
   <v name="MAGPOS">      0.00000000      0.00000000      0.00000000</v>
   <i type="logical" name="LNICSALL"> T  </i>
   <i type="logical" name="ORBITALMAG"> F  </i>
   <i type="logical" name="LMAGBLOCH"> F  </i>
   <i type="logical" name="LCHIMAG"> F  </i>
   <i type="logical" name="LGAUGE"> T  </i>
   <i type="int" name="MAGATOM">     0</i>
   <v name="MAGDIPOL">      0.00000000      0.00000000      0.00000000</v>
   <v name="AVECCONST">      0.00000000      0.00000000      0.00000000</v>
  </separator>
  <separator name="response functions" >
   <i type="logical" name="LADDER"> F  </i>
   <i type="logical" name="LFXC"> F  </i>
   <i type="logical" name="LHARTREE"> T  </i>
   <i type="int" name="IBSE">     0</i>
   <i type="logical" name="LTCTE"> F  </i>
   <i type="logical" name="LTETE"> F  </i>
   <i type="logical" name="LTRIPLET"> F  </i>
   <i type="logical" name="LFXCEPS"> F  </i>
   <i type="logical" name="LFXHEG"> F  </i>
   <i type="logical" name="L2ORDER"> F  </i>
   <i type="logical" name="LUSEW"> F  </i>
   <i name="ENCUTGW">     -2.00000000</i>
   <i name="ENCUTGWSOFT">     -2.00000000</i>
   <i name="ENCUTLF">     -1.00000000</i>
   <i type="int" name="LMAXMP2">    -1</i>
   <i name="SCISSOR">      0.00000000</i>
   <i type="int" name="NOMEGA">     0</i>
   <i type="int" name="NOMEGAR">     0</i>
   <i type="int" name="NBANDSGW">    -1</i>
   <i type="int" name="NBANDSO">    -1</i>
   <i type="int" name="NBANDSV">    -1</i>
   <i type="int" name="NELM">     1</i>
   <i type="int" name="DIM">     3</i>
   <i type="int" name="ANTIRES">     0</i>
   <i name="OMEGAMAX">    -30.00000000</i>
   <i name="OMEGAMIN">    -30.00000000</i>
   <i name="OMEGATL">   -200.00000000</i>
   <i type="int" name="OMEGAGRID">     0</i>
   <i name="CSHIFT">     -0.10000000</i>
   <i type="logical" name="SELFENERGY"> F  </i>
   <i type="logical" name="LSPECTRAL"> F  </i>
   <i type="logical" name="ODDONLYGW"> F  </i>
   <i type="logical" name="EVENONLYGW"> F  </i>
   <i type="int" name="NKREDLFX">     1</i>
   <i type="int" name="NKREDLFY">     1</i>
   <i type="int" name="NKREDLFZ">     1</i>
   <i type="int" name="MAXMEM">  1800</i>
   <i type="int" name="TELESCOPE">     0</i>
   <i type="int" name="TAUPAR">     1</i>
  </separator>
  <separator name="External order field" >
   <i name="OFIELD_KAPPA">      0.00000000</i>
   <v name="OFIELD_K">      0.00000000      0.00000000      0.00000000</v>
   <i name="OFIELD_Q6_NEAR">      0.00000000</i>
   <i name="OFIELD_Q6_FAR">      0.00000000</i>
   <i name="OFIELD_A">      0.00000000</i>
  </separator>
 </parameters>
 <atominfo>
  <atoms>       6 </atoms>
  <types>       3 </types>
  <array name="atoms" >
   <dimension dim="1">ion</dimension>
   <field type="string">element</field>
   <field type="int">atomtype</field>
   <set>
    <rc><c>Cl</c><c>   1</c></rc>
    <rc><c>Cl</c><c>   1</c></rc>
    <rc><c>Te</c><c>   2</c></rc>
    <rc><c>Te</c><c>   2</c></rc>
    <rc><c>Bi</c><c>   3</c></rc>
    <rc><c>Bi</c><c>   3</c></rc>
   </set>
  </array>
  <array name="atomtypes" >
   <dimension dim="1">type</dimension>
   <field type="int">atomspertype</field>
   <field type="string">element</field>
   <field>mass</field>
   <field>valence</field>
   <field type="string">pseudopotential</field>
   <set>
    <rc><c>   2</c><c>Cl</c><c>     35.45300000</c><c>      7.00000000</c><c>  PAW_PBE Cl 17Jan2003                  </c></rc>
    <rc><c>   2</c><c>Te</c><c>    127.60000000</c><c>      6.00000000</c><c> PAW_PBE Te 08Apr2002                   </c></rc>
    <rc><c>   2</c><c>Bi</c><c>    208.98000000</c><c>      5.00000000</c><c> PAW_PBE Bi 08Apr2002                   </c></rc>
   </set>
  </array>
 </atominfo>
 <structure name="initialpos" >
  <crystal>
   <varray name="basis" >
    <v>       4.30299300       0.00000000       0.00000000 </v>
    <v>      -2.15149600       3.72650100       0.00000000 </v>
    <v>       0.00000000       0.00000000      14.14164500 </v>
   </varray>
   <i name="volume">    226.76280088 </i>
   <varray name="rec_basis" >
    <v>       0.23239638       0.13417409       0.00000000 </v>
    <v>       0.00000000       0.26834824       0.00000000 </v>
    <v>       0.00000000       0.00000000       0.07071313 </v>
   </varray>
  </crystal>
  <varray name="positions" >
   <v>       0.00000000       0.00000000       0.02032400 </v>
   <v>       0.00000000       0.00000000       0.52032400 </v>
   <v>       0.66666700       0.33333300       0.26130400 </v>
   <v>       0.33333300       0.66666700       0.76130400 </v>
   <v>       0.33333300       0.66666700       0.13647100 </v>
   <v>       0.66666700       0.33333300       0.63647100 </v>
  </varray>
 </structure>
 <calculation>
  <scstep>
   <time name="dav">    3.51    3.51</time>
   <time name="total">   12.56   12.59</time>
   <energy>
    <i name="alphaZ">     14.76374103 </i>
    <i name="ewald">  -1250.66636231 </i>
    <i name="hartreedc">   -305.23551346 </i>
    <i name="XCdc">   -242.54511281 </i>
    <i name="pawpsdc">   1013.36127330 </i>
    <i name="pawaedc">   -693.16006206 </i>
    <i name="eentropy">     -0.01422055 </i>
    <i name="bandstr">    113.34089830 </i>
    <i name="atom">   1574.35203898 </i>
    <i name="e_fr_energy">    224.19668042 </i>
    <i name="e_wo_entrp">    224.21090097 </i>
    <i name="e_0_energy">    224.20379069 </i>
   </energy>
  </scstep>
  <scstep>
   <time name="dav">    4.34    4.34</time>
   <time name="total">    4.34    4.35</time>
   <energy>
    <i name="e_fr_energy">      5.91895503 </i>
    <i name="e_wo_entrp">      5.91895503 </i>
    <i name="e_0_energy">      5.91895503 </i>
   </energy>
  </scstep>
  <scstep>
   <time name="dav">    4.05    4.05</time>
   <time name="total">    4.05    4.06</time>
   <energy>
    <i name="e_fr_energy">    -17.07958502 </i>
    <i name="e_wo_entrp">    -17.07958502 </i>
    <i name="e_0_energy">    -17.07958502 </i>
   </energy>
  </scstep>
  <scstep>
   <time name="dav">    3.75    3.75</time>
   <time name="total">    3.75    3.76</time>
   <energy>
    <i name="e_fr_energy">    -17.64743964 </i>
    <i name="e_wo_entrp">    -17.64743964 </i>
    <i name="e_0_energy">    -17.64743964 </i>
   </energy>
  </scstep>
  <scstep>
   <time name="dav">    3.73    3.74</time>
   <time name="total">    3.99    4.00</time>
   <energy>
    <i name="e_fr_energy">    -17.65488414 </i>
    <i name="e_wo_entrp">    -17.65488414 </i>
    <i name="e_0_energy">    -17.65488414 </i>
   </energy>
  </scstep>
  <scstep>
   <time name="dav">    3.57    3.58</time>
   <time name="total">   11.39   11.40</time>
   <energy>
    <i name="e_fr_energy">    -16.56548105 </i>
    <i name="e_wo_entrp">    -16.56548105 </i>
    <i name="e_0_energy">    -16.56548105 </i>
   </energy>
  </scstep>
  <scstep>
   <time name="dav">    3.55    3.55</time>
   <time name="total">   11.35   11.35</time>
   <energy>
    <i name="e_fr_energy">    -16.52573158 </i>
    <i name="e_wo_entrp">    -16.52573158 </i>
    <i name="e_0_energy">    -16.52573158 </i>
   </energy>
  </scstep>
  <scstep>
   <time name="dav">    3.58    3.58</time>
   <time name="total">   11.37   11.38</time>
   <energy>
    <i name="e_fr_energy">    -16.49993579 </i>
    <i name="e_wo_entrp">    -16.49993579 </i>
    <i name="e_0_energy">    -16.49993579 </i>
   </energy>
  </scstep>
  <scstep>
   <time name="dav">    3.53    3.54</time>
   <time name="total">   11.32   11.33</time>
   <energy>
    <i name="e_fr_energy">    -16.48143449 </i>
    <i name="e_wo_entrp">    -16.48143449 </i>
    <i name="e_0_energy">    -16.48143449 </i>
   </energy>
  </scstep>
  <scstep>
   <time name="dav">    3.27    3.28</time>
   <time name="total">   11.07   11.08</time>
   <energy>
    <i name="e_fr_energy">    -16.48737087 </i>
    <i name="e_wo_entrp">    -16.48737087 </i>
    <i name="e_0_energy">    -16.48737087 </i>
   </energy>
  </scstep>
  <scstep>
   <time name="dav">    3.26    3.26</time>
   <time name="total">   11.08   11.08</time>
   <energy>
    <i name="e_fr_energy">    -16.49072147 </i>
    <i name="e_wo_entrp">    -16.49072147 </i>
    <i name="e_0_energy">    -16.49072147 </i>
   </energy>
  </scstep>
  <scstep>
   <time name="dav">    3.34    3.34</time>
   <time name="total">   11.13   11.13</time>
   <energy>
    <i name="e_fr_energy">    -16.49035325 </i>
    <i name="e_wo_entrp">    -16.49035325 </i>
    <i name="e_0_energy">    -16.49035325 </i>
   </energy>
  </scstep>
  <scstep>
   <time name="dav">    3.42    3.42</time>
   <time name="total">   11.19   11.19</time>
   <energy>
    <i name="e_fr_energy">    -16.49032254 </i>
    <i name="e_wo_entrp">    -16.49032254 </i>
    <i name="e_0_energy">    -16.49032254 </i>
   </energy>
  </scstep>
  <scstep>
   <time name="dav">    1.92    1.92</time>
   <time name="total">    9.69    9.69</time>
   <energy>
    <i name="e_fr_energy">    -16.49031608 </i>
    <i name="e_wo_entrp">    -16.49031608 </i>
    <i name="e_0_energy">    -16.49031608 </i>
   </energy>
  </scstep>
  <scstep>
   <time name="dav">    1.94    1.94</time>
   <time name="total">    9.70    9.71</time>
   <energy>
    <i name="e_fr_energy">    -16.49031434 </i>
    <i name="e_wo_entrp">    -16.49031434 </i>
    <i name="e_0_energy">    -16.49031434 </i>
   </energy>
  </scstep>
  <scstep>
   <time name="dav">    1.94    1.94</time>
   <time name="total">    9.71    9.72</time>
   <energy>
    <i name="e_fr_energy">    -16.49026781 </i>
    <i name="e_wo_entrp">    -16.49026781 </i>
    <i name="e_0_energy">    -16.49026781 </i>
   </energy>
  </scstep>
  <scstep>
   <time name="dav">    1.92    1.92</time>
   <time name="total">    9.69    9.70</time>
   <energy>
    <i name="e_fr_energy">    -16.49028035 </i>
    <i name="e_wo_entrp">    -16.49028035 </i>
    <i name="e_0_energy">    -16.49028035 </i>
   </energy>
  </scstep>
  <scstep>
   <time name="dav">    1.92    1.92</time>
   <time name="total">    9.44    9.45</time>
   <energy>
    <i name="alphaZ">     14.76374103 </i>
    <i name="ewald">  -1250.66636231 </i>
    <i name="hartreedc">   -317.93510836 </i>
    <i name="XCdc">   -240.99890844 </i>
    <i name="pawpsdc">   1061.65584845 </i>
    <i name="pawaedc">   -741.76760290 </i>
    <i name="eentropy">     -0.00000000 </i>
    <i name="bandstr">   -115.89392642 </i>
    <i name="atom">   1574.35203898 </i>
    <i name="e_fr_energy">    -16.49027998 </i>
    <i name="e_wo_entrp">    -16.49027998 </i>
    <i name="e_0_energy">    -16.49027998 </i>
   </energy>
  </scstep>
  <structure>
   <crystal>
    <varray name="basis" >
     <v>       4.30299300       0.00000000       0.00000000 </v>
     <v>      -2.15149600       3.72650100       0.00000000 </v>
     <v>       0.00000000       0.00000000      14.14164500 </v>
    </varray>
    <i name="volume">    226.76280088 </i>
    <varray name="rec_basis" >
     <v>       0.23239638       0.13417409       0.00000000 </v>
     <v>       0.00000000       0.26834824       0.00000000 </v>
     <v>       0.00000000       0.00000000       0.07071313 </v>
    </varray>
   </crystal>
   <varray name="positions" >
    <v>       0.00000000       0.00000000       0.02032400 </v>
    <v>       0.00000000       0.00000000       0.52032400 </v>
    <v>       0.66666700       0.33333300       0.26130400 </v>
    <v>       0.33333300       0.66666700       0.76130400 </v>
    <v>       0.33333300       0.66666700       0.13647100 </v>
    <v>       0.66666700       0.33333300       0.63647100 </v>
   </varray>
  </structure>
  <varray name="forces" >
   <v>      -0.00000000       0.00000000      -0.12571020 </v>
   <v>       0.00000000      -0.00000000      -0.12571020 </v>
   <v>       0.00000000      -0.00000000       0.14237139 </v>
   <v>      -0.00000000       0.00000000       0.14237139 </v>
   <v>      -0.00000000       0.00000000      -0.01666118 </v>
   <v>       0.00000000      -0.00000000      -0.01666118 </v>
  </varray>
  <varray name="stress" >
   <v>      -3.16224393      -0.00000042       0.00000000 </v>
   <v>      -0.00000042      -3.16224351       0.00000000 </v>
   <v>       0.00000000       0.00000000      -5.85861446 </v>
  </varray>
  <energy>
   <i name="e_fr_energy">    -16.49027998 </i>
   <i name="e_wo_entrp">    -16.49027998 </i>
   <i name="e_0_energy">     -0.00000000 </i>
  </energy>
  <time name="totalsc">  191.74  191.89</time>
 </calculation>
 <calculation>
  <scstep>
   <time name="dav">    3.75    3.75</time>
   <time name="total">   11.60   11.60</time>
   <energy>
    <i name="alphaZ">     14.97038454 </i>
    <i name="ewald">  -1258.90064477 </i>
    <i name="hartreedc">   -317.35058921 </i>
    <i name="XCdc">   -240.80312069 </i>
    <i name="pawpsdc">   1061.65634633 </i>
    <i name="pawaedc">   -741.76810263 </i>
    <i name="eentropy">     -0.00000000 </i>
    <i name="bandstr">   -108.68331579 </i>
    <i name="atom">   1574.35203898 </i>
    <i name="e_fr_energy">    -16.52700325 </i>
    <i name="e_wo_entrp">    -16.52700325 </i>
    <i name="e_0_energy">    -16.52700325 </i>
   </energy>
  </scstep>
  <scstep>
   <time name="dav">    3.54    3.54</time>
   <time name="total">   11.41   11.42</time>
   <energy>
    <i name="e_fr_energy">    -16.50030479 </i>
    <i name="e_wo_entrp">    -16.50030479 </i>
    <i name="e_0_energy">    -16.50030479 </i>
   </energy>
  </scstep>
  <scstep>
   <time name="dav">    3.02    3.02</time>
   <time name="total">   10.82   10.84</time>
   <energy>
    <i name="e_fr_energy">    -16.49461614 </i>
    <i name="e_wo_entrp">    -16.49461614 </i>
    <i name="e_0_energy">    -16.49461614 </i>
   </energy>
  </scstep>
  <scstep>
   <time name="dav">    3.42    3.42</time>
   <time name="total">   11.23   11.23</time>
   <energy>
    <i name="e_fr_energy">    -16.49660083 </i>
    <i name="e_wo_entrp">    -16.49660083 </i>
    <i name="e_0_energy">    -16.49660083 </i>
   </energy>
  </scstep>
  <scstep>
   <time name="dav">    3.17    3.17</time>
   <time name="total">   10.98   10.99</time>
   <energy>
    <i name="e_fr_energy">    -16.49789697 </i>
    <i name="e_wo_entrp">    -16.49789697 </i>
    <i name="e_0_energy">    -16.49789697 </i>
   </energy>
  </scstep>
  <scstep>
   <time name="dav">    3.69    3.69</time>
   <time name="total">   11.49   11.50</time>
   <energy>
    <i name="e_fr_energy">    -16.49850500 </i>
    <i name="e_wo_entrp">    -16.49850500 </i>
    <i name="e_0_energy">    -16.49850500 </i>
   </energy>
  </scstep>
  <scstep>
   <time name="dav">    3.13    3.13</time>
   <time name="total">   10.94   10.95</time>
   <energy>
    <i name="e_fr_energy">    -16.49959507 </i>
    <i name="e_wo_entrp">    -16.49959507 </i>
    <i name="e_0_energy">    -16.49959507 </i>
   </energy>
  </scstep>
  <scstep>
   <time name="dav">    1.99    1.99</time>
   <time name="total">    9.80    9.80</time>
   <energy>
    <i name="e_fr_energy">    -16.50006669 </i>
    <i name="e_wo_entrp">    -16.50006669 </i>
    <i name="e_0_energy">    -16.50006669 </i>
   </energy>
  </scstep>
  <scstep>
   <time name="dav">    1.98    1.98</time>
   <time name="total">    9.79    9.79</time>
   <energy>
    <i name="e_fr_energy">    -16.50007686 </i>
    <i name="e_wo_entrp">    -16.50007686 </i>
    <i name="e_0_energy">    -16.50007686 </i>
   </energy>
  </scstep>
  <scstep>
   <time name="dav">    1.96    1.96</time>
   <time name="total">    9.77    9.78</time>
   <energy>
    <i name="e_fr_energy">    -16.50005371 </i>
    <i name="e_wo_entrp">    -16.50005371 </i>
    <i name="e_0_energy">    -16.50005371 </i>
   </energy>
  </scstep>
  <scstep>
   <time name="dav">    1.94    1.94</time>
   <time name="total">    9.76    9.77</time>
   <energy>
    <i name="e_fr_energy">    -16.50003681 </i>
    <i name="e_wo_entrp">    -16.50003681 </i>
    <i name="e_0_energy">    -16.50003681 </i>
   </energy>
  </scstep>
  <scstep>
   <time name="dav">    1.94    1.94</time>
   <time name="total">    9.76    9.76</time>
   <energy>
    <i name="e_fr_energy">    -16.50003832 </i>
    <i name="e_wo_entrp">    -16.50003832 </i>
    <i name="e_0_energy">    -16.50003832 </i>
   </energy>
  </scstep>
  <scstep>
   <time name="dav">    1.97    1.97</time>
   <time name="total">    9.79    9.79</time>
   <energy>
    <i name="e_fr_energy">    -16.50004327 </i>
    <i name="e_wo_entrp">    -16.50004327 </i>
    <i name="e_0_energy">    -16.50004327 </i>
   </energy>
  </scstep>
  <scstep>
   <time name="dav">    1.98    1.98</time>
   <time name="total">    9.80    9.80</time>
   <energy>
    <i name="e_fr_energy">    -16.50004491 </i>
    <i name="e_wo_entrp">    -16.50004491 </i>
    <i name="e_0_energy">    -16.50004491 </i>
   </energy>
  </scstep>
  <scstep>
   <time name="dav">    1.99    1.99</time>
   <time name="total">    9.56    9.56</time>
   <energy>
    <i name="alphaZ">     14.97038454 </i>
    <i name="ewald">  -1258.90064477 </i>
    <i name="hartreedc">   -313.43380687 </i>
    <i name="XCdc">   -240.91321836 </i>
    <i name="pawpsdc">   1063.21044976 </i>
    <i name="pawaedc">   -743.34846239 </i>
    <i name="eentropy">     -0.00000000 </i>
    <i name="bandstr">   -112.43678530 </i>
    <i name="atom">   1574.35203898 </i>
    <i name="e_fr_energy">    -16.50004441 </i>
    <i name="e_wo_entrp">    -16.50004441 </i>
    <i name="e_0_energy">    -16.50004441 </i>
   </energy>
  </scstep>
  <structure>
   <crystal>
    <varray name="basis" >
     <v>       4.28750814      -0.00000000       0.00000000 </v>
     <v>      -2.14375358       3.71309072       0.00000000 </v>
     <v>       0.00000000       0.00000000      14.04736143 </v>
    </varray>
    <i name="volume">    223.63268356 </i>
    <varray name="rec_basis" >
     <v>       0.23323571       0.13465868       0.00000000 </v>
     <v>       0.00000000       0.26931742       0.00000000 </v>
     <v>       0.00000000       0.00000000       0.07118775 </v>
    </varray>
   </crystal>
   <varray name="positions" >
    <v>      -0.00000000       0.00000000       0.01989515 </v>
    <v>      -0.00000000      -0.00000000       0.51989515 </v>
    <v>       0.66666700       0.33333300       0.26178968 </v>
    <v>       0.33333300       0.66666700       0.76178968 </v>
    <v>       0.33333300       0.66666700       0.13641416 </v>
    <v>       0.66666700       0.33333300       0.63641416 </v>
   </varray>
  </structure>
  <varray name="forces" >
   <v>       0.00000000       0.00000000      -0.18407173 </v>
   <v>       0.00000000       0.00000000      -0.18407173 </v>
   <v>       0.00000000      -0.00000000       0.22422798 </v>
   <v>      -0.00000000       0.00000000       0.22422798 </v>
   <v>       0.00000000       0.00000000      -0.04015624 </v>
   <v>      -0.00000000      -0.00000000      -0.04015624 </v>
  </varray>
  <varray name="stress" >
   <v>       0.91981107       0.00000012      -0.00000000 </v>
   <v>       0.00000012       0.91981094       0.00000000 </v>
   <v>       0.00000000       0.00000000      -2.62160920 </v>
  </varray>
  <energy>
   <i name="e_fr_energy">    -16.50004441 </i>
   <i name="e_wo_entrp">    -16.50004441 </i>
   <i name="e_0_energy">     -0.00000000 </i>
  </energy>
  <time name="totalsc">  177.18  177.28</time>
 </calculation>
 <calculation>
  <scstep>
   <time name="dav">    3.06    3.07</time>
   <time name="total">   10.92   10.92</time>
   <energy>
    <i name="alphaZ">     15.16275182 </i>
    <i name="ewald">  -1266.46763481 </i>
    <i name="hartreedc">   -312.90934286 </i>
    <i name="XCdc">   -240.73328070 </i>
    <i name="pawpsdc">   1063.21037403 </i>
    <i name="pawaedc">   -743.34838375 </i>
    <i name="eentropy">     -0.00000000 </i>
    <i name="bandstr">   -105.79273091 </i>
    <i name="atom">   1574.35203898 </i>
    <i name="e_fr_energy">    -16.52620820 </i>
    <i name="e_wo_entrp">    -16.52620820 </i>
    <i name="e_0_energy">    -16.52620820 </i>
   </energy>
  </scstep>
  <scstep>
   <time name="dav">    3.14    3.14</time>
   <time name="total">   10.99   10.99</time>
   <energy>
    <i name="e_fr_energy">    -16.50350080 </i>
    <i name="e_wo_entrp">    -16.50350080 </i>
    <i name="e_0_energy">    -16.50350080 </i>
   </energy>
  </scstep>
  <scstep>
   <time name="dav">    4.26    4.26</time>
   <time name="total">   12.22   12.22</time>
   <energy>
    <i name="e_fr_energy">    -16.49853755 </i>
    <i name="e_wo_entrp">    -16.49853755 </i>
    <i name="e_0_energy">    -16.49853755 </i>
   </energy>
  </scstep>
  <scstep>
   <time name="dav">    5.38    5.38</time>
   <time name="total">   13.50   13.51</time>
   <energy>
    <i name="e_fr_energy">    -16.50042936 </i>
    <i name="e_wo_entrp">    -16.50042936 </i>
    <i name="e_0_energy">    -16.50042936 </i>
   </energy>
  </scstep>
  <scstep>
   <time name="dav">    4.47    4.47</time>
   <time name="total">   12.50   12.50</time>
   <energy>
    <i name="e_fr_energy">    -16.50162978 </i>
    <i name="e_wo_entrp">    -16.50162978 </i>
    <i name="e_0_energy">    -16.50162978 </i>
   </energy>
  </scstep>
  <scstep>
   <time name="dav">    4.91    4.91</time>
   <time name="total">   12.90   12.90</time>
   <energy>
    <i name="e_fr_energy">    -16.50218840 </i>
    <i name="e_wo_entrp">    -16.50218840 </i>
    <i name="e_0_energy">    -16.50218840 </i>
   </energy>
  </scstep>
  <scstep>
   <time name="dav">    3.92    3.92</time>
   <time name="total">   11.89   11.89</time>
   <energy>
    <i name="e_fr_energy">    -16.50318222 </i>
    <i name="e_wo_entrp">    -16.50318222 </i>
    <i name="e_0_energy">    -16.50318222 </i>
   </energy>
  </scstep>
  <scstep>
   <time name="dav">    2.26    2.26</time>
   <time name="total">   10.15   10.16</time>
   <energy>
    <i name="e_fr_energy">    -16.50361631 </i>
    <i name="e_wo_entrp">    -16.50361631 </i>
    <i name="e_0_energy">    -16.50361631 </i>
   </energy>
  </scstep>
  <scstep>
   <time name="dav">    2.16    2.16</time>
   <time name="total">   10.04   10.04</time>
   <energy>
    <i name="e_fr_energy">    -16.50362513 </i>
    <i name="e_wo_entrp">    -16.50362513 </i>
    <i name="e_0_energy">    -16.50362513 </i>
   </energy>
  </scstep>
  <scstep>
   <time name="dav">    2.19    2.19</time>
   <time name="total">   10.07   10.08</time>
   <energy>
    <i name="e_fr_energy">    -16.50360413 </i>
    <i name="e_wo_entrp">    -16.50360413 </i>
    <i name="e_0_energy">    -16.50360413 </i>
   </energy>
  </scstep>
  <scstep>
   <time name="dav">    2.15    2.15</time>
   <time name="total">   10.01   10.02</time>
   <energy>
    <i name="e_fr_energy">    -16.50358960 </i>
    <i name="e_wo_entrp">    -16.50358960 </i>
    <i name="e_0_energy">    -16.50358960 </i>
   </energy>
  </scstep>
  <scstep>
   <time name="dav">    2.10    2.10</time>
   <time name="total">    9.96    9.97</time>
   <energy>
    <i name="e_fr_energy">    -16.50359115 </i>
    <i name="e_wo_entrp">    -16.50359115 </i>
    <i name="e_0_energy">    -16.50359115 </i>
   </energy>
  </scstep>
  <scstep>
   <time name="dav">    2.13    2.13</time>
   <time name="total">    9.99   10.00</time>
   <energy>
    <i name="e_fr_energy">    -16.50359567 </i>
    <i name="e_wo_entrp">    -16.50359567 </i>
    <i name="e_0_energy">    -16.50359567 </i>
   </energy>
  </scstep>
  <scstep>
   <time name="dav">    2.14    2.14</time>
   <time name="total">   10.01   10.01</time>
   <energy>
    <i name="e_fr_energy">    -16.50359733 </i>
    <i name="e_wo_entrp">    -16.50359733 </i>
    <i name="e_0_energy">    -16.50359733 </i>
   </energy>
  </scstep>
  <scstep>
   <time name="dav">    2.14    2.14</time>
   <time name="total">    9.74    9.75</time>
   <energy>
    <i name="alphaZ">     15.16275182 </i>
    <i name="ewald">  -1266.46763481 </i>
    <i name="hartreedc">   -309.33532676 </i>
    <i name="XCdc">   -240.83351599 </i>
    <i name="pawpsdc">   1064.67639712 </i>
    <i name="pawaedc">   -744.83917398 </i>
    <i name="eentropy">     -0.00000000 </i>
    <i name="bandstr">   -109.21913330 </i>
    <i name="atom">   1574.35203898 </i>
    <i name="e_fr_energy">    -16.50359691 </i>
    <i name="e_wo_entrp">    -16.50359691 </i>
    <i name="e_0_energy">    -16.50359691 </i>
   </energy>
  </scstep>
  <structure>
   <crystal>
    <varray name="basis" >
     <v>       4.27335330      -0.00000000       0.00000000 </v>
     <v>      -2.13667616       3.70083228       0.00000000 </v>
     <v>       0.00000000       0.00000000      13.96117600 </v>
    </varray>
    <i name="volume">    220.79549332 </i>
    <varray name="rec_basis" >
     <v>       0.23400827       0.13510471       0.00000000 </v>
     <v>       0.00000000       0.27020949       0.00000000 </v>
     <v>       0.00000000       0.00000000       0.07162720 </v>
    </varray>
   </crystal>
   <varray name="positions" >
    <v>      -0.00000000       0.00000000       0.01950051 </v>
    <v>      -0.00000000      -0.00000000       0.51950051 </v>
    <v>       0.66666700       0.33333300       0.26223663 </v>
    <v>       0.33333300       0.66666700       0.76223663 </v>
    <v>       0.33333300       0.66666700       0.13636186 </v>
    <v>       0.66666700       0.33333300       0.63636186 </v>
   </varray>
  </structure>
  <varray name="forces" >
   <v>       0.00000000       0.00000000      -0.24087029 </v>
   <v>       0.00000000       0.00000000      -0.24087029 </v>
   <v>       0.00000000      -0.00000000       0.31026275 </v>
   <v>      -0.00000000       0.00000000       0.31026275 </v>
   <v>      -0.00000000       0.00000000      -0.06939246 </v>
   <v>       0.00000000      -0.00000000      -0.06939246 </v>
  </varray>
  <varray name="stress" >
   <v>       5.12049629       0.00000068       0.00000000 </v>
   <v>       0.00000068       5.12049561       0.00000000 </v>
   <v>       0.00000000      -0.00000000       0.92504379 </v>
  </varray>
  <energy>
   <i name="e_fr_energy">    -16.50359691 </i>
   <i name="e_wo_entrp">    -16.50359691 </i>
   <i name="e_0_energy">     -0.00000000 </i>
  </energy>
  <time name="totalsc">  186.28  186.37</time>
 </calculation>
 <calculation>
  <scstep>
   <time name="dav">    3.35    3.35</time>
   <time name="total">   11.19   11.19</time>
   <energy>
    <i name="alphaZ">     15.20353658 </i>
    <i name="ewald">  -1269.47624956 </i>
    <i name="hartreedc">   -308.02158908 </i>
    <i name="XCdc">   -240.81546277 </i>
    <i name="pawpsdc">   1064.67632189 </i>
    <i name="pawaedc">   -744.83909595 </i>
    <i name="eentropy">     -0.00000000 </i>
    <i name="bandstr">   -107.58916464 </i>
    <i name="atom">   1574.35203898 </i>
    <i name="e_fr_energy">    -16.50966455 </i>
    <i name="e_wo_entrp">    -16.50966455 </i>
    <i name="e_0_energy">    -16.50966455 </i>
   </energy>
  </scstep>
  <scstep>
   <time name="dav">    3.44    3.44</time>
   <time name="total">   11.30   11.30</time>
   <energy>
    <i name="e_fr_energy">    -16.50860871 </i>
    <i name="e_wo_entrp">    -16.50860871 </i>
    <i name="e_0_energy">    -16.50860871 </i>
   </energy>
  </scstep>
  <scstep>
   <time name="dav">    3.47    3.47</time>
   <time name="total">   11.34   11.35</time>
   <energy>
    <i name="e_fr_energy">    -16.50807197 </i>
    <i name="e_wo_entrp">    -16.50807197 </i>
    <i name="e_0_energy">    -16.50807197 </i>
   </energy>
  </scstep>
  <scstep>
   <time name="dav">    3.79    3.79</time>
   <time name="total">   11.68   11.69</time>
   <energy>
    <i name="e_fr_energy">    -16.50843327 </i>
    <i name="e_wo_entrp">    -16.50843327 </i>
    <i name="e_0_energy">    -16.50843327 </i>
   </energy>
  </scstep>
  <scstep>
   <time name="dav">    3.93    3.93</time>
   <time name="total">   11.85   11.85</time>
   <energy>
    <i name="e_fr_energy">    -16.50876009 </i>
    <i name="e_wo_entrp">    -16.50876009 </i>
    <i name="e_0_energy">    -16.50876009 </i>
   </energy>
  </scstep>
  <scstep>
   <time name="dav">    3.46    3.46</time>
   <time name="total">   11.38   11.39</time>
   <energy>
    <i name="e_fr_energy">    -16.50892714 </i>
    <i name="e_wo_entrp">    -16.50892714 </i>
    <i name="e_0_energy">    -16.50892714 </i>
   </energy>
  </scstep>
  <scstep>
   <time name="dav">    2.29    2.29</time>
   <time name="total">   10.22   10.22</time>
   <energy>
    <i name="e_fr_energy">    -16.50916790 </i>
    <i name="e_wo_entrp">    -16.50916790 </i>
    <i name="e_0_energy">    -16.50916790 </i>
   </energy>
  </scstep>
  <scstep>
   <time name="dav">    2.30    2.31</time>
   <time name="total">   10.24   10.25</time>
   <energy>
    <i name="e_fr_energy">    -16.50919087 </i>
    <i name="e_wo_entrp">    -16.50919087 </i>
    <i name="e_0_energy">    -16.50919087 </i>
   </energy>
  </scstep>
  <scstep>
   <time name="dav">    2.31    2.31</time>
   <time name="total">   10.24   10.24</time>
   <energy>
    <i name="e_fr_energy">    -16.50919712 </i>
    <i name="e_wo_entrp">    -16.50919712 </i>
    <i name="e_0_energy">    -16.50919712 </i>
   </energy>
  </scstep>
  <scstep>
   <time name="dav">    2.28    2.28</time>
   <time name="total">   10.21   10.22</time>
   <energy>
    <i name="e_fr_energy">    -16.50920151 </i>
    <i name="e_wo_entrp">    -16.50920151 </i>
    <i name="e_0_energy">    -16.50920151 </i>
   </energy>
  </scstep>
  <scstep>
   <time name="dav">    2.29    2.29</time>
   <time name="total">   10.22   10.23</time>
   <energy>
    <i name="e_fr_energy">    -16.50919884 </i>
    <i name="e_wo_entrp">    -16.50919884 </i>
    <i name="e_0_energy">    -16.50919884 </i>
   </energy>
  </scstep>
  <scstep>
   <time name="dav">    2.28    2.28</time>
   <time name="total">   10.22   10.22</time>
   <energy>
    <i name="e_fr_energy">    -16.50919995 </i>
    <i name="e_wo_entrp">    -16.50919995 </i>
    <i name="e_0_energy">    -16.50919995 </i>
   </energy>
  </scstep>
  <scstep>
   <time name="dav">    2.32    2.32</time>
   <time name="total">    9.98    9.98</time>
   <energy>
    <i name="alphaZ">     15.20353658 </i>
    <i name="ewald">  -1269.47624956 </i>
    <i name="hartreedc">   -307.19282649 </i>
    <i name="XCdc">   -240.83524456 </i>
    <i name="pawpsdc">   1064.59741530 </i>
    <i name="pawaedc">   -744.75883723 </i>
    <i name="eentropy">     -0.00000000 </i>
    <i name="bandstr">   -108.39903387 </i>
    <i name="atom">   1574.35203898 </i>
    <i name="e_fr_energy">    -16.50920085 </i>
    <i name="e_wo_entrp">    -16.50920085 </i>
    <i name="e_0_energy">    -16.50920085 </i>
   </energy>
  </scstep>
  <structure>
   <crystal>
    <varray name="basis" >
     <v>       4.27260881      -0.00000000      -0.00000000 </v>
     <v>      -2.13630391       3.70018753       0.00000000 </v>
     <v>       0.00000000      -0.00000000      13.92857672 </v>
    </varray>
    <i name="volume">    220.20319087 </i>
    <varray name="rec_basis" >
     <v>       0.23404904       0.13512826       0.00000000 </v>
     <v>       0.00000000       0.27025657       0.00000000 </v>
     <v>      -0.00000000      -0.00000000       0.07179484 </v>
    </varray>
   </crystal>
   <varray name="positions" >
    <v>      -0.00000000       0.00000000       0.01915766 </v>
    <v>      -0.00000000      -0.00000000       0.51915766 </v>
    <v>       0.66666700       0.33333300       0.26265238 </v>
    <v>       0.33333300       0.66666700       0.76265238 </v>
    <v>       0.33333300       0.66666700       0.13628896 </v>
    <v>       0.66666700       0.33333300       0.63628896 </v>
   </varray>
  </structure>
  <varray name="forces" >
   <v>       0.00000000      -0.00000000      -0.24242817 </v>
   <v>       0.00000000      -0.00000000      -0.24242817 </v>
   <v>       0.00000000      -0.00000000       0.29241852 </v>
   <v>      -0.00000000       0.00000000       0.29241852 </v>
   <v>      -0.00000000      -0.00000000      -0.04999035 </v>
   <v>       0.00000000       0.00000000      -0.04999035 </v>
  </varray>
  <varray name="stress" >
   <v>       5.01558620       0.00000066       0.00000000 </v>
   <v>       0.00000066       5.01558554       0.00000000 </v>
   <v>       0.00000000       0.00000000       0.46300283 </v>
  </varray>
  <energy>
   <i name="e_fr_energy">    -16.50920085 </i>
   <i name="e_wo_entrp">    -16.50920085 </i>
   <i name="e_0_energy">     -0.00000000 </i>
  </energy>
  <time name="totalsc">  161.88  161.98</time>
 </calculation>
 <calculation>
  <scstep>
   <time name="dav">    3.64    3.64</time>
   <time name="total">   11.58   11.59</time>
   <energy>
    <i name="alphaZ">     15.32706118 </i>
    <i name="ewald">  -1278.36624955 </i>
    <i name="hartreedc">   -303.38726092 </i>
    <i name="XCdc">   -240.78066048 </i>
    <i name="pawpsdc">   1064.59738694 </i>
    <i name="pawaedc">   -744.75881060 </i>
    <i name="eentropy">     -0.00000000 </i>
    <i name="bandstr">   -103.51377946 </i>
    <i name="atom">   1574.35203898 </i>
    <i name="e_fr_energy">    -16.53027391 </i>
    <i name="e_wo_entrp">    -16.53027391 </i>
    <i name="e_0_energy">    -16.53027391 </i>
   </energy>
  </scstep>
  <scstep>
   <time name="dav">    3.46    3.46</time>
   <time name="total">   11.40   11.40</time>
   <energy>
    <i name="e_fr_energy">    -16.52501856 </i>
    <i name="e_wo_entrp">    -16.52501856 </i>
    <i name="e_0_energy">    -16.52501856 </i>
   </energy>
  </scstep>
  <scstep>
   <time name="dav">    3.36    3.36</time>
   <time name="total">   11.30   11.31</time>
   <energy>
    <i name="e_fr_energy">    -16.52182791 </i>
    <i name="e_wo_entrp">    -16.52182791 </i>
    <i name="e_0_energy">    -16.52182791 </i>
   </energy>
  </scstep>
  <scstep>
   <time name="dav">    3.50    3.50</time>
   <time name="total">   11.44   11.44</time>
   <energy>
    <i name="e_fr_energy">    -16.52258769 </i>
    <i name="e_wo_entrp">    -16.52258769 </i>
    <i name="e_0_energy">    -16.52258769 </i>
   </energy>
  </scstep>
  <scstep>
   <time name="dav">    3.58    3.58</time>
   <time name="total">   11.53   11.54</time>
   <energy>
    <i name="e_fr_energy">    -16.52358314 </i>
    <i name="e_wo_entrp">    -16.52358314 </i>
    <i name="e_0_energy">    -16.52358314 </i>
   </energy>
  </scstep>
  <scstep>
   <time name="dav">    4.25    4.26</time>
   <time name="total">   12.21   12.21</time>
   <energy>
    <i name="e_fr_energy">    -16.52410158 </i>
    <i name="e_wo_entrp">    -16.52410158 </i>
    <i name="e_0_energy">    -16.52410158 </i>
   </energy>
  </scstep>
  <scstep>
   <time name="dav">    3.70    3.70</time>
   <time name="total">   11.66   11.67</time>
   <energy>
    <i name="e_fr_energy">    -16.52480028 </i>
    <i name="e_wo_entrp">    -16.52480028 </i>
    <i name="e_0_energy">    -16.52480028 </i>
   </energy>
  </scstep>
  <scstep>
   <time name="dav">    3.67    3.67</time>
   <time name="total">   11.63   11.64</time>
   <energy>
    <i name="e_fr_energy">    -16.52490017 </i>
    <i name="e_wo_entrp">    -16.52490017 </i>
    <i name="e_0_energy">    -16.52490017 </i>
   </energy>
  </scstep>
  <scstep>
   <time name="dav">    2.25    2.26</time>
   <time name="total">   10.23   10.23</time>
   <energy>
    <i name="e_fr_energy">    -16.52494458 </i>
    <i name="e_wo_entrp">    -16.52494458 </i>
    <i name="e_0_energy">    -16.52494458 </i>
   </energy>
  </scstep>
  <scstep>
   <time name="dav">    2.33    2.33</time>
   <time name="total">   10.29   10.30</time>
   <energy>
    <i name="e_fr_energy">    -16.52493921 </i>
    <i name="e_wo_entrp">    -16.52493921 </i>
    <i name="e_0_energy">    -16.52493921 </i>
   </energy>
  </scstep>
  <scstep>
   <time name="dav">    2.33    2.33</time>
   <time name="total">   10.28   10.29</time>
   <energy>
    <i name="e_fr_energy">    -16.52493485 </i>
    <i name="e_wo_entrp">    -16.52493485 </i>
    <i name="e_0_energy">    -16.52493485 </i>
   </energy>
  </scstep>
  <scstep>
   <time name="dav">    2.30    2.30</time>
   <time name="total">   10.00   10.01</time>
   <energy>
    <i name="alphaZ">     15.32706118 </i>
    <i name="ewald">  -1278.36624955 </i>
    <i name="hartreedc">   -300.91985890 </i>
    <i name="XCdc">   -240.83934383 </i>
    <i name="pawpsdc">   1064.37970623 </i>
    <i name="pawaedc">   -744.53731905 </i>
    <i name="eentropy">     -0.00000000 </i>
    <i name="bandstr">   -105.92096901 </i>
    <i name="atom">   1574.35203898 </i>
    <i name="e_fr_energy">    -16.52493396 </i>
    <i name="e_wo_entrp">    -16.52493396 </i>
    <i name="e_0_energy">    -16.52493396 </i>
   </energy>
  </scstep>
  <structure>
   <crystal>
    <varray name="basis" >
     <v>       4.27037535      -0.00000000      -0.00000000 </v>
     <v>      -2.13518718       3.69825329       0.00000000 </v>
     <v>       0.00000000      -0.00000000      13.83077889 </v>
    </varray>
    <i name="volume">    218.42851866 </i>
    <varray name="rec_basis" >
     <v>       0.23417145       0.13519893       0.00000000 </v>
     <v>       0.00000000       0.27039792       0.00000000 </v>
     <v>      -0.00000000      -0.00000000       0.07230251 </v>
    </varray>
   </crystal>
   <varray name="positions" >
    <v>      -0.00000000       0.00000000       0.01812672 </v>
    <v>       0.00000000      -0.00000000       0.51812672 </v>
    <v>       0.66666700       0.33333300       0.26390254 </v>
    <v>       0.33333300       0.66666700       0.76390254 </v>
    <v>       0.33333300       0.66666700       0.13606974 </v>
    <v>       0.66666700       0.33333300       0.63606974 </v>
   </varray>
  </structure>
  <varray name="forces" >
   <v>       0.00000000      -0.00000000      -0.24952368 </v>
   <v>      -0.00000000      -0.00000000      -0.24952368 </v>
   <v>      -0.00000000      -0.00000000       0.24814018 </v>
   <v>       0.00000000      -0.00000000       0.24814018 </v>
   <v>       0.00000000      -0.00000000       0.00138350 </v>
   <v>      -0.00000000       0.00000000       0.00138350 </v>
  </varray>
  <varray name="stress" >
   <v>       5.08604448       0.00000067       0.00000000 </v>
   <v>       0.00000067       5.08604381      -0.00000000 </v>
   <v>       0.00000000       0.00000000      -0.08018770 </v>
  </varray>
  <energy>
   <i name="e_fr_energy">    -16.52493396 </i>
   <i name="e_wo_entrp">    -16.52493396 </i>
   <i name="e_0_energy">     -0.00000000 </i>
  </energy>
  <time name="totalsc">  155.53  155.60</time>
 </calculation>
 <calculation>
  <scstep>
   <time name="dav">    3.64    3.64</time>
   <time name="total">   11.63   11.64</time>
   <energy>
    <i name="alphaZ">     15.57950282 </i>
    <i name="ewald">  -1295.55574705 </i>
    <i name="hartreedc">   -293.90629801 </i>
    <i name="XCdc">   -240.72744234 </i>
    <i name="pawpsdc">   1064.37957017 </i>
    <i name="pawaedc">   -744.53718838 </i>
    <i name="eentropy">     -0.00000000 </i>
    <i name="bandstr">    -96.16112860 </i>
    <i name="atom">   1574.35203898 </i>
    <i name="e_fr_energy">    -16.57669242 </i>
    <i name="e_wo_entrp">    -16.57669242 </i>
    <i name="e_0_energy">    -16.57669242 </i>
   </energy>
  </scstep>
  <scstep>
   <time name="dav">    3.68    3.68</time>
   <time name="total">   11.66   11.67</time>
   <energy>
    <i name="e_fr_energy">    -16.55881841 </i>
    <i name="e_wo_entrp">    -16.55881841 </i>
    <i name="e_0_energy">    -16.55881841 </i>
   </energy>
  </scstep>
  <scstep>
   <time name="dav">    3.43    3.43</time>
   <time name="total">   11.41   11.41</time>
   <energy>
    <i name="e_fr_energy">    -16.54777279 </i>
    <i name="e_wo_entrp">    -16.54777279 </i>
    <i name="e_0_energy">    -16.54777279 </i>
   </energy>
  </scstep>
  <scstep>
   <time name="dav">    3.57    3.57</time>
   <time name="total">   11.54   11.54</time>
   <energy>
    <i name="e_fr_energy">    -16.54850500 </i>
    <i name="e_wo_entrp">    -16.54850500 </i>
    <i name="e_0_energy">    -16.54850500 </i>
   </energy>
  </scstep>
  <scstep>
   <time name="dav">    3.52    3.52</time>
   <time name="total">   11.49   11.49</time>
   <energy>
    <i name="e_fr_energy">    -16.55055531 </i>
    <i name="e_wo_entrp">    -16.55055531 </i>
    <i name="e_0_energy">    -16.55055531 </i>
   </energy>
  </scstep>
  <scstep>
   <time name="dav">    4.09    4.09</time>
   <time name="total">   12.07   12.08</time>
   <energy>
    <i name="e_fr_energy">    -16.55166058 </i>
    <i name="e_wo_entrp">    -16.55166058 </i>
    <i name="e_0_energy">    -16.55166058 </i>
   </energy>
  </scstep>
  <scstep>
   <time name="dav">    3.47    3.47</time>
   <time name="total">   11.43   11.44</time>
   <energy>
    <i name="e_fr_energy">    -16.55299679 </i>
    <i name="e_wo_entrp">    -16.55299679 </i>
    <i name="e_0_energy">    -16.55299679 </i>
   </energy>
  </scstep>
  <scstep>
   <time name="dav">    3.51    3.51</time>
   <time name="total">   11.47   11.48</time>
   <energy>
    <i name="e_fr_energy">    -16.55328584 </i>
    <i name="e_wo_entrp">    -16.55328584 </i>
    <i name="e_0_energy">    -16.55328584 </i>
   </energy>
  </scstep>
  <scstep>
   <time name="dav">    3.11    3.11</time>
   <time name="total">   11.09   11.09</time>
   <energy>
    <i name="e_fr_energy">    -16.55336456 </i>
    <i name="e_wo_entrp">    -16.55336455 </i>
    <i name="e_0_energy">    -16.55336455 </i>
   </energy>
  </scstep>
  <scstep>
   <time name="dav">    2.24    2.24</time>
   <time name="total">   10.22   10.22</time>
   <energy>
    <i name="e_fr_energy">    -16.55336264 </i>
    <i name="e_wo_entrp">    -16.55336264 </i>
    <i name="e_0_energy">    -16.55336264 </i>
   </energy>
  </scstep>
  <scstep>
   <time name="dav">    2.28    2.28</time>
   <time name="total">   10.27   10.27</time>
   <energy>
    <i name="e_fr_energy">    -16.55335695 </i>
    <i name="e_wo_entrp">    -16.55335695 </i>
    <i name="e_0_energy">    -16.55335695 </i>
   </energy>
  </scstep>
  <scstep>
   <time name="dav">    2.30    2.30</time>
   <time name="total">   10.29   10.29</time>
   <energy>
    <i name="e_fr_energy">    -16.55335341 </i>
    <i name="e_wo_entrp">    -16.55335341 </i>
    <i name="e_0_energy">    -16.55335341 </i>
   </energy>
  </scstep>
  <scstep>
   <time name="dav">    2.35    2.35</time>
   <time name="total">   10.08   10.09</time>
   <energy>
    <i name="alphaZ">     15.57950282 </i>
    <i name="ewald">  -1295.55574705 </i>
    <i name="hartreedc">   -289.04920663 </i>
    <i name="XCdc">   -240.84230612 </i>
    <i name="pawpsdc">   1063.99463358 </i>
    <i name="pawaedc">   -744.14567111 </i>
    <i name="eentropy">     -0.00000000 </i>
    <i name="bandstr">   -100.88659729 </i>
    <i name="atom">   1574.35203898 </i>
    <i name="e_fr_energy">    -16.55335281 </i>
    <i name="e_wo_entrp">    -16.55335281 </i>
    <i name="e_0_energy">    -16.55335281 </i>
   </energy>
  </scstep>
  <structure>
   <crystal>
    <varray name="basis" >
     <v>       4.26590842      -0.00000001      -0.00000000 </v>
     <v>      -2.13295372       3.69438482       0.00000000 </v>
     <v>       0.00000000      -0.00000000      13.63518323 </v>
    </varray>
    <i name="volume">    214.88922382 </i>
    <varray name="rec_basis" >
     <v>       0.23441666       0.13534050       0.00000000 </v>
     <v>       0.00000000       0.27068106       0.00000000 </v>
     <v>      -0.00000000      -0.00000000       0.07333968 </v>
    </varray>
   </crystal>
   <varray name="positions" >
    <v>      -0.00000000       0.00000000       0.01605025 </v>
    <v>       0.00000000      -0.00000000       0.51605025 </v>
    <v>       0.66666700       0.33333300       0.26642055 </v>
    <v>       0.33333300       0.66666700       0.76642055 </v>
    <v>       0.33333300       0.66666700       0.13562820 </v>
    <v>       0.66666700       0.33333300       0.63562820 </v>
   </varray>
  </structure>
  <varray name="forces" >
   <v>       0.00000000      -0.00000000      -0.25499428 </v>
   <v>       0.00000000      -0.00000000      -0.25499428 </v>
   <v>      -0.00000000       0.00000000       0.14143027 </v>
   <v>       0.00000000      -0.00000000       0.14143027 </v>
   <v>       0.00000000      -0.00000000       0.11356400 </v>
   <v>      -0.00000000       0.00000000       0.11356400 </v>
  </varray>
  <varray name="stress" >
   <v>       4.82530369       0.00000064       0.00000000 </v>
   <v>       0.00000064       4.82530305       0.00000000 </v>
   <v>      -0.00000000       0.00000000      -1.44711316 </v>
  </varray>
  <energy>
   <i name="e_fr_energy">    -16.55335281 </i>
   <i name="e_wo_entrp">    -16.55335281 </i>
   <i name="e_0_energy">     -0.00000000 </i>
  </energy>
  <time name="totalsc">  166.72  166.79</time>
 </calculation>
 <calculation>
  <scstep>
   <time name="dav">    3.74    3.74</time>
   <time name="total">   11.79   11.80</time>
   <energy>
    <i name="alphaZ">     16.10707242 </i>
    <i name="ewald">  -1327.61621481 </i>
    <i name="hartreedc">   -277.36973844 </i>
    <i name="XCdc">   -240.60530950 </i>
    <i name="pawpsdc">   1063.99507516 </i>
    <i name="pawaedc">   -744.14612994 </i>
    <i name="eentropy">     -0.00000000 </i>
    <i name="bandstr">    -81.40956329 </i>
    <i name="atom">   1574.35203898 </i>
    <i name="e_fr_energy">    -16.69276943 </i>
    <i name="e_wo_entrp">    -16.69276943 </i>
    <i name="e_0_energy">    -16.69276943 </i>
   </energy>
  </scstep>
  <scstep>
   <time name="dav">    3.88    3.88</time>
   <time name="total">   11.94   11.95</time>
   <energy>
    <i name="e_fr_energy">    -16.62122852 </i>
    <i name="e_wo_entrp">    -16.62122852 </i>
    <i name="e_0_energy">    -16.62122852 </i>
   </energy>
  </scstep>
  <scstep>
   <time name="dav">    3.73    3.73</time>
   <time name="total">   11.78   11.78</time>
   <energy>
    <i name="e_fr_energy">    -16.58066622 </i>
    <i name="e_wo_entrp">    -16.58066622 </i>
    <i name="e_0_energy">    -16.58066622 </i>
   </energy>
  </scstep>
  <scstep>
   <time name="dav">    4.04    4.04</time>
   <time name="total">   12.10   12.11</time>
   <energy>
    <i name="e_fr_energy">    -16.57992952 </i>
    <i name="e_wo_entrp">    -16.57992952 </i>
    <i name="e_0_energy">    -16.57992952 </i>
   </energy>
  </scstep>
  <scstep>
   <time name="dav">    3.85    3.86</time>
   <time name="total">   11.90   11.91</time>
   <energy>
    <i name="e_fr_energy">    -16.58420621 </i>
    <i name="e_wo_entrp">    -16.58420621 </i>
    <i name="e_0_energy">    -16.58420621 </i>
   </energy>
  </scstep>
  <scstep>
   <time name="dav">    4.68    4.68</time>
   <time name="total">   12.73   12.73</time>
   <energy>
    <i name="e_fr_energy">    -16.58673717 </i>
    <i name="e_wo_entrp">    -16.58673717 </i>
    <i name="e_0_energy">    -16.58673717 </i>
   </energy>
  </scstep>
  <scstep>
   <time name="dav">    4.07    4.07</time>
   <time name="total">   12.10   12.10</time>
   <energy>
    <i name="e_fr_energy">    -16.58920743 </i>
    <i name="e_wo_entrp">    -16.58920743 </i>
    <i name="e_0_energy">    -16.58920743 </i>
   </energy>
  </scstep>
  <scstep>
   <time name="dav">    3.90    3.90</time>
   <time name="total">   11.93   11.93</time>
   <energy>
    <i name="e_fr_energy">    -16.59014488 </i>
    <i name="e_wo_entrp">    -16.59014488 </i>
    <i name="e_0_energy">    -16.59014488 </i>
   </energy>
  </scstep>
  <scstep>
   <time name="dav">    3.46    3.46</time>
   <time name="total">   11.47   11.48</time>
   <energy>
    <i name="e_fr_energy">    -16.59025423 </i>
    <i name="e_wo_entrp">    -16.59025423 </i>
    <i name="e_0_energy">    -16.59025423 </i>
   </energy>
  </scstep>
  <scstep>
   <time name="dav">    2.21    2.21</time>
   <time name="total">   10.24   10.24</time>
   <energy>
    <i name="e_fr_energy">    -16.59027042 </i>
    <i name="e_wo_entrp">    -16.59027042 </i>
    <i name="e_0_energy">    -16.59027042 </i>
   </energy>
  </scstep>
  <scstep>
   <time name="dav">    2.20    2.20</time>
   <time name="total">   10.24   10.25</time>
   <energy>
    <i name="e_fr_energy">    -16.59026443 </i>
    <i name="e_wo_entrp">    -16.59026443 </i>
    <i name="e_0_energy">    -16.59026443 </i>
   </energy>
  </scstep>
  <scstep>
   <time name="dav">    2.17    2.17</time>
   <time name="total">   10.21   10.22</time>
   <energy>
    <i name="e_fr_energy">    -16.59025183 </i>
    <i name="e_wo_entrp">    -16.59025183 </i>
    <i name="e_0_energy">    -16.59025183 </i>
   </energy>
  </scstep>
  <scstep>
   <time name="dav">    2.29    2.29</time>
   <time name="total">   10.31   10.32</time>
   <energy>
    <i name="e_fr_energy">    -16.59025351 </i>
    <i name="e_wo_entrp">    -16.59025351 </i>
    <i name="e_0_energy">    -16.59025351 </i>
   </energy>
  </scstep>
  <scstep>
   <time name="dav">    2.33    2.33</time>
   <time name="total">   10.37   10.37</time>
   <energy>
    <i name="e_fr_energy">    -16.59025609 </i>
    <i name="e_wo_entrp">    -16.59025609 </i>
    <i name="e_0_energy">    -16.59025609 </i>
   </energy>
  </scstep>
  <scstep>
   <time name="dav">    2.33    2.33</time>
   <time name="total">   10.11   10.12</time>
   <energy>
    <i name="alphaZ">     16.10707242 </i>
    <i name="ewald">  -1327.61621481 </i>
    <i name="hartreedc">   -267.97949151 </i>
    <i name="XCdc">   -240.82492185 </i>
    <i name="pawpsdc">   1063.54705502 </i>
    <i name="pawaedc">   -743.68973389 </i>
    <i name="eentropy">     -0.00000000 </i>
    <i name="bandstr">    -90.48606009 </i>
    <i name="atom">   1574.35203898 </i>
    <i name="e_fr_energy">    -16.59025573 </i>
    <i name="e_wo_entrp">    -16.59025573 </i>
    <i name="e_0_energy">    -16.59025573 </i>
   </energy>
  </scstep>
  <structure>
   <crystal>
    <varray name="basis" >
     <v>       4.25697456      -0.00000001      -0.00000000 </v>
     <v>      -2.12848679       3.68664788       0.00000000 </v>
     <v>       0.00000000      -0.00000000      13.24399190 </v>
    </varray>
    <i name="volume">    207.85076150 </i>
    <varray name="rec_basis" >
     <v>       0.23490862       0.13562453       0.00000000 </v>
     <v>       0.00000000       0.27124912       0.00000000 </v>
     <v>      -0.00000000      -0.00000000       0.07550594 </v>
    </varray>
   </crystal>
   <varray name="positions" >
    <v>      -0.00000000       0.00000000       0.01183774 </v>
    <v>       0.00000000      -0.00000000       0.51183774 </v>
    <v>       0.66666700       0.33333300       0.27152880 </v>
    <v>       0.33333300       0.66666700       0.77152880 </v>
    <v>       0.33333300       0.66666700       0.13473246 </v>
    <v>       0.66666700       0.33333300       0.63473246 </v>
   </varray>
  </structure>
  <varray name="forces" >
   <v>       0.00000000       0.00000000      -0.26610380 </v>
   <v>       0.00000000       0.00000000      -0.26610380 </v>
   <v>       0.00000000      -0.00000000      -0.07091267 </v>
   <v>      -0.00000000       0.00000000      -0.07091267 </v>
   <v>      -0.00000000       0.00000000       0.33701647 </v>
   <v>       0.00000000      -0.00000000       0.33701647 </v>
  </varray>
  <varray name="stress" >
   <v>       5.06816941       0.00000066       0.00000000 </v>
   <v>       0.00000066       5.06816874       0.00000000 </v>
   <v>       0.00000000       0.00000000      -3.63709670 </v>
  </varray>
  <energy>
   <i name="e_fr_energy">    -16.59025573 </i>
   <i name="e_wo_entrp">    -16.59025573 </i>
   <i name="e_0_energy">     -0.00000000 </i>
  </energy>
  <time name="totalsc">  191.65  191.75</time>
 </calculation>
 <calculation>
  <scstep>
   <time name="dav">    3.88    3.88</time>
   <time name="total">   12.14   12.14</time>
   <energy>
    <i name="alphaZ">     17.26294044 </i>
    <i name="ewald">  -1382.94996115 </i>
    <i name="hartreedc">   -253.53877355 </i>
    <i name="XCdc">   -240.27491111 </i>
    <i name="pawpsdc">   1063.54692737 </i>
    <i name="pawaedc">   -743.68960569 </i>
    <i name="eentropy">     -0.00000000 </i>
    <i name="bandstr">    -51.70454981 </i>
    <i name="atom">   1574.35203898 </i>
    <i name="e_fr_energy">    -16.99589452 </i>
    <i name="e_wo_entrp">    -16.99589452 </i>
    <i name="e_0_energy">    -16.99589452 </i>
   </energy>
  </scstep>
  <scstep>
   <time name="dav">    3.97    3.97</time>
   <time name="total">   12.22   12.23</time>
   <energy>
    <i name="e_fr_energy">    -16.68765442 </i>
    <i name="e_wo_entrp">    -16.68765442 </i>
    <i name="e_0_energy">    -16.68765442 </i>
   </energy>
  </scstep>
  <scstep>
   <time name="dav">    3.91    3.91</time>
   <time name="total">   12.16   12.17</time>
   <energy>
    <i name="e_fr_energy">    -16.53683796 </i>
    <i name="e_wo_entrp">    -16.53683796 </i>
    <i name="e_0_energy">    -16.53683796 </i>
   </energy>
  </scstep>
  <scstep>
   <time name="dav">    4.05    4.05</time>
   <time name="total">   12.29   12.30</time>
   <energy>
    <i name="e_fr_energy">    -16.53339284 </i>
    <i name="e_wo_entrp">    -16.53339284 </i>
    <i name="e_0_energy">    -16.53339284 </i>
   </energy>
  </scstep>
  <scstep>
   <time name="dav">    3.93    3.93</time>
   <time name="total">   12.18   12.19</time>
   <energy>
    <i name="e_fr_energy">    -16.54205498 </i>
    <i name="e_wo_entrp">    -16.54205498 </i>
    <i name="e_0_energy">    -16.54205498 </i>
   </energy>
  </scstep>
  <scstep>
   <time name="dav">    4.66    4.66</time>
   <time name="total">   12.92   12.92</time>
   <energy>
    <i name="e_fr_energy">    -16.54858100 </i>
    <i name="e_wo_entrp">    -16.54858100 </i>
    <i name="e_0_energy">    -16.54858100 </i>
   </energy>
  </scstep>
  <scstep>
   <time name="dav">    4.33    4.33</time>
   <time name="total">   12.58   12.59</time>
   <energy>
    <i name="e_fr_energy">    -16.55380394 </i>
    <i name="e_wo_entrp">    -16.55380394 </i>
    <i name="e_0_energy">    -16.55380394 </i>
   </energy>
  </scstep>
  <scstep>
   <time name="dav">    3.90    3.90</time>
   <time name="total">   12.14   12.14</time>
   <energy>
    <i name="e_fr_energy">    -16.55590793 </i>
    <i name="e_wo_entrp">    -16.55590793 </i>
    <i name="e_0_energy">    -16.55590793 </i>
   </energy>
  </scstep>
  <scstep>
   <time name="dav">    3.85    3.85</time>
   <time name="total">   12.09   12.09</time>
   <energy>
    <i name="e_fr_energy">    -16.55621306 </i>
    <i name="e_wo_entrp">    -16.55621306 </i>
    <i name="e_0_energy">    -16.55621306 </i>
   </energy>
  </scstep>
  <scstep>
   <time name="dav">    3.84    3.84</time>
   <time name="total">   12.09   12.09</time>
   <energy>
    <i name="e_fr_energy">    -16.55622357 </i>
    <i name="e_wo_entrp">    -16.55622357 </i>
    <i name="e_0_energy">    -16.55622357 </i>
   </energy>
  </scstep>
  <scstep>
   <time name="dav">    2.46    2.46</time>
   <time name="total">   10.72   10.98</time>
   <energy>
    <i name="e_fr_energy">    -16.55619806 </i>
    <i name="e_wo_entrp">    -16.55619806 </i>
    <i name="e_0_energy">    -16.55619806 </i>
   </energy>
  </scstep>
  <scstep>
   <time name="dav">    2.44    2.44</time>
   <time name="total">   10.69   10.70</time>
   <energy>
    <i name="e_fr_energy">    -16.55617942 </i>
    <i name="e_wo_entrp">    -16.55617942 </i>
    <i name="e_0_energy">    -16.55617942 </i>
   </energy>
  </scstep>
  <scstep>
   <time name="dav">    2.46    2.46</time>
   <time name="total">   10.70   10.71</time>
   <energy>
    <i name="e_fr_energy">    -16.55617711 </i>
    <i name="e_wo_entrp">    -16.55617711 </i>
    <i name="e_0_energy">    -16.55617711 </i>
   </energy>
  </scstep>
  <scstep>
   <time name="dav">    2.49    2.49</time>
   <time name="total">   10.47   10.48</time>
   <energy>
    <i name="alphaZ">     17.26294044 </i>
    <i name="ewald">  -1382.94996115 </i>
    <i name="hartreedc">   -236.11045917 </i>
    <i name="XCdc">   -240.67072342 </i>
    <i name="pawpsdc">   1064.04414707 </i>
    <i name="pawaedc">   -744.19227225 </i>
    <i name="eentropy">     -0.00000000 </i>
    <i name="bandstr">    -68.29188718 </i>
    <i name="atom">   1574.35203898 </i>
    <i name="e_fr_energy">    -16.55617668 </i>
    <i name="e_wo_entrp">    -16.55617668 </i>
    <i name="e_0_energy">    -16.55617668 </i>
   </energy>
  </scstep>
  <structure>
   <crystal>
    <varray name="basis" >
     <v>       4.23910685      -0.00000001      -0.00000000 </v>
     <v>      -2.11955294       3.67117399       0.00000000 </v>
     <v>       0.00000000      -0.00000000      12.46160924 </v>
    </varray>
    <i name="volume">    193.93377850 </i>
    <varray name="rec_basis" >
     <v>       0.23589875       0.13619618       0.00000000 </v>
     <v>       0.00000000       0.27239243       0.00000000 </v>
     <v>      -0.00000000      -0.00000000       0.08024646 </v>
    </varray>
   </crystal>
   <varray name="positions" >
    <v>      -0.00000000       0.00000000       0.00316386 </v>
    <v>       0.00000000      -0.00000000       0.50316386 </v>
    <v>       0.66666700       0.33333300       0.28204707 </v>
    <v>       0.33333300       0.66666700       0.78204707 </v>
    <v>       0.33333300       0.66666700       0.13288807 </v>
    <v>       0.66666700       0.33333300       0.63288807 </v>
   </varray>
  </structure>
  <varray name="forces" >
   <v>      -0.00000000       0.00000000      -0.23873828 </v>
   <v>       0.00000000      -0.00000000      -0.23873828 </v>
   <v>       0.00000000       0.00000000      -0.52341912 </v>
   <v>      -0.00000000      -0.00000000      -0.52341912 </v>
   <v>      -0.00000000       0.00000000       0.76215740 </v>
   <v>       0.00000000      -0.00000000       0.76215740 </v>
  </varray>
  <varray name="stress" >
   <v>      10.93274659       0.00000142       0.00000000 </v>
   <v>       0.00000142      10.93274516       0.00000000 </v>
   <v>       0.00000000       0.00000000       0.56473046 </v>
  </varray>
  <energy>
   <i name="e_fr_energy">    -16.55617668 </i>
   <i name="e_wo_entrp">    -16.55617668 </i>
   <i name="e_0_energy">     -0.00000000 </i>
  </energy>
  <time name="totalsc">  188.41  188.74</time>
 </calculation>
 <calculation>
  <scstep>
   <time name="dav">    3.82    3.83</time>
   <time name="total">   11.94   11.94</time>
   <energy>
    <i name="alphaZ">     16.37469439 </i>
    <i name="ewald">  -1340.99379134 </i>
    <i name="hartreedc">   -246.32074025 </i>
    <i name="XCdc">   -241.14113542 </i>
    <i name="pawpsdc">   1064.04417139 </i>
    <i name="pawaedc">   -744.19229944 </i>
    <i name="eentropy">     -0.00000000 </i>
    <i name="bandstr">    -98.89392424 </i>
    <i name="atom">   1574.35203898 </i>
    <i name="e_fr_energy">    -16.77098592 </i>
    <i name="e_wo_entrp">    -16.77098592 </i>
    <i name="e_0_energy">    -16.77098592 </i>
   </energy>
  </scstep>
  <scstep>
   <time name="dav">    4.13    4.13</time>
   <time name="total">   12.23   12.23</time>
   <energy>
    <i name="e_fr_energy">    -16.72116595 </i>
    <i name="e_wo_entrp">    -16.72116595 </i>
    <i name="e_0_energy">    -16.72116595 </i>
   </energy>
  </scstep>
  <scstep>
   <time name="dav">    3.87    3.87</time>
   <time name="total">   11.98   11.99</time>
   <energy>
    <i name="e_fr_energy">    -16.63851612 </i>
    <i name="e_wo_entrp">    -16.63851612 </i>
    <i name="e_0_energy">    -16.63851612 </i>
   </energy>
  </scstep>
  <scstep>
   <time name="dav">    4.20    4.20</time>
   <time name="total">   12.30   12.30</time>
   <energy>
    <i name="e_fr_energy">    -16.61092128 </i>
    <i name="e_wo_entrp">    -16.61092128 </i>
    <i name="e_0_energy">    -16.61092128 </i>
   </energy>
  </scstep>
  <scstep>
   <time name="dav">    4.16    4.16</time>
   <time name="total">   12.27   12.28</time>
   <energy>
    <i name="e_fr_energy">    -16.60527762 </i>
    <i name="e_wo_entrp">    -16.60527762 </i>
    <i name="e_0_energy">    -16.60527762 </i>
   </energy>
  </scstep>
  <scstep>
   <time name="dav">    4.30    4.32</time>
   <time name="total">   12.41   12.43</time>
   <energy>
    <i name="e_fr_energy">    -16.60239762 </i>
    <i name="e_wo_entrp">    -16.60239762 </i>
    <i name="e_0_energy">    -16.60239762 </i>
   </energy>
  </scstep>
  <scstep>
   <time name="dav">    4.14    4.14</time>
   <time name="total">   12.25   12.25</time>
   <energy>
    <i name="e_fr_energy">    -16.59929680 </i>
    <i name="e_wo_entrp">    -16.59929680 </i>
    <i name="e_0_energy">    -16.59929680 </i>
   </energy>
  </scstep>
  <scstep>
   <time name="dav">    4.06    4.06</time>
   <time name="total">   12.17   12.17</time>
   <energy>
    <i name="e_fr_energy">    -16.59727899 </i>
    <i name="e_wo_entrp">    -16.59727899 </i>
    <i name="e_0_energy">    -16.59727899 </i>
   </energy>
  </scstep>
  <scstep>
   <time name="dav">    4.00    4.00</time>
   <time name="total">   12.12   12.12</time>
   <energy>
    <i name="e_fr_energy">    -16.59719577 </i>
    <i name="e_wo_entrp">    -16.59719577 </i>
    <i name="e_0_energy">    -16.59719577 </i>
   </energy>
  </scstep>
  <scstep>
   <time name="dav">    3.83    3.84</time>
   <time name="total">   11.95   11.96</time>
   <energy>
    <i name="e_fr_energy">    -16.59729398 </i>
    <i name="e_wo_entrp">    -16.59729398 </i>
    <i name="e_0_energy">    -16.59729398 </i>
   </energy>
  </scstep>
  <scstep>
   <time name="dav">    2.47    2.47</time>
   <time name="total">   10.59   10.60</time>
   <energy>
    <i name="e_fr_energy">    -16.59734883 </i>
    <i name="e_wo_entrp">    -16.59734883 </i>
    <i name="e_0_energy">    -16.59734883 </i>
   </energy>
  </scstep>
  <scstep>
   <time name="dav">    2.49    2.50</time>
   <time name="total">   10.61   10.62</time>
   <energy>
    <i name="e_fr_energy">    -16.59735938 </i>
    <i name="e_wo_entrp">    -16.59735938 </i>
    <i name="e_0_energy">    -16.59735938 </i>
   </energy>
  </scstep>
  <scstep>
   <time name="dav">    2.48    2.48</time>
   <time name="total">   10.59   10.59</time>
   <energy>
    <i name="e_fr_energy">    -16.59735138 </i>
    <i name="e_wo_entrp">    -16.59735138 </i>
    <i name="e_0_energy">    -16.59735138 </i>
   </energy>
  </scstep>
  <scstep>
   <time name="dav">    2.47    2.47</time>
   <time name="total">   10.30   10.31</time>
   <energy>
    <i name="alphaZ">     16.37469439 </i>
    <i name="ewald">  -1340.99379134 </i>
    <i name="hartreedc">   -259.97358709 </i>
    <i name="XCdc">   -240.78170881 </i>
    <i name="pawpsdc">   1063.96552276 </i>
    <i name="pawaedc">   -744.11455481 </i>
    <i name="eentropy">     -0.00000000 </i>
    <i name="bandstr">    -85.42596541 </i>
    <i name="atom">   1574.35203898 </i>
    <i name="e_fr_energy">    -16.59735132 </i>
    <i name="e_wo_entrp">    -16.59735132 </i>
    <i name="e_0_energy">    -16.59735132 </i>
   </energy>
  </scstep>
  <structure>
   <crystal>
    <varray name="basis" >
     <v>       4.25263830      -0.00000001      -0.00000000 </v>
     <v>      -2.12631866       3.68289257       0.00000000 </v>
     <v>       0.00000000      -0.00000000      13.05411792 </v>
    </varray>
    <i name="volume">    204.45372524 </i>
    <varray name="rec_basis" >
     <v>       0.23514814       0.13576282       0.00000000 </v>
     <v>       0.00000000       0.27152571       0.00000000 </v>
     <v>      -0.00000000      -0.00000000       0.07660418 </v>
    </varray>
   </crystal>
   <varray name="positions" >
    <v>      -0.00000000       0.00000000       0.01014511 </v>
    <v>       0.00000000      -0.00000000       0.51014511 </v>
    <v>       0.66666700       0.33333300       0.27358134 </v>
    <v>       0.33333300       0.66666700       0.77358134 </v>
    <v>       0.33333300       0.66666700       0.13437255 </v>
    <v>       0.66666700       0.33333300       0.63437255 </v>
   </varray>
  </structure>
  <varray name="forces" >
   <v>      -0.00000000      -0.00000000      -0.29217407 </v>
   <v>      -0.00000000      -0.00000000      -0.29217407 </v>
   <v>      -0.00000000       0.00000000      -0.10523256 </v>
   <v>       0.00000000      -0.00000000      -0.10523256 </v>
   <v>      -0.00000000       0.00000000       0.39740663 </v>
   <v>       0.00000000      -0.00000000       0.39740663 </v>
  </varray>
  <varray name="stress" >
   <v>       7.10551286       0.00000093       0.00000000 </v>
   <v>       0.00000093       7.10551193       0.00000000 </v>
   <v>       0.00000000       0.00000000      -1.27569730 </v>
  </varray>
  <energy>
   <i name="e_fr_energy">    -16.59735132 </i>
   <i name="e_wo_entrp">    -16.59735132 </i>
   <i name="e_0_energy">     -0.00000000 </i>
  </energy>
  <time name="totalsc">  186.38  186.47</time>
 </calculation>
 <calculation>
  <scstep>
   <time name="dav">    3.85    3.85</time>
   <time name="total">   11.97   11.98</time>
   <energy>
    <i name="alphaZ">     16.38905739 </i>
    <i name="ewald">  -1346.95041461 </i>
    <i name="hartreedc">   -255.32538469 </i>
    <i name="XCdc">   -240.85237121 </i>
    <i name="pawpsdc">   1063.96560742 </i>
    <i name="pawaedc">   -744.11463921 </i>
    <i name="eentropy">     -0.00000000 </i>
    <i name="bandstr">    -84.07465495 </i>
    <i name="atom">   1574.35203898 </i>
    <i name="e_fr_energy">    -16.61076087 </i>
    <i name="e_wo_entrp">    -16.61076087 </i>
    <i name="e_0_energy">    -16.61076087 </i>
   </energy>
  </scstep>
  <scstep>
   <time name="dav">    4.05    4.05</time>
   <time name="total">   12.16   12.17</time>
   <energy>
    <i name="e_fr_energy">    -16.61893107 </i>
    <i name="e_wo_entrp">    -16.61893107 </i>
    <i name="e_0_energy">    -16.61893107 </i>
   </energy>
  </scstep>
  <scstep>
   <time name="dav">    4.30    4.30</time>
   <time name="total">   12.42   12.42</time>
   <energy>
    <i name="e_fr_energy">    -16.61708868 </i>
    <i name="e_wo_entrp">    -16.61708868 </i>
    <i name="e_0_energy">    -16.61708868 </i>
   </energy>
  </scstep>
  <scstep>
   <time name="dav">    4.24    4.24</time>
   <time name="total">   12.34   12.35</time>
   <energy>
    <i name="e_fr_energy">    -16.61803504 </i>
    <i name="e_wo_entrp">    -16.61803504 </i>
    <i name="e_0_energy">    -16.61803504 </i>
   </energy>
  </scstep>
  <scstep>
   <time name="dav">    3.95    3.95</time>
   <time name="total">   12.05   12.05</time>
   <energy>
    <i name="e_fr_energy">    -16.61877110 </i>
    <i name="e_wo_entrp">    -16.61877110 </i>
    <i name="e_0_energy">    -16.61877110 </i>
   </energy>
  </scstep>
  <scstep>
   <time name="dav">    4.28    4.28</time>
   <time name="total">   12.37   12.38</time>
   <energy>
    <i name="e_fr_energy">    -16.61899629 </i>
    <i name="e_wo_entrp">    -16.61899629 </i>
    <i name="e_0_energy">    -16.61899629 </i>
   </energy>
  </scstep>
  <scstep>
   <time name="dav">    4.01    4.01</time>
   <time name="total">   12.09   12.10</time>
   <energy>
    <i name="e_fr_energy">    -16.61909220 </i>
    <i name="e_wo_entrp">    -16.61909220 </i>
    <i name="e_0_energy">    -16.61909220 </i>
   </energy>
  </scstep>
  <scstep>
[...]
       <r>    6.2222    0.0000 </r>
      </set>
      <set comment="kpoint 17">
       <r>  -11.0768    1.0000 </r>
       <r>  -11.0768    1.0000 </r>
       <r>   -8.1801    1.0000 </r>
       <r>   -8.1801    1.0000 </r>
       <r>   -5.9552    1.0000 </r>
       <r>   -5.9552    1.0000 </r>
       <r>   -0.6405    1.0000 </r>
       <r>   -0.6405    1.0000 </r>
       <r>   -0.0930    1.0000 </r>
       <r>   -0.0930    1.0000 </r>
       <r>    0.3127    1.0000 </r>
       <r>    0.3127    1.0000 </r>
       <r>    1.2612    1.0000 </r>
       <r>    1.2612    1.0000 </r>
       <r>    1.9963    1.0000 </r>
       <r>    1.9963    1.0000 </r>
       <r>    2.4170    1.0000 </r>
       <r>    2.4170    1.0000 </r>
       <r>    5.4404    0.0000 </r>
       <r>    5.4404    0.0000 </r>
       <r>    6.1437    0.0000 </r>
       <r>    6.1437    0.0000 </r>
       <r>    6.5069    0.0000 </r>
       <r>    6.5069    0.0000 </r>
      </set>
      <set comment="kpoint 18">
       <r>  -10.9857    1.0000 </r>
       <r>  -10.9857    1.0000 </r>
       <r>   -7.7642    1.0000 </r>
       <r>   -7.7642    1.0000 </r>
       <r>   -6.4397    1.0000 </r>
       <r>   -6.4397    1.0000 </r>
       <r>   -0.9779    1.0000 </r>
       <r>   -0.9779    1.0000 </r>
       <r>   -0.2324    1.0000 </r>
       <r>   -0.2324    1.0000 </r>
       <r>    0.1379    1.0000 </r>
       <r>    0.1379    1.0000 </r>
       <r>    1.1796    1.0000 </r>
       <r>    1.1796    1.0000 </r>
       <r>    1.8091    1.0000 </r>
       <r>    1.8091    1.0000 </r>
       <r>    2.2363    1.0000 </r>
       <r>    2.2363    1.0000 </r>
       <r>    5.6171    0.0000 </r>
       <r>    5.6171    0.0000 </r>
       <r>    6.2512    0.0000 </r>
       <r>    6.2512    0.0000 </r>
       <r>    6.5627    0.0000 </r>
       <r>    6.5627    0.0000 </r>
      </set>
      <set comment="kpoint 19">
       <r>  -10.9872    1.0000 </r>
       <r>  -10.9872    1.0000 </r>
       <r>   -7.7669    1.0000 </r>
       <r>   -7.7669    1.0000 </r>
       <r>   -6.4235    1.0000 </r>
       <r>   -6.4235    1.0000 </r>
       <r>   -0.8090    1.0000 </r>
       <r>   -0.8090    1.0000 </r>
       <r>   -0.3997    1.0000 </r>
       <r>   -0.3997    1.0000 </r>
       <r>    0.0071    1.0000 </r>
       <r>    0.0071    1.0000 </r>
       <r>    1.0798    1.0000 </r>
       <r>    1.0798    1.0000 </r>
       <r>    1.9079    1.0000 </r>
       <r>    1.9079    1.0000 </r>
       <r>    2.2815    1.0000 </r>
       <r>    2.2815    1.0000 </r>
       <r>    5.6855    0.0000 </r>
       <r>    5.6855    0.0000 </r>
       <r>    6.4726    0.0000 </r>
       <r>    6.4726    0.0000 </r>
       <r>    6.5901    0.0000 </r>
       <r>    6.5901    0.0000 </r>
      </set>
      <set comment="kpoint 20">
       <r>  -10.9499    1.0000 </r>
       <r>  -10.9499    1.0000 </r>
       <r>   -7.4411    1.0000 </r>
       <r>   -7.4411    1.0000 </r>
       <r>   -6.7749    1.0000 </r>
       <r>   -6.7749    1.0000 </r>
       <r>   -0.8198    1.0000 </r>
       <r>   -0.8198    1.0000 </r>
       <r>   -0.5423    1.0000 </r>
       <r>   -0.5423    1.0000 </r>
       <r>   -0.2140    1.0000 </r>
       <r>   -0.2140    1.0000 </r>
       <r>    1.1965    1.0000 </r>
       <r>    1.1965    1.0000 </r>
       <r>    1.7733    1.0000 </r>
       <r>    1.7733    1.0000 </r>
       <r>    2.1860    1.0000 </r>
       <r>    2.1860    1.0000 </r>
       <r>    5.8113    0.0000 </r>
       <r>    5.8113    0.0000 </r>
       <r>    6.4072    0.0000 </r>
       <r>    6.4072    0.0000 </r>
       <r>    6.7834    0.0000 </r>
       <r>    6.7834    0.0000 </r>
      </set>
     </set>
    </set>
   </array>
  </eigenvalues>
  <separator name="orbital magnetization" >
   <v name="MAGDIPOLOUT">      0.00000000      0.00000000      0.00000000</v>
  </separator>
  <dos>
   <i name="efermi">      3.44831147 </i>
   <total>
    <array>
     <dimension dim="1">gridpoints</dimension>
     <dimension dim="2">spin</dimension>
     <field>energy</field>
     <field>total</field>
     <field>integrated</field>
     <set>
      <set comment="spin 1">
       <r>   -12.3578     0.0000     0.0000 </r>
       <r>   -12.2906     0.0000     0.0000 </r>
       <r>   -12.2233     0.0000     0.0000 </r>
       <r>   -12.1561     0.0000     0.0000 </r>
       <r>   -12.0888     0.0000     0.0000 </r>
       <r>   -12.0216     0.0000     0.0000 </r>
       <r>   -11.9543     0.0000     0.0000 </r>
       <r>   -11.8870     0.0000     0.0000 </r>
       <r>   -11.8198     0.0000     0.0000 </r>
       <r>   -11.7525     0.0000     0.0000 </r>
       <r>   -11.6853     0.0000     0.0000 </r>
       <r>   -11.6180     0.0001     0.0000 </r>
       <r>   -11.5508     0.0020     0.0001 </r>
       <r>   -11.4835     0.0351     0.0025 </r>
       <r>   -11.4162     0.2983     0.0226 </r>
       <r>   -11.3490     1.2852     0.1090 </r>
       <r>   -11.2817     3.0853     0.3165 </r>
       <r>   -11.2145     4.9730     0.6510 </r>
       <r>   -11.1472     6.7218     1.1031 </r>
       <r>   -11.0799     9.2619     1.7260 </r>
       <r>   -11.0127    12.4943     2.5664 </r>
       <r>   -10.9454    12.2444     3.3899 </r>
       <r>   -10.8782     6.8642     3.8516 </r>
       <r>   -10.8109     1.9339     3.9816 </r>
       <r>   -10.7437     0.2569     3.9989 </r>
       <r>   -10.6764     0.0156     4.0000 </r>
       <r>   -10.6091     0.0004     4.0000 </r>
       <r>   -10.5419     0.0000     4.0000 </r>
       <r>   -10.4746     0.0000     4.0000 </r>
       <r>   -10.4074     0.0000     4.0000 </r>
       <r>   -10.3401     0.0000     4.0000 </r>
       <r>   -10.2728     0.0000     4.0000 </r>
       <r>   -10.2056     0.0000     4.0000 </r>
       <r>   -10.1383     0.0000     4.0000 </r>
       <r>   -10.0711     0.0000     4.0000 </r>
       <r>   -10.0038     0.0000     4.0000 </r>
       <r>    -9.9366     0.0000     4.0000 </r>
       <r>    -9.8693     0.0000     4.0000 </r>
       <r>    -9.8020     0.0000     4.0000 </r>
       <r>    -9.7348     0.0000     4.0000 </r>
       <r>    -9.6675     0.0000     4.0000 </r>
       <r>    -9.6003     0.0000     4.0000 </r>
       <r>    -9.5330     0.0000     4.0000 </r>
       <r>    -9.4658     0.0000     4.0000 </r>
       <r>    -9.3985     0.0000     4.0000 </r>
       <r>    -9.3312     0.0000     4.0000 </r>
       <r>    -9.2640     0.0000     4.0000 </r>
       <r>    -9.1967     0.0000     4.0000 </r>
       <r>    -9.1295     0.0002     4.0000 </r>
       <r>    -9.0622     0.0037     4.0003 </r>
       <r>    -8.9949     0.0321     4.0024 </r>
       <r>    -8.9277     0.1613     4.0133 </r>
       <r>    -8.8604     0.5518     4.0504 </r>
       <r>    -8.7932     1.2718     4.1359 </r>
       <r>    -8.7259     1.8835     4.2626 </r>
       <r>    -8.6587     1.9466     4.3935 </r>
       <r>    -8.5914     2.0684     4.5326 </r>
       <r>    -8.5241     2.7825     4.7198 </r>
       <r>    -8.4569     3.2054     4.9354 </r>
       <r>    -8.3896     2.4416     5.0996 </r>
       <r>    -8.3224     1.3004     5.1871 </r>
       <r>    -8.2551     1.6322     5.2968 </r>
       <r>    -8.1878     3.5617     5.5364 </r>
       <r>    -8.1206     4.3439     5.8285 </r>
       <r>    -8.0533     3.4305     6.0593 </r>
       <r>    -7.9861     2.3992     6.2206 </r>
       <r>    -7.9188     1.3961     6.3145 </r>
       <r>    -7.8516     2.1368     6.4583 </r>
       <r>    -7.7843     5.4611     6.8256 </r>
       <r>    -7.7170     6.9174     7.2908 </r>
       <r>    -7.6498     3.9030     7.5533 </r>
       <r>    -7.5825     1.0987     7.6272 </r>
       <r>    -7.5153     0.8138     7.6820 </r>
       <r>    -7.4480     1.7135     7.7972 </r>
       <r>    -7.3808     1.8648     7.9226 </r>
       <r>    -7.3135     0.9227     7.9847 </r>
       <r>    -7.2462     0.2061     7.9986 </r>
       <r>    -7.1790     0.0206     7.9999 </r>
       <r>    -7.1117     0.0009     8.0000 </r>
       <r>    -7.0445     0.0007     8.0000 </r>
       <r>    -6.9772     0.0164     8.0012 </r>
       <r>    -6.9099     0.1723     8.0127 </r>
       <r>    -6.8427     0.8184     8.0678 </r>
       <r>    -6.7754     1.7793     8.1875 </r>
       <r>    -6.7082     1.7829     8.3074 </r>
       <r>    -6.6409     0.8761     8.3663 </r>
       <r>    -6.5737     0.7679     8.4179 </r>
       <r>    -6.5064     2.8357     8.6087 </r>
       <r>    -6.4391     6.1319     9.0211 </r>
       <r>    -6.3719     6.2156     9.4391 </r>
       <r>    -6.3046     3.0106     9.6416 </r>
       <r>    -6.2374     1.0553     9.7126 </r>
       <r>    -6.1701     1.3995     9.8067 </r>
       <r>    -6.1029     2.1991     9.9546 </r>
       <r>    -6.0356     2.6009    10.1296 </r>
       <r>    -5.9683     3.7004    10.3784 </r>
       <r>    -5.9011     3.9127    10.6416 </r>
       <r>    -5.8338     2.0369    10.7786 </r>
       <r>    -5.7666     0.6485    10.8222 </r>
       <r>    -5.6993     0.9706    10.8875 </r>
       <r>    -5.6320     2.2541    11.0391 </r>
       <r>    -5.5648     3.0425    11.2437 </r>
       <r>    -5.4975     2.7719    11.4302 </r>
       <r>    -5.4303     1.9157    11.5590 </r>
       <r>    -5.3630     1.5447    11.6629 </r>
       <r>    -5.2958     1.7946    11.7836 </r>
       <r>    -5.2285     1.6591    11.8952 </r>
       <r>    -5.1612     0.9904    11.9618 </r>
       <r>    -5.0940     0.3992    11.9887 </r>
       <r>    -5.0267     0.1294    11.9974 </r>
       <r>    -4.9595     0.0337    11.9996 </r>
       <r>    -4.8922     0.0051    12.0000 </r>
       <r>    -4.8249     0.0004    12.0000 </r>
       <r>    -4.7577     0.0000    12.0000 </r>
       <r>    -4.6904     0.0000    12.0000 </r>
       <r>    -4.6232     0.0000    12.0000 </r>
       <r>    -4.5559     0.0000    12.0000 </r>
       <r>    -4.4887     0.0000    12.0000 </r>
       <r>    -4.4214     0.0000    12.0000 </r>
       <r>    -4.3541     0.0000    12.0000 </r>
       <r>    -4.2869     0.0000    12.0000 </r>
       <r>    -4.2196     0.0000    12.0000 </r>
       <r>    -4.1524     0.0000    12.0000 </r>
       <r>    -4.0851     0.0000    12.0000 </r>
       <r>    -4.0179     0.0000    12.0000 </r>
       <r>    -3.9506     0.0000    12.0000 </r>
       <r>    -3.8833     0.0000    12.0000 </r>
       <r>    -3.8161     0.0000    12.0000 </r>
       <r>    -3.7488     0.0000    12.0000 </r>
       <r>    -3.6816     0.0000    12.0000 </r>
       <r>    -3.6143     0.0000    12.0000 </r>
       <r>    -3.5470     0.0000    12.0000 </r>
       <r>    -3.4798     0.0000    12.0000 </r>
       <r>    -3.4125     0.0000    12.0000 </r>
       <r>    -3.3453     0.0000    12.0000 </r>
       <r>    -3.2780     0.0000    12.0000 </r>
       <r>    -3.2108     0.0000    12.0000 </r>
       <r>    -3.1435     0.0000    12.0000 </r>
       <r>    -3.0762     0.0000    12.0000 </r>
       <r>    -3.0090     0.0000    12.0000 </r>
       <r>    -2.9417     0.0000    12.0000 </r>
       <r>    -2.8745     0.0000    12.0000 </r>
       <r>    -2.8072     0.0000    12.0000 </r>
       <r>    -2.7400     0.0000    12.0000 </r>
       <r>    -2.6727     0.0000    12.0000 </r>
       <r>    -2.6054     0.0000    12.0000 </r>
       <r>    -2.5382     0.0000    12.0000 </r>
       <r>    -2.4709     0.0000    12.0000 </r>
       <r>    -2.4037     0.0000    12.0000 </r>
       <r>    -2.3364     0.0000    12.0000 </r>
       <r>    -2.2691     0.0000    12.0000 </r>
       <r>    -2.2019     0.0000    12.0000 </r>
       <r>    -2.1346     0.0000    12.0000 </r>
       <r>    -2.0674     0.0000    12.0000 </r>
       <r>    -2.0001     0.0000    12.0000 </r>
       <r>    -1.9329     0.0000    12.0000 </r>
       <r>    -1.8656     0.0000    12.0000 </r>
       <r>    -1.7983     0.0000    12.0000 </r>
       <r>    -1.7311     0.0000    12.0000 </r>
       <r>    -1.6638     0.0000    12.0000 </r>
       <r>    -1.5966     0.0000    12.0000 </r>
       <r>    -1.5293     0.0000    12.0000 </r>
       <r>    -1.4620     0.0001    12.0000 </r>
       <r>    -1.3948     0.0016    12.0001 </r>
       <r>    -1.3275     0.0208    12.0015 </r>
       <r>    -1.2603     0.1267    12.0100 </r>
       <r>    -1.1930     0.4495    12.0403 </r>
       <r>    -1.1258     1.1907    12.1204 </r>
       <r>    -1.0585     2.4616    12.2859 </r>
       <r>    -0.9912     3.9450    12.5512 </r>
       <r>    -0.9240     5.2659    12.9054 </r>
       <r>    -0.8567     6.1773    13.3209 </r>
       <r>    -0.7895     5.9259    13.7195 </r>
       <r>    -0.7222     4.6916    14.0350 </r>
       <r>    -0.6550     4.2377    14.3200 </r>
       <r>    -0.5877     4.6025    14.6296 </r>
       <r>    -0.5204     4.8078    14.9529 </r>
       <r>    -0.4532     4.7980    15.2756 </r>
       <r>    -0.3859     4.7857    15.5975 </r>
       <r>    -0.3187     5.4540    15.9644 </r>
       <r>    -0.2514     7.1283    16.4438 </r>
       <r>    -0.1841     8.2377    16.9978 </r>
       <r>    -0.1169     8.1520    17.5461 </r>
       <r>    -0.0496     8.2814    18.1031 </r>
       <r>     0.0176     8.8129    18.6959 </r>
       <r>     0.0849    10.1821    19.3807 </r>
       <r>     0.1521    11.1814    20.1327 </r>
       <r>     0.2194    10.4509    20.8356 </r>
       <r>     0.2867     9.7144    21.4890 </r>
       <r>     0.3539     8.6908    22.0735 </r>
       <r>     0.4212     5.8434    22.4665 </r>
       <r>     0.4884     3.6701    22.7134 </r>
       <r>     0.5557     4.2613    23.0000 </r>
       <r>     0.6229     5.6167    23.3778 </r>
       <r>     0.6902     5.0186    23.7153 </r>
       <r>     0.7575     3.1938    23.9301 </r>
       <r>     0.8247     1.7643    24.0488 </r>
       <r>     0.8920     1.0923    24.1222 </r>
       <r>     0.9592     0.7808    24.1748 </r>
       <r>     1.0265     0.9086    24.2359 </r>
       <r>     1.0938     2.0807    24.3758 </r>
       <r>     1.1610     4.5848    24.6842 </r>
       <r>     1.2283     7.3248    25.1768 </r>
       <r>     1.2955     7.7692    25.6994 </r>
       <r>     1.3628     6.1941    26.1160 </r>
       <r>     1.4300     4.6629    26.4296 </r>
       <r>     1.4973     3.6291    26.6737 </r>
       <r>     1.5646     4.1976    26.9560 </r>
       <r>     1.6318     6.1782    27.3715 </r>
       <r>     1.6991     7.5873    27.8818 </r>
       <r>     1.7663     8.4593    28.4508 </r>
       <r>     1.8336     9.3608    29.0804 </r>
       <r>     1.9009     9.1055    29.6928 </r>
       <r>     1.9681     7.8924    30.2236 </r>
       <r>     2.0354     6.8127    30.6818 </r>
       <r>     2.1026     7.4513    31.1830 </r>
       <r>     2.1699     9.8174    31.8433 </r>
       <r>     2.2371    10.6730    32.5611 </r>
       <r>     2.3044     9.0947    33.1728 </r>
       <r>     2.3717     7.8639    33.7017 </r>
       <r>     2.4389     8.3173    34.2612 </r>
       <r>     2.5062     7.7915    34.7852 </r>
       <r>     2.5734     5.6827    35.1674 </r>
       <r>     2.6407     3.6679    35.4141 </r>
       <r>     2.7079     2.8106    35.6031 </r>
       <r>     2.7752     2.4193    35.7658 </r>
       <r>     2.8425     1.4830    35.8656 </r>
       <r>     2.9097     0.7445    35.9157 </r>
       <r>     2.9770     0.5999    35.9560 </r>
       <r>     3.0442     0.4254    35.9846 </r>
       <r>     3.1115     0.1766    35.9965 </r>
       <r>     3.1788     0.0448    35.9995 </r>
       <r>     3.2460     0.0066    36.0000 </r>
       <r>     3.3133     0.0005    36.0000 </r>
       <r>     3.3805     0.0000    36.0000 </r>
       <r>     3.4478     0.0000    36.0000 </r>
       <r>     3.5150     0.0000    36.0000 </r>
       <r>     3.5823     0.0000    36.0000 </r>
       <r>     3.6496     0.0000    36.0000 </r>
       <r>     3.7168     0.0000    36.0000 </r>
       <r>     3.7841     0.0000    36.0000 </r>
       <r>     3.8513     0.0000    36.0000 </r>
       <r>     3.9186     0.0000    36.0000 </r>
       <r>     3.9859     0.0000    36.0000 </r>
       <r>     4.0531     0.0003    36.0000 </r>
       <r>     4.1204     0.0039    36.0003 </r>
       <r>     4.1876     0.0249    36.0019 </r>
       <r>     4.2549     0.0688    36.0066 </r>
       <r>     4.3221     0.0830    36.0122 </r>
       <r>     4.3894     0.0546    36.0158 </r>
       <r>     4.4567     0.0762    36.0210 </r>
       <r>     4.5239     0.1649    36.0320 </r>
       <r>     4.5912     0.2522    36.0490 </r>
       <r>     4.6584     0.4794    36.0813 </r>
       <r>     4.7257     0.8597    36.1391 </r>
       <r>     4.7929     1.0113    36.2071 </r>
       <r>     4.8602     1.0967    36.2809 </r>
       <r>     4.9275     1.5137    36.3827 </r>
       <r>     4.9947     1.5723    36.4884 </r>
       <r>     5.0620     1.4011    36.5826 </r>
       <r>     5.1292     2.0600    36.7212 </r>
       <r>     5.1965     2.9809    36.9217 </r>
       <r>     5.2638     3.9450    37.1870 </r>
       <r>     5.3310     4.8397    37.5125 </r>
       <r>     5.3983     5.1967    37.8620 </r>
       <r>     5.4655     5.6989    38.2453 </r>
       <r>     5.5328     6.4903    38.6819 </r>
       <r>     5.6000     7.9128    39.2141 </r>
       <r>     5.6673     8.4552    39.7828 </r>
       <r>     5.7346     6.8530    40.2437 </r>
       <r>     5.8018     5.0058    40.5804 </r>
       <r>     5.8691     3.7068    40.8297 </r>
       <r>     5.9363     3.4447    41.0614 </r>
       <r>     6.0036     4.9342    41.3932 </r>
       <r>     6.0708     7.1626    41.8750 </r>
       <r>     6.1381     8.4469    42.4431 </r>
       <r>     6.2054     8.7351    43.0306 </r>
       <r>     6.2726     8.8005    43.6225 </r>
       <r>     6.3399     8.0652    44.1649 </r>
       <r>     6.4071     8.5295    44.7386 </r>
       <r>     6.4744    11.8723    45.5371 </r>
       <r>     6.5417    13.7565    46.4624 </r>
       <r>     6.6089    10.3719    47.1600 </r>
       <r>     6.6762     5.0861    47.5020 </r>
       <r>     6.7434     2.7627    47.6878 </r>
       <r>     6.8107     2.4581    47.8532 </r>
       <r>     6.8779     1.5760    47.9592 </r>
       <r>     6.9452     0.5186    47.9940 </r>
       <r>     7.0125     0.0822    47.9996 </r>
       <r>     7.0797     0.0061    48.0000 </r>
       <r>     7.1470     0.0002    48.0000 </r>
       <r>     7.2142     0.0000    48.0000 </r>
       <r>     7.2815     0.0000    48.0000 </r>
       <r>     7.3488     0.0000    48.0000 </r>
       <r>     7.4160     0.0000    48.0000 </r>
       <r>     7.4833     0.0000    48.0000 </r>
       <r>     7.5505     0.0000    48.0000 </r>
       <r>     7.6178     0.0000    48.0000 </r>
       <r>     7.6850     0.0000    48.0000 </r>
       <r>     7.7523     0.0000    48.0000 </r>
       <r>     7.8196     0.0000    48.0000 </r>
      </set>
     </set>
    </array>
   </total>
  </dos>
 </calculation>
 <structure name="finalpos" >
  <crystal>
   <varray name="basis" >
    <v>       4.29099126      -0.00000000       0.00000000 </v>
    <v>      -2.14549513       3.71610719      -0.00000000 </v>
    <v>      -0.00000000       0.00000000      12.64776465 </v>
   </varray>
   <i name="volume">    201.67851634 </i>
   <varray name="rec_basis" >
    <v>       0.23304638       0.13454937      -0.00000000 </v>
    <v>       0.00000000       0.26909880      -0.00000000 </v>
    <v>      -0.00000000      -0.00000000       0.07906535 </v>
   </varray>
  </crystal>
  <varray name="positions" >
   <v>      -0.00000000       0.00000000       0.00368175 </v>
   <v>       0.00000000      -0.00000000       0.50368175 </v>
   <v>       0.66666700       0.33333300       0.27708168 </v>
   <v>       0.33333300       0.66666700       0.77708168 </v>
   <v>       0.33333300       0.66666700       0.13733557 </v>
   <v>       0.66666700       0.33333300       0.63733557 </v>
  </varray>
 </structure>
</modeling>
