<?xml version="1.0" encoding="ISO-8859-1"?>
<modeling>
 <generator>
  <i name="program" type="string">vasp </i>
  <i name="version" type="string">5.3.5  </i>
  <i name="subversion" type="string">31Mar14 (build Oct 29 2014 16:16:03) complex                          parallel </i>
  <i name="platform" type="string">Linux-UFHPC </i>
  <i name="date" type="string">2016 02 09 </i>
  <i name="time" type="string">18:08:59 </i>
 </generator>
 <incar>
  <i type="string" name="PREC">accurate</i>
  <i type="int" name="IBRION">     2</i>
  <i name="EDIFF">      0.00000100</i>
  <i type="int" name="NSW">     0</i>
  <i type="int" name="ISIF">     3</i>
  <i name="ENCUT">    300.00000000</i>
  <i type="string" name="LREAL"> Auto</i>
  <i type="int" name="ISMEAR">     0</i>
  <i name="SIGMA">      0.10000000</i>
  <i type="logical" name="LWAVE"> F  </i>
  <i type="logical" name="LCHARG"> F  </i>
  <i type="logical" name="LAECHG"> F  </i>
  <i type="string" name="GGA"> Bo</i>
  <i name="PARAM1">      0.18333333</i>
  <i name="PARAM2">      0.22000000</i>
  <i type="logical" name="LUSE_VDW"> T  </i>
  <i name="AGGAC">      0.00000000</i>
 </incar>
 <kpoints>
  <generation param="Gamma">
   <v type="int" name="divisions">      13        4        2 </v>
   <v name="usershift">      0.00000000       0.00000000       0.00000000 </v>
   <v name="genvec1">      0.07692308      -0.00000000       0.00000000 </v>
   <v name="genvec2">      0.00000000       0.25000000       0.00000000 </v>
   <v name="genvec3">      0.00000000       0.00000000       0.50000000 </v>
   <v name="shift">      0.00000000       0.00000000       0.00000000 </v>
  </generation>
  <varray name="kpointlist" >
   <v>       0.00000000       0.00000000       0.00000000 </v>
   <v>       0.07692308      -0.00000000       0.00000000 </v>
   <v>       0.15384615      -0.00000000       0.00000000 </v>
   <v>       0.23076923      -0.00000000       0.00000000 </v>
   <v>       0.30769231      -0.00000000       0.00000000 </v>
   <v>       0.38461538      -0.00000000       0.00000000 </v>
   <v>       0.46153846      -0.00000000       0.00000000 </v>
   <v>       0.00000000       0.25000000       0.00000000 </v>
   <v>       0.07692308       0.25000000       0.00000000 </v>
   <v>       0.15384615       0.25000000       0.00000000 </v>
   <v>       0.23076923       0.25000000       0.00000000 </v>
   <v>       0.30769231       0.25000000       0.00000000 </v>
   <v>       0.38461538       0.25000000       0.00000000 </v>
   <v>       0.46153846       0.25000000       0.00000000 </v>
   <v>      -0.46153846       0.25000000       0.00000000 </v>
   <v>      -0.38461538       0.25000000       0.00000000 </v>
   <v>      -0.30769231       0.25000000       0.00000000 </v>
   <v>      -0.23076923       0.25000000       0.00000000 </v>
   <v>      -0.15384615       0.25000000       0.00000000 </v>
   <v>      -0.07692308       0.25000000       0.00000000 </v>
   <v>       0.00000000       0.50000000       0.00000000 </v>
   <v>       0.07692308       0.50000000       0.00000000 </v>
   <v>       0.15384615       0.50000000       0.00000000 </v>
   <v>       0.23076923       0.50000000       0.00000000 </v>
   <v>       0.30769231       0.50000000       0.00000000 </v>
   <v>       0.38461538       0.50000000       0.00000000 </v>
   <v>       0.46153846       0.50000000       0.00000000 </v>
   <v>       0.00000000       0.00000000       0.50000000 </v>
   <v>       0.07692308      -0.00000000       0.50000000 </v>
   <v>       0.15384615      -0.00000000       0.50000000 </v>
   <v>       0.23076923      -0.00000000       0.50000000 </v>
   <v>       0.30769231      -0.00000000       0.50000000 </v>
   <v>       0.38461538      -0.00000000       0.50000000 </v>
   <v>       0.46153846      -0.00000000       0.50000000 </v>
   <v>       0.00000000       0.25000000       0.50000000 </v>
   <v>       0.07692308       0.25000000       0.50000000 </v>
   <v>       0.15384615       0.25000000       0.50000000 </v>
   <v>       0.23076923       0.25000000       0.50000000 </v>
   <v>       0.30769231       0.25000000       0.50000000 </v>
   <v>       0.38461538       0.25000000       0.50000000 </v>
   <v>       0.46153846       0.25000000       0.50000000 </v>
   <v>      -0.46153846       0.25000000       0.50000000 </v>
   <v>      -0.38461538       0.25000000       0.50000000 </v>
   <v>      -0.30769231       0.25000000       0.50000000 </v>
   <v>      -0.23076923       0.25000000       0.50000000 </v>
   <v>      -0.15384615       0.25000000       0.50000000 </v>
   <v>      -0.07692308       0.25000000       0.50000000 </v>
   <v>       0.00000000       0.50000000       0.50000000 </v>
   <v>       0.07692308       0.50000000       0.50000000 </v>
   <v>       0.15384615       0.50000000       0.50000000 </v>
   <v>       0.23076923       0.50000000       0.50000000 </v>
   <v>       0.30769231       0.50000000       0.50000000 </v>
   <v>       0.38461538       0.50000000       0.50000000 </v>
   <v>       0.46153846       0.50000000       0.50000000 </v>
  </varray>
  <varray name="weights" >
   <v>       0.00961538 </v>
   <v>       0.01923077 </v>
   <v>       0.01923077 </v>
   <v>       0.01923077 </v>
   <v>       0.01923077 </v>
   <v>       0.01923077 </v>
   <v>       0.01923077 </v>
   <v>       0.01923077 </v>
   <v>       0.01923077 </v>
   <v>       0.01923077 </v>
   <v>       0.01923077 </v>
   <v>       0.01923077 </v>
   <v>       0.01923077 </v>
   <v>       0.01923077 </v>
   <v>       0.01923077 </v>
   <v>       0.01923077 </v>
   <v>       0.01923077 </v>
   <v>       0.01923077 </v>
   <v>       0.01923077 </v>
   <v>       0.01923077 </v>
   <v>       0.00961538 </v>
   <v>       0.01923077 </v>
   <v>       0.01923077 </v>
   <v>       0.01923077 </v>
   <v>       0.01923077 </v>
   <v>       0.01923077 </v>
   <v>       0.01923077 </v>
   <v>       0.00961538 </v>
   <v>       0.01923077 </v>
   <v>       0.01923077 </v>
   <v>       0.01923077 </v>
   <v>       0.01923077 </v>
   <v>       0.01923077 </v>
   <v>       0.01923077 </v>
   <v>       0.01923077 </v>
   <v>       0.01923077 </v>
   <v>       0.01923077 </v>
   <v>       0.01923077 </v>
   <v>       0.01923077 </v>
   <v>       0.01923077 </v>
   <v>       0.01923077 </v>
   <v>       0.01923077 </v>
   <v>       0.01923077 </v>
   <v>       0.01923077 </v>
   <v>       0.01923077 </v>
   <v>       0.01923077 </v>
   <v>       0.01923077 </v>
   <v>       0.00961538 </v>
   <v>       0.01923077 </v>
   <v>       0.01923077 </v>
   <v>       0.01923077 </v>
   <v>       0.01923077 </v>
   <v>       0.01923077 </v>
   <v>       0.01923077 </v>
  </varray>
 </kpoints>
 <parameters>
  <separator name="general" >
   <i type="string" name="SYSTEM">unknown system</i>
   <i type="logical" name="LCOMPAT"> F  </i>
  </separator>
  <separator name="electronic" >
   <i type="string" name="PREC">accura</i>
   <i name="ENMAX">    300.00000000</i>
   <i name="ENAUG">    342.92400000</i>
   <i name="EDIFF">      0.00000100</i>
   <i type="int" name="IALGO">    38</i>
   <i type="int" name="IWAVPR">    10</i>
   <i type="int" name="NBANDS">    68</i>
   <i name="NELECT">    108.00000000</i>
   <i type="int" name="TURBO">     0</i>
   <i type="int" name="IRESTART">     0</i>
   <i type="int" name="NREBOOT">     0</i>
   <i type="int" name="NMIN">     0</i>
   <i name="EREF">      0.00000000</i>
   <separator name="electronic smearing" >
    <i type="int" name="ISMEAR">     0</i>
    <i name="SIGMA">      0.10000000</i>
    <i name="KSPACING">      0.50000000</i>
    <i type="logical" name="KGAMMA"> T  </i>
   </separator>
   <separator name="electronic projectors" >
    <i type="logical" name="LREAL"> T  </i>
    <v name="ROPT">     -0.00025000     -0.00025000</v>
    <i type="int" name="LMAXPAW">  -100</i>
    <i type="int" name="LMAXMIX">     2</i>
    <i type="logical" name="NLSPLINE"> F  </i>
   </separator>
   <separator name="electronic startup" >
    <i type="int" name="ISTART">     0</i>
    <i type="int" name="ICHARG">     2</i>
    <i type="int" name="INIWAV">     1</i>
   </separator>
   <separator name="electronic spin" >
    <i type="int" name="ISPIN">     1</i>
    <i type="logical" name="LNONCOLLINEAR"> F  </i>
    <v name="MAGMOM">      1.00000000      1.00000000      1.00000000      1.00000000      1.00000000      1.00000000      1.00000000      1.00000000      1.00000000      1.00000000      1.00000000      1.00000000      1.00000000      1.00000000      1.00000000      1.00000000      1.00000000      1.00000000      1.00000000      1.00000000
      1.00000000      1.00000000      1.00000000      1.00000000</v>
    <i name="NUPDOWN">     -1.00000000</i>
    <i type="logical" name="LSORBIT"> F  </i>
    <v name="SAXIS">      0.00000000      0.00000000      1.00000000</v>
    <i type="logical" name="LSPIRAL"> F  </i>
    <v name="QSPIRAL">      0.00000000      0.00000000      0.00000000</v>
    <i type="logical" name="LZEROZ"> F  </i>
   </separator>
   <separator name="electronic exchange-correlation" >
    <i type="logical" name="LASPH"> F  </i>
    <i type="logical" name="LMETAGGA"> F  </i>
   </separator>
   <separator name="electronic convergence" >
    <i type="int" name="NELM">    60</i>
    <i type="int" name="NELMDL">    -5</i>
    <i type="int" name="NELMIN">     2</i>
    <i name="ENINI">    300.00000000</i>
    <separator name="electronic convergence detail" >
     <i type="logical" name="LDIAG"> T  </i>
     <i type="logical" name="LSUBROT"> F  </i>
     <i name="WEIMIN">      0.00000000</i>
     <i name="EBREAK">      0.00000000</i>
     <i name="DEPER">      0.30000000</i>
     <i type="int" name="NRMM">     4</i>
     <i name="TIME">      0.40000000</i>
    </separator>
   </separator>
   <separator name="electronic mixer" >
    <i name="AMIX">      0.40000000</i>
    <i name="BMIX">      1.00000000</i>
    <i name="AMIN">      0.10000000</i>
    <i name="AMIX_MAG">      1.60000000</i>
    <i name="BMIX_MAG">      1.00000000</i>
    <separator name="electronic mixer details" >
     <i type="int" name="IMIX">     4</i>
     <i type="int" name="MAXMIX">   -45</i>
     <i name="WC">    100.00000000</i>
     <i type="int" name="INIMIX">     1</i>
     <i type="int" name="MIXPRE">     1</i>
     <i type="int" name="MREMOVE">     5</i>
    </separator>
   </separator>
   <separator name="electronic dipolcorrection" >
    <i type="logical" name="LDIPOL"> F  </i>
    <i type="logical" name="LMONO"> F  </i>
    <i type="int" name="IDIPOL">     0</i>
    <i name="EPSILON">      1.00000000</i>
    <v name="DIPOL">   -100.00000000   -100.00000000   -100.00000000</v>
    <i name="EFIELD">      0.00000000</i>
   </separator>
  </separator>
  <separator name="grids" >
   <i type="int" name="NGX">    20</i>
   <i type="int" name="NGY">    60</i>
   <i type="int" name="NGZ">   160</i>
   <i type="int" name="NGXF">    40</i>
   <i type="int" name="NGYF">   120</i>
   <i type="int" name="NGZF">   320</i>
   <i type="logical" name="ADDGRID"> F  </i>
  </separator>
  <separator name="ionic" >
   <i type="int" name="NSW">     0</i>
   <i type="int" name="IBRION">    -1</i>
   <i type="int" name="ISIF">     3</i>
   <i name="PSTRESS">      0.00000000</i>
   <i name="EDIFFG">      0.00001000</i>
   <i type="int" name="NFREE">     1</i>
   <i name="POTIM">      0.50000000</i>
   <i name="SMASS">     -3.00000000</i>
   <i name="SCALEE">      1.00000000</i>
  </separator>
  <separator name="ionic md" >
   <i name="TEBEG">      0.00010000</i>
   <i name="TEEND">      0.00010000</i>
   <i type="int" name="NBLOCK">     1</i>
   <i type="int" name="KBLOCK">     1</i>
   <i type="int" name="NPACO">   256</i>
   <i name="APACO">     16.00000000</i>
  </separator>
  <separator name="symmetry" >
   <i type="int" name="ISYM">     2</i>
   <i name="SYMPREC">      0.00001000</i>
  </separator>
  <separator name="dos" >
   <i type="logical" name="LORBIT"> F  </i>
   <v name="RWIGS">     -1.00000000     -1.00000000</v>
   <i type="int" name="NEDOS">   301</i>
   <i name="EMIN">     10.00000000</i>
   <i name="EMAX">    -10.00000000</i>
   <i name="EFERMI">      0.00000000</i>
  </separator>
  <separator name="writing" >
   <i type="int" name="NWRITE">     2</i>
   <i type="logical" name="LWAVE"> F  </i>
   <i type="logical" name="LCHARG"> F  </i>
   <i type="logical" name="LPARD"> F  </i>
   <i type="logical" name="LVTOT"> F  </i>
   <i type="logical" name="LVHAR"> F  </i>
   <i type="logical" name="LELF"> F  </i>
   <i type="logical" name="LOPTICS"> F  </i>
   <v name="STM">      0.00000000      0.00000000      0.00000000      0.00000000      0.00000000      0.00000000      0.00000000</v>
  </separator>
  <separator name="performance" >
   <i type="int" name="NPAR">     4</i>
   <i type="int" name="NSIM">     4</i>
   <i type="int" name="NBLK">    -1</i>
   <i type="logical" name="LPLANE"> T  </i>
   <i type="logical" name="LSCALAPACK"> T  </i>
   <i type="logical" name="LSCAAWARE"> F  </i>
   <i type="logical" name="LSCALU"> F  </i>
   <i type="logical" name="LASYNC"> F  </i>
   <i type="logical" name="LORBITALREAL"> F  </i>
  </separator>
  <separator name="miscellaneous" >
   <i type="int" name="IDIOT">     3</i>
   <i type="logical" name="LMUSIC"> F  </i>
   <v name="POMASS">     30.97400000     28.08500000</v>
   <v name="DARWINR">      0.00000000      0.00000000</v>
   <v name="DARWINV">      1.00000000      1.00000000</v>
   <i type="logical" name="LCORR"> T  </i>
  </separator>
  <i type="logical" name="GGA_COMPAT"> T  </i>
  <i type="logical" name="LBERRY"> F  </i>
  <i type="int" name="ICORELEVEL">     0</i>
  <i type="logical" name="LDAU"> F  </i>
  <i type="int" name="I_CONSTRAINED_M">     0</i>
  <separator name="electronic exchange-correlation" >
   <i type="string" name="GGA">BO</i>
   <i type="int" name="VOSKOWN">     0</i>
   <i type="logical" name="LHFCALC"> F  </i>
   <i type="string" name="PRECFOCK"></i>
   <i type="logical" name="LSYMGRAD"> F  </i>
   <i type="logical" name="LHFONE"> F  </i>
   <i type="logical" name="LRHFCALC"> F  </i>
   <i type="logical" name="LTHOMAS"> F  </i>
   <i type="logical" name="LMODELHF"> F  </i>
   <i name="ENCUT4O">     -1.00000000</i>
   <i type="int" name="EXXOEP">     0</i>
   <i type="int" name="FOURORBIT">     0</i>
   <i name="AEXX">      0.00000000</i>
   <i name="HFALPHA">      0.00000000</i>
   <i name="MCALPHA">      0.00000000</i>
   <i name="ALDAX">      1.00000000</i>
   <i name="AGGAX">      1.00000000</i>
   <i name="ALDAC">      1.00000000</i>
   <i name="AGGAC">      0.00000000</i>
   <i type="int" name="NKREDX">     1</i>
   <i type="int" name="NKREDY">     1</i>
   <i type="int" name="NKREDZ">     1</i>
   <i type="logical" name="SHIFTRED"> F  </i>
   <i type="logical" name="ODDONLY"> F  </i>
   <i type="logical" name="EVENONLY"> F  </i>
   <i type="int" name="LMAXFOCK">     0</i>
   <i type="int" name="NMAXFOCKAE">     0</i>
   <i type="logical" name="LFOCKAEDFT"> F  </i>
   <i name="HFSCREEN">      0.00000000</i>
   <i name="HFSCREENC">      0.00000000</i>
   <i type="int" name="NBANDSGWLOW">     0</i>
  </separator>
  <separator name="vdW DFT" >
   <i type="logical" name="LUSE_VDW"> T  </i>
   <i name="Zab_VDW">     -0.84910000</i>
   <i name="PARAM1">      0.18333333</i>
   <i name="PARAM2">      0.22000000</i>
   <i name="PARAM3">      0.00000000</i>
  </separator>
  <separator name="model GW" >
   <i type="int" name="MODEL_GW">     0</i>
   <i name="MODEL_EPS0">     25.05800243</i>
   <i name="MODEL_ALPHA">      1.00000000</i>
  </separator>
  <separator name="linear response parameters" >
   <i type="logical" name="LEPSILON"> F  </i>
   <i type="logical" name="LRPA"> F  </i>
   <i type="logical" name="LNABLA"> F  </i>
   <i type="logical" name="LVEL"> F  </i>
   <i type="int" name="KINTER">     0</i>
   <i name="CSHIFT">      0.10000000</i>
   <i name="OMEGAMAX">     -1.00000000</i>
   <i name="DEG_THRESHOLD">      0.00200000</i>
  </separator>
  <separator name="orbital magnetization" >
   <i type="logical" name="NUCIND"> F  </i>
   <v name="MAGPOS">      0.00000000      0.00000000      0.00000000</v>
   <i type="logical" name="LNICSALL"> T  </i>
   <i type="logical" name="ORBITALMAG"> F  </i>
   <i type="logical" name="LMAGBLOCH"> F  </i>
   <i type="logical" name="LCHIMAG"> F  </i>
   <i type="logical" name="LGAUGE"> T  </i>
   <i type="int" name="MAGATOM">     0</i>
   <v name="MAGDIPOL">      0.00000000      0.00000000      0.00000000</v>
   <v name="AVECCONST">      0.00000000      0.00000000      0.00000000</v>
  </separator>
  <separator name="response functions" >
   <i type="logical" name="LADDER"> F  </i>
   <i type="logical" name="LFXC"> F  </i>
   <i type="logical" name="LHARTREE"> T  </i>
   <i type="int" name="IBSE">     0</i>
   <i type="logical" name="LTCTE"> F  </i>
   <i type="logical" name="LTETE"> F  </i>
   <i type="logical" name="LTRIPLET"> F  </i>
   <i type="logical" name="LFXCEPS"> F  </i>
   <i type="logical" name="LFXHEG"> F  </i>
   <i type="logical" name="L2ORDER"> F  </i>
   <i type="logical" name="LUSEW"> F  </i>
   <i name="ENCUTGW">     -2.00000000</i>
   <i name="ENCUTGWSOFT">     -2.00000000</i>
   <i name="ENCUTLF">     -1.00000000</i>
   <i type="int" name="LMAXMP2">    -1</i>
   <i name="SCISSOR">      0.00000000</i>
   <i type="int" name="NOMEGA">     0</i>
   <i type="int" name="NOMEGAR">     0</i>
   <i type="int" name="NBANDSGW">    -1</i>
   <i type="int" name="NBANDSO">    -1</i>
   <i type="int" name="NBANDSV">    -1</i>
   <i type="int" name="NELM">     1</i>
   <i type="int" name="DIM">     3</i>
   <i type="int" name="ANTIRES">     0</i>
   <i name="OMEGAMAX">    -30.00000000</i>
   <i name="OMEGAMIN">    -30.00000000</i>
   <i name="OMEGATL">   -200.00000000</i>
   <i type="int" name="OMEGAGRID">     0</i>
   <i name="CSHIFT">     -0.10000000</i>
   <i type="logical" name="SELFENERGY"> F  </i>
   <i type="logical" name="LSPECTRAL"> F  </i>
   <i type="logical" name="ODDONLYGW"> F  </i>
   <i type="logical" name="EVENONLYGW"> F  </i>
   <i type="int" name="NKREDLFX">     1</i>
   <i type="int" name="NKREDLFY">     1</i>
   <i type="int" name="NKREDLFZ">     1</i>
   <i type="int" name="MAXMEM">  1800</i>
   <i type="int" name="TELESCOPE">     0</i>
   <i type="int" name="TAUPAR">     1</i>
  </separator>
  <separator name="External order field" >
   <i name="OFIELD_KAPPA">      0.00000000</i>
   <v name="OFIELD_K">      0.00000000      0.00000000      0.00000000</v>
   <i name="OFIELD_Q6_NEAR">      0.00000000</i>
   <i name="OFIELD_Q6_FAR">      0.00000000</i>
   <i name="OFIELD_A">      0.00000000</i>
  </separator>
 </parameters>
 <atominfo>
  <atoms>      24 </atoms>
  <types>       2 </types>
  <array name="atoms" >
   <dimension dim="1">ion</dimension>
   <field type="string">element</field>
   <field type="int">atomtype</field>
   <set>
    <rc><c>P </c><c>   1</c></rc>
    <rc><c>P </c><c>   1</c></rc>
    <rc><c>P </c><c>   1</c></rc>
    <rc><c>P </c><c>   1</c></rc>
    <rc><c>P </c><c>   1</c></rc>
    <rc><c>P </c><c>   1</c></rc>
    <rc><c>P </c><c>   1</c></rc>
    <rc><c>P </c><c>   1</c></rc>
    <rc><c>P </c><c>   1</c></rc>
    <rc><c>P </c><c>   1</c></rc>
    <rc><c>P </c><c>   1</c></rc>
    <rc><c>P </c><c>   1</c></rc>
    <rc><c>Si</c><c>   2</c></rc>
    <rc><c>Si</c><c>   2</c></rc>
    <rc><c>Si</c><c>   2</c></rc>
    <rc><c>Si</c><c>   2</c></rc>
    <rc><c>Si</c><c>   2</c></rc>
    <rc><c>Si</c><c>   2</c></rc>
    <rc><c>Si</c><c>   2</c></rc>
    <rc><c>Si</c><c>   2</c></rc>
    <rc><c>Si</c><c>   2</c></rc>
    <rc><c>Si</c><c>   2</c></rc>
    <rc><c>Si</c><c>   2</c></rc>
    <rc><c>Si</c><c>   2</c></rc>
   </set>
  </array>
  <array name="atomtypes" >
   <dimension dim="1">type</dimension>
   <field type="int">atomspertype</field>
   <field type="string">element</field>
   <field>mass</field>
   <field>valence</field>
   <field type="string">pseudopotential</field>
   <set>
    <rc><c>  12</c><c>P </c><c>     30.97400000</c><c>      5.00000000</c><c>  PAW_PBE P 17Jan2003                   </c></rc>
    <rc><c>  12</c><c>Si</c><c>     28.08500000</c><c>      4.00000000</c><c> PAW_PBE Si 05Jan2001                   </c></rc>
   </set>
  </array>
 </atominfo>
 <structure name="initialpos" >
  <crystal>
   <varray name="basis" >
    <v>       3.54040000       0.00000000       0.00000000 </v>
    <v>      -1.77020000      10.29434800       0.00000000 </v>
    <v>       0.00000000       0.00000000      27.50142900 </v>
   </varray>
   <i name="volume">   1002.32009712 </i>
   <varray name="rec_basis" >
    <v>       0.28245396       0.04857034       0.00000000 </v>
    <v>       0.00000000       0.09714068       0.00000000 </v>
    <v>       0.00000000       0.00000000       0.03636175 </v>
   </varray>
  </crystal>
  <varray name="positions" >
   <v>       0.11402300       0.22804500       0.23316207 </v>
   <v>       0.61402300       0.62804500       0.51499159 </v>
   <v>       0.45808900       0.91617900       0.20939482 </v>
   <v>       0.95808900       0.31617900       0.49122434 </v>
   <v>       0.31085400       0.62170900       0.08414979 </v>
   <v>       0.31085400       0.62170900       0.36597930 </v>
   <v>       0.99923000       0.99846000       0.08631254 </v>
   <v>       0.99923000       0.99846000       0.36814206 </v>
   <v>       0.65492700       0.30985400       0.06041748 </v>
   <v>       0.65492700       0.30985400       0.34224700 </v>
   <v>       0.76973800       0.53947500       0.20725292 </v>
   <v>       0.26973800       0.93947500       0.48908244 </v>
   <v>       0.93971600       0.87943300       0.15783749 </v>
   <v>       0.43971600       0.27943300       0.43966701 </v>
   <v>       0.20515200       0.41030300       0.18578822 </v>
   <v>       0.70515200       0.81030300       0.46761774 </v>
   <v>       0.20184900       0.40369900       0.09969156 </v>
   <v>       0.20184900       0.40369900       0.38152107 </v>
   <v>       0.56380500       0.12761000       0.10779021 </v>
   <v>       0.56380500       0.12761000       0.38961973 </v>
   <v>       0.56710600       0.13421200       0.19387616 </v>
   <v>       0.06710600       0.53421200       0.47570568 </v>
   <v>       0.82923400       0.65846800       0.13571444 </v>
   <v>       0.32923400       0.05846800       0.41754396 </v>
  </varray>
 </structure>
 <calculation>
  <scstep>
   <time name="dav">   71.58   71.60</time>
   <time name="total">   87.89   87.92</time>
   <energy>
    <i name="alphaZ">     36.80884744 </i>
    <i name="ewald">  12048.17637673 </i>
    <i name="hartreedc"> -15048.22020628 </i>
    <i name="XCdc">    -87.07807478 </i>
    <i name="pawpsdc">   1056.43050070 </i>
    <i name="pawaedc">   -732.41190547 </i>
    <i name="eentropy">     -0.04409093 </i>
    <i name="bandstr">    -99.43352291 </i>
    <i name="atom">   3354.04126044 </i>
    <i name="e_fr_energy">    528.26918495 </i>
    <i name="e_wo_entrp">    528.31327588 </i>
    <i name="e_0_energy">    528.29123042 </i>
   </energy>
  </scstep>
  <scstep>
   <time name="dav">   88.55   88.58</time>
   <time name="total">   88.56   88.60</time>
   <energy>
    <i name="e_fr_energy">    -40.28194564 </i>
    <i name="e_wo_entrp">    -40.26330962 </i>
    <i name="e_0_energy">    -40.27262763 </i>
   </energy>
  </scstep>
  <scstep>
   <time name="dav">   82.34   82.35</time>
   <time name="total">   82.35   82.37</time>
   <energy>
    <i name="e_fr_energy">    -99.70970597 </i>
    <i name="e_wo_entrp">    -99.67298913 </i>
    <i name="e_0_energy">    -99.69134755 </i>
   </energy>
  </scstep>
  <scstep>
   <time name="dav">  102.78  102.81</time>
   <time name="total">  102.80  102.82</time>
   <energy>
    <i name="e_fr_energy">   -102.88439933 </i>
    <i name="e_wo_entrp">   -102.84101762 </i>
    <i name="e_0_energy">   -102.86270848 </i>
   </energy>
  </scstep>
  <scstep>
   <time name="dav">   90.50   90.52</time>
   <time name="total">   95.20   95.22</time>
   <energy>
    <i name="e_fr_energy">   -102.93322402 </i>
    <i name="e_wo_entrp">   -102.88973427 </i>
    <i name="e_0_energy">   -102.91147915 </i>
   </energy>
  </scstep>
  <scstep>
   <time name="dav">   83.61   83.63</time>
   <time name="total">  103.07  103.10</time>
   <energy>
    <i name="e_fr_energy">    -96.87613458 </i>
    <i name="e_wo_entrp">    -96.84001100 </i>
    <i name="e_0_energy">    -96.85807279 </i>
   </energy>
  </scstep>
  <scstep>
   <time name="dav">   77.85   77.86</time>
   <time name="total">   97.31   97.33</time>
   <energy>
    <i name="e_fr_energy">    -97.15567863 </i>
    <i name="e_wo_entrp">    -97.13014959 </i>
    <i name="e_0_energy">    -97.14291411 </i>
   </energy>
  </scstep>
  <scstep>
   <time name="dav">   81.53   81.61</time>
   <time name="total">  100.96  101.04</time>
   <energy>
    <i name="e_fr_energy">    -97.10102603 </i>
    <i name="e_wo_entrp">    -97.06900768 </i>
    <i name="e_0_energy">    -97.08501685 </i>
   </energy>
  </scstep>
  <scstep>
   <time name="dav">   83.09   83.11</time>
   <time name="total">  102.45  102.53</time>
   <energy>
    <i name="e_fr_energy">    -97.11728645 </i>
    <i name="e_wo_entrp">    -97.08200655 </i>
    <i name="e_0_energy">    -97.09964650 </i>
   </energy>
  </scstep>
  <scstep>
   <time name="dav">   83.84   83.86</time>
   <time name="total">  103.23  103.50</time>
   <energy>
    <i name="e_fr_energy">    -97.12054146 </i>
    <i name="e_wo_entrp">    -97.08528819 </i>
    <i name="e_0_energy">    -97.10291482 </i>
   </energy>
  </scstep>
  <scstep>
   <time name="dav">   83.08   83.10</time>
   <time name="total">  102.46  102.48</time>
   <energy>
    <i name="e_fr_energy">    -97.11290710 </i>
    <i name="e_wo_entrp">    -97.07743648 </i>
    <i name="e_0_energy">    -97.09517179 </i>
   </energy>
  </scstep>
  <scstep>
   <time name="dav">   81.81   81.83</time>
   <time name="total">  101.23  101.25</time>
   <energy>
    <i name="e_fr_energy">    -97.09988404 </i>
    <i name="e_wo_entrp">    -97.06407507 </i>
    <i name="e_0_energy">    -97.08197956 </i>
   </energy>
  </scstep>
  <scstep>
   <time name="dav">   82.72   82.73</time>
   <time name="total">  102.09  102.12</time>
   <energy>
    <i name="e_fr_energy">    -97.09538383 </i>
    <i name="e_wo_entrp">    -97.05972679 </i>
    <i name="e_0_energy">    -97.07755531 </i>
   </energy>
  </scstep>
  <scstep>
   <time name="dav">   83.37   83.39</time>
   <time name="total">  102.78  102.80</time>
   <energy>
    <i name="e_fr_energy">    -97.09177859 </i>
    <i name="e_wo_entrp">    -97.05605778 </i>
    <i name="e_0_energy">    -97.07391818 </i>
   </energy>
  </scstep>
  <scstep>
   <time name="dav">   83.30   83.32</time>
   <time name="total">  102.67  102.72</time>
   <energy>
    <i name="e_fr_energy">    -97.09005685 </i>
    <i name="e_wo_entrp">    -97.05438657 </i>
    <i name="e_0_energy">    -97.07222171 </i>
   </energy>
  </scstep>
  <scstep>
   <time name="dav">   78.00   78.02</time>
   <time name="total">   97.37   97.40</time>
   <energy>
    <i name="e_fr_energy">    -97.08980569 </i>
    <i name="e_wo_entrp">    -97.05410934 </i>
    <i name="e_0_energy">    -97.07195751 </i>
   </energy>
  </scstep>
  <scstep>
   <time name="dav">   76.79   76.81</time>
   <time name="total">   96.19   96.21</time>
   <energy>
    <i name="e_fr_energy">    -97.08974896 </i>
    <i name="e_wo_entrp">    -97.05406176 </i>
    <i name="e_0_energy">    -97.07190536 </i>
   </energy>
  </scstep>
  <scstep>
   <time name="dav">   77.80   77.82</time>
   <time name="total">   97.25   97.27</time>
   <energy>
    <i name="e_fr_energy">    -97.09026390 </i>
    <i name="e_wo_entrp">    -97.05458034 </i>
    <i name="e_0_energy">    -97.07242212 </i>
   </energy>
  </scstep>
  <scstep>
   <time name="dav">   76.26   76.28</time>
   <time name="total">   95.68   95.71</time>
   <energy>
    <i name="e_fr_energy">    -97.09047674 </i>
    <i name="e_wo_entrp">    -97.05479169 </i>
    <i name="e_0_energy">    -97.07263421 </i>
   </energy>
  </scstep>
  <scstep>
   <time name="dav">   66.66   66.67</time>
   <time name="total">   86.05   86.08</time>
   <energy>
    <i name="e_fr_energy">    -97.09054563 </i>
    <i name="e_wo_entrp">    -97.05486160 </i>
    <i name="e_0_energy">    -97.07270362 </i>
   </energy>
  </scstep>
  <scstep>
   <time name="dav">   66.61   66.63</time>
   <time name="total">   86.08   86.10</time>
   <energy>
    <i name="e_fr_energy">    -97.09056288 </i>
    <i name="e_wo_entrp">    -97.05487744 </i>
    <i name="e_0_energy">    -97.07272016 </i>
   </energy>
  </scstep>
  <scstep>
   <time name="dav">   69.78   69.80</time>
   <time name="total">   89.16   89.17</time>
   <energy>
    <i name="e_fr_energy">    -97.09051641 </i>
    <i name="e_wo_entrp">    -97.05483271 </i>
    <i name="e_0_energy">    -97.07267456 </i>
   </energy>
  </scstep>
  <scstep>
   <time name="dav">   63.08   63.10</time>
   <time name="total">   82.48   82.50</time>
   <energy>
    <i name="e_fr_energy">    -97.09048033 </i>
    <i name="e_wo_entrp">    -97.05479665 </i>
    <i name="e_0_energy">    -97.07263849 </i>
   </energy>
  </scstep>
  <scstep>
   <time name="dav">   65.18   65.19</time>
   <time name="total">   84.61   84.63</time>
   <energy>
    <i name="e_fr_energy">    -97.09042326 </i>
    <i name="e_wo_entrp">    -97.05473887 </i>
    <i name="e_0_energy">    -97.07258106 </i>
   </energy>
  </scstep>
  <scstep>
   <time name="dav">   64.97   64.99</time>
   <time name="total">   84.39   84.43</time>
   <energy>
    <i name="e_fr_energy">    -97.09040993 </i>
    <i name="e_wo_entrp">    -97.05472568 </i>
    <i name="e_0_energy">    -97.07256781 </i>
   </energy>
  </scstep>
  <scstep>
   <time name="dav">   65.97   65.99</time>
   <time name="total">   85.44   85.46</time>
   <energy>
    <i name="e_fr_energy">    -97.09040071 </i>
    <i name="e_wo_entrp">    -97.05471651 </i>
    <i name="e_0_energy">    -97.07255861 </i>
   </energy>
  </scstep>
  <scstep>
   <time name="dav">   58.00   58.02</time>
   <time name="total">   72.81   72.83</time>
   <energy>
    <i name="alphaZ">     36.80884744 </i>
    <i name="ewald">  12048.17637673 </i>
    <i name="hartreedc"> -15154.12955253 </i>
    <i name="XCdc">    -78.71510130 </i>
    <i name="pawpsdc">   1203.04783557 </i>
    <i name="pawaedc">   -883.50281878 </i>
    <i name="eentropy">     -0.03568428 </i>
    <i name="bandstr">   -622.78156443 </i>
    <i name="atom">   3354.04126044 </i>
    <i name="e_fr_energy">    -97.09040114 </i>
    <i name="e_wo_entrp">    -97.05471686 </i>
    <i name="e_0_energy">    -97.07255900 </i>
   </energy>
  </scstep>
  <structure>
   <crystal>
    <varray name="basis" >
     <v>       3.54040000       0.00000000       0.00000000 </v>
     <v>      -1.77020000      10.29434800       0.00000000 </v>
     <v>       0.00000000       0.00000000      27.50142900 </v>
    </varray>
    <i name="volume">   1002.32009712 </i>
    <varray name="rec_basis" >
     <v>       0.28245396       0.04857034       0.00000000 </v>
     <v>       0.00000000       0.09714068       0.00000000 </v>
     <v>       0.00000000       0.00000000       0.03636175 </v>
    </varray>
   </crystal>
   <varray name="positions" >
    <v>       0.11402300       0.22804500       0.23316207 </v>
    <v>       0.61402300       0.62804500       0.51499159 </v>
    <v>       0.45808900       0.91617900       0.20939482 </v>
    <v>       0.95808900       0.31617900       0.49122434 </v>
    <v>       0.31085400       0.62170900       0.08414979 </v>
    <v>       0.31085400       0.62170900       0.36597930 </v>
    <v>       0.99923000       0.99846000       0.08631254 </v>
    <v>       0.99923000       0.99846000       0.36814206 </v>
    <v>       0.65492700       0.30985400       0.06041748 </v>
    <v>       0.65492700       0.30985400       0.34224700 </v>
    <v>       0.76973800       0.53947500       0.20725292 </v>
    <v>       0.26973800       0.93947500       0.48908244 </v>
    <v>       0.93971600       0.87943300       0.15783749 </v>
    <v>       0.43971600       0.27943300       0.43966701 </v>
    <v>       0.20515200       0.41030300       0.18578822 </v>
    <v>       0.70515200       0.81030300       0.46761774 </v>
    <v>       0.20184900       0.40369900       0.09969156 </v>
    <v>       0.20184900       0.40369900       0.38152107 </v>
    <v>       0.56380500       0.12761000       0.10779021 </v>
    <v>       0.56380500       0.12761000       0.38961973 </v>
    <v>       0.56710600       0.13421200       0.19387616 </v>
    <v>       0.06710600       0.53421200       0.47570568 </v>
    <v>       0.82923400       0.65846800       0.13571444 </v>
    <v>       0.32923400       0.05846800       0.41754396 </v>
   </varray>
  </structure>
  <varray name="forces" >
   <v>       0.04246719      -0.02030004       0.03116214 </v>
   <v>      -0.07727802      -0.16318594       0.09803957 </v>
   <v>       0.00274894      -0.01553648       0.08571692 </v>
   <v>      -0.70291221      -0.30337919       0.80513194 </v>
   <v>      -0.00163292      -0.00530182       0.00990584 </v>
   <v>      -0.22983920      -0.67497056       1.35386699 </v>
   <v>       0.00800894       0.00508715       0.00317886 </v>
   <v>      -3.10730275      -2.90569992      -7.86254577 </v>
   <v>       0.00079278      -0.00064587       0.01450265 </v>
   <v>       1.12850496      -0.33020705      -0.80063962 </v>
   <v>      -0.00194397       0.00382931       0.09467491 </v>
   <v>      -0.10475094      -0.16478721       0.32624026 </v>
   <v>       0.00221350      -0.00023582       0.01057340 </v>
   <v>      -1.43146540       1.96040060       2.46636437 </v>
   <v>       0.00016645       0.01502524       0.04113197 </v>
   <v>      -0.02890247       0.23836509      -0.36945592 </v>
   <v>      -0.00200804      -0.00011904      -0.02318932 </v>
   <v>       0.31722038       1.69509525      -1.17814814 </v>
   <v>       0.00669743      -0.00847682      -0.02771370 </v>
   <v>      51.06580548      49.56756055     -58.28057531 </v>
   <v>      -0.00560564      -0.03049252       0.02347028 </v>
   <v>       0.09252434       0.53875841      -0.56263981 </v>
   <v>       0.00217369       0.01369634      -0.00461913 </v>
   <v>     -46.97568253     -49.41447967      63.74556660 </v>
  </varray>
  <varray name="stress" >
   <v>      70.93094339      56.71367228     -64.35876938 </v>
   <v>      56.71367227      62.77411674     -52.64082434 </v>
   <v>     -64.35876960     -52.64082432      90.00616978 </v>
  </varray>
  <energy>
   <i name="e_fr_energy">    -97.09040114 </i>
   <i name="e_wo_entrp">    -97.07255900 </i>
   <i name="e_0_energy">     -0.03568428 </i>
  </energy>
  <time name="totalsc"> 2652.06 2653.29</time>
  <eigenvalues>
   <array>
    <dimension dim="1">band</dimension>
    <dimension dim="2">kpoint</dimension>
    <dimension dim="3">spin</dimension>
    <field>eigene</field>
    <field>occ</field>
    <set>
     <set comment="spin 1">
      <set comment="kpoint 1">
       <r>  -15.0699    1.0000 </r>
       <r>  -13.6282    1.0000 </r>
       <r>  -13.2303    1.0000 </r>
       <r>  -12.8872    1.0000 </r>
       <r>  -12.6377    1.0000 </r>
       <r>  -12.5623    1.0000 </r>
       <r>  -12.1743    1.0000 </r>
       <r>  -11.8642    1.0000 </r>
       <r>  -11.5211    1.0000 </r>
       <r>  -11.3937    1.0000 </r>
       <r>  -11.0774    1.0000 </r>
       <r>  -10.1078    1.0000 </r>
       <r>   -9.3613    1.0000 </r>
       <r>   -8.1215    1.0000 </r>
       <r>   -7.9179    1.0000 </r>
       <r>   -7.1245    1.0000 </r>
       <r>   -7.0579    1.0000 </r>
       <r>   -6.8656    1.0000 </r>
       <r>   -6.5821    1.0000 </r>
       <r>   -6.3142    1.0000 </r>
       <r>   -5.9118    1.0000 </r>
       <r>   -5.2572    1.0000 </r>
       <r>   -5.0667    1.0000 </r>
       <r>   -4.8246    1.0000 </r>
       <r>   -4.4181    1.0000 </r>
       <r>   -4.0732    1.0000 </r>
       <r>   -3.7996    1.0000 </r>
       <r>   -3.6843    1.0000 </r>
       <r>   -3.5736    1.0000 </r>
       <r>   -3.2469    1.0000 </r>
       <r>   -3.1447    1.0000 </r>
       <r>   -2.9996    1.0000 </r>
       <r>   -2.9298    1.0000 </r>
       <r>   -2.8155    1.0000 </r>
       <r>   -2.7202    1.0000 </r>
       <r>   -2.5350    1.0000 </r>
       <r>   -2.4842    1.0000 </r>
       <r>   -2.4202    1.0000 </r>
       <r>   -2.3772    1.0000 </r>
       <r>   -2.2609    1.0000 </r>
       <r>   -2.0641    1.0000 </r>
       <r>   -1.9650    1.0000 </r>
       <r>   -1.8353    1.0000 </r>
       <r>   -1.8119    1.0000 </r>
       <r>   -1.7311    1.0000 </r>
       <r>   -1.6678    1.0000 </r>
       <r>   -1.6505    1.0000 </r>
       <r>   -1.5193    1.0000 </r>
       <r>   -1.4553    1.0000 </r>
       <r>   -1.2612    1.0000 </r>
       <r>   -1.0963    1.0000 </r>
       <r>   -0.9927    1.0000 </r>
       <r>    0.1985    0.4726 </r>
       <r>    0.3287    0.0281 </r>
       <r>    0.9557    0.0000 </r>
       <r>    0.9872    0.0000 </r>
       <r>    1.0740    0.0000 </r>
       <r>    1.1931    0.0000 </r>
       <r>    1.2446    0.0000 </r>
       <r>    1.4126    0.0000 </r>
       <r>    1.6291    0.0000 </r>
       <r>    1.7246    0.0000 </r>
       <r>    1.8897    0.0000 </r>
       <r>    1.9424    0.0000 </r>
       <r>    2.0868    0.0000 </r>
       <r>    2.3437    0.0000 </r>
       <r>    2.4221    0.0000 </r>
       <r>    2.5578    0.0000 </r>
      </set>
      <set comment="kpoint 2">
       <r>  -15.0157    1.0000 </r>
       <r>  -13.5669    1.0000 </r>
       <r>  -13.1754    1.0000 </r>
       <r>  -12.8350    1.0000 </r>
       <r>  -12.5799    1.0000 </r>
       <r>  -12.5064    1.0000 </r>
       <r>  -12.1121    1.0000 </r>
       <r>  -11.8149    1.0000 </r>
       <r>  -11.4721    1.0000 </r>
       <r>  -11.3402    1.0000 </r>
       <r>  -11.0291    1.0000 </r>
       <r>  -10.0873    1.0000 </r>
       <r>   -9.3467    1.0000 </r>
       <r>   -8.1581    1.0000 </r>
       <r>   -7.8810    1.0000 </r>
       <r>   -7.1234    1.0000 </r>
       <r>   -7.0312    1.0000 </r>
       <r>   -6.8448    1.0000 </r>
       <r>   -6.5766    1.0000 </r>
       <r>   -6.3056    1.0000 </r>
       <r>   -5.8784    1.0000 </r>
       <r>   -5.5205    1.0000 </r>
       <r>   -5.1458    1.0000 </r>
       <r>   -4.8301    1.0000 </r>
       <r>   -4.5694    1.0000 </r>
       <r>   -4.0482    1.0000 </r>
       <r>   -3.8383    1.0000 </r>
       <r>   -3.7359    1.0000 </r>
       <r>   -3.6597    1.0000 </r>
       <r>   -3.5214    1.0000 </r>
       <r>   -3.3628    1.0000 </r>
       <r>   -3.2976    1.0000 </r>
       <r>   -3.2514    1.0000 </r>
       <r>   -2.9220    1.0000 </r>
       <r>   -2.8201    1.0000 </r>
       <r>   -2.7325    1.0000 </r>
       <r>   -2.6230    1.0000 </r>
       <r>   -2.5598    1.0000 </r>
       <r>   -2.4554    1.0000 </r>
       <r>   -2.3148    1.0000 </r>
       <r>   -2.2785    1.0000 </r>
       <r>   -2.0878    1.0000 </r>
       <r>   -2.0499    1.0000 </r>
       <r>   -1.9470    1.0000 </r>
       <r>   -1.9169    1.0000 </r>
       <r>   -1.8250    1.0000 </r>
       <r>   -1.5994    1.0000 </r>
       <r>   -1.5232    1.0000 </r>
       <r>   -1.4818    1.0000 </r>
       <r>   -1.2492    1.0000 </r>
       <r>   -1.0692    1.0000 </r>
       <r>   -1.0028    1.0000 </r>
       <r>    0.1977    0.4772 </r>
       <r>    0.3635    0.0082 </r>
       <r>    0.9385    0.0000 </r>
       <r>    1.1710    0.0000 </r>
       <r>    1.1990    0.0000 </r>
       <r>    1.4567    0.0000 </r>
       <r>    1.5901    0.0000 </r>
       <r>    1.6755    0.0000 </r>
       <r>    1.7134    0.0000 </r>
       <r>    2.0492    0.0000 </r>
       <r>    2.1114    0.0000 </r>
       <r>    2.1867    0.0000 </r>
       <r>    2.2323    0.0000 </r>
       <r>    2.5279    0.0000 </r>
       <r>    2.5992    0.0000 </r>
       <r>    2.6836    0.0000 </r>
      </set>
      <set comment="kpoint 3">
       <r>  -14.8557    1.0000 </r>
       <r>  -13.3839    1.0000 </r>
       <r>  -13.0129    1.0000 </r>
       <r>  -12.6793    1.0000 </r>
       <r>  -12.4095    1.0000 </r>
       <r>  -12.3408    1.0000 </r>
       <r>  -11.9296    1.0000 </r>
       <r>  -11.6703    1.0000 </r>
       <r>  -11.3301    1.0000 </r>
       <r>  -11.1849    1.0000 </r>
       <r>  -10.8903    1.0000 </r>
       <r>  -10.0421    1.0000 </r>
       <r>   -9.3133    1.0000 </r>
       <r>   -8.2544    1.0000 </r>
       <r>   -7.8387    1.0000 </r>
       <r>   -7.2660    1.0000 </r>
       <r>   -6.9609    1.0000 </r>
       <r>   -6.7973    1.0000 </r>
       <r>   -6.5898    1.0000 </r>
       <r>   -6.3513    1.0000 </r>
       <r>   -6.0577    1.0000 </r>
       <r>   -5.8026    1.0000 </r>
       <r>   -5.2248    1.0000 </r>
       <r>   -4.9603    1.0000 </r>
       <r>   -4.8838    1.0000 </r>
       <r>   -4.3051    1.0000 </r>
       <r>   -4.1849    1.0000 </r>
       <r>   -4.1152    1.0000 </r>
       <r>   -4.0373    1.0000 </r>
       <r>   -3.9612    1.0000 </r>
       <r>   -3.7868    1.0000 </r>
       <r>   -3.7371    1.0000 </r>
       <r>   -3.5049    1.0000 </r>
       <r>   -3.3289    1.0000 </r>
       <r>   -3.2372    1.0000 </r>
       <r>   -3.1060    1.0000 </r>
       <r>   -3.0509    1.0000 </r>
       <r>   -3.0215    1.0000 </r>
       <r>   -2.7911    1.0000 </r>
       <r>   -2.6174    1.0000 </r>
       <r>   -2.4644    1.0000 </r>
       <r>   -2.4058    1.0000 </r>
       <r>   -2.2462    1.0000 </r>
       <r>   -2.1778    1.0000 </r>
       <r>   -2.0144    1.0000 </r>
       <r>   -1.8550    1.0000 </r>
       <r>   -1.7373    1.0000 </r>
       <r>   -1.5351    1.0000 </r>
       <r>   -1.3153    1.0000 </r>
       <r>   -1.1150    1.0000 </r>
       <r>   -1.0243    1.0000 </r>
       <r>   -0.7039    1.0000 </r>
       <r>    0.0391    0.9856 </r>
       <r>    0.2016    0.4552 </r>
       <r>    0.6798    0.0000 </r>
       <r>    1.0955    0.0000 </r>
       <r>    1.2467    0.0000 </r>
       <r>    1.6642    0.0000 </r>
       <r>    1.8567    0.0000 </r>
       <r>    2.0883    0.0000 </r>
       <r>    2.1960    0.0000 </r>
       <r>    2.3344    0.0000 </r>
       <r>    2.3695    0.0000 </r>
       <r>    2.5420    0.0000 </r>
       <r>    2.6085    0.0000 </r>
       <r>    2.7937    0.0000 </r>
       <r>    2.8821    0.0000 </r>
       <r>    2.9897    0.0000 </r>
      </set>
      <set comment="kpoint 4">
       <r>  -14.5985    1.0000 </r>
       <r>  -13.0829    1.0000 </r>
       <r>  -12.7514    1.0000 </r>
       <r>  -12.4230    1.0000 </r>
       <r>  -12.1357    1.0000 </r>
       <r>  -12.0731    1.0000 </r>
       <r>  -11.6419    1.0000 </r>
       <r>  -11.4431    1.0000 </r>
       <r>  -11.1132    1.0000 </r>
       <r>  -10.9472    1.0000 </r>
       <r>  -10.6874    1.0000 </r>
       <r>  -10.0298    1.0000 </r>
       <r>   -9.2885    1.0000 </r>
       <r>   -8.4458    1.0000 </r>
       <r>   -7.9122    1.0000 </r>
       <r>   -7.7914    1.0000 </r>
       <r>   -6.9312    1.0000 </r>
       <r>   -6.7843    1.0000 </r>
       <r>   -6.7229    1.0000 </r>
       <r>   -6.5878    1.0000 </r>
       <r>   -6.2006    1.0000 </r>
       <r>   -5.8238    1.0000 </r>
       <r>   -5.6306    1.0000 </r>
       <r>   -5.4249    1.0000 </r>
       <r>   -5.2802    1.0000 </r>
       <r>   -4.8984    1.0000 </r>
       <r>   -4.6927    1.0000 </r>
       <r>   -4.6058    1.0000 </r>
       <r>   -4.4971    1.0000 </r>
       <r>   -4.3131    1.0000 </r>
       <r>   -4.2666    1.0000 </r>
       <r>   -3.9005    1.0000 </r>
       <r>   -3.8314    1.0000 </r>
       <r>   -3.6941    1.0000 </r>
       <r>   -3.5559    1.0000 </r>
       <r>   -3.4229    1.0000 </r>
       <r>   -3.2582    1.0000 </r>
       <r>   -3.0818    1.0000 </r>
       <r>   -3.0529    1.0000 </r>
       <r>   -2.7203    1.0000 </r>
       <r>   -2.6423    1.0000 </r>
       <r>   -2.5491    1.0000 </r>
       <r>   -2.4564    1.0000 </r>
       <r>   -2.1872    1.0000 </r>
       <r>   -1.9912    1.0000 </r>
       <r>   -1.9115    1.0000 </r>
       <r>   -1.8194    1.0000 </r>
       <r>   -1.5921    1.0000 </r>
       <r>   -1.5552    1.0000 </r>
       <r>   -1.2186    1.0000 </r>
       <r>   -1.0714    1.0000 </r>
       <r>   -0.3792    1.0000 </r>
       <r>   -0.3094    1.0000 </r>
       <r>   -0.1418    1.0000 </r>
       <r>    0.5466    0.0000 </r>
       <r>    1.0377    0.0000 </r>
       <r>    1.2661    0.0000 </r>
       <r>    1.5524    0.0000 </r>
       <r>    1.7813    0.0000 </r>
       <r>    1.9539    0.0000 </r>
       <r>    2.0521    0.0000 </r>
       <r>    2.1651    0.0000 </r>
       <r>    2.2213    0.0000 </r>
       <r>    2.3924    0.0000 </r>
       <r>    2.6005    0.0000 </r>
       <r>    2.7829    0.0000 </r>
       <r>    2.8741    0.0000 </r>
       <r>    2.9017    0.0000 </r>
      </set>
      <set comment="kpoint 5">
       <r>  -14.2644    1.0000 </r>
       <r>  -12.6712    1.0000 </r>
       <r>  -12.4135    1.0000 </r>
       <r>  -12.0747    1.0000 </r>
       <r>  -11.7817    1.0000 </r>
       <r>  -11.7226    1.0000 </r>
       <r>  -11.2836    1.0000 </r>
       <r>  -11.1721    1.0000 </r>
       <r>  -10.8687    1.0000 </r>
       <r>  -10.6839    1.0000 </r>
       <r>  -10.5019    1.0000 </r>
       <r>  -10.1213    1.0000 </r>
       <r>   -9.2940    1.0000 </r>
       <r>   -8.7409    1.0000 </r>
       <r>   -8.4046    1.0000 </r>
       <r>   -8.1714    1.0000 </r>
       <r>   -7.1374    1.0000 </r>
       <r>   -7.0853    1.0000 </r>
       <r>   -6.9883    1.0000 </r>
       <r>   -6.9549    1.0000 </r>
       <r>   -6.4194    1.0000 </r>
       <r>   -6.2489    1.0000 </r>
       <r>   -6.0545    1.0000 </r>
       <r>   -5.9932    1.0000 </r>
       <r>   -5.5570    1.0000 </r>
       <r>   -5.2979    1.0000 </r>
       <r>   -4.9543    1.0000 </r>
       <r>   -4.8398    1.0000 </r>
       <r>   -4.7828    1.0000 </r>
       <r>   -4.4245    1.0000 </r>
       <r>   -4.3965    1.0000 </r>
       <r>   -4.3063    1.0000 </r>
       <r>   -4.1079    1.0000 </r>
       <r>   -3.7046    1.0000 </r>
       <r>   -3.4788    1.0000 </r>
       <r>   -3.4099    1.0000 </r>
       <r>   -3.2304    1.0000 </r>
       <r>   -3.1644    1.0000 </r>
       <r>   -3.0062    1.0000 </r>
       <r>   -2.8739    1.0000 </r>
       <r>   -2.8152    1.0000 </r>
       <r>   -2.6771    1.0000 </r>
       <r>   -2.5130    1.0000 </r>
       <r>   -2.3277    1.0000 </r>
       <r>   -2.1481    1.0000 </r>
       <r>   -1.9818    1.0000 </r>
       <r>   -1.9538    1.0000 </r>
       <r>   -1.7987    1.0000 </r>
       <r>   -1.5934    1.0000 </r>
       <r>   -1.4165    1.0000 </r>
       <r>   -1.1626    1.0000 </r>
       <r>   -0.8536    1.0000 </r>
       <r>   -0.6436    1.0000 </r>
       <r>   -0.1959    1.0000 </r>
       <r>    0.3382    0.0205 </r>
       <r>    0.9670    0.0000 </r>
       <r>    1.2852    0.0000 </r>
       <r>    1.3939    0.0000 </r>
       <r>    1.5451    0.0000 </r>
       <r>    1.7142    0.0000 </r>
       <r>    1.8485    0.0000 </r>
       <r>    1.9405    0.0000 </r>
       <r>    2.0553    0.0000 </r>
       <r>    2.1925    0.0000 </r>
       <r>    2.3043    0.0000 </r>
       <r>    2.6245    0.0000 </r>
       <r>    2.7454    0.0000 </r>
       <r>    2.7998    0.0000 </r>
      </set>
      <set comment="kpoint 6">
       <r>  -13.9012    1.0000 </r>
       <r>  -12.1636    1.0000 </r>
       <r>  -12.0670    1.0000 </r>
       <r>  -11.6555    1.0000 </r>
       <r>  -11.4174    1.0000 </r>
       <r>  -11.3323    1.0000 </r>
       <r>  -10.9754    1.0000 </r>
       <r>  -10.9373    1.0000 </r>
       <r>  -10.7137    1.0000 </r>
       <r>  -10.5448    1.0000 </r>
       <r>  -10.5280    1.0000 </r>
       <r>  -10.1459    1.0000 </r>
       <r>   -9.3793    1.0000 </r>
       <r>   -8.9193    1.0000 </r>
       <r>   -8.8875    1.0000 </r>
       <r>   -8.4637    1.0000 </r>
       <r>   -7.5816    1.0000 </r>
       <r>   -7.5451    1.0000 </r>
       <r>   -7.5031    1.0000 </r>
       <r>   -7.2135    1.0000 </r>
       <r>   -6.8593    1.0000 </r>
       <r>   -6.8438    1.0000 </r>
       <r>   -6.7493    1.0000 </r>
       <r>   -6.3966    1.0000 </r>
       <r>   -5.4464    1.0000 </r>
       <r>   -5.3016    1.0000 </r>
       <r>   -4.9614    1.0000 </r>
       <r>   -4.6983    1.0000 </r>
       <r>   -4.6148    1.0000 </r>
       <r>   -4.5098    1.0000 </r>
       <r>   -4.3134    1.0000 </r>
       <r>   -4.1951    1.0000 </r>
       <r>   -4.1629    1.0000 </r>
       <r>   -3.7461    1.0000 </r>
       <r>   -3.6116    1.0000 </r>
       <r>   -3.3562    1.0000 </r>
       <r>   -3.3472    1.0000 </r>
       <r>   -3.2407    1.0000 </r>
       <r>   -3.1541    1.0000 </r>
       <r>   -3.0174    1.0000 </r>
       <r>   -2.8508    1.0000 </r>
       <r>   -2.6183    1.0000 </r>
       <r>   -2.5774    1.0000 </r>
       <r>   -2.5023    1.0000 </r>
       <r>   -2.3615    1.0000 </r>
       <r>   -2.1956    1.0000 </r>
       <r>   -2.1110    1.0000 </r>
       <r>   -1.9334    1.0000 </r>
       <r>   -1.5914    1.0000 </r>
       <r>   -1.5093    1.0000 </r>
       <r>   -1.4070    1.0000 </r>
       <r>   -1.0651    1.0000 </r>
       <r>   -0.8637    1.0000 </r>
       <r>   -0.3001    1.0000 </r>
       <r>    0.0956    0.9173 </r>
       <r>    0.7889    0.0000 </r>
       <r>    1.2366    0.0000 </r>
       <r>    1.3364    0.0000 </r>
       <r>    1.3859    0.0000 </r>
       <r>    1.5851    0.0000 </r>
       <r>    1.6172    0.0000 </r>
       <r>    1.7771    0.0000 </r>
       <r>    1.9012    0.0000 </r>
       <r>    2.0227    0.0000 </r>
       <r>    2.1856    0.0000 </r>
       <r>    2.2790    0.0000 </r>
       <r>    2.6244    0.0000 </r>
       <r>    2.6935    0.0000 </r>
      </set>
      <set comment="kpoint 7">
       <r>  -13.6258    1.0000 </r>
       <r>  -11.8901    1.0000 </r>
       <r>  -11.5883    1.0000 </r>
       <r>  -11.2329    1.0000 </r>
       <r>  -11.2163    1.0000 </r>
       <r>  -11.0358    1.0000 </r>
       <r>  -10.9304    1.0000 </r>
       <r>  -10.8223    1.0000 </r>
       <r>  -10.8135    1.0000 </r>
       <r>  -10.7233    1.0000 </r>
       <r>  -10.5154    1.0000 </r>
       <r>   -9.9614    1.0000 </r>
       <r>   -9.6362    1.0000 </r>
       <r>   -9.1181    1.0000 </r>
       <r>   -8.7745    1.0000 </r>
       <r>   -8.5268    1.0000 </r>
       <r>   -8.1660    1.0000 </r>
       <r>   -7.8161    1.0000 </r>
       <r>   -7.6585    1.0000 </r>
       <r>   -7.4094    1.0000 </r>
       <r>   -7.3727    1.0000 </r>
       <r>   -7.2674    1.0000 </r>
       <r>   -7.2329    1.0000 </r>
       <r>   -6.5956    1.0000 </r>
       <r>   -5.2548    1.0000 </r>
       <r>   -5.0213    1.0000 </r>
       <r>   -4.9715    1.0000 </r>
       <r>   -4.5938    1.0000 </r>
       <r>   -4.4850    1.0000 </r>
       <r>   -4.3010    1.0000 </r>
       <r>   -4.1655    1.0000 </r>
       <r>   -4.0325    1.0000 </r>
       <r>   -3.9741    1.0000 </r>
       <r>   -3.9083    1.0000 </r>
       <r>   -3.7842    1.0000 </r>
       <r>   -3.6558    1.0000 </r>
       <r>   -3.5506    1.0000 </r>
       <r>   -3.3396    1.0000 </r>
       <r>   -3.1289    1.0000 </r>
       <r>   -3.0632    1.0000 </r>
       <r>   -2.9168    1.0000 </r>
       <r>   -2.7852    1.0000 </r>
       <r>   -2.6602    1.0000 </r>
       <r>   -2.5745    1.0000 </r>
       <r>   -2.4398    1.0000 </r>
       <r>   -2.2774    1.0000 </r>
       <r>   -2.1969    1.0000 </r>
       <r>   -1.8198    1.0000 </r>
       <r>   -1.7494    1.0000 </r>
       <r>   -1.6051    1.0000 </r>
       <r>   -1.4412    1.0000 </r>
       <r>   -1.1570    1.0000 </r>
       <r>   -0.9290    1.0000 </r>
       <r>   -0.3075    1.0000 </r>
       <r>   -0.1020    1.0000 </r>
       <r>    0.6829    0.0000 </r>
       <r>    1.1659    0.0000 </r>
       <r>    1.2022    0.0000 </r>
       <r>    1.3245    0.0000 </r>
       <r>    1.4841    0.0000 </r>
       <r>    1.5867    0.0000 </r>
       <r>    1.6704    0.0000 </r>
       <r>    1.8080    0.0000 </r>
       <r>    1.9519    0.0000 </r>
       <r>    2.0326    0.0000 </r>
       <r>    2.3181    0.0000 </r>
       <r>    2.4299    0.0000 </r>
       <r>    2.4857    0.0000 </r>
      </set>
      <set comment="kpoint 8">
       <r>  -15.0682    1.0000 </r>
       <r>  -13.5730    1.0000 </r>
       <r>  -13.2643    1.0000 </r>
       <r>  -13.0608    1.0000 </r>
       <r>  -12.5875    1.0000 </r>
       <r>  -12.5263    1.0000 </r>
       <r>  -11.9997    1.0000 </r>
       <r>  -11.9447    1.0000 </r>
       <r>  -11.5661    1.0000 </r>
       <r>  -11.2966    1.0000 </r>
       <r>  -11.0865    1.0000 </r>
       <r>  -10.0919    1.0000 </r>
       <r>   -9.4410    1.0000 </r>
       <r>   -8.6029    1.0000 </r>
       <r>   -7.4881    1.0000 </r>
       <r>   -7.1242    1.0000 </r>
       <r>   -7.0129    1.0000 </r>
       <r>   -6.7581    1.0000 </r>
       <r>   -6.6836    1.0000 </r>
       <r>   -6.2167    1.0000 </r>
       <r>   -5.8338    1.0000 </r>
       <r>   -5.3368    1.0000 </r>
       <r>   -5.0721    1.0000 </r>
       <r>   -4.7274    1.0000 </r>
       <r>   -4.2412    1.0000 </r>
       <r>   -4.1310    1.0000 </r>
       <r>   -4.0351    1.0000 </r>
       <r>   -3.6941    1.0000 </r>
       <r>   -3.5091    1.0000 </r>
       <r>   -3.3751    1.0000 </r>
       <r>   -3.2157    1.0000 </r>
       <r>   -3.0051    1.0000 </r>
       <r>   -2.8749    1.0000 </r>
       <r>   -2.7960    1.0000 </r>
       <r>   -2.6963    1.0000 </r>
       <r>   -2.5892    1.0000 </r>
       <r>   -2.4805    1.0000 </r>
       <r>   -2.4324    1.0000 </r>
       <r>   -2.3825    1.0000 </r>
       <r>   -2.2767    1.0000 </r>
       <r>   -2.1689    1.0000 </r>
       <r>   -2.0471    1.0000 </r>
       <r>   -1.9717    1.0000 </r>
       <r>   -1.9468    1.0000 </r>
       <r>   -1.7164    1.0000 </r>
       <r>   -1.6266    1.0000 </r>
       <r>   -1.4928    1.0000 </r>
       <r>   -1.4494    1.0000 </r>
       <r>   -1.3691    1.0000 </r>
       <r>   -1.2231    1.0000 </r>
       <r>   -1.0758    1.0000 </r>
       <r>   -1.0186    1.0000 </r>
       <r>    0.1612    0.6769 </r>
       <r>    0.2104    0.4066 </r>
       <r>    0.9545    0.0000 </r>
       <r>    1.0717    0.0000 </r>
       <r>    1.1360    0.0000 </r>
       <r>    1.2207    0.0000 </r>
       <r>    1.3071    0.0000 </r>
       <r>    1.4377    0.0000 </r>
       <r>    1.6399    0.0000 </r>
       <r>    1.7762    0.0000 </r>
       <r>    1.7991    0.0000 </r>
       <r>    2.0872    0.0000 </r>
       <r>    2.1756    0.0000 </r>
       <r>    2.4479    0.0000 </r>
       <r>    2.5065    0.0000 </r>
       <r>    2.5734    0.0000 </r>
      </set>
      <set comment="kpoint 9">
       <r>  -15.0137    1.0000 </r>
       <r>  -13.4963    1.0000 </r>
       <r>  -13.2155    1.0000 </r>
       <r>  -13.0417    1.0000 </r>
       <r>  -12.5263    1.0000 </r>
       <r>  -12.4530    1.0000 </r>
       <r>  -11.9658    1.0000 </r>
       <r>  -11.8535    1.0000 </r>
       <r>  -11.5248    1.0000 </r>
       <r>  -11.2237    1.0000 </r>
       <r>  -11.0422    1.0000 </r>
       <r>  -10.0716    1.0000 </r>
       <r>   -9.4421    1.0000 </r>
       <r>   -8.6614    1.0000 </r>
       <r>   -7.4409    1.0000 </r>
       <r>   -7.1132    1.0000 </r>
       <r>   -6.9984    1.0000 </r>
       <r>   -6.7669    1.0000 </r>
       <r>   -6.6142    1.0000 </r>
       <r>   -6.1869    1.0000 </r>
       <r>   -5.7846    1.0000 </r>
       <r>   -5.5470    1.0000 </r>
       <r>   -5.2493    1.0000 </r>
       <r>   -4.7733    1.0000 </r>
       <r>   -4.3713    1.0000 </r>
       <r>   -4.1863    1.0000 </r>
       <r>   -4.0167    1.0000 </r>
       <r>   -3.7689    1.0000 </r>
       <r>   -3.6822    1.0000 </r>
       <r>   -3.5031    1.0000 </r>
       <r>   -3.4658    1.0000 </r>
       <r>   -3.2424    1.0000 </r>
       <r>   -3.1097    1.0000 </r>
       <r>   -2.9267    1.0000 </r>
       <r>   -2.8605    1.0000 </r>
       <r>   -2.7688    1.0000 </r>
       <r>   -2.6368    1.0000 </r>
       <r>   -2.5861    1.0000 </r>
       <r>   -2.5375    1.0000 </r>
       <r>   -2.3667    1.0000 </r>
       <r>   -2.2815    1.0000 </r>
       <r>   -2.1878    1.0000 </r>
       <r>   -2.0904    1.0000 </r>
       <r>   -1.9729    1.0000 </r>
       <r>   -1.9241    1.0000 </r>
       <r>   -1.8343    1.0000 </r>
       <r>   -1.5475    1.0000 </r>
       <r>   -1.5167    1.0000 </r>
       <r>   -1.3953    1.0000 </r>
       <r>   -1.1854    1.0000 </r>
       <r>   -1.0765    1.0000 </r>
       <r>   -0.9660    1.0000 </r>
       <r>    0.1553    0.7064 </r>
       <r>    0.2483    0.2200 </r>
       <r>    1.0238    0.0000 </r>
       <r>    1.1712    0.0000 </r>
       <r>    1.3109    0.0000 </r>
       <r>    1.5031    0.0000 </r>
       <r>    1.5474    0.0000 </r>
       <r>    1.7000    0.0000 </r>
       <r>    1.7985    0.0000 </r>
       <r>    1.8896    0.0000 </r>
       <r>    2.1420    0.0000 </r>
       <r>    2.3531    0.0000 </r>
       <r>    2.4494    0.0000 </r>
       <r>    2.5588    0.0000 </r>
       <r>    2.5974    0.0000 </r>
       <r>    2.8757    0.0000 </r>
      </set>
      <set comment="kpoint 10">
       <r>  -14.8536    1.0000 </r>
       <r>  -13.2998    1.0000 </r>
       <r>  -13.0550    1.0000 </r>
       <r>  -12.9051    1.0000 </r>
       <r>  -12.3577    1.0000 </r>
       <r>  -12.2720    1.0000 </r>
       <r>  -11.8346    1.0000 </r>
       <r>  -11.6574    1.0000 </r>
       <r>  -11.3854    1.0000 </r>
       <r>  -11.0539    1.0000 </r>
       <r>  -10.9010    1.0000 </r>
       <r>  -10.0384    1.0000 </r>
       <r>   -9.4061    1.0000 </r>
       <r>   -8.7270    1.0000 </r>
       <r>   -7.4113    1.0000 </r>
       <r>   -7.2275    1.0000 </r>
       <r>   -6.9526    1.0000 </r>
       <r>   -6.7448    1.0000 </r>
       <r>   -6.5848    1.0000 </r>
       <r>   -6.3552    1.0000 </r>
       <r>   -5.9812    1.0000 </r>
       <r>   -5.7367    1.0000 </r>
       <r>   -5.3268    1.0000 </r>
       <r>   -4.9324    1.0000 </r>
       <r>   -4.8045    1.0000 </r>
       <r>   -4.4687    1.0000 </r>
       <r>   -4.3818    1.0000 </r>
       <r>   -4.1252    1.0000 </r>
       <r>   -4.0465    1.0000 </r>
       <r>   -3.9065    1.0000 </r>
       <r>   -3.7472    1.0000 </r>
       <r>   -3.6999    1.0000 </r>
       <r>   -3.4877    1.0000 </r>
       <r>   -3.2862    1.0000 </r>
       <r>   -3.1485    1.0000 </r>
       <r>   -3.0512    1.0000 </r>
       <r>   -3.0320    1.0000 </r>
       <r>   -2.8957    1.0000 </r>
       <r>   -2.8340    1.0000 </r>
       <r>   -2.6915    1.0000 </r>
       <r>   -2.6161    1.0000 </r>
       <r>   -2.4295    1.0000 </r>
       <r>   -2.3954    1.0000 </r>
       <r>   -2.1926    1.0000 </r>
       <r>   -2.0183    1.0000 </r>
       <r>   -1.9684    1.0000 </r>
       <r>   -1.5993    1.0000 </r>
       <r>   -1.4938    1.0000 </r>
       <r>   -1.2684    1.0000 </r>
       <r>   -1.1346    1.0000 </r>
       <r>   -0.9856    1.0000 </r>
       <r>   -0.7321    1.0000 </r>
       <r>    0.0526    0.9770 </r>
       <r>    0.1458    0.7509 </r>
       <r>    0.6176    0.0000 </r>
       <r>    1.1529    0.0000 </r>
       <r>    1.2683    0.0000 </r>
       <r>    1.5789    0.0000 </r>
       <r>    1.6795    0.0000 </r>
       <r>    2.0178    0.0000 </r>
       <r>    2.1188    0.0000 </r>
       <r>    2.2792    0.0000 </r>
       <r>    2.4407    0.0000 </r>
       <r>    2.6633    0.0000 </r>
       <r>    2.7060    0.0000 </r>
       <r>    2.8427    0.0000 </r>
       <r>    2.9891    0.0000 </r>
       <r>    3.0425    0.0000 </r>
      </set>
      <set comment="kpoint 11">
       <r>  -14.5966    1.0000 </r>
       <r>  -12.9886    1.0000 </r>
       <r>  -12.7905    1.0000 </r>
       <r>  -12.6537    1.0000 </r>
       <r>  -12.0888    1.0000 </r>
       <r>  -11.9977    1.0000 </r>
       <r>  -11.6094    1.0000 </r>
       <r>  -11.3813    1.0000 </r>
       <r>  -11.1638    1.0000 </r>
       <r>  -10.8045    1.0000 </r>
       <r>  -10.6838    1.0000 </r>
       <r>  -10.0565    1.0000 </r>
       <r>   -9.3538    1.0000 </r>
       <r>   -8.8583    1.0000 </r>
       <r>   -7.7551    1.0000 </r>
       <r>   -7.4800    1.0000 </r>
       <r>   -6.9642    1.0000 </r>
       <r>   -6.7846    1.0000 </r>
       <r>   -6.7322    1.0000 </r>
       <r>   -6.6498    1.0000 </r>
       <r>   -6.1045    1.0000 </r>
       <r>   -5.9085    1.0000 </r>
       <r>   -5.5007    1.0000 </r>
       <r>   -5.4289    1.0000 </r>
       <r>   -5.2947    1.0000 </r>
       <r>   -5.1132    1.0000 </r>
       <r>   -4.7580    1.0000 </r>
       <r>   -4.6432    1.0000 </r>
       <r>   -4.5790    1.0000 </r>
       <r>   -4.2301    1.0000 </r>
       <r>   -4.1193    1.0000 </r>
       <r>   -3.9300    1.0000 </r>
       <r>   -3.8168    1.0000 </r>
       <r>   -3.6536    1.0000 </r>
       <r>   -3.3666    1.0000 </r>
       <r>   -3.2854    1.0000 </r>
       <r>   -3.2066    1.0000 </r>
       <r>   -3.1732    1.0000 </r>
       <r>   -2.9219    1.0000 </r>
       <r>   -2.7696    1.0000 </r>
       <r>   -2.6852    1.0000 </r>
       <r>   -2.6135    1.0000 </r>
       <r>   -2.4642    1.0000 </r>
       <r>   -2.2654    1.0000 </r>
       <r>   -2.0781    1.0000 </r>
       <r>   -1.9739    1.0000 </r>
       <r>   -1.8598    1.0000 </r>
       <r>   -1.5747    1.0000 </r>
       <r>   -1.4846    1.0000 </r>
       <r>   -1.1966    1.0000 </r>
       <r>   -1.0766    1.0000 </r>
       <r>   -0.3653    1.0000 </r>
       <r>   -0.3207    1.0000 </r>
       <r>   -0.0935    1.0000 </r>
       <r>    0.3724    0.0057 </r>
       <r>    1.0283    0.0000 </r>
       <r>    1.1783    0.0000 </r>
       <r>    1.3659    0.0000 </r>
       <r>    1.4993    0.0000 </r>
       <r>    1.6369    0.0000 </r>
       <r>    1.9713    0.0000 </r>
       <r>    2.1473    0.0000 </r>
       <r>    2.2748    0.0000 </r>
       <r>    2.5258    0.0000 </r>
       <r>    2.6305    0.0000 </r>
       <r>    2.7850    0.0000 </r>
       <r>    2.9518    0.0000 </r>
       <r>    3.1378    0.0000 </r>
      </set>
      <set comment="kpoint 12">
       <r>  -14.2628    1.0000 </r>
       <r>  -12.5724    1.0000 </r>
       <r>  -12.4431    1.0000 </r>
       <r>  -12.2946    1.0000 </r>
       <r>  -11.7381    1.0000 </r>
       <r>  -11.6651    1.0000 </r>
       <r>  -11.3137    1.0000 </r>
       <r>  -11.0681    1.0000 </r>
       <r>  -10.9002    1.0000 </r>
       <r>  -10.5370    1.0000 </r>
       <r>  -10.4786    1.0000 </r>
       <r>  -10.1843    1.0000 </r>
       <r>   -9.3189    1.0000 </r>
       <r>   -9.0575    1.0000 </r>
       <r>   -8.3726    1.0000 </r>
       <r>   -7.7948    1.0000 </r>
       <r>   -7.2608    1.0000 </r>
       <r>   -7.1977    1.0000 </r>
       <r>   -7.0504    1.0000 </r>
       <r>   -6.9093    1.0000 </r>
       <r>   -6.3306    1.0000 </r>
       <r>   -6.2766    1.0000 </r>
       <r>   -6.0136    1.0000 </r>
       <r>   -5.9882    1.0000 </r>
       <r>   -5.6254    1.0000 </r>
       <r>   -5.4635    1.0000 </r>
       <r>   -5.0291    1.0000 </r>
       <r>   -4.9790    1.0000 </r>
       <r>   -4.5151    1.0000 </r>
       <r>   -4.4220    1.0000 </r>
       <r>   -4.3598    1.0000 </r>
       <r>   -4.1602    1.0000 </r>
       <r>   -4.0849    1.0000 </r>
       <r>   -3.6587    1.0000 </r>
       <r>   -3.4275    1.0000 </r>
       <r>   -3.3451    1.0000 </r>
       <r>   -3.1817    1.0000 </r>
       <r>   -3.0877    1.0000 </r>
       <r>   -2.9574    1.0000 </r>
       <r>   -2.8578    1.0000 </r>
       <r>   -2.7608    1.0000 </r>
       <r>   -2.5950    1.0000 </r>
       <r>   -2.5421    1.0000 </r>
       <r>   -2.4088    1.0000 </r>
       <r>   -2.3350    1.0000 </r>
       <r>   -2.0480    1.0000 </r>
       <r>   -1.9664    1.0000 </r>
       <r>   -1.8328    1.0000 </r>
       <r>   -1.6423    1.0000 </r>
       <r>   -1.4124    1.0000 </r>
       <r>   -1.1803    1.0000 </r>
       <r>   -0.7692    1.0000 </r>
       <r>   -0.6059    1.0000 </r>
       <r>   -0.2640    1.0000 </r>
       <r>    0.2088    0.4152 </r>
       <r>    0.8558    0.0000 </r>
       <r>    1.1221    0.0000 </r>
       <r>    1.1663    0.0000 </r>
       <r>    1.3278    0.0000 </r>
       <r>    1.4940    0.0000 </r>
       <r>    1.7266    0.0000 </r>
       <r>    1.9394    0.0000 </r>
       <r>    2.0936    0.0000 </r>
       <r>    2.2584    0.0000 </r>
       <r>    2.3893    0.0000 </r>
       <r>    2.5442    0.0000 </r>
       <r>    2.6995    0.0000 </r>
       <r>    2.8771    0.0000 </r>
      </set>
      <set comment="kpoint 13">
       <r>  -13.9003    1.0000 </r>
       <r>  -12.0881    1.0000 </r>
       <r>  -12.0605    1.0000 </r>
       <r>  -11.8445    1.0000 </r>
       <r>  -11.3889    1.0000 </r>
       <r>  -11.3304    1.0000 </r>
       <r>  -11.0098    1.0000 </r>
       <r>  -10.8110    1.0000 </r>
       <r>  -10.6897    1.0000 </r>
       <r>  -10.5558    1.0000 </r>
       <r>  -10.5182    1.0000 </r>
       <r>  -10.1266    1.0000 </r>
       <r>   -9.3857    1.0000 </r>
       <r>   -9.0477    1.0000 </r>
       <r>   -8.8737    1.0000 </r>
       <r>   -8.1989    1.0000 </r>
       <r>   -7.8659    1.0000 </r>
       <r>   -7.6655    1.0000 </r>
       <r>   -7.4461    1.0000 </r>
       <r>   -7.1482    1.0000 </r>
       <r>   -6.8493    1.0000 </r>
       <r>   -6.7834    1.0000 </r>
       <r>   -6.7447    1.0000 </r>
       <r>   -6.4158    1.0000 </r>
       <r>   -5.4936    1.0000 </r>
       <r>   -5.4256    1.0000 </r>
       <r>   -4.9835    1.0000 </r>
       <r>   -4.8692    1.0000 </r>
       <r>   -4.6000    1.0000 </r>
       <r>   -4.4661    1.0000 </r>
       <r>   -4.2074    1.0000 </r>
       <r>   -4.0628    1.0000 </r>
       <r>   -3.9481    1.0000 </r>
       <r>   -3.6109    1.0000 </r>
       <r>   -3.4381    1.0000 </r>
       <r>   -3.3757    1.0000 </r>
       <r>   -3.2960    1.0000 </r>
       <r>   -3.2515    1.0000 </r>
       <r>   -3.2027    1.0000 </r>
       <r>   -3.0139    1.0000 </r>
       <r>   -2.9376    1.0000 </r>
       <r>   -2.7315    1.0000 </r>
       <r>   -2.5610    1.0000 </r>
       <r>   -2.4539    1.0000 </r>
       <r>   -2.3795    1.0000 </r>
       <r>   -2.2295    1.0000 </r>
       <r>   -2.1577    1.0000 </r>
       <r>   -1.9438    1.0000 </r>
       <r>   -1.6520    1.0000 </r>
       <r>   -1.5474    1.0000 </r>
       <r>   -1.3957    1.0000 </r>
       <r>   -1.0608    1.0000 </r>
       <r>   -0.8303    1.0000 </r>
       <r>   -0.3626    1.0000 </r>
       <r>    0.0377    0.9863 </r>
       <r>    0.7499    0.0000 </r>
       <r>    1.0983    0.0000 </r>
       <r>    1.1962    0.0000 </r>
       <r>    1.2430    0.0000 </r>
       <r>    1.3849    0.0000 </r>
       <r>    1.5895    0.0000 </r>
       <r>    1.7440    0.0000 </r>
       <r>    1.7773    0.0000 </r>
       <r>    1.9825    0.0000 </r>
       <r>    2.1419    0.0000 </r>
       <r>    2.4929    0.0000 </r>
       <r>    2.5592    0.0000 </r>
       <r>    2.6010    0.0000 </r>
      </set>
      <set comment="kpoint 14">
       <r>  -13.6256    1.0000 </r>
       <r>  -11.8887    1.0000 </r>
       <r>  -11.5180    1.0000 </r>
       <r>  -11.3491    1.0000 </r>
       <r>  -11.2291    1.0000 </r>
       <r>  -11.0481    1.0000 </r>
       <r>  -10.9510    1.0000 </r>
       <r>  -10.8084    1.0000 </r>
       <r>  -10.7853    1.0000 </r>
       <r>  -10.6691    1.0000 </r>
       <r>  -10.5247    1.0000 </r>
       <r>   -9.9376    1.0000 </r>
       <r>   -9.6535    1.0000 </r>
       <r>   -9.1008    1.0000 </r>
       <r>   -8.6411    1.0000 </r>
       <r>   -8.4861    1.0000 </r>
       <r>   -8.4155    1.0000 </r>
       <r>   -7.8537    1.0000 </r>
       <r>   -7.6047    1.0000 </r>
       <r>   -7.4047    1.0000 </r>
       <r>   -7.3674    1.0000 </r>
       <r>   -7.2669    1.0000 </r>
       <r>   -7.2222    1.0000 </r>
       <r>   -6.5840    1.0000 </r>
       <r>   -5.2982    1.0000 </r>
       <r>   -5.1083    1.0000 </r>
       <r>   -4.9818    1.0000 </r>
       <r>   -4.5650    1.0000 </r>
       <r>   -4.4723    1.0000 </r>
       <r>   -4.2551    1.0000 </r>
       <r>   -4.2230    1.0000 </r>
       <r>   -4.0210    1.0000 </r>
       <r>   -3.8905    1.0000 </r>
       <r>   -3.8277    1.0000 </r>
       <r>   -3.7439    1.0000 </r>
       <r>   -3.5829    1.0000 </r>
       <r>   -3.5421    1.0000 </r>
       <r>   -3.3438    1.0000 </r>
       <r>   -3.1204    1.0000 </r>
       <r>   -3.0572    1.0000 </r>
       <r>   -2.9688    1.0000 </r>
       <r>   -2.7402    1.0000 </r>
       <r>   -2.6879    1.0000 </r>
       <r>   -2.5746    1.0000 </r>
       <r>   -2.5228    1.0000 </r>
       <r>   -2.2489    1.0000 </r>
       <r>   -2.2055    1.0000 </r>
       <r>   -1.8106    1.0000 </r>
       <r>   -1.7458    1.0000 </r>
       <r>   -1.6377    1.0000 </r>
       <r>   -1.5236    1.0000 </r>
       <r>   -1.1467    1.0000 </r>
       <r>   -0.9515    1.0000 </r>
       <r>   -0.3468    1.0000 </r>
       <r>   -0.0597    0.9998 </r>
       <r>    0.7183    0.0000 </r>
       <r>    1.1493    0.0000 </r>
       <r>    1.2253    0.0000 </r>
       <r>    1.3444    0.0000 </r>
       <r>    1.4310    0.0000 </r>
       <r>    1.4829    0.0000 </r>
       <r>    1.5961    0.0000 </r>
       <r>    1.7344    0.0000 </r>
       <r>    1.8058    0.0000 </r>
       <r>    2.0981    0.0000 </r>
       <r>    2.3449    0.0000 </r>
       <r>    2.3949    0.0000 </r>
       <r>    2.4436    0.0000 </r>
      </set>
      <set comment="kpoint 15">
       <r>  -13.6261    1.0000 </r>
       <r>  -11.8867    1.0000 </r>
       <r>  -11.6219    1.0000 </r>
       <r>  -11.2230    1.0000 </r>
       <r>  -11.1559    1.0000 </r>
       <r>  -11.0220    1.0000 </r>
       <r>  -10.8948    1.0000 </r>
       <r>  -10.8437    1.0000 </r>
       <r>  -10.8062    1.0000 </r>
       <r>  -10.7910    1.0000 </r>
       <r>  -10.5318    1.0000 </r>
       <r>   -9.9634    1.0000 </r>
       <r>   -9.6386    1.0000 </r>
       <r>   -9.0977    1.0000 </r>
       <r>   -8.8429    1.0000 </r>
       <r>   -8.5208    1.0000 </r>
       <r>   -8.0310    1.0000 </r>
       <r>   -7.8092    1.0000 </r>
       <r>   -7.6918    1.0000 </r>
       <r>   -7.4828    1.0000 </r>
       <r>   -7.3667    1.0000 </r>
       <r>   -7.3069    1.0000 </r>
       <r>   -7.2004    1.0000 </r>
       <r>   -6.5591    1.0000 </r>
       <r>   -5.2684    1.0000 </r>
       <r>   -5.0011    1.0000 </r>
       <r>   -4.8254    1.0000 </r>
       <r>   -4.6681    1.0000 </r>
       <r>   -4.4789    1.0000 </r>
       <r>   -4.3349    1.0000 </r>
       <r>   -4.1316    1.0000 </r>
       <r>   -4.0786    1.0000 </r>
       <r>   -4.0319    1.0000 </r>
       <r>   -3.9682    1.0000 </r>
       <r>   -3.7650    1.0000 </r>
       <r>   -3.7185    1.0000 </r>
       <r>   -3.6095    1.0000 </r>
       <r>   -3.4364    1.0000 </r>
       <r>   -3.0492    1.0000 </r>
       <r>   -2.8874    1.0000 </r>
       <r>   -2.8780    1.0000 </r>
       <r>   -2.7644    1.0000 </r>
       <r>   -2.6487    1.0000 </r>
       <r>   -2.5770    1.0000 </r>
       <r>   -2.4680    1.0000 </r>
       <r>   -2.2568    1.0000 </r>
       <r>   -2.2116    1.0000 </r>
       <r>   -1.8705    1.0000 </r>
       <r>   -1.7817    1.0000 </r>
       <r>   -1.5833    1.0000 </r>
       <r>   -1.4574    1.0000 </r>
       <r>   -1.1638    1.0000 </r>
       <r>   -0.9681    1.0000 </r>
       <r>   -0.3390    1.0000 </r>
       <r>   -0.0229    0.9989 </r>
       <r>    0.7813    0.0000 </r>
       <r>    1.1699    0.0000 </r>
       <r>    1.2850    0.0000 </r>
       <r>    1.3348    0.0000 </r>
       <r>    1.5297    0.0000 </r>
       <r>    1.5774    0.0000 </r>
       <r>    1.6878    0.0000 </r>
       <r>    1.8030    0.0000 </r>
       <r>    1.8904    0.0000 </r>
       <r>    2.1814    0.0000 </r>
       <r>    2.2879    0.0000 </r>
       <r>    2.4726    0.0000 </r>
       <r>    2.5236    0.0000 </r>
      </set>
      <set comment="kpoint 16">
       <r>  -13.9017    1.0000 </r>
       <r>  -12.1897    1.0000 </r>
       <r>  -12.0552    1.0000 </r>
       <r>  -11.5706    1.0000 </r>
       <r>  -11.4471    1.0000 </r>
       <r>  -11.3314    1.0000 </r>
       <r>  -11.0193    1.0000 </r>
       <r>  -10.9350    1.0000 </r>
       <r>  -10.7162    1.0000 </r>
       <r>  -10.5716    1.0000 </r>
       <r>  -10.5370    1.0000 </r>
       <r>  -10.1292    1.0000 </r>
       <r>   -9.3717    1.0000 </r>
       <r>   -8.8888    1.0000 </r>
       <r>   -8.8283    1.0000 </r>
       <r>   -8.5780    1.0000 </r>
       <r>   -7.5580    1.0000 </r>
       <r>   -7.5279    1.0000 </r>
       <r>   -7.4166    1.0000 </r>
       <r>   -7.2702    1.0000 </r>
       <r>   -6.8945    1.0000 </r>
       <r>   -6.8738    1.0000 </r>
       <r>   -6.7530    1.0000 </r>
       <r>   -6.3381    1.0000 </r>
       <r>   -5.4370    1.0000 </r>
       <r>   -5.1588    1.0000 </r>
       <r>   -4.9858    1.0000 </r>
       <r>   -4.8885    1.0000 </r>
       <r>   -4.5130    1.0000 </r>
       <r>   -4.4651    1.0000 </r>
       <r>   -4.3402    1.0000 </r>
       <r>   -4.2153    1.0000 </r>
       <r>   -4.1732    1.0000 </r>
       <r>   -3.8116    1.0000 </r>
       <r>   -3.6036    1.0000 </r>
       <r>   -3.4946    1.0000 </r>
       <r>   -3.4079    1.0000 </r>
       <r>   -3.2535    1.0000 </r>
       <r>   -3.1574    1.0000 </r>
       <r>   -2.9428    1.0000 </r>
       <r>   -2.7941    1.0000 </r>
       <r>   -2.6809    1.0000 </r>
       <r>   -2.5905    1.0000 </r>
       <r>   -2.4462    1.0000 </r>
       <r>   -2.3257    1.0000 </r>
       <r>   -2.1885    1.0000 </r>
       <r>   -2.0306    1.0000 </r>
       <r>   -1.9148    1.0000 </r>
       <r>   -1.6754    1.0000 </r>
       <r>   -1.5088    1.0000 </r>
       <r>   -1.3678    1.0000 </r>
       <r>   -1.0923    1.0000 </r>
       <r>   -0.8826    1.0000 </r>
       <r>   -0.3418    1.0000 </r>
       <r>    0.1486    0.7382 </r>
       <r>    0.8877    0.0000 </r>
       <r>    1.1773    0.0000 </r>
       <r>    1.3372    0.0000 </r>
       <r>    1.4653    0.0000 </r>
       <r>    1.6554    0.0000 </r>
       <r>    1.7559    0.0000 </r>
       <r>    1.8298    0.0000 </r>
       <r>    1.9681    0.0000 </r>
       <r>    2.0815    0.0000 </r>
       <r>    2.2072    0.0000 </r>
       <r>    2.3427    0.0000 </r>
       <r>    2.5164    0.0000 </r>
       <r>    2.6738    0.0000 </r>
      </set>
      <set comment="kpoint 17">
       <r>  -14.2648    1.0000 </r>
       <r>  -12.6834    1.0000 </r>
       <r>  -12.4041    1.0000 </r>
       <r>  -12.0330    1.0000 </r>
       <r>  -11.7977    1.0000 </r>
       <r>  -11.7254    1.0000 </r>
       <r>  -11.3294    1.0000 </r>
       <r>  -11.1488    1.0000 </r>
       <r>  -10.8603    1.0000 </r>
       <r>  -10.7184    1.0000 </r>
       <r>  -10.5080    1.0000 </r>
       <r>  -10.1044    1.0000 </r>
       <r>   -9.2736    1.0000 </r>
       <r>   -8.6416    1.0000 </r>
       <r>   -8.4104    1.0000 </r>
       <r>   -8.2743    1.0000 </r>
       <r>   -7.2195    1.0000 </r>
       <r>   -7.0884    1.0000 </r>
       <r>   -6.9579    1.0000 </r>
       <r>   -6.8996    1.0000 </r>
       <r>   -6.4036    1.0000 </r>
       <r>   -6.2405    1.0000 </r>
       <r>   -6.0626    1.0000 </r>
       <r>   -6.0172    1.0000 </r>
       <r>   -5.5350    1.0000 </r>
       <r>   -5.2360    1.0000 </r>
       <r>   -4.9977    1.0000 </r>
       <r>   -4.8744    1.0000 </r>
       <r>   -4.7258    1.0000 </r>
       <r>   -4.4957    1.0000 </r>
       <r>   -4.3950    1.0000 </r>
       <r>   -4.3241    1.0000 </r>
       <r>   -4.0142    1.0000 </r>
       <r>   -3.6869    1.0000 </r>
       <r>   -3.5452    1.0000 </r>
       <r>   -3.4816    1.0000 </r>
       <r>   -3.2290    1.0000 </r>
       <r>   -3.1581    1.0000 </r>
       <r>   -3.0225    1.0000 </r>
       <r>   -2.8569    1.0000 </r>
       <r>   -2.7530    1.0000 </r>
       <r>   -2.6855    1.0000 </r>
       <r>   -2.5387    1.0000 </r>
       <r>   -2.3621    1.0000 </r>
       <r>   -2.1083    1.0000 </r>
       <r>   -1.9648    1.0000 </r>
       <r>   -1.9491    1.0000 </r>
       <r>   -1.7935    1.0000 </r>
       <r>   -1.5749    1.0000 </r>
       <r>   -1.4239    1.0000 </r>
       <r>   -1.1640    1.0000 </r>
       <r>   -0.8933    1.0000 </r>
       <r>   -0.6382    1.0000 </r>
       <r>   -0.2836    1.0000 </r>
       <r>    0.3596    0.0095 </r>
       <r>    1.0053    0.0000 </r>
       <r>    1.2957    0.0000 </r>
       <r>    1.4680    0.0000 </r>
       <r>    1.6265    0.0000 </r>
       <r>    1.8099    0.0000 </r>
       <r>    1.8664    0.0000 </r>
       <r>    1.9599    0.0000 </r>
       <r>    2.0884    0.0000 </r>
       <r>    2.2018    0.0000 </r>
       <r>    2.3266    0.0000 </r>
       <r>    2.6016    0.0000 </r>
       <r>    2.6653    0.0000 </r>
       <r>    2.7830    0.0000 </r>
      </set>
      <set comment="kpoint 18">
       <r>  -14.5985    1.0000 </r>
       <r>  -13.0787    1.0000 </r>
       <r>  -12.7522    1.0000 </r>
       <r>  -12.4376    1.0000 </r>
       <r>  -12.1314    1.0000 </r>
       <r>  -12.0722    1.0000 </r>
       <r>  -11.6250    1.0000 </r>
       <r>  -11.4550    1.0000 </r>
       <r>  -11.1168    1.0000 </r>
       <r>  -10.9416    1.0000 </r>
       <r>  -10.6860    1.0000 </r>
       <r>  -10.0289    1.0000 </r>
       <r>   -9.2760    1.0000 </r>
       <r>   -8.4859    1.0000 </r>
       <r>   -7.8712    1.0000 </r>
       <r>   -7.7847    1.0000 </r>
       <r>   -7.0484    1.0000 </r>
       <r>   -6.7793    1.0000 </r>
       <r>   -6.7255    1.0000 </r>
       <r>   -6.4946    1.0000 </r>
       <r>   -6.1723    1.0000 </r>
       <r>   -5.8256    1.0000 </r>
       <r>   -5.6670    1.0000 </r>
       <r>   -5.4214    1.0000 </r>
       <r>   -5.2923    1.0000 </r>
       <r>   -4.9173    1.0000 </r>
       <r>   -4.6906    1.0000 </r>
       <r>   -4.6100    1.0000 </r>
       <r>   -4.4807    1.0000 </r>
       <r>   -4.3435    1.0000 </r>
       <r>   -4.2519    1.0000 </r>
       <r>   -3.8866    1.0000 </r>
       <r>   -3.8194    1.0000 </r>
       <r>   -3.6115    1.0000 </r>
       <r>   -3.5366    1.0000 </r>
       <r>   -3.4303    1.0000 </r>
       <r>   -3.2591    1.0000 </r>
       <r>   -3.0821    1.0000 </r>
       <r>   -3.0540    1.0000 </r>
       <r>   -2.7395    1.0000 </r>
       <r>   -2.6534    1.0000 </r>
       <r>   -2.5337    1.0000 </r>
       <r>   -2.4360    1.0000 </r>
       <r>   -2.2869    1.0000 </r>
       <r>   -1.9828    1.0000 </r>
       <r>   -1.9123    1.0000 </r>
       <r>   -1.8284    1.0000 </r>
       <r>   -1.5733    1.0000 </r>
       <r>   -1.5239    1.0000 </r>
       <r>   -1.2160    1.0000 </r>
       <r>   -1.0867    1.0000 </r>
       <r>   -0.4177    1.0000 </r>
       <r>   -0.2898    1.0000 </r>
       <r>   -0.2359    1.0000 </r>
       <r>    0.5143    0.0000 </r>
       <r>    1.0779    0.0000 </r>
       <r>    1.3397    0.0000 </r>
       <r>    1.6202    0.0000 </r>
       <r>    1.7384    0.0000 </r>
       <r>    1.9082    0.0000 </r>
       <r>    1.9632    0.0000 </r>
       <r>    2.1789    0.0000 </r>
       <r>    2.2604    0.0000 </r>
       <r>    2.3475    0.0000 </r>
       <r>    2.6300    0.0000 </r>
       <r>    2.8303    0.0000 </r>
       <r>    2.8881    0.0000 </r>
[...]
       <r>    2.6549    0.0000 </r>
      </set>
      <set comment="kpoint 54">
       <r>  -13.6258    1.0000 </r>
       <r>  -11.8853    1.0000 </r>
       <r>  -11.5770    1.0000 </r>
       <r>  -11.2547    1.0000 </r>
       <r>  -11.2351    1.0000 </r>
       <r>  -11.0387    1.0000 </r>
       <r>  -10.9359    1.0000 </r>
       <r>  -10.8083    1.0000 </r>
       <r>  -10.7935    1.0000 </r>
       <r>  -10.7099    1.0000 </r>
       <r>  -10.5414    1.0000 </r>
       <r>   -9.9400    1.0000 </r>
       <r>   -9.6561    1.0000 </r>
       <r>   -9.0794    1.0000 </r>
       <r>   -8.7514    1.0000 </r>
       <r>   -8.5276    1.0000 </r>
       <r>   -8.2059    1.0000 </r>
       <r>   -7.8535    1.0000 </r>
       <r>   -7.6485    1.0000 </r>
       <r>   -7.4562    1.0000 </r>
       <r>   -7.3778    1.0000 </r>
       <r>   -7.2571    1.0000 </r>
       <r>   -7.2068    1.0000 </r>
       <r>   -6.5512    1.0000 </r>
       <r>   -5.3037    1.0000 </r>
       <r>   -5.0414    1.0000 </r>
       <r>   -5.0043    1.0000 </r>
       <r>   -4.5705    1.0000 </r>
       <r>   -4.4459    1.0000 </r>
       <r>   -4.2725    1.0000 </r>
       <r>   -4.1575    1.0000 </r>
       <r>   -4.0492    1.0000 </r>
       <r>   -3.9617    1.0000 </r>
       <r>   -3.8525    1.0000 </r>
       <r>   -3.7686    1.0000 </r>
       <r>   -3.6658    1.0000 </r>
       <r>   -3.6125    1.0000 </r>
       <r>   -3.3425    1.0000 </r>
       <r>   -3.1203    1.0000 </r>
       <r>   -3.0230    1.0000 </r>
       <r>   -2.9329    1.0000 </r>
       <r>   -2.7742    1.0000 </r>
       <r>   -2.5897    1.0000 </r>
       <r>   -2.5311    1.0000 </r>
       <r>   -2.4533    1.0000 </r>
       <r>   -2.2806    1.0000 </r>
       <r>   -2.1881    1.0000 </r>
       <r>   -1.8672    1.0000 </r>
       <r>   -1.7914    1.0000 </r>
       <r>   -1.6126    1.0000 </r>
       <r>   -1.5381    1.0000 </r>
       <r>   -1.1518    1.0000 </r>
       <r>   -0.9728    1.0000 </r>
       <r>   -0.3937    1.0000 </r>
       <r>    0.0146    0.9943 </r>
       <r>    0.8229    0.0000 </r>
       <r>    1.1543    0.0000 </r>
       <r>    1.2593    0.0000 </r>
       <r>    1.2749    0.0000 </r>
       <r>    1.4855    0.0000 </r>
       <r>    1.5302    0.0000 </r>
       <r>    1.6481    0.0000 </r>
       <r>    1.7349    0.0000 </r>
       <r>    1.8462    0.0000 </r>
       <r>    1.9702    0.0000 </r>
       <r>    2.2847    0.0000 </r>
       <r>    2.4011    0.0000 </r>
       <r>    2.6164    0.0000 </r>
      </set>
     </set>
    </set>
   </array>
  </eigenvalues>
  <separator name="orbital magnetization" >
   <v name="MAGDIPOLOUT">      0.00000000      0.00000000      0.00000000</v>
  </separator>
  <dos>
   <i name="efermi">      0.19367182 </i>
   <total>
    <array>
     <dimension dim="1">gridpoints</dimension>
     <dimension dim="2">spin</dimension>
     <field>energy</field>
     <field>total</field>
     <field>integrated</field>
     <set>
      <set comment="spin 1">
       <r>   -16.0699     0.0000     0.0000 </r>
       <r>   -16.0025     0.0000     0.0000 </r>
       <r>   -15.9351     0.0000     0.0000 </r>
       <r>   -15.8678     0.0000     0.0000 </r>
       <r>   -15.8004     0.0000     0.0000 </r>
       <r>   -15.7330     0.0000     0.0000 </r>
       <r>   -15.6657     0.0000     0.0000 </r>
       <r>   -15.5983     0.0000     0.0000 </r>
       <r>   -15.5309     0.0000     0.0000 </r>
       <r>   -15.4636     0.0000     0.0000 </r>
       <r>   -15.3962     0.0000     0.0000 </r>
       <r>   -15.3289     0.0003     0.0000 </r>
       <r>   -15.2615     0.0080     0.0006 </r>
       <r>   -15.1941     0.1023     0.0074 </r>
       <r>   -15.1268     0.6092     0.0485 </r>
       <r>   -15.0594     1.7361     0.1654 </r>
       <r>   -14.9920     2.4683     0.3317 </r>
       <r>   -14.9247     2.1397     0.4758 </r>
       <r>   -14.8573     1.9319     0.6060 </r>
       <r>   -14.7900     1.6070     0.7142 </r>
       <r>   -14.7226     0.8495     0.7715 </r>
       <r>   -14.6552     0.9023     0.8322 </r>
       <r>   -14.5879     1.5960     0.9398 </r>
       <r>   -14.5205     1.4063     1.0345 </r>
       <r>   -14.4531     0.5529     1.0717 </r>
       <r>   -14.3858     0.2639     1.0895 </r>
       <r>   -14.3184     0.8176     1.1446 </r>
       <r>   -14.2510     1.6060     1.2528 </r>
       <r>   -14.1837     1.3698     1.3450 </r>
       <r>   -14.1163     0.5083     1.3793 </r>
       <r>   -14.0490     0.1569     1.3898 </r>
       <r>   -13.9816     0.5028     1.4237 </r>
       <r>   -13.9142     1.3638     1.5156 </r>
       <r>   -13.8469     1.6137     1.6243 </r>
       <r>   -13.7795     0.8946     1.6846 </r>
       <r>   -13.7121     0.7300     1.7337 </r>
       <r>   -13.6448     1.8329     1.8572 </r>
       <r>   -13.5774     2.9617     2.0567 </r>
       <r>   -13.5101     2.8416     2.2481 </r>
       <r>   -13.4427     2.2249     2.3980 </r>
       <r>   -13.3753     2.0850     2.5385 </r>
       <r>   -13.3080     2.5947     2.7133 </r>
       <r>   -13.2406     3.4938     2.9486 </r>
       <r>   -13.1732     3.8183     3.2058 </r>
       <r>   -13.1059     3.7817     3.4606 </r>
       <r>   -13.0385     4.4529     3.7605 </r>
       <r>   -12.9711     4.5235     4.0652 </r>
       <r>   -12.9038     3.3326     4.2897 </r>
       <r>   -12.8364     2.5777     4.4634 </r>
       <r>   -12.7691     3.0463     4.6686 </r>
       <r>   -12.7017     3.8639     4.9289 </r>
       <r>   -12.6343     4.5356     5.2344 </r>
       <r>   -12.5670     5.2450     5.5877 </r>
       <r>   -12.4996     5.9785     5.9904 </r>
       <r>   -12.4322     6.5876     6.4342 </r>
       <r>   -12.3649     6.4857     6.8711 </r>
       <r>   -12.2975     5.1701     7.2194 </r>
       <r>   -12.2302     4.0513     7.4923 </r>
       <r>   -12.1628     4.7582     7.8128 </r>
       <r>   -12.0954     7.0260     8.2861 </r>
       <r>   -12.0281     8.1346     8.8341 </r>
       <r>   -11.9607     7.2741     9.3241 </r>
       <r>   -11.8933     6.8563     9.7859 </r>
       <r>   -11.8260     6.9639    10.2551 </r>
       <r>   -11.7586     6.8668    10.7176 </r>
       <r>   -11.6912     7.2467    11.2058 </r>
       <r>   -11.6239     7.7623    11.7287 </r>
       <r>   -11.5565     7.5095    12.2345 </r>
       <r>   -11.4892     6.7138    12.6868 </r>
       <r>   -11.4218     7.0574    13.1622 </r>
       <r>   -11.3544     8.7617    13.7524 </r>
       <r>   -11.2871     9.6757    14.4042 </r>
       <r>   -11.2197     9.2759    15.0291 </r>
       <r>   -11.1523     9.0140    15.6363 </r>
       <r>   -11.0850     9.2988    16.2627 </r>
       <r>   -11.0176     9.8564    16.9266 </r>
       <r>   -10.9503    10.2334    17.6160 </r>
       <r>   -10.8829    10.5095    18.3239 </r>
       <r>   -10.8155    10.2807    19.0165 </r>
       <r>   -10.7482     9.3882    19.6489 </r>
       <r>   -10.6808     8.2129    20.2021 </r>
       <r>   -10.6134     7.0895    20.6797 </r>
       <r>   -10.5461     7.4344    21.1805 </r>
       <r>   -10.4787     7.1198    21.6601 </r>
       <r>   -10.4113     3.8711    21.9209 </r>
       <r>   -10.3440     1.0604    21.9923 </r>
       <r>   -10.2766     0.4047    22.0196 </r>
       <r>   -10.2093     1.5134    22.1215 </r>
       <r>   -10.1419     4.5148    22.4257 </r>
       <r>   -10.0745     7.7033    22.9446 </r>
       <r>   -10.0072     7.7714    23.4681 </r>
       <r>    -9.9398     4.9749    23.8032 </r>
       <r>    -9.8724     2.1992    23.9514 </r>
       <r>    -9.8051     0.6791    23.9971 </r>
       <r>    -9.7377     0.4901    24.0301 </r>
       <r>    -9.6704     1.2438    24.1139 </r>
       <r>    -9.6030     1.7958    24.2349 </r>
       <r>    -9.5356     1.7415    24.3522 </r>
       <r>    -9.4683     2.6959    24.5338 </r>
       <r>    -9.4009     5.1211    24.8788 </r>
       <r>    -9.3335     6.9364    25.3460 </r>
       <r>    -9.2662     5.9547    25.7472 </r>
       <r>    -9.1988     3.3095    25.9701 </r>
       <r>    -9.1314     2.2134    26.1192 </r>
       <r>    -9.0641     2.8404    26.3105 </r>
       <r>    -8.9967     3.1119    26.5202 </r>
       <r>    -8.9294     3.4057    26.7496 </r>
       <r>    -8.8620     4.6678    27.0640 </r>
       <r>    -8.7946     5.1336    27.4098 </r>
       <r>    -8.7273     4.1172    27.6872 </r>
       <r>    -8.6599     3.2434    27.9057 </r>
       <r>    -8.5925     3.3308    28.1301 </r>
       <r>    -8.5252     4.1512    28.4097 </r>
       <r>    -8.4578     4.9077    28.7403 </r>
       <r>    -8.3905     4.6226    29.0517 </r>
       <r>    -8.3231     3.4752    29.2858 </r>
       <r>    -8.2557     2.7213    29.4691 </r>
       <r>    -8.1884     2.8064    29.6581 </r>
       <r>    -8.1210     2.5171    29.8277 </r>
       <r>    -8.0536     1.5764    29.9339 </r>
       <r>    -7.9863     1.2563    30.0185 </r>
       <r>    -7.9189     2.4408    30.1829 </r>
       <r>    -7.8515     4.6357    30.4952 </r>
       <r>    -7.7842     5.6570    30.8763 </r>
       <r>    -7.7168     5.1291    31.2218 </r>
       <r>    -7.6495     4.7658    31.5428 </r>
       <r>    -7.5821     4.9633    31.8772 </r>
       <r>    -7.5147     5.8313    32.2700 </r>
       <r>    -7.4474     7.2066    32.7555 </r>
       <r>    -7.3800     7.8365    33.2834 </r>
       <r>    -7.3126     7.7645    33.8064 </r>
       <r>    -7.2453     8.5300    34.3810 </r>
       <r>    -7.1779     9.5609    35.0251 </r>
       <r>    -7.1106     9.8472    35.6884 </r>
       <r>    -7.0432    10.0086    36.3626 </r>
       <r>    -6.9758     9.5785    37.0078 </r>
       <r>    -6.9085     9.0333    37.6164 </r>
       <r>    -6.8411     9.7038    38.2700 </r>
       <r>    -6.7737    11.0705    39.0158 </r>
       <r>    -6.7064    10.6890    39.7358 </r>
       <r>    -6.6390     8.3350    40.2973 </r>
       <r>    -6.5716     6.6939    40.7482 </r>
       <r>    -6.5043     5.2503    41.1019 </r>
       <r>    -6.4369     4.4931    41.4046 </r>
       <r>    -6.3696     5.7146    41.7895 </r>
       <r>    -6.3022     6.8447    42.2506 </r>
       <r>    -6.2348     6.2681    42.6728 </r>
       <r>    -6.1675     4.8179    42.9974 </r>
       <r>    -6.1001     4.3737    43.2920 </r>
       <r>    -6.0327     5.6109    43.6700 </r>
       <r>    -5.9654     5.9505    44.0708 </r>
       <r>    -5.8980     4.9306    44.4030 </r>
       <r>    -5.8307     4.6895    44.7189 </r>
       <r>    -5.7633     4.5930    45.0283 </r>
       <r>    -5.6959     4.0609    45.3018 </r>
       <r>    -5.6286     4.2094    45.5854 </r>
       <r>    -5.5612     5.2239    45.9373 </r>
       <r>    -5.4938     6.8224    46.3969 </r>
       <r>    -5.4265     7.7980    46.9222 </r>
       <r>    -5.3591     7.7740    47.4458 </r>
       <r>    -5.2917     8.1035    47.9917 </r>
       <r>    -5.2244     7.5347    48.4993 </r>
       <r>    -5.1570     5.6703    48.8812 </r>
       <r>    -5.0897     5.6794    49.2638 </r>
       <r>    -5.0223     8.1621    49.8137 </r>
       <r>    -4.9549    10.2277    50.5026 </r>
       <r>    -4.8876     9.4943    51.1422 </r>
       <r>    -4.8202     8.0393    51.6837 </r>
       <r>    -4.7528     7.5927    52.1952 </r>
       <r>    -4.6855     7.4694    52.6984 </r>
       <r>    -4.6181     7.9020    53.2307 </r>
       <r>    -4.5508     9.1719    53.8485 </r>
       <r>    -4.4834    10.5869    54.5617 </r>
       <r>    -4.4160    11.3207    55.3243 </r>
       <r>    -4.3487    11.2142    56.0797 </r>
       <r>    -4.2813    11.3405    56.8436 </r>
       <r>    -4.2139    12.2146    57.6665 </r>
       <r>    -4.1466    13.6997    58.5893 </r>
       <r>    -4.0792    14.8534    59.5899 </r>
       <r>    -4.0118    13.8761    60.5246 </r>
       <r>    -3.9445    11.2258    61.2808 </r>
       <r>    -3.8771     9.7431    61.9372 </r>
       <r>    -3.8098    10.4034    62.6380 </r>
       <r>    -3.7424    12.1539    63.4567 </r>
       <r>    -3.6750    13.5974    64.3726 </r>
       <r>    -3.6077    14.0976    65.3223 </r>
       <r>    -3.5403    13.6721    66.2433 </r>
       <r>    -3.4729    13.1890    67.1318 </r>
       <r>    -3.4056    13.3095    68.0283 </r>
       <r>    -3.3382    14.3022    68.9918 </r>
       <r>    -3.2709    15.5518    70.0394 </r>
       <r>    -3.2035    16.3401    71.1401 </r>
       <r>    -3.1361    16.1939    72.2310 </r>
       <r>    -3.0688    16.0391    73.3114 </r>
       <r>    -3.0014    16.1549    74.3997 </r>
       <r>    -2.9340    15.5725    75.4487 </r>
       <r>    -2.8667    15.1154    76.4669 </r>
       <r>    -2.7993    15.4649    77.5087 </r>
       <r>    -2.7319    16.3680    78.6113 </r>
       <r>    -2.6646    17.7482    79.8068 </r>
       <r>    -2.5972    19.3884    81.1129 </r>
       <r>    -2.5299    19.6683    82.4378 </r>
       <r>    -2.4625    18.4099    83.6780 </r>
       <r>    -2.3951    16.9078    84.8169 </r>
       <r>    -2.3278    15.5582    85.8650 </r>
       <r>    -2.2604    15.2811    86.8944 </r>
       <r>    -2.1930    14.9948    87.9045 </r>
       <r>    -2.1257    13.4167    88.8083 </r>
       <r>    -2.0583    12.8888    89.6765 </r>
       <r>    -1.9909    14.8241    90.6751 </r>
       <r>    -1.9236    16.0483    91.7562 </r>
       <r>    -1.8562    14.7781    92.7517 </r>
       <r>    -1.7889    12.4884    93.5929 </r>
       <r>    -1.7215    10.0678    94.2711 </r>
       <r>    -1.6541    10.0249    94.9464 </r>
       <r>    -1.5868    13.2774    95.8408 </r>
       <r>    -1.5194    15.9116    96.9127 </r>
       <r>    -1.4520    14.7362    97.9053 </r>
       <r>    -1.3847    11.1963    98.6596 </r>
       <r>    -1.3173     7.9514    99.1952 </r>
       <r>    -1.2500     7.4577    99.6976 </r>
       <r>    -1.1826     9.7858   100.3568 </r>
       <r>    -1.1152    12.1223   101.1734 </r>
       <r>    -1.0479    12.4826   102.0142 </r>
       <r>    -0.9805    10.8859   102.7475 </r>
       <r>    -0.9131     8.2013   103.3000 </r>
       <r>    -0.8458     5.8834   103.6963 </r>
       <r>    -0.7784     4.4716   103.9976 </r>
       <r>    -0.7110     3.3100   104.2205 </r>
       <r>    -0.6437     2.5700   104.3936 </r>
       <r>    -0.5763     2.0391   104.5310 </r>
       <r>    -0.5090     1.5156   104.6331 </r>
       <r>    -0.4416     2.4107   104.7955 </r>
       <r>    -0.3742     5.1251   105.1407 </r>
       <r>    -0.3069     6.9392   105.6082 </r>
       <r>    -0.2395     5.7402   105.9949 </r>
       <r>    -0.1721     3.6564   106.2412 </r>
       <r>    -0.1048     2.9121   106.4373 </r>
       <r>    -0.0374     3.1576   106.6500 </r>
       <r>     0.0299     4.2191   106.9343 </r>
       <r>     0.0973     5.7763   107.3234 </r>
       <r>     0.1647     6.9365   107.7906 </r>
       <r>     0.2320     6.9995   108.2621 </r>
       <r>     0.2994     5.4603   108.6300 </r>
       <r>     0.3668     3.7105   108.8799 </r>
       <r>     0.4341     2.3363   109.0373 </r>
       <r>     0.5015     1.5965   109.1448 </r>
       <r>     0.5689     1.9431   109.2757 </r>
       <r>     0.6362     2.4268   109.4392 </r>
       <r>     0.7036     2.6649   109.6187 </r>
       <r>     0.7709     2.9738   109.8191 </r>
       <r>     0.8383     3.3205   110.0427 </r>
       <r>     0.9057     3.8971   110.3053 </r>
       <r>     0.9730     5.2829   110.6611 </r>
       <r>     1.0404     7.3086   111.1535 </r>
       <r>     1.1078     9.9862   111.8262 </r>
       <r>     1.1751    13.1094   112.7093 </r>
       <r>     1.2425    14.8336   113.7085 </r>
       <r>     1.3098    14.6661   114.6964 </r>
       <r>     1.3772    13.3800   115.5978 </r>
       <r>     1.4446    11.9629   116.4036 </r>
       <r>     1.5119    12.3581   117.2361 </r>
       <r>     1.5793    13.9066   118.1729 </r>
       <r>     1.6467    15.0034   119.1836 </r>
       <r>     1.7140    15.2551   120.2112 </r>
       <r>     1.7814    14.6744   121.1997 </r>
       <r>     1.8488    13.2188   122.0902 </r>
       <r>     1.9161    11.7717   122.8832 </r>
       <r>     1.9835    11.3672   123.6489 </r>
       <r>     2.0508    11.8715   124.4486 </r>
       <r>     2.1182    13.2794   125.3431 </r>
       <r>     2.1856    14.4366   126.3156 </r>
       <r>     2.2529    13.8252   127.2469 </r>
       <r>     2.3203    12.7229   128.1040 </r>
       <r>     2.3877    12.3203   128.9339 </r>
       <r>     2.4550    12.3713   129.7673 </r>
       <r>     2.5224    12.9931   130.6426 </r>
       <r>     2.5897    13.9802   131.5843 </r>
       <r>     2.6571    13.9075   132.5212 </r>
       <r>     2.7245    11.6009   133.3026 </r>
       <r>     2.7918     9.4285   133.9378 </r>
       <r>     2.8592     8.8128   134.5314 </r>
       <r>     2.9266     7.7157   135.0512 </r>
       <r>     2.9939     5.8101   135.4426 </r>
       <r>     3.0613     4.1525   135.7223 </r>
       <r>     3.1287     2.5890   135.8967 </r>
       <r>     3.1960     1.1538   135.9744 </r>
       <r>     3.2634     0.3243   135.9963 </r>
       <r>     3.3307     0.0511   135.9997 </r>
       <r>     3.3981     0.0040   136.0000 </r>
       <r>     3.4655     0.0001   136.0000 </r>
       <r>     3.5328     0.0000   136.0000 </r>
       <r>     3.6002     0.0000   136.0000 </r>
       <r>     3.6676     0.0000   136.0000 </r>
       <r>     3.7349     0.0000   136.0000 </r>
       <r>     3.8023     0.0000   136.0000 </r>
       <r>     3.8696     0.0000   136.0000 </r>
       <r>     3.9370     0.0000   136.0000 </r>
       <r>     4.0044     0.0000   136.0000 </r>
       <r>     4.0717     0.0000   136.0000 </r>
       <r>     4.1391     0.0000   136.0000 </r>
      </set>
     </set>
    </array>
   </total>
  </dos>
 </calculation>
 <structure name="finalpos" >
  <crystal>
   <varray name="basis" >
    <v>       3.54040000       0.00000000       0.00000000 </v>
    <v>      -1.77020000      10.29434800       0.00000000 </v>
    <v>       0.00000000       0.00000000      27.50142900 </v>
   </varray>
   <i name="volume">   1002.32009712 </i>
   <varray name="rec_basis" >
    <v>       0.28245396       0.04857034       0.00000000 </v>
    <v>       0.00000000       0.09714068       0.00000000 </v>
    <v>       0.00000000       0.00000000       0.03636175 </v>
   </varray>
  </crystal>
  <varray name="positions" >
   <v>       0.11402300       0.22804500       0.23316207 </v>
   <v>       0.61402300       0.62804500       0.51499159 </v>
   <v>       0.45808900       0.91617900       0.20939482 </v>
   <v>       0.95808900       0.31617900       0.49122434 </v>
   <v>       0.31085400       0.62170900       0.08414979 </v>
   <v>       0.31085400       0.62170900       0.36597930 </v>
   <v>       0.99923000       0.99846000       0.08631254 </v>
   <v>       0.99923000       0.99846000       0.36814206 </v>
   <v>       0.65492700       0.30985400       0.06041748 </v>
   <v>       0.65492700       0.30985400       0.34224700 </v>
   <v>       0.76973800       0.53947500       0.20725292 </v>
   <v>       0.26973800       0.93947500       0.48908244 </v>
   <v>       0.93971600       0.87943300       0.15783749 </v>
   <v>       0.43971600       0.27943300       0.43966701 </v>
   <v>       0.20515200       0.41030300       0.18578822 </v>
   <v>       0.70515200       0.81030300       0.46761774 </v>
   <v>       0.20184900       0.40369900       0.09969156 </v>
   <v>       0.20184900       0.40369900       0.38152107 </v>
   <v>       0.56380500       0.12761000       0.10779021 </v>
   <v>       0.56380500       0.12761000       0.38961973 </v>
   <v>       0.56710600       0.13421200       0.19387616 </v>
   <v>       0.06710600       0.53421200       0.47570568 </v>
   <v>       0.82923400       0.65846800       0.13571444 </v>
   <v>       0.32923400       0.05846800       0.41754396 </v>
  </varray>
 </structure>
</modeling>
