<?xml version="1.0" encoding="ISO-8859-1"?>
<modeling>
 <generator>
  <i name="program" type="string">vasp </i>
  <i name="version" type="string">5.4.1  </i>
  <i name="subversion" type="string">24Jun15 (build May 10 2016 14:18:23) complex                          parallel </i>
  <i name="platform" type="string">IFC91_ompi </i>
  <i name="date" type="string">2016 12 12 </i>
  <i name="time" type="string">06:32:50 </i>
 </generator>
 <incar>
  <i type="string" name="PREC">accurate</i>
  <i type="string" name="ALGO"> Fast</i>
  <i type="int" name="ISPIN">     2</i>
  <i type="int" name="IBRION">     2</i>
  <i name="EDIFF">      0.00010000</i>
  <i type="int" name="NSW">     0</i>
  <i type="int" name="ISIF">     3</i>
  <i name="ENCUT">    500.00000000</i>
  <v name="MAGMOM">      6.00000000      0.50000000      0.50000000      6.00000000      0.50000000      0.50000000</v>
  <i type="string" name="LREAL"> Auto</i>
  <i type="int" name="ISMEAR">     1</i>
  <i name="SIGMA">      0.10000000</i>
  <i type="logical" name="LWAVE"> F  </i>
  <i type="logical" name="LCHARG"> F  </i>
  <i type="logical" name="LVTOT"> T  </i>
  <i type="logical" name="LVHAR"> T  </i>
  <i type="logical" name="LAECHG"> F  </i>
  <v type="int" name="KPOINT_BSE">    -1     0     0     0</v>
  <i type="string" name="GGA"> Bo</i>
  <i name="PARAM1">      0.18333333</i>
  <i name="PARAM2">      0.22000000</i>
  <i type="logical" name="LUSE_VDW"> T  </i>
  <i name="AGGAC">      0.00000000</i>
 </incar>
 <kpoints>
  <generation param="Gamma">
   <v type="int" name="divisions">      13       13        1 </v>
   <v name="usershift">      0.00000000       0.00000000       0.00000000 </v>
   <v name="genvec1">      0.07692308       0.00000000       0.00000000 </v>
   <v name="genvec2">      0.00000000       0.07692308       0.00000000 </v>
   <v name="genvec3">      0.00000000       0.00000000       1.00000000 </v>
   <v name="shift">      0.00000000       0.00000000       0.00000000 </v>
  </generation>
  <varray name="kpointlist" >
   <v>       0.00000000       0.00000000       0.00000000 </v>
   <v>       0.07692308      -0.00000000       0.00000000 </v>
   <v>       0.15384615       0.00000000       0.00000000 </v>
   <v>       0.23076923       0.00000000       0.00000000 </v>
   <v>       0.30769231      -0.00000000       0.00000000 </v>
   <v>       0.38461538       0.00000000       0.00000000 </v>
   <v>       0.46153846       0.00000000       0.00000000 </v>
   <v>       0.07692308       0.07692308       0.00000000 </v>
   <v>       0.15384615       0.07692308       0.00000000 </v>
   <v>       0.23076923       0.07692308       0.00000000 </v>
   <v>       0.30769231       0.07692308       0.00000000 </v>
   <v>       0.38461538       0.07692308       0.00000000 </v>
   <v>       0.46153846       0.07692308       0.00000000 </v>
   <v>       0.15384615       0.15384615       0.00000000 </v>
   <v>       0.23076923       0.15384615       0.00000000 </v>
   <v>       0.30769231       0.15384615       0.00000000 </v>
   <v>       0.38461538       0.15384615       0.00000000 </v>
   <v>       0.23076923       0.23076923       0.00000000 </v>
   <v>       0.30769231       0.23076923       0.00000000 </v>
   <v>       0.38461538       0.23076923       0.00000000 </v>
   <v>       0.30769231       0.30769231       0.00000000 </v>
  </varray>
  <varray name="weights" >
   <v>       0.00591716 </v>
   <v>       0.03550296 </v>
   <v>       0.03550296 </v>
   <v>       0.03550296 </v>
   <v>       0.03550296 </v>
   <v>       0.03550296 </v>
   <v>       0.03550296 </v>
   <v>       0.03550296 </v>
   <v>       0.07100592 </v>
   <v>       0.07100592 </v>
   <v>       0.07100592 </v>
   <v>       0.07100592 </v>
   <v>       0.03550296 </v>
   <v>       0.03550296 </v>
   <v>       0.07100592 </v>
   <v>       0.07100592 </v>
   <v>       0.07100592 </v>
   <v>       0.03550296 </v>
   <v>       0.07100592 </v>
   <v>       0.03550296 </v>
   <v>       0.03550296 </v>
  </varray>
 </kpoints>
 <parameters>
  <separator name="general" >
   <i type="string" name="SYSTEM">unknown system</i>
   <i type="logical" name="LCOMPAT"> F  </i>
  </separator>
  <separator name="electronic" >
   <i type="string" name="PREC">accura</i>
   <i name="ENMAX">    500.00000000</i>
   <i name="ENAUG">    392.42700000</i>
   <i name="EDIFF">      0.00010000</i>
   <i type="int" name="IALGO">    68</i>
   <i type="int" name="IWAVPR">    10</i>
   <i type="int" name="NBANDS">    36</i>
   <i name="NELECT">     48.00000000</i>
   <i type="int" name="TURBO">     0</i>
   <i type="int" name="IRESTART">     0</i>
   <i type="int" name="NREBOOT">     0</i>
   <i type="int" name="NMIN">     0</i>
   <i name="EREF">      0.00000000</i>
   <separator name="electronic smearing" >
    <i type="int" name="ISMEAR">     1</i>
    <i name="SIGMA">      0.10000000</i>
    <i name="KSPACING">      0.50000000</i>
    <i type="logical" name="KGAMMA"> T  </i>
   </separator>
   <separator name="electronic projectors" >
    <i type="logical" name="LREAL"> T  </i>
    <v name="ROPT">     -0.00025000     -0.00025000     -0.00025000     -0.00025000</v>
    <i type="int" name="LMAXPAW">  -100</i>
    <i type="int" name="LMAXMIX">     2</i>
    <i type="logical" name="NLSPLINE"> F  </i>
   </separator>
   <separator name="electronic startup" >
    <i type="int" name="ISTART">     0</i>
    <i type="int" name="ICHARG">     2</i>
    <i type="int" name="INIWAV">     1</i>
   </separator>
   <separator name="electronic spin" >
    <i type="int" name="ISPIN">     2</i>
    <i type="logical" name="LNONCOLLINEAR"> F  </i>
    <v name="MAGMOM">      6.00000000      0.50000000      0.50000000      6.00000000      0.50000000      0.50000000</v>
    <i name="NUPDOWN">     -1.00000000</i>
    <i type="logical" name="LSORBIT"> F  </i>
    <v name="SAXIS">      0.00000000      0.00000000      1.00000000</v>
    <i type="logical" name="LSPIRAL"> F  </i>
    <v name="QSPIRAL">      0.00000000      0.00000000      0.00000000</v>
    <i type="logical" name="LZEROZ"> F  </i>
   </separator>
   <separator name="electronic exchange-correlation" >
    <i type="logical" name="LASPH"> F  </i>
    <i type="logical" name="LMETAGGA"> F  </i>
   </separator>
   <separator name="electronic convergence" >
    <i type="int" name="NELM">    60</i>
    <i type="int" name="NELMDL">     0</i>
    <i type="int" name="NELMIN">     2</i>
    <i name="ENINI">    500.00000000</i>
    <separator name="electronic convergence detail" >
     <i type="logical" name="LDIAG"> T  </i>
     <i type="logical" name="LSUBROT"> F  </i>
     <i name="WEIMIN">      0.00000000</i>
     <i name="EBREAK">      0.00000069</i>
     <i name="DEPER">      0.30000000</i>
     <i type="int" name="NRMM">     4</i>
     <i name="TIME">      0.40000000</i>
    </separator>
   </separator>
   <separator name="electronic mixer" >
    <i name="AMIX">      0.40000000</i>
    <i name="BMIX">      1.00000000</i>
    <i name="AMIN">      0.10000000</i>
    <i name="AMIX_MAG">      1.60000000</i>
    <i name="BMIX_MAG">      1.00000000</i>
    <separator name="electronic mixer details" >
     <i type="int" name="IMIX">     4</i>
     <i type="logical" name="MIXFIRST"> F  </i>
     <i type="int" name="MAXMIX">   -45</i>
     <i name="WC">    100.00000000</i>
     <i type="int" name="INIMIX">     1</i>
     <i type="int" name="MIXPRE">     1</i>
     <i type="int" name="MREMOVE">     5</i>
    </separator>
   </separator>
   <separator name="electronic dipolcorrection" >
    <i type="logical" name="LDIPOL"> F  </i>
    <i type="logical" name="LMONO"> F  </i>
    <i type="int" name="IDIPOL">     0</i>
    <i name="EPSILON">      1.00000000</i>
    <v name="DIPOL">   -100.00000000   -100.00000000   -100.00000000</v>
    <i name="EFIELD">      0.00000000</i>
   </separator>
  </separator>
  <separator name="grids" >
   <i type="int" name="NGX">    24</i>
   <i type="int" name="NGY">    24</i>
   <i type="int" name="NGZ">   180</i>
   <i type="int" name="NGXF">    48</i>
   <i type="int" name="NGYF">    48</i>
   <i type="int" name="NGZF">   360</i>
   <i type="logical" name="ADDGRID"> F  </i>
  </separator>
  <separator name="ionic" >
   <i type="int" name="NSW">     0</i>
   <i type="int" name="IBRION">    -1</i>
   <i type="int" name="ISIF">     3</i>
   <i name="PSTRESS">      0.00000000</i>
   <i name="EDIFFG">      0.00100000</i>
   <i type="int" name="NFREE">     1</i>
   <i name="POTIM">      0.50000000</i>
   <i name="SMASS">     -3.00000000</i>
   <i name="SCALEE">      1.00000000</i>
  </separator>
  <separator name="ionic md" >
   <i name="TEBEG">      0.00010000</i>
   <i name="TEEND">      0.00010000</i>
   <i type="int" name="NBLOCK">     1</i>
   <i type="int" name="KBLOCK">     1</i>
   <i type="int" name="NPACO">   256</i>
   <i name="APACO">     16.00000000</i>
  </separator>
  <separator name="symmetry" >
   <i type="int" name="ISYM">     2</i>
   <i name="SYMPREC">      0.00001000</i>
  </separator>
  <separator name="dos" >
   <i type="logical" name="LORBIT"> F  </i>
   <v name="RWIGS">     -1.00000000     -1.00000000     -1.00000000     -1.00000000</v>
   <i type="int" name="NEDOS">   301</i>
   <i name="EMIN">     10.00000000</i>
   <i name="EMAX">    -10.00000000</i>
   <i name="EFERMI">      0.00000000</i>
  </separator>
  <separator name="writing" >
   <i type="int" name="NWRITE">     2</i>
   <i type="logical" name="LWAVE"> F  </i>
   <i type="logical" name="LCHARG"> F  </i>
   <i type="logical" name="LPARD"> F  </i>
   <i type="logical" name="LVTOT"> F  </i>
   <i type="logical" name="LVHAR"> T  </i>
   <i type="logical" name="LELF"> F  </i>
   <i type="logical" name="LOPTICS"> F  </i>
   <v name="STM">      0.00000000      0.00000000      0.00000000      0.00000000      0.00000000      0.00000000      0.00000000</v>
  </separator>
  <separator name="performance" >
   <i type="int" name="NPAR">     4</i>
   <i type="int" name="NSIM">     4</i>
   <i type="int" name="NBLK">    -1</i>
   <i type="logical" name="LPLANE"> T  </i>
   <i type="logical" name="LSCALAPACK"> T  </i>
   <i type="logical" name="LSCAAWARE"> F  </i>
   <i type="logical" name="LSCALU"> F  </i>
   <i type="logical" name="LASYNC"> F  </i>
   <i type="logical" name="LORBITALREAL"> F  </i>
  </separator>
  <separator name="miscellaneous" >
   <i type="int" name="IDIOT">     3</i>
   <i type="logical" name="LMUSIC"> F  </i>
   <v name="POMASS">     95.94000000     32.06600000     95.94000000     32.06600000</v>
   <v name="DARWINR">      0.00000000      0.00000000      0.00000000      0.00000000</v>
   <v name="DARWINV">      1.00000000      1.00000000      1.00000000      1.00000000</v>
   <i type="logical" name="LCORR"> T  </i>
  </separator>
  <i type="logical" name="GGA_COMPAT"> T  </i>
  <i type="logical" name="LBERRY"> F  </i>
  <i type="int" name="ICORELEVEL">     0</i>
  <i type="logical" name="LDAU"> F  </i>
  <i type="int" name="I_CONSTRAINED_M">     0</i>
  <separator name="electronic exchange-correlation" >
   <i type="string" name="GGA">BO</i>
   <i type="int" name="VOSKOWN">     0</i>
   <i type="logical" name="LHFCALC"> F  </i>
   <i type="string" name="PRECFOCK"></i>
   <i type="logical" name="LSYMGRAD"> F  </i>
   <i type="logical" name="LHFONE"> F  </i>
   <i type="logical" name="LRHFCALC"> F  </i>
   <i type="logical" name="LTHOMAS"> F  </i>
   <i type="logical" name="LMODELHF"> F  </i>
   <i name="ENCUT4O">     -1.00000000</i>
   <i type="int" name="EXXOEP">     0</i>
   <i type="int" name="FOURORBIT">     0</i>
   <i name="AEXX">      0.00000000</i>
   <i name="HFALPHA">      0.00000000</i>
   <i name="MCALPHA">      0.00000000</i>
   <i name="ALDAX">      1.00000000</i>
   <i name="AGGAX">      1.00000000</i>
   <i name="ALDAC">      1.00000000</i>
   <i name="AGGAC">      0.00000000</i>
   <i type="int" name="NKREDX">     1</i>
   <i type="int" name="NKREDY">     1</i>
   <i type="int" name="NKREDZ">     1</i>
   <i type="logical" name="SHIFTRED"> F  </i>
   <i type="logical" name="ODDONLY"> F  </i>
   <i type="logical" name="EVENONLY"> F  </i>
   <i type="int" name="LMAXFOCK">     0</i>
   <i type="int" name="NMAXFOCKAE">     0</i>
   <i type="logical" name="LFOCKAEDFT"> F  </i>
   <i name="HFSCREEN">      0.00000000</i>
   <i name="HFSCREENC">      0.00000000</i>
   <i type="int" name="NBANDSGWLOW">     0</i>
  </separator>
  <separator name="vdW DFT" >
   <i type="logical" name="LUSE_VDW"> T  </i>
   <i name="Zab_VDW">     -0.84910000</i>
   <i name="PARAM1">      0.18333333</i>
   <i name="PARAM2">      0.22000000</i>
   <i name="PARAM3">      0.00000000</i>
  </separator>
  <separator name="model GW" >
   <i type="int" name="MODEL_GW">     0</i>
   <i name="MODEL_EPS0">     20.39722663</i>
   <i name="MODEL_ALPHA">      1.00000000</i>
  </separator>
  <separator name="linear response parameters" >
   <i type="logical" name="LEPSILON"> F  </i>
   <i type="logical" name="LRPA"> F  </i>
   <i type="logical" name="LNABLA"> F  </i>
   <i type="logical" name="LVEL"> F  </i>
   <i type="int" name="KINTER">     0</i>
   <i name="CSHIFT">      0.10000000</i>
   <i name="OMEGAMAX">     -1.00000000</i>
   <i name="DEG_THRESHOLD">      0.00200000</i>
  </separator>
  <separator name="orbital magnetization" >
   <i type="logical" name="NUCIND"> F  </i>
   <v name="MAGPOS">      0.00000000      0.00000000      0.00000000</v>
   <i type="logical" name="LNICSALL"> T  </i>
   <i type="logical" name="ORBITALMAG"> F  </i>
   <i type="logical" name="LMAGBLOCH"> F  </i>
   <i type="logical" name="LCHIMAG"> F  </i>
   <i type="logical" name="LGAUGE"> T  </i>
   <i type="int" name="MAGATOM">     0</i>
   <v name="MAGDIPOL">      0.00000000      0.00000000      0.00000000</v>
   <v name="AVECCONST">      0.00000000      0.00000000      0.00000000</v>
  </separator>
  <separator name="response functions" >
   <i type="logical" name="LADDER"> F  </i>
   <i type="logical" name="LFXC"> F  </i>
   <i type="logical" name="LHARTREE"> T  </i>
   <i type="int" name="IBSE">     0</i>
   <v type="int" name="KPOINT">    -1     0     0     0</v>
   <i type="logical" name="LTCTE"> F  </i>
   <i type="logical" name="LTETE"> F  </i>
   <i type="logical" name="LTRIPLET"> F  </i>
   <i type="logical" name="LFXCEPS"> F  </i>
   <i type="logical" name="LFXHEG"> F  </i>
   <i type="int" name="NATURALO">     0</i>
   <i type="logical" name="L2ORDER"> F  </i>
   <i type="logical" name="LUSEW"> F  </i>
   <i name="ENCUTGW">     -2.00000000</i>
   <i name="ENCUTGWSOFT">     -2.00000000</i>
   <i name="ENCUTLF">     -1.00000000</i>
   <i type="int" name="LMAXMP2">    -1</i>
   <i name="SCISSOR">      0.00000000</i>
   <i type="int" name="NOMEGA">     0</i>
   <i type="int" name="NOMEGAR">     0</i>
   <i type="int" name="NBANDSGW">    -1</i>
   <i type="int" name="NBANDSO">    -1</i>
   <i type="int" name="NBANDSV">    -1</i>
   <i type="int" name="NELM">     1</i>
   <i type="int" name="NELMHF">     1</i>
   <i type="int" name="DIM">     3</i>
   <i type="int" name="ANTIRES">     0</i>
   <i name="OMEGAMAX">    -30.00000000</i>
   <i name="OMEGAMIN">    -30.00000000</i>
   <i name="OMEGATL">   -200.00000000</i>
   <i type="int" name="OMEGAGRID">     0</i>
   <i name="CSHIFT">     -0.10000000</i>
   <i type="logical" name="SELFENERGY"> F  </i>
   <i type="logical" name="LSPECTRAL"> F  </i>
   <i type="logical" name="LSPECTRALGW"> F  </i>
   <i type="logical" name="LSINGLES"> F  </i>
   <i type="logical" name="LFERMIGW"> F  </i>
   <i type="logical" name="ODDONLYGW"> F  </i>
   <i type="logical" name="EVENONLYGW"> F  </i>
   <i type="int" name="NKREDLFX">     1</i>
   <i type="int" name="NKREDLFY">     1</i>
   <i type="int" name="NKREDLFZ">     1</i>
   <i type="int" name="MAXMEM">  1800</i>
   <i type="int" name="TELESCOPE">     0</i>
   <i type="int" name="TAUPAR">     1</i>
   <i type="int" name="OMEGAPAR">    -1</i>
   <i name="LAMBDA">      1.00000000</i>
  </separator>
  <separator name="External order field" >
   <i name="OFIELD_KAPPA">      0.00000000</i>
   <v name="OFIELD_K">      0.00000000      0.00000000      0.00000000</v>
   <i name="OFIELD_Q6_NEAR">      0.00000000</i>
   <i name="OFIELD_Q6_FAR">      0.00000000</i>
   <i name="OFIELD_A">      0.00000000</i>
  </separator>
 </parameters>
 <atominfo>
  <atoms>       6 </atoms>
  <types>       4 </types>
  <array name="atoms" >
   <dimension dim="1">ion</dimension>
   <field type="string">element</field>
   <field type="int">atomtype</field>
   <set>
    <rc><c>Mo</c><c>   1</c></rc>
    <rc><c>S </c><c>   2</c></rc>
    <rc><c>S </c><c>   2</c></rc>
    <rc><c>Mo</c><c>   3</c></rc>
    <rc><c>S </c><c>   4</c></rc>
    <rc><c>S </c><c>   4</c></rc>
   </set>
  </array>
  <array name="atomtypes" >
   <dimension dim="1">type</dimension>
   <field type="int">atomspertype</field>
   <field type="string">element</field>
   <field>mass</field>
   <field>valence</field>
   <field type="string">pseudopotential</field>
   <set>
    <rc><c>   1</c><c>Mo</c><c>     95.94000000</c><c>     12.00000000</c><c> PAW_PBE Mo_pv 08Apr2002                </c></rc>
    <rc><c>   2</c><c>S </c><c>     32.06600000</c><c>      6.00000000</c><c>  PAW_PBE S 17Jan2003                   </c></rc>
    <rc><c>   1</c><c>Mo</c><c>     95.94000000</c><c>     12.00000000</c><c> PAW_PBE Mo_pv 08Apr2002                </c></rc>
    <rc><c>   2</c><c>S </c><c>     32.06600000</c><c>      6.00000000</c><c>  PAW_PBE S 17Jan2003                   </c></rc>
   </set>
  </array>
 </atominfo>
 <structure name="initialpos" >
  <crystal>
   <varray name="basis" >
    <v>       3.19031700       0.00000000       0.00000000 </v>
    <v>      -1.59515800       2.76289700       0.00000000 </v>
    <v>       0.00000000       0.00000000      23.14049200 </v>
   </varray>
   <i name="volume">    203.97226633 </i>
   <varray name="rec_basis" >
    <v>       0.31344848       0.18096941       0.00000000 </v>
    <v>       0.00000000       0.36193894       0.00000000 </v>
    <v>       0.00000000       0.00000000       0.04321429 </v>
   </varray>
  </crystal>
  <varray name="positions" >
   <v>       0.66666700       0.33333300       0.06785900 </v>
   <v>       0.33333300       0.66666700       0.00000000 </v>
   <v>       0.33333300       0.66666700       0.13571500 </v>
   <v>       0.66666700       0.33333300       0.31160900 </v>
   <v>       0.33333300       0.66666700       0.24375100 </v>
   <v>       0.33333300       0.66666700       0.37946500 </v>
  </varray>
 </structure>
 <calculation>
  <scstep>
   <time name="dav">   26.36   26.40</time>
   <time name="total">   46.00   46.08</time>
   <energy>
    <i name="alphaZ">    104.15310261 </i>
    <i name="ewald">  10476.83500404 </i>
    <i name="hartreedc"> -13884.67665135 </i>
    <i name="XCdc">    128.94528618 </i>
    <i name="pawpsdc">   2252.92270536 </i>
    <i name="pawaedc">  -2205.68654582 </i>
    <i name="eentropy">      0.00071829 </i>
    <i name="bandstr">   -158.03788443 </i>
    <i name="atom">   3688.31848598 </i>
    <i name="e_fr_energy">    402.77422085 </i>
    <i name="e_wo_entrp">    402.77350256 </i>
    <i name="e_0_energy">    402.77398142 </i>
   </energy>
  </scstep>
  <scstep>
   <time name="dav">   28.39   28.43</time>
   <time name="total">   28.39   28.43</time>
   <energy>
    <i name="e_fr_energy">      0.35942164 </i>
    <i name="e_wo_entrp">      0.35883908 </i>
    <i name="e_0_energy">      0.35922746 </i>
   </energy>
  </scstep>
  <scstep>
   <time name="dav">   29.51   29.56</time>
   <time name="total">   29.52   29.56</time>
   <energy>
    <i name="e_fr_energy">    -32.08470592 </i>
    <i name="e_wo_entrp">    -32.08299560 </i>
    <i name="e_0_energy">    -32.08413581 </i>
   </energy>
  </scstep>
  <scstep>
   <time name="dav">   28.34   28.38</time>
   <time name="total">   28.34   28.39</time>
   <energy>
    <i name="e_fr_energy">    -33.03165901 </i>
    <i name="e_wo_entrp">    -33.02929421 </i>
    <i name="e_0_energy">    -33.03087074 </i>
   </energy>
  </scstep>
  <scstep>
   <time name="dav">   29.29   29.34</time>
   <time name="total">   31.70   31.74</time>
   <energy>
    <i name="e_fr_energy">    -33.06103484 </i>
    <i name="e_wo_entrp">    -33.05865656 </i>
    <i name="e_0_energy">    -33.06024208 </i>
   </energy>
  </scstep>
  <scstep>
   <time name="diag">    5.50    5.51</time>
   <time name="diis">   19.45   19.49</time>
   <time name="orth">    0.18    0.18</time>
   <time name="total">   46.20   46.28</time>
   <energy>
    <i name="e_fr_energy">    -29.22630742 </i>
    <i name="e_wo_entrp">    -29.22368364 </i>
    <i name="e_0_energy">    -29.22543283 </i>
   </energy>
  </scstep>
  <scstep>
   <time name="diag">    5.52    5.53</time>
   <time name="diis">   19.32   19.35</time>
   <time name="orth">    0.18    0.18</time>
   <time name="total">   46.08   46.15</time>
   <energy>
    <i name="e_fr_energy">    -31.97128636 </i>
    <i name="e_wo_entrp">    -31.97036604 </i>
    <i name="e_0_energy">    -31.97097958 </i>
   </energy>
  </scstep>
  <scstep>
   <time name="diag">    5.51    5.52</time>
   <time name="diis">   21.36   21.39</time>
   <time name="orth">    0.18    0.18</time>
   <time name="total">   48.21   48.31</time>
   <energy>
    <i name="e_fr_energy">    -33.12235502 </i>
    <i name="e_wo_entrp">    -33.12190664 </i>
    <i name="e_0_energy">    -33.12220556 </i>
   </energy>
  </scstep>
  <scstep>
   <time name="diag">    5.53    5.78</time>
   <time name="diis">   20.46   20.51</time>
   <time name="orth">    0.18    0.18</time>
   <time name="total">   47.41   47.77</time>
   <energy>
    <i name="e_fr_energy">    -35.82541876 </i>
    <i name="e_wo_entrp">    -35.82450517 </i>
    <i name="e_0_energy">    -35.82511423 </i>
   </energy>
  </scstep>
  <scstep>
   <time name="diag">    5.50    5.51</time>
   <time name="diis">   18.04   18.06</time>
   <time name="orth">    0.18    0.18</time>
   <time name="total">   44.85   44.92</time>
   <energy>
    <i name="e_fr_energy">    -38.17598009 </i>
    <i name="e_wo_entrp">    -38.17635205 </i>
    <i name="e_0_energy">    -38.17610408 </i>
   </energy>
  </scstep>
  <scstep>
   <time name="diag">    5.48    5.48</time>
   <time name="diis">   20.66   20.70</time>
   <time name="orth">    0.18    0.18</time>
   <time name="total">   47.46   47.54</time>
   <energy>
    <i name="e_fr_energy">    -38.42531802 </i>
    <i name="e_wo_entrp">    -38.42576064 </i>
    <i name="e_0_energy">    -38.42546556 </i>
   </energy>
  </scstep>
  <scstep>
   <time name="diag">    5.49    5.50</time>
   <time name="diis">   19.10   19.13</time>
   <time name="orth">    0.18    0.18</time>
   <time name="total">   45.92   45.99</time>
   <energy>
    <i name="e_fr_energy">    -38.44793932 </i>
    <i name="e_wo_entrp">    -38.44901056 </i>
    <i name="e_0_energy">    -38.44829640 </i>
   </energy>
  </scstep>
  <scstep>
   <time name="diag">    5.50    5.50</time>
   <time name="diis">   20.99   21.02</time>
   <time name="orth">    0.18    0.18</time>
   <time name="total">   47.79   47.86</time>
   <energy>
    <i name="e_fr_energy">    -38.45498295 </i>
    <i name="e_wo_entrp">    -38.45621153 </i>
    <i name="e_0_energy">    -38.45539248 </i>
   </energy>
  </scstep>
  <scstep>
   <time name="diag">    5.49    5.49</time>
   <time name="diis">   18.94   18.97</time>
   <time name="orth">    0.18    0.18</time>
   <time name="total">   45.74   45.81</time>
   <energy>
    <i name="e_fr_energy">    -38.45484184 </i>
    <i name="e_wo_entrp">    -38.45605079 </i>
    <i name="e_0_energy">    -38.45524483 </i>
   </energy>
  </scstep>
  <scstep>
   <time name="diag">    5.48    5.49</time>
   <time name="diis">   16.02   16.05</time>
   <time name="orth">    0.18    0.18</time>
   <time name="total">   42.84   42.90</time>
   <energy>
    <i name="e_fr_energy">    -38.45347331 </i>
    <i name="e_wo_entrp">    -38.45468712 </i>
    <i name="e_0_energy">    -38.45387791 </i>
   </energy>
  </scstep>
  <scstep>
   <time name="diag">    5.49    5.50</time>
   <time name="diis">   13.85   13.87</time>
   <time name="orth">    0.18    0.18</time>
   <time name="total">   40.66   40.74</time>
   <energy>
    <i name="e_fr_energy">    -38.45388199 </i>
    <i name="e_wo_entrp">    -38.45509925 </i>
    <i name="e_0_energy">    -38.45428775 </i>
   </energy>
  </scstep>
  <scstep>
   <time name="diag">    5.49    5.50</time>
   <time name="diis">   13.49   13.51</time>
   <time name="orth">    0.18    0.18</time>
   <time name="total">   40.30   40.37</time>
   <energy>
    <i name="e_fr_energy">    -38.45430533 </i>
    <i name="e_wo_entrp">    -38.45552514 </i>
    <i name="e_0_energy">    -38.45471194 </i>
   </energy>
  </scstep>
  <scstep>
   <time name="diag">    5.48    5.49</time>
   <time name="diis">   13.32   13.35</time>
   <time name="orth">    0.18    0.18</time>
   <time name="total">   40.15   40.24</time>
   <energy>
    <i name="e_fr_energy">    -38.45469759 </i>
    <i name="e_wo_entrp">    -38.45591951 </i>
    <i name="e_0_energy">    -38.45510490 </i>
   </energy>
  </scstep>
  <scstep>
   <time name="diag">    5.49    5.49</time>
   <time name="diis">   12.72   12.74</time>
   <time name="orth">    0.18    0.18</time>
   <time name="total">   39.56   39.63</time>
   <energy>
    <i name="e_fr_energy">    -38.45506450 </i>
    <i name="e_wo_entrp">    -38.45628387 </i>
    <i name="e_0_energy">    -38.45547095 </i>
   </energy>
  </scstep>
  <scstep>
   <time name="diag">    5.50    5.51</time>
   <time name="diis">   12.55   12.58</time>
   <time name="orth">    0.18    0.18</time>
   <time name="total">   39.40   39.48</time>
   <energy>
    <i name="e_fr_energy">    -38.45536439 </i>
    <i name="e_wo_entrp">    -38.45658456 </i>
    <i name="e_0_energy">    -38.45577111 </i>
   </energy>
  </scstep>
  <scstep>
   <time name="diag">    5.49    5.50</time>
   <time name="diis">   12.67   12.69</time>
   <time name="orth">    0.18    0.18</time>
   <time name="total">   36.98   37.05</time>
   <energy>
    <i name="alphaZ">    104.15310261 </i>
    <i name="ewald">  10476.83500404 </i>
    <i name="hartreedc"> -13868.25307347 </i>
    <i name="XCdc">    123.18429021 </i>
    <i name="pawpsdc">   2404.37125016 </i>
    <i name="pawaedc">  -2366.48049189 </i>
    <i name="eentropy">      0.00122165 </i>
    <i name="bandstr">   -600.58521231 </i>
    <i name="atom">   3688.31848598 </i>
    <i name="e_fr_energy">    -38.45542304 </i>
    <i name="e_wo_entrp">    -38.45664469 </i>
    <i name="e_0_energy">    -38.45583025 </i>
   </energy>
  </scstep>
  <structure>
   <crystal>
    <varray name="basis" >
     <v>       3.19031700       0.00000000       0.00000000 </v>
     <v>      -1.59515800       2.76289700       0.00000000 </v>
     <v>       0.00000000       0.00000000      23.14049200 </v>
    </varray>
    <i name="volume">    203.97226633 </i>
    <varray name="rec_basis" >
     <v>       0.31344848       0.18096941       0.00000000 </v>
     <v>       0.00000000       0.36193894       0.00000000 </v>
     <v>       0.00000000       0.00000000       0.04321429 </v>
    </varray>
   </crystal>
   <varray name="positions" >
    <v>       0.66666700       0.33333300       0.06785900 </v>
    <v>       0.33333300       0.66666700       0.00000000 </v>
    <v>       0.33333300       0.66666700       0.13571500 </v>
    <v>       0.66666700       0.33333300       0.31160900 </v>
    <v>       0.33333300       0.66666700       0.24375100 </v>
    <v>       0.33333300       0.66666700       0.37946500 </v>
   </varray>
  </structure>
  <varray name="forces" >
   <v>       0.00000000       0.00000000      -0.32103894 </v>
   <v>       0.00000000      -0.00000000      -0.12947416 </v>
   <v>      -0.00000000       0.00000000      -2.36354899 </v>
   <v>      -0.00000000       0.00000000       0.32054747 </v>
   <v>      -0.00000000       0.00000000       2.35933264 </v>
   <v>       0.00000000       0.00000000       0.13418198 </v>
  </varray>
  <varray name="stress" >
   <v>       8.75606229       0.00000158       0.00000000 </v>
   <v>       0.00000158       8.75607137       0.00000000 </v>
   <v>       0.00000000       0.00000000      68.49210772 </v>
  </varray>
  <energy>
   <i name="e_fr_energy">    -38.45542304 </i>
   <i name="e_wo_entrp">    -38.45583025 </i>
   <i name="e_0_energy">      0.00122165 </i>
  </energy>
  <time name="totalsc">  940.08  941.99</time>
  <eigenvalues>
   <array>
    <dimension dim="1">band</dimension>
    <dimension dim="2">kpoint</dimension>
    <dimension dim="3">spin</dimension>
    <field>eigene</field>
    <field>occ</field>
    <set>
     <set comment="spin 1">
      <set comment="kpoint 1">
       <r>  -34.9798    1.0000 </r>
       <r>  -34.9795    1.0000 </r>
       <r>  -34.7573    1.0000 </r>
       <r>  -34.7573    1.0000 </r>
       <r>  -34.7572    1.0000 </r>
       <r>  -34.7572    1.0000 </r>
       <r>  -14.4952    1.0000 </r>
       <r>  -13.8104    1.0000 </r>
       <r>  -13.0427    1.0000 </r>
       <r>  -12.3954    1.0000 </r>
       <r>   -6.4463    1.0000 </r>
       <r>   -5.0486    1.0000 </r>
       <r>   -2.8230    1.0000 </r>
       <r>   -2.6680    1.0000 </r>
       <r>   -2.6680    1.0000 </r>
       <r>   -2.5871    1.0000 </r>
       <r>   -2.5871    1.0000 </r>
       <r>   -1.6189    1.0000 </r>
       <r>   -1.6188    1.0000 </r>
       <r>   -1.4920    1.0000 </r>
       <r>   -1.4920    1.0000 </r>
       <r>   -0.9505    1.0000 </r>
       <r>   -0.3532    1.0000 </r>
       <r>    1.5048    0.0945 </r>
       <r>    2.2471   -0.0000 </r>
       <r>    2.2471   -0.0000 </r>
       <r>    2.7751   -0.0000 </r>
       <r>    2.7752   -0.0000 </r>
       <r>    2.8132   -0.0000 </r>
       <r>    2.8132   -0.0000 </r>
       <r>    3.0902   -0.0000 </r>
       <r>    3.0902   -0.0000 </r>
       <r>    5.3651    0.0000 </r>
       <r>    5.4550    0.0000 </r>
       <r>    6.2799    0.0000 </r>
       <r>    6.6038    0.0000 </r>
      </set>
      <set comment="kpoint 2">
       <r>  -34.9757    1.0000 </r>
       <r>  -34.9754    1.0000 </r>
       <r>  -34.7786    1.0000 </r>
       <r>  -34.7785    1.0000 </r>
       <r>  -34.7622    1.0000 </r>
       <r>  -34.7621    1.0000 </r>
       <r>  -14.4157    1.0000 </r>
       <r>  -13.7237    1.0000 </r>
       <r>  -12.9959    1.0000 </r>
       <r>  -12.3630    1.0000 </r>
       <r>   -6.3619    1.0000 </r>
       <r>   -4.9540    1.0000 </r>
       <r>   -2.9822    1.0000 </r>
       <r>   -2.8589    1.0000 </r>
       <r>   -2.7697    1.0000 </r>
       <r>   -2.5860    1.0000 </r>
       <r>   -2.4951    1.0000 </r>
       <r>   -1.8438    1.0000 </r>
       <r>   -1.7555    1.0000 </r>
       <r>   -1.6449    1.0000 </r>
       <r>   -1.6285    1.0000 </r>
       <r>   -0.7491    1.0000 </r>
       <r>   -0.3596    1.0000 </r>
       <r>    1.3626    1.0024 </r>
       <r>    2.0930   -0.0000 </r>
       <r>    2.2718   -0.0000 </r>
       <r>    2.6324   -0.0000 </r>
       <r>    2.6465   -0.0000 </r>
       <r>    2.8415   -0.0000 </r>
       <r>    2.8506   -0.0000 </r>
       <r>    3.0430   -0.0000 </r>
       <r>    3.0716   -0.0000 </r>
       <r>    5.5061    0.0000 </r>
       <r>    5.5907    0.0000 </r>
       <r>    6.6574    0.0000 </r>
       <r>    6.9840    0.0000 </r>
      </set>
      <set comment="kpoint 3">
       <r>  -34.9642    1.0000 </r>
       <r>  -34.9640    1.0000 </r>
       <r>  -34.8373    1.0000 </r>
       <r>  -34.8372    1.0000 </r>
       <r>  -34.7756    1.0000 </r>
       <r>  -34.7755    1.0000 </r>
       <r>  -14.1887    1.0000 </r>
       <r>  -13.4755    1.0000 </r>
       <r>  -12.8606    1.0000 </r>
       <r>  -12.2703    1.0000 </r>
       <r>   -6.1394    1.0000 </r>
       <r>   -4.7224    1.0000 </r>
       <r>   -3.4584    1.0000 </r>
       <r>   -3.2410    1.0000 </r>
       <r>   -3.1971    1.0000 </r>
       <r>   -2.4215    1.0000 </r>
       <r>   -2.3825    1.0000 </r>
       <r>   -2.2351    1.0000 </r>
       <r>   -2.0608    1.0000 </r>
       <r>   -1.9615    1.0000 </r>
       <r>   -1.8139    1.0000 </r>
       <r>   -0.6615    1.0000 </r>
       <r>   -0.4669    1.0000 </r>
       <r>    0.9021    1.0000 </r>
       <r>    1.8206   -0.0000 </r>
       <r>    2.1860   -0.0000 </r>
       <r>    2.4307   -0.0000 </r>
       <r>    2.4620   -0.0000 </r>
       <r>    2.6986   -0.0000 </r>
       <r>    3.0489   -0.0000 </r>
       <r>    3.1256   -0.0000 </r>
       <r>    3.3552   -0.0000 </r>
       <r>    5.8608    0.0000 </r>
       <r>    5.9404    0.0000 </r>
       <r>    7.3624    0.0000 </r>
       <r>    7.7794    0.0000 </r>
      </set>
      <set comment="kpoint 4">
       <r>  -34.9481    1.0000 </r>
       <r>  -34.9479    1.0000 </r>
       <r>  -34.9190    1.0000 </r>
       <r>  -34.9189    1.0000 </r>
       <r>  -34.7945    1.0000 </r>
       <r>  -34.7944    1.0000 </r>
       <r>  -13.8500    1.0000 </r>
       <r>  -13.1029    1.0000 </r>
       <r>  -12.6527    1.0000 </r>
       <r>  -12.1309    1.0000 </r>
       <r>   -5.8773    1.0000 </r>
       <r>   -4.5966    1.0000 </r>
       <r>   -4.1255    1.0000 </r>
       <r>   -3.6471    1.0000 </r>
       <r>   -3.5662    1.0000 </r>
       <r>   -2.9983    1.0000 </r>
       <r>   -2.5411    1.0000 </r>
       <r>   -2.3550    1.0000 </r>
       <r>   -2.1180    1.0000 </r>
       <r>   -1.9663    1.0000 </r>
       <r>   -1.8558    1.0000 </r>
       <r>   -0.8530    1.0000 </r>
       <r>   -0.7687    1.0000 </r>
       <r>    0.3185    1.0000 </r>
       <r>    1.6888   -0.0017 </r>
       <r>    2.0228   -0.0000 </r>
       <r>    2.4469   -0.0000 </r>
       <r>    2.4488   -0.0000 </r>
       <r>    2.5902   -0.0000 </r>
       <r>    3.3546   -0.0000 </r>
       <r>    3.4444   -0.0000 </r>
       <r>    3.7545   -0.0000 </r>
       <r>    6.3634    0.0000 </r>
       <r>    6.4556    0.0000 </r>
       <r>    7.8093    0.0000 </r>
       <r>    8.1756    0.0000 </r>
      </set>
      <set comment="kpoint 5">
       <r>  -35.0045    1.0000 </r>
       <r>  -35.0044    1.0000 </r>
       <r>  -34.9309    1.0000 </r>
       <r>  -34.9307    1.0000 </r>
       <r>  -34.8144    1.0000 </r>
       <r>  -34.8143    1.0000 </r>
       <r>  -13.4614    1.0000 </r>
       <r>  -12.6703    1.0000 </r>
       <r>  -12.4018    1.0000 </r>
       <r>  -11.9681    1.0000 </r>
       <r>   -5.7356    1.0000 </r>
       <r>   -4.8738    1.0000 </r>
       <r>   -4.7870    1.0000 </r>
       <r>   -4.0513    1.0000 </r>
       <r>   -3.8389    1.0000 </r>
       <r>   -3.3104    1.0000 </r>
       <r>   -2.8860    1.0000 </r>
       <r>   -2.7089    1.0000 </r>
       <r>   -2.4063    1.0000 </r>
       <r>   -1.6385    1.0000 </r>
       <r>   -1.4433    1.0000 </r>
       <r>   -1.1105    1.0000 </r>
       <r>   -1.0485    1.0000 </r>
       <r>   -0.0452    1.0000 </r>
       <r>    1.8149   -0.0000 </r>
       <r>    1.9438   -0.0000 </r>
       <r>    2.2581   -0.0000 </r>
       <r>    2.5656   -0.0000 </r>
       <r>    2.9629   -0.0000 </r>
       <r>    3.5979   -0.0000 </r>
       <r>    3.8453   -0.0000 </r>
       <r>    4.0862   -0.0000 </r>
       <r>    6.9277    0.0000 </r>
       <r>    7.0820    0.0000 </r>
       <r>    7.3462    0.0000 </r>
       <r>    7.9993    0.0000 </r>
      </set>
      <set comment="kpoint 6">
       <r>  -35.0745    1.0000 </r>
       <r>  -35.0744    1.0000 </r>
       <r>  -34.9166    1.0000 </r>
       <r>  -34.9164    1.0000 </r>
       <r>  -34.8309    1.0000 </r>
       <r>  -34.8308    1.0000 </r>
       <r>  -13.1123    1.0000 </r>
       <r>  -12.2756    1.0000 </r>
       <r>  -12.1574    1.0000 </r>
       <r>  -11.8148    1.0000 </r>
       <r>   -5.8386    1.0000 </r>
       <r>   -5.2717    1.0000 </r>
       <r>   -5.2630    1.0000 </r>
       <r>   -4.3698    1.0000 </r>
       <r>   -4.2498    1.0000 </r>
       <r>   -3.4323    1.0000 </r>
       <r>   -3.1450    1.0000 </r>
       <r>   -2.9679    1.0000 </r>
       <r>   -2.6459    1.0000 </r>
       <r>   -1.3879    1.0000 </r>
       <r>   -1.2169    1.0000 </r>
       <r>   -1.1037    1.0000 </r>
       <r>   -1.0335    1.0000 </r>
       <r>   -0.0045    1.0000 </r>
       <r>    1.9970   -0.0000 </r>
       <r>    2.1114   -0.0000 </r>
       <r>    2.1832   -0.0000 </r>
       <r>    2.6915   -0.0000 </r>
       <r>    3.2913   -0.0000 </r>
       <r>    3.7371   -0.0000 </r>
       <r>    4.1521   -0.0000 </r>
       <r>    4.3002    0.0000 </r>
       <r>    6.3443    0.0000 </r>
       <r>    7.2503    0.0000 </r>
       <r>    7.4230    0.0000 </r>
       <r>    7.9904    0.0000 </r>
      </set>
      <set comment="kpoint 7">
       <r>  -35.1136    1.0000 </r>
       <r>  -35.1135    1.0000 </r>
       <r>  -34.9085    1.0000 </r>
       <r>  -34.9084    1.0000 </r>
       <r>  -34.8402    1.0000 </r>
       <r>  -34.8401    1.0000 </r>
       <r>  -12.9034    1.0000 </r>
       <r>  -12.0394    1.0000 </r>
       <r>  -11.9968    1.0000 </r>
       <r>  -11.7124    1.0000 </r>
       <r>   -6.0459    1.0000 </r>
       <r>   -5.5108    1.0000 </r>
       <r>   -5.4836    1.0000 </r>
       <r>   -4.5394    1.0000 </r>
       <r>   -4.5063    1.0000 </r>
       <r>   -3.5746    1.0000 </r>
       <r>   -3.2811    1.0000 </r>
       <r>   -3.1034    1.0000 </r>
       <r>   -2.7935    1.0000 </r>
       <r>   -1.2654    1.0000 </r>
       <r>   -1.2428    1.0000 </r>
       <r>   -0.9197    1.0000 </r>
       <r>   -0.8742    1.0000 </r>
       <r>    0.2504    1.0000 </r>
       <r>    2.0928   -0.0000 </r>
       <r>    2.1855   -0.0000 </r>
       <r>    2.4150   -0.0000 </r>
       <r>    2.7598   -0.0000 </r>
       <r>    3.4310   -0.0000 </r>
       <r>    3.7922   -0.0000 </r>
       <r>    4.2724    0.0000 </r>
       <r>    4.3999    0.0000 </r>
       <r>    5.6149    0.0000 </r>
       <r>    6.9588    0.0000 </r>
       <r>    7.2750    0.0000 </r>
       <r>    8.1837    0.0000 </r>
      </set>
      <set comment="kpoint 8">
       <r>  -34.9679    1.0000 </r>
       <r>  -34.9677    1.0000 </r>
       <r>  -34.8177    1.0000 </r>
       <r>  -34.8176    1.0000 </r>
       <r>  -34.7722    1.0000 </r>
       <r>  -34.7721    1.0000 </r>
       <r>  -14.2624    1.0000 </r>
       <r>  -13.5561    1.0000 </r>
       <r>  -12.9048    1.0000 </r>
       <r>  -12.3004    1.0000 </r>
       <r>   -6.2075    1.0000 </r>
       <r>   -4.7875    1.0000 </r>
       <r>   -3.2809    1.0000 </r>
       <r>   -3.1407    1.0000 </r>
       <r>   -3.0713    1.0000 </r>
       <r>   -2.4460    1.0000 </r>
       <r>   -2.3246    1.0000 </r>
       <r>   -2.2212    1.0000 </r>
       <r>   -2.0824    1.0000 </r>
       <r>   -1.9246    1.0000 </r>
       <r>   -1.6533    1.0000 </r>
       <r>   -0.6261    1.0000 </r>
       <r>   -0.4119    1.0000 </r>
       <r>    1.0678    1.0000 </r>
       <r>    1.8745   -0.0000 </r>
       <r>    2.2225   -0.0000 </r>
       <r>    2.4265   -0.0000 </r>
       <r>    2.4717   -0.0000 </r>
       <r>    2.7524   -0.0000 </r>
       <r>    2.9991   -0.0000 </r>
       <r>    3.0031   -0.0000 </r>
       <r>    3.3366   -0.0000 </r>
       <r>    5.7502    0.0000 </r>
       <r>    5.8311    0.0000 </r>
       <r>    7.2180    0.0000 </r>
       <r>    7.6341    0.0000 </r>
      </set>
      <set comment="kpoint 9">
       <r>  -34.9541    1.0000 </r>
       <r>  -34.9539    1.0000 </r>
       <r>  -34.8855    1.0000 </r>
       <r>  -34.8854    1.0000 </r>
       <r>  -34.7908    1.0000 </r>
       <r>  -34.7907    1.0000 </r>
       <r>  -13.9790    1.0000 </r>
       <r>  -13.2451    1.0000 </r>
       <r>  -12.7326    1.0000 </r>
       <r>  -12.1837    1.0000 </r>
       <r>   -5.9584    1.0000 </r>
       <r>   -4.5817    1.0000 </r>
       <r>   -3.8380    1.0000 </r>
       <r>   -3.4699    1.0000 </r>
       <r>   -3.4576    1.0000 </r>
       <r>   -2.7482    1.0000 </r>
       <r>   -2.6527    1.0000 </r>
       <r>   -2.3415    1.0000 </r>
       <r>   -2.1625    1.0000 </r>
       <r>   -2.0292    1.0000 </r>
       <r>   -1.7634    1.0000 </r>
       <r>   -0.6869    1.0000 </r>
       <r>   -0.6159    1.0000 </r>
       <r>    0.5635    1.0000 </r>
       <r>    1.6474   -0.0081 </r>
       <r>    2.0926   -0.0000 </r>
       <r>    2.3346   -0.0000 </r>
       <r>    2.3769   -0.0000 </r>
       <r>    2.5549   -0.0000 </r>
       <r>    3.1241   -0.0000 </r>
       <r>    3.3263   -0.0000 </r>
       <r>    3.7937   -0.0000 </r>
       <r>    6.1798    0.0000 </r>
       <r>    6.2648    0.0000 </r>
       <r>    7.7369    0.0000 </r>
       <r>    8.3443    0.0000 </r>
      </set>
      <set comment="kpoint 10">
       <r>  -34.9660    1.0000 </r>
       <r>  -34.9659    1.0000 </r>
       <r>  -34.9374    1.0000 </r>
       <r>  -34.9372    1.0000 </r>
       <r>  -34.8132    1.0000 </r>
       <r>  -34.8131    1.0000 </r>
       <r>  -13.6135    1.0000 </r>
       <r>  -12.8404    1.0000 </r>
       <r>  -12.5010    1.0000 </r>
       <r>  -12.0307    1.0000 </r>
       <r>   -5.7412    1.0000 </r>
       <r>   -4.6772    1.0000 </r>
       <r>   -4.4712    1.0000 </r>
       <r>   -3.8641    1.0000 </r>
       <r>   -3.6565    1.0000 </r>
       <r>   -3.2796    1.0000 </r>
       <r>   -3.0532    1.0000 </r>
       <r>   -2.6426    1.0000 </r>
       <r>   -2.1255    1.0000 </r>
       <r>   -1.8201    1.0000 </r>
       <r>   -1.7295    1.0000 </r>
       <r>   -0.9232    1.0000 </r>
       <r>   -0.9117    1.0000 </r>
       <r>    0.0908    1.0000 </r>
       <r>    1.5893   -0.0313 </r>
       <r>    2.0615   -0.0000 </r>
       <r>    2.2407   -0.0000 </r>
       <r>    2.5464   -0.0000 </r>
       <r>    2.6273   -0.0000 </r>
       <r>    3.4087   -0.0000 </r>
       <r>    3.6209   -0.0000 </r>
       <r>    4.2029    0.0000 </r>
       <r>    6.7573    0.0000 </r>
       <r>    6.8495    0.0000 </r>
       <r>    7.8756    0.0000 </r>
       <r>    8.3315    0.0000 </r>
      </set>
      <set comment="kpoint 11">
       <r>  -35.0409    1.0000 </r>
       <r>  -35.0408    1.0000 </r>
       <r>  -34.9217    1.0000 </r>
       <r>  -34.9215    1.0000 </r>
       <r>  -34.8343    1.0000 </r>
       <r>  -34.8342    1.0000 </r>
       <r>  -13.2409    1.0000 </r>
       <r>  -12.4217    1.0000 </r>
       <r>  -12.2482    1.0000 </r>
       <r>  -11.8691    1.0000 </r>
       <r>   -5.7100    1.0000 </r>
       <r>   -5.0359    1.0000 </r>
       <r>   -5.0324    1.0000 </r>
       <r>   -4.2706    1.0000 </r>
       <r>   -4.0894    1.0000 </r>
       <r>   -3.4006    1.0000 </r>
       <r>   -3.2568    1.0000 </r>
       <r>   -2.8489    1.0000 </r>
       <r>   -2.3901    1.0000 </r>
       <r>   -1.7391    1.0000 </r>
       <r>   -1.5569    1.0000 </r>
       <r>   -0.9997    1.0000 </r>
       <r>   -0.9685    1.0000 </r>
       <r>   -0.1163    1.0000 </r>
       <r>    1.7473   -0.0001 </r>
       <r>    2.1719   -0.0000 </r>
       <r>    2.2472   -0.0000 </r>
       <r>    2.6276   -0.0000 </r>
       <r>    2.9944   -0.0000 </r>
       <r>    3.7503   -0.0000 </r>
       <r>    3.7685   -0.0000 </r>
       <r>    4.4543    0.0000 </r>
       <r>    6.9487    0.0000 </r>
       <r>    7.3382    0.0000 </r>
       <r>    7.4625    0.0000 </r>
       <r>    8.2547    0.0000 </r>
      </set>
      <set comment="kpoint 12">
       <r>  -35.0934    1.0000 </r>
       <r>  -35.0933    1.0000 </r>
       <r>  -34.9105    1.0000 </r>
       <r>  -34.9103    1.0000 </r>
       <r>  -34.8492    1.0000 </r>
       <r>  -34.8491    1.0000 </r>
       <r>  -12.9578    1.0000 </r>
       <r>  -12.1007    1.0000 </r>
       <r>  -12.0372    1.0000 </r>
       <r>  -11.7352    1.0000 </r>
       <r>   -5.8849    1.0000 </r>
       <r>   -5.3756    1.0000 </r>
       <r>   -5.3434    1.0000 </r>
       <r>   -4.5388    1.0000 </r>
       <r>   -4.4837    1.0000 </r>
       <r>   -3.5303    1.0000 </r>
       <r>   -3.3348    1.0000 </r>
       <r>   -2.9928    1.0000 </r>
       <r>   -2.6744    1.0000 </r>
       <r>   -1.6760    1.0000 </r>
       <r>   -1.4675    1.0000 </r>
       <r>   -0.9496    1.0000 </r>
       <r>   -0.7915    1.0000 </r>
       <r>    0.0235    1.0000 </r>
       <r>    1.9919   -0.0000 </r>
       <r>    2.2766   -0.0000 </r>
       <r>    2.3755   -0.0000 </r>
       <r>    2.7450   -0.0000 </r>
       <r>    3.3129   -0.0000 </r>
       <r>    3.7292   -0.0000 </r>
       <r>    4.0392   -0.0000 </r>
       <r>    4.4978    0.0000 </r>
       <r>    6.0375    0.0000 </r>
       <r>    7.3317    0.0000 </r>
       <r>    7.5915    0.0000 </r>
       <r>    8.3466    0.0000 </r>
      </set>
      <set comment="kpoint 13">
       <r>  -35.1122    1.0000 </r>
       <r>  -35.1121    1.0000 </r>
       <r>  -34.9064    1.0000 </r>
       <r>  -34.9063    1.0000 </r>
       <r>  -34.8546    1.0000 </r>
       <r>  -34.8545    1.0000 </r>
       <r>  -12.8516    1.0000 </r>
       <r>  -11.9822    1.0000 </r>
       <r>  -11.9518    1.0000 </r>
       <r>  -11.6782    1.0000 </r>
       <r>   -6.0016    1.0000 </r>
       <r>   -5.4814    1.0000 </r>
       <r>   -5.4615    1.0000 </r>
       <r>   -4.6288    1.0000 </r>
       <r>   -4.6283    1.0000 </r>
       <r>   -3.6132    1.0000 </r>
       <r>   -3.3412    1.0000 </r>
       <r>   -3.0408    1.0000 </r>
       <r>   -2.8045    1.0000 </r>
       <r>   -1.6462    1.0000 </r>
       <r>   -1.4468    1.0000 </r>
       <r>   -0.9247    1.0000 </r>
       <r>   -0.6781    1.0000 </r>
       <r>    0.1792    1.0000 </r>
       <r>    2.0867   -0.0000 </r>
       <r>    2.2433   -0.0000 </r>
       <r>    2.5336   -0.0000 </r>
       <r>    2.8445   -0.0000 </r>
       <r>    3.5094   -0.0000 </r>
       <r>    3.5868   -0.0000 </r>
       <r>    4.1864    0.0000 </r>
       <r>    4.4309    0.0000 </r>
       <r>    5.6325    0.0000 </r>
       <r>    7.0422    0.0000 </r>
       <r>    7.6792    0.0000 </r>
       <r>    8.5081    0.0000 </r>
      </set>
      <set comment="kpoint 14">
       <r>  -34.9478    1.0000 </r>
       <r>  -34.9477    1.0000 </r>
       <r>  -34.9398    1.0000 </r>
       <r>  -34.9396    1.0000 </r>
       <r>  -34.8172    1.0000 </r>
       <r>  -34.8171    1.0000 </r>
       <r>  -13.6676    1.0000 </r>
       <r>  -12.9004    1.0000 </r>
       <r>  -12.5351    1.0000 </r>
       <r>  -12.0520    1.0000 </r>
       <r>   -5.7401    1.0000 </r>
       <r>   -4.5820    1.0000 </r>
       <r>   -4.2995    1.0000 </r>
       <r>   -3.7303    1.0000 </r>
       <r>   -3.5703    1.0000 </r>
       <r>   -3.2759    1.0000 </r>
       <r>   -3.2667    1.0000 </r>
       <r>   -2.6797    1.0000 </r>
       <r>   -2.1493    1.0000 </r>
       <r>   -1.8792    1.0000 </r>
       <r>   -1.7283    1.0000 </r>
       <r>   -0.8299    1.0000 </r>
       <r>   -0.8084    1.0000 </r>
       <r>    0.2030    1.0000 </r>
       <r>    1.4775    0.2614 </r>
       <r>    2.1119   -0.0000 </r>
       <r>    2.1750   -0.0000 </r>
       <r>    2.4122   -0.0000 </r>
       <r>    2.5381   -0.0000 </r>
       <r>    3.1908   -0.0000 </r>
       <r>    3.6744   -0.0000 </r>
       <r>    4.2875    0.0000 </r>
       <r>    6.6928    0.0000 </r>
       <r>    6.7755    0.0000 </r>
       <r>    8.1921    0.0000 </r>
       <r>    8.3859    0.0000 </r>
      </set>
      <set comment="kpoint 15">
       <r>  -35.0108    1.0000 </r>
       <r>  -35.0106    1.0000 </r>
       <r>  -34.9245    1.0000 </r>
       <r>  -34.9244    1.0000 </r>
       <r>  -34.8476    1.0000 </r>
       <r>  -34.8475    1.0000 </r>
       <r>  -13.3136    1.0000 </r>
       <r>  -12.5039    1.0000 </r>
       <r>  -12.2960    1.0000 </r>
       <r>  -11.8958    1.0000 </r>
       <r>   -5.6074    1.0000 </r>
       <r>   -4.8198    1.0000 </r>
       <r>   -4.7531    1.0000 </r>
       <r>   -4.2172    1.0000 </r>
       <r>   -3.9633    1.0000 </r>
       <r>   -3.4955    1.0000 </r>
       <r>   -3.4335    1.0000 </r>
       <r>   -2.7610    1.0000 </r>
       <r>   -2.3503    1.0000 </r>
       <r>   -1.9777    1.0000 </r>
       <r>   -1.8510    1.0000 </r>
       <r>   -0.9258    1.0000 </r>
       <r>   -0.8659    1.0000 </r>
       <r>   -0.1299    1.0000 </r>
       <r>    1.5385   -0.0124 </r>
       <r>    2.2510   -0.0000 </r>
       <r>    2.2589   -0.0000 </r>
       <r>    2.5910   -0.0000 </r>
       <r>    2.6301   -0.0000 </r>
       <r>    3.3827   -0.0000 </r>
       <r>    3.8957   -0.0000 </r>
       <r>    4.6166    0.0000 </r>
       <r>    7.3329    0.0000 </r>
       <r>    7.4049    0.0000 </r>
       <r>    7.5262    0.0000 </r>
       <r>    8.7104    0.0000 </r>
      </set>
      <set comment="kpoint 16">
       <r>  -35.0615    1.0000 </r>
       <r>  -35.0614    1.0000 </r>
       <r>  -34.9119    1.0000 </r>
       <r>  -34.9117    1.0000 </r>
       <r>  -34.8736    1.0000 </r>
       <r>  -34.8735    1.0000 </r>
       <r>  -12.9996    1.0000 </r>
       <r>  -12.1485    1.0000 </r>
       <r>  -12.0641    1.0000 </r>
       <r>  -11.7455    1.0000 </r>
       <r>   -5.6482    1.0000 </r>
       <r>   -5.1472    1.0000 </r>
       <r>   -5.0680    1.0000 </r>
       <r>   -4.6049    1.0000 </r>
       <r>   -4.5083    1.0000 </r>
       <r>   -3.4987    1.0000 </r>
       <r>   -3.4294    1.0000 </r>
       <r>   -2.8520    1.0000 </r>
       <r>   -2.6297    1.0000 </r>
       <r>   -2.0852    1.0000 </r>
       <r>   -2.0555    1.0000 </r>
       <r>   -0.8313    1.0000 </r>
       <r>   -0.7751    1.0000 </r>
       <r>   -0.2584    1.0000 </r>
       <r>    1.8116   -0.0000 </r>
       <r>    2.4095   -0.0000 </r>
       <r>    2.4118   -0.0000 </r>
       <r>    2.6934   -0.0000 </r>
       <r>    2.8914   -0.0000 </r>
       <r>    3.6472   -0.0000 </r>
       <r>    3.9603   -0.0000 </r>
       <r>    4.7425    0.0000 </r>
       <r>    6.6396    0.0000 </r>
       <r>    7.7851    0.0000 </r>
       <r>    8.0218    0.0000 </r>
       <r>    8.4500    0.0000 </r>
      </set>
      <set comment="kpoint 17">
       <r>  -35.0898    1.0000 </r>
       <r>  -35.0897    1.0000 </r>
       <r>  -34.9047    1.0000 </r>
       <r>  -34.9046    1.0000 </r>
       <r>  -34.8886    1.0000 </r>
       <r>  -34.8884    1.0000 </r>
       <r>  -12.8133    1.0000 </r>
       <r>  -11.9408    1.0000 </r>
       <r>  -11.9138    1.0000 </r>
       <r>  -11.6431    1.0000 </r>
       <r>   -5.7653    1.0000 </r>
       <r>   -5.3766    1.0000 </r>
       <r>   -5.2072    1.0000 </r>
       <r>   -4.8109    1.0000 </r>
       <r>   -4.7825    1.0000 </r>
       <r>   -3.5677    1.0000 </r>
       <r>   -3.4021    1.0000 </r>
       <r>   -2.9136    1.0000 </r>
       <r>   -2.8880    1.0000 </r>
       <r>   -2.2055    1.0000 </r>
       <r>   -2.0459    1.0000 </r>
       <r>   -0.8967    1.0000 </r>
       <r>   -0.5581    1.0000 </r>
       <r>   -0.0655    1.0000 </r>
       <r>    1.9745   -0.0000 </r>
       <r>    2.1993   -0.0000 </r>
       <r>    2.6123   -0.0000 </r>
       <r>    3.0352   -0.0000 </r>
       <r>    3.0720   -0.0000 </r>
       <r>    3.8211   -0.0000 </r>
       <r>    3.9366   -0.0000 </r>
       <r>    4.7292    0.0000 </r>
       <r>    5.9775    0.0000 </r>
       <r>    7.4267    0.0000 </r>
       <r>    8.3556    0.0000 </r>
       <r>    8.6692    0.0000 </r>
      </set>
      <set comment="kpoint 18">
       <r>  -35.0433    1.0000 </r>
       <r>  -35.0432    1.0000 </r>
       <r>  -34.9124    1.0000 </r>
       <r>  -34.9122    1.0000 </r>
       <r>  -34.8893    1.0000 </r>
       <r>  -34.8892    1.0000 </r>
       <r>  -13.0153    1.0000 </r>
       <r>  -12.1666    1.0000 </r>
       <r>  -12.0734    1.0000 </r>
       <r>  -11.7479    1.0000 </r>
       <r>   -5.5356    1.0000 </r>
       <r>   -4.9783    1.0000 </r>
       <r>   -4.9204    1.0000 </r>
       <r>   -4.6565    1.0000 </r>
       <r>   -4.5253    1.0000 </r>
       <r>   -3.5989    1.0000 </r>
       <r>   -3.3193    1.0000 </r>
       <r>   -2.8007    1.0000 </r>
       <r>   -2.7570    1.0000 </r>
       <r>   -2.4572    1.0000 </r>
       <r>   -2.0765    1.0000 </r>
       <r>   -0.7937    1.0000 </r>
       <r>   -0.7309    1.0000 </r>
       <r>   -0.3944    1.0000 </r>
       <r>    1.7274   -0.0003 </r>
       <r>    2.4019   -0.0000 </r>
       <r>    2.4599   -0.0000 </r>
       <r>    2.6503   -0.0000 </r>
       <r>    2.7223   -0.0000 </r>
       <r>    3.4899   -0.0000 </r>
       <r>    4.0938   -0.0000 </r>
       <r>    4.8602    0.0000 </r>
       <r>    6.9917    0.0000 </r>
       <r>    7.9316    0.0000 </r>
       <r>    8.0066    0.0000 </r>
       <r>    8.4618    0.0000 </r>
      </set>
      <set comment="kpoint 19">
       <r>  -35.0602    1.0000 </r>
       <r>  -35.0601    1.0000 </r>
       <r>  -34.9249    1.0000 </r>
       <r>  -34.9248    1.0000 </r>
       <r>  -34.9038    1.0000 </r>
       <r>  -34.9036    1.0000 </r>
       <r>  -12.7937    1.0000 </r>
       <r>  -11.9198    1.0000 </r>
       <r>  -11.8921    1.0000 </r>
       <r>  -11.6207    1.0000 </r>
       <r>   -5.5309    1.0000 </r>
       <r>   -5.2233    1.0000 </r>
       <r>   -4.9809    1.0000 </r>
       <r>   -4.8719    1.0000 </r>
       <r>   -4.8512    1.0000 </r>
       <r>   -3.6062    1.0000 </r>
       <r>   -3.3837    1.0000 </r>
       <r>   -3.1656    1.0000 </r>
       <r>   -2.9110    1.0000 </r>
       <r>   -2.5963    1.0000 </r>
       <r>   -2.3679    1.0000 </r>
       <r>   -0.8078    1.0000 </r>
       <r>   -0.5244    1.0000 </r>
       <r>   -0.2883    1.0000 </r>
       <r>    1.8367   -0.0000 </r>
       <r>    2.1201   -0.0000 </r>
       <r>    2.5042   -0.0000 </r>
       <r>    2.8662   -0.0000 </r>
       <r>    3.1591   -0.0000 </r>
       <r>    3.6283   -0.0000 </r>
       <r>    4.2634    0.0000 </r>
       <r>    5.0082    0.0000 </r>
       <r>    6.4418    0.0000 </r>
       <r>    7.7978    0.0000 </r>
       <r>    7.8591    0.0000 </r>
       <r>    8.8301    0.0000 </r>
      </set>
      <set comment="kpoint 20">
       <r>  -35.0646    1.0000 </r>
       <r>  -35.0645    1.0000 </r>
       <r>  -34.9394    1.0000 </r>
       <r>  -34.9393    1.0000 </r>
       <r>  -34.9007    1.0000 </r>
       <r>  -34.9005    1.0000 </r>
       <r>  -12.7115    1.0000 </r>
       <r>  -11.8321    1.0000 </r>
       <r>  -11.8207    1.0000 </r>
       <r>  -11.5663    1.0000 </r>
       <r>   -5.5792    1.0000 </r>
       <r>   -5.2368    1.0000 </r>
       <r>   -5.1147    1.0000 </r>
       <r>   -4.9614    1.0000 </r>
       <r>   -4.8428    1.0000 </r>
       <r>   -3.5887    1.0000 </r>
       <r>   -3.5821    1.0000 </r>
       <r>   -3.2903    1.0000 </r>
       <r>   -2.8374    1.0000 </r>
       <r>   -2.6504    1.0000 </r>
       <r>   -2.5090    1.0000 </r>
       <r>   -0.9174    1.0000 </r>
       <r>   -0.3567    1.0000 </r>
       <r>   -0.0856    1.0000 </r>
       <r>    1.7866   -0.0000 </r>
       <r>    1.8884   -0.0000 </r>
       <r>    2.5533   -0.0000 </r>
       <r>    2.9768   -0.0000 </r>
       <r>    3.4223   -0.0000 </r>
       <r>    3.6632   -0.0000 </r>
       <r>    4.3391    0.0000 </r>
       <r>    5.0711    0.0000 </r>
       <r>    6.1599    0.0000 </r>
       <r>    7.6088    0.0000 </r>
       <r>    7.6486    0.0000 </r>
       <r>    9.0485    0.0000 </r>
      </set>
      <set comment="kpoint 21">
       <r>  -35.0401    1.0000 </r>
       <r>  -35.0400    1.0000 </r>
       <r>  -34.9734    1.0000 </r>
       <r>  -34.9733    1.0000 </r>
       <r>  -34.8992    1.0000 </r>
       <r>  -34.8991    1.0000 </r>
       <r>  -12.6748    1.0000 </r>
       <r>  -11.7939    1.0000 </r>
       <r>  -11.7862    1.0000 </r>
       <r>  -11.5362    1.0000 </r>
       <r>   -5.5492    1.0000 </r>
       <r>   -5.2184    1.0000 </r>
       <r>   -5.0835    1.0000 </r>
       <r>   -4.9005    1.0000 </r>
       <r>   -4.5650    1.0000 </r>
       <r>   -4.0469    1.0000 </r>
       <r>   -3.6815    1.0000 </r>
       <r>   -3.2317    1.0000 </r>
       <r>   -3.0940    1.0000 </r>
       <r>   -2.6440    1.0000 </r>
       <r>   -2.6161    1.0000 </r>
       <r>   -0.9466    1.0000 </r>
       <r>   -0.2545    1.0000 </r>
       <r>   -0.0570    1.0000 </r>
       <r>    1.6529   -0.0068 </r>
       <r>    1.7211   -0.0004 </r>
       <r>    2.4259   -0.0000 </r>
       <r>    3.0661   -0.0000 </r>
       <r>    3.3988   -0.0000 </r>
       <r>    3.7631   -0.0000 </r>
       <r>    4.5392    0.0000 </r>
       <r>    5.2473    0.0000 </r>
       <r>    6.4592    0.0000 </r>
       <r>    7.0166    0.0000 </r>
       <r>    7.9276    0.0000 </r>
       <r>    8.4860    0.0000 </r>
      </set>
     </set>
     <set comment="spin 2">
      <set comment="kpoint 1">
       <r>  -34.9798    1.0000 </r>
       <r>  -34.9796    1.0000 </r>
       <r>  -34.7573    1.0000 </r>
       <r>  -34.7573    1.0000 </r>
       <r>  -34.7572    1.0000 </r>
       <r>  -34.7572    1.0000 </r>
       <r>  -14.4952    1.0000 </r>
       <r>  -13.8104    1.0000 </r>
       <r>  -13.0427    1.0000 </r>
       <r>  -12.3954    1.0000 </r>
       <r>   -6.4463    1.0000 </r>
       <r>   -5.0486    1.0000 </r>
       <r>   -2.8231    1.0000 </r>
       <r>   -2.6680    1.0000 </r>
       <r>   -2.6680    1.0000 </r>
       <r>   -2.5871    1.0000 </r>
       <r>   -2.5871    1.0000 </r>
       <r>   -1.6189    1.0000 </r>
       <r>   -1.6188    1.0000 </r>
       <r>   -1.4920    1.0000 </r>
       <r>   -1.4920    1.0000 </r>
       <r>   -0.9506    1.0000 </r>
       <r>   -0.3533    1.0000 </r>
       <r>    1.5048    0.0945 </r>
       <r>    2.2471   -0.0000 </r>
       <r>    2.2471   -0.0000 </r>
       <r>    2.7751   -0.0000 </r>
       <r>    2.7752   -0.0000 </r>
       <r>    2.8131   -0.0000 </r>
       <r>    2.8131   -0.0000 </r>
       <r>    3.0902   -0.0000 </r>
       <r>    3.0902   -0.0000 </r>
       <r>    5.3839    0.0000 </r>
       <r>    5.4743    0.0000 </r>
       <r>    6.2659    0.0000 </r>
       <r>    7.0016    0.0000 </r>
      </set>
      <set comment="kpoint 2">
       <r>  -34.9757    1.0000 </r>
       <r>  -34.9755    1.0000 </r>
       <r>  -34.7787    1.0000 </r>
       <r>  -34.7786    1.0000 </r>
       <r>  -34.7622    1.0000 </r>
       <r>  -34.7621    1.0000 </r>
       <r>  -14.4157    1.0000 </r>
       <r>  -13.7237    1.0000 </r>
       <r>  -12.9959    1.0000 </r>
       <r>  -12.3630    1.0000 </r>
       <r>   -6.3619    1.0000 </r>
       <r>   -4.9540    1.0000 </r>
       <r>   -2.9822    1.0000 </r>
       <r>   -2.8589    1.0000 </r>
       <r>   -2.7697    1.0000 </r>
       <r>   -2.5860    1.0000 </r>
       <r>   -2.4951    1.0000 </r>
       <r>   -1.8438    1.0000 </r>
       <r>   -1.7555    1.0000 </r>
       <r>   -1.6449    1.0000 </r>
       <r>   -1.6285    1.0000 </r>
       <r>   -0.7492    1.0000 </r>
       <r>   -0.3596    1.0000 </r>
       <r>    1.3626    1.0024 </r>
       <r>    2.0930   -0.0000 </r>
       <r>    2.2718   -0.0000 </r>
       <r>    2.6324   -0.0000 </r>
       <r>    2.6465   -0.0000 </r>
       <r>    2.8415   -0.0000 </r>
       <r>    2.8506   -0.0000 </r>
       <r>    3.0430   -0.0000 </r>
       <r>    3.0716   -0.0000 </r>
       <r>    5.5255    0.0000 </r>
       <r>    5.6103    0.0000 </r>
       <r>    6.6586    0.0000 </r>
       <r>    7.1339    0.0000 </r>
      </set>
      <set comment="kpoint 3">
       <r>  -34.9643    1.0000 </r>
       <r>  -34.9641    1.0000 </r>
       <r>  -34.8373    1.0000 </r>
       <r>  -34.8372    1.0000 </r>
       <r>  -34.7756    1.0000 </r>
       <r>  -34.7755    1.0000 </r>
       <r>  -14.1888    1.0000 </r>
       <r>  -13.4755    1.0000 </r>
       <r>  -12.8607    1.0000 </r>
       <r>  -12.2704    1.0000 </r>
       <r>   -6.1394    1.0000 </r>
       <r>   -4.7224    1.0000 </r>
       <r>   -3.4585    1.0000 </r>
       <r>   -3.2411    1.0000 </r>
       <r>   -3.1971    1.0000 </r>
       <r>   -2.4215    1.0000 </r>
       <r>   -2.3825    1.0000 </r>
       <r>   -2.2351    1.0000 </r>
       <r>   -2.0608    1.0000 </r>
       <r>   -1.9615    1.0000 </r>
       <r>   -1.8139    1.0000 </r>
       <r>   -0.6616    1.0000 </r>
       <r>   -0.4669    1.0000 </r>
       <r>    0.9021    1.0000 </r>
       <r>    1.8205   -0.0000 </r>
       <r>    2.1859   -0.0000 </r>
       <r>    2.4307   -0.0000 </r>
       <r>    2.4620   -0.0000 </r>
       <r>    2.6986   -0.0000 </r>
       <r>    3.0488   -0.0000 </r>
       <r>    3.1256   -0.0000 </r>
       <r>    3.3551   -0.0000 </r>
       <r>    5.8777    0.0000 </r>
       <r>    5.9602    0.0000 </r>
       <r>    7.3431    0.0000 </r>
       <r>    7.7117    0.0000 </r>
      </set>
      <set comment="kpoint 4">
       <r>  -34.9482    1.0000 </r>
       <r>  -34.9480    1.0000 </r>
       <r>  -34.9190    1.0000 </r>
       <r>  -34.9189    1.0000 </r>
       <r>  -34.7945    1.0000 </r>
       <r>  -34.7944    1.0000 </r>
       <r>  -13.8500    1.0000 </r>
       <r>  -13.1029    1.0000 </r>
       <r>  -12.6528    1.0000 </r>
       <r>  -12.1309    1.0000 </r>
       <r>   -5.8774    1.0000 </r>
       <r>   -4.5967    1.0000 </r>
       <r>   -4.1255    1.0000 </r>
       <r>   -3.6471    1.0000 </r>
       <r>   -3.5662    1.0000 </r>
       <r>   -2.9983    1.0000 </r>
       <r>   -2.5411    1.0000 </r>
       <r>   -2.3550    1.0000 </r>
       <r>   -2.1181    1.0000 </r>
       <r>   -1.9663    1.0000 </r>
       <r>   -1.8558    1.0000 </r>
       <r>   -0.8531    1.0000 </r>
       <r>   -0.7687    1.0000 </r>
       <r>    0.3185    1.0000 </r>
       <r>    1.6888   -0.0017 </r>
       <r>    2.0228   -0.0000 </r>
       <r>    2.4468   -0.0000 </r>
       <r>    2.4488   -0.0000 </r>
       <r>    2.5901   -0.0000 </r>
       <r>    3.3546   -0.0000 </r>
       <r>    3.4444   -0.0000 </r>
       <r>    3.7545   -0.0000 </r>
       <r>    6.3841    0.0000 </r>
       <r>    6.4745    0.0000 </r>
       <r>    7.8057    0.0000 </r>
       <r>    8.1573    0.0000 </r>
      </set>
      <set comment="kpoint 5">
       <r>  -35.0045    1.0000 </r>
       <r>  -35.0044    1.0000 </r>
       <r>  -34.9309    1.0000 </r>
       <r>  -34.9308    1.0000 </r>
       <r>  -34.8145    1.0000 </r>
       <r>  -34.8144    1.0000 </r>
       <r>  -13.4614    1.0000 </r>
       <r>  -12.6704    1.0000 </r>
       <r>  -12.4018    1.0000 </r>
       <r>  -11.9681    1.0000 </r>
       <r>   -5.7357    1.0000 </r>
       <r>   -4.8738    1.0000 </r>
       <r>   -4.7870    1.0000 </r>
       <r>   -4.0514    1.0000 </r>
       <r>   -3.8390    1.0000 </r>
       <r>   -3.3104    1.0000 </r>
       <r>   -2.8860    1.0000 </r>
       <r>   -2.7089    1.0000 </r>
       <r>   -2.4063    1.0000 </r>
       <r>   -1.6385    1.0000 </r>
       <r>   -1.4433    1.0000 </r>
       <r>   -1.1106    1.0000 </r>
       <r>   -1.0486    1.0000 </r>
       <r>   -0.0452    1.0000 </r>
       <r>    1.8149   -0.0000 </r>
       <r>    1.9438   -0.0000 </r>
       <r>    2.2581   -0.0000 </r>
       <r>    2.5656   -0.0000 </r>
       <r>    2.9629   -0.0000 </r>
       <r>    3.5979   -0.0000 </r>
       <r>    3.8453   -0.0000 </r>
       <r>    4.0861   -0.0000 </r>
       <r>    6.9413    0.0000 </r>
       <r>    7.0975    0.0000 </r>
       <r>    7.3560    0.0000 </r>
       <r>    8.1883    0.0000 </r>
      </set>
      <set comment="kpoint 6">
       <r>  -35.0745    1.0000 </r>
       <r>  -35.0744    1.0000 </r>
       <r>  -34.9166    1.0000 </r>
       <r>  -34.9165    1.0000 </r>
       <r>  -34.8309    1.0000 </r>
       <r>  -34.8308    1.0000 </r>
       <r>  -13.1123    1.0000 </r>
       <r>  -12.2756    1.0000 </r>
       <r>  -12.1574    1.0000 </r>
       <r>  -11.8148    1.0000 </r>
       <r>   -5.8386    1.0000 </r>
       <r>   -5.2717    1.0000 </r>
       <r>   -5.2630    1.0000 </r>
       <r>   -4.3698    1.0000 </r>
       <r>   -4.2498    1.0000 </r>
       <r>   -3.4323    1.0000 </r>
       <r>   -3.1450    1.0000 </r>
       <r>   -2.9679    1.0000 </r>
       <r>   -2.6459    1.0000 </r>
       <r>   -1.3879    1.0000 </r>
       <r>   -1.2169    1.0000 </r>
       <r>   -1.1037    1.0000 </r>
       <r>   -1.0335    1.0000 </r>
       <r>   -0.0045    1.0000 </r>
       <r>    1.9970   -0.0000 </r>
       <r>    2.1113   -0.0000 </r>
       <r>    2.1832   -0.0000 </r>
       <r>    2.6915   -0.0000 </r>
       <r>    3.2913   -0.0000 </r>
       <r>    3.7371   -0.0000 </r>
       <r>    4.1521   -0.0000 </r>
       <r>    4.3002    0.0000 </r>
       <r>    6.3443    0.0000 </r>
       <r>    7.2523    0.0000 </r>
       <r>    7.4247    0.0000 </r>
       <r>    8.0154    0.0000 </r>
      </set>
      <set comment="kpoint 7">
       <r>  -35.1136    1.0000 </r>
       <r>  -35.1135    1.0000 </r>
       <r>  -34.9086    1.0000 </r>
       <r>  -34.9084    1.0000 </r>
       <r>  -34.8402    1.0000 </r>
       <r>  -34.8401    1.0000 </r>
       <r>  -12.9034    1.0000 </r>
       <r>  -12.0394    1.0000 </r>
       <r>  -11.9968    1.0000 </r>
       <r>  -11.7124    1.0000 </r>
       <r>   -6.0459    1.0000 </r>
       <r>   -5.5108    1.0000 </r>
       <r>   -5.4836    1.0000 </r>
       <r>   -4.5394    1.0000 </r>
       <r>   -4.5063    1.0000 </r>
       <r>   -3.5746    1.0000 </r>
       <r>   -3.2811    1.0000 </r>
       <r>   -3.1034    1.0000 </r>
       <r>   -2.7936    1.0000 </r>
       <r>   -1.2654    1.0000 </r>
       <r>   -1.2429    1.0000 </r>
       <r>   -0.9197    1.0000 </r>
       <r>   -0.8742    1.0000 </r>
       <r>    0.2504    1.0000 </r>
       <r>    2.0929   -0.0000 </r>
       <r>    2.1855   -0.0000 </r>
       <r>    2.4150   -0.0000 </r>
       <r>    2.7598   -0.0000 </r>
       <r>    3.4309   -0.0000 </r>
       <r>    3.7922   -0.0000 </r>
       <r>    4.2723    0.0000 </r>
       <r>    4.3999    0.0000 </r>
       <r>    5.6149    0.0000 </r>
       <r>    6.9589    0.0000 </r>
       <r>    7.2750    0.0000 </r>
       <r>    8.1849    0.0000 </r>
      </set>
      <set comment="kpoint 8">
       <r>  -34.9680    1.0000 </r>
       <r>  -34.9677    1.0000 </r>
       <r>  -34.8177    1.0000 </r>
       <r>  -34.8176    1.0000 </r>
       <r>  -34.7723    1.0000 </r>
       <r>  -34.7722    1.0000 </r>
       <r>  -14.2624    1.0000 </r>
       <r>  -13.5561    1.0000 </r>
       <r>  -12.9048    1.0000 </r>
       <r>  -12.3004    1.0000 </r>
       <r>   -6.2075    1.0000 </r>
       <r>   -4.7875    1.0000 </r>
       <r>   -3.2809    1.0000 </r>
       <r>   -3.1408    1.0000 </r>
       <r>   -3.0713    1.0000 </r>
       <r>   -2.4460    1.0000 </r>
       <r>   -2.3246    1.0000 </r>
       <r>   -2.2212    1.0000 </r>
       <r>   -2.0824    1.0000 </r>
       <r>   -1.9246    1.0000 </r>
       <r>   -1.6533    1.0000 </r>
       <r>   -0.6262    1.0000 </r>
       <r>   -0.4120    1.0000 </r>
       <r>    1.0678    1.0000 </r>
       <r>    1.8745   -0.0000 </r>
       <r>    2.2225   -0.0000 </r>
       <r>    2.4265   -0.0000 </r>
       <r>    2.4716   -0.0000 </r>
       <r>    2.7524   -0.0000 </r>
       <r>    2.9991   -0.0000 </r>
       <r>    3.0031   -0.0000 </r>
       <r>    3.3365   -0.0000 </r>
       <r>    5.7693    0.0000 </r>
       <r>    5.8510    0.0000 </r>
       <r>    7.2061    0.0000 </r>
       <r>    7.5054    0.0000 </r>
      </set>
      <set comment="kpoint 9">
       <r>  -34.9542    1.0000 </r>
       <r>  -34.9540    1.0000 </r>
       <r>  -34.8855    1.0000 </r>
       <r>  -34.8854    1.0000 </r>
       <r>  -34.7908    1.0000 </r>
       <r>  -34.7907    1.0000 </r>
       <r>  -13.9790    1.0000 </r>
       <r>  -13.2451    1.0000 </r>
       <r>  -12.7326    1.0000 </r>
       <r>  -12.1837    1.0000 </r>
       <r>   -5.9584    1.0000 </r>
       <r>   -4.5817    1.0000 </r>
       <r>   -3.8380    1.0000 </r>
       <r>   -3.4699    1.0000 </r>
       <r>   -3.4576    1.0000 </r>
       <r>   -2.7483    1.0000 </r>
       <r>   -2.6527    1.0000 </r>
       <r>   -2.3415    1.0000 </r>
       <r>   -2.1625    1.0000 </r>
       <r>   -2.0292    1.0000 </r>
       <r>   -1.7634    1.0000 </r>
       <r>   -0.6869    1.0000 </r>
       <r>   -0.6160    1.0000 </r>
       <r>    0.5635    1.0000 </r>
       <r>    1.6474   -0.0081 </r>
       <r>    2.0925   -0.0000 </r>
       <r>    2.3346   -0.0000 </r>
       <r>    2.3769   -0.0000 </r>
       <r>    2.5549   -0.0000 </r>
       <r>    3.1240   -0.0000 </r>
       <r>    3.3263   -0.0000 </r>
       <r>    3.7937   -0.0000 </r>
       <r>    6.2021    0.0000 </r>
       <r>    6.2844    0.0000 </r>
       <r>    7.7112    0.0000 </r>
       <r>    8.3761    0.0000 </r>
      </set>
      <set comment="kpoint 10">
       <r>  -34.9661    1.0000 </r>
       <r>  -34.9660    1.0000 </r>
       <r>  -34.9375    1.0000 </r>
       <r>  -34.9373    1.0000 </r>
       <r>  -34.8132    1.0000 </r>
       <r>  -34.8131    1.0000 </r>
       <r>  -13.6135    1.0000 </r>
       <r>  -12.8404    1.0000 </r>
       <r>  -12.5010    1.0000 </r>
       <r>  -12.0307    1.0000 </r>
       <r>   -5.7412    1.0000 </r>
       <r>   -4.6772    1.0000 </r>
       <r>   -4.4712    1.0000 </r>
       <r>   -3.8642    1.0000 </r>
       <r>   -3.6566    1.0000 </r>
       <r>   -3.2796    1.0000 </r>
       <r>   -3.0532    1.0000 </r>
       <r>   -2.6427    1.0000 </r>
       <r>   -2.1255    1.0000 </r>
       <r>   -1.8201    1.0000 </r>
       <r>   -1.7295    1.0000 </r>
       <r>   -0.9232    1.0000 </r>
       <r>   -0.9117    1.0000 </r>
       <r>    0.0908    1.0000 </r>
       <r>    1.5893   -0.0313 </r>
       <r>    2.0615   -0.0000 </r>
       <r>    2.2407   -0.0000 </r>
       <r>    2.5464   -0.0000 </r>
       <r>    2.6272   -0.0000 </r>
       <r>    3.4087   -0.0000 </r>
       <r>    3.6209   -0.0000 </r>
       <r>    4.2029    0.0000 </r>
       <r>    6.7751    0.0000 </r>
       <r>    6.8669    0.0000 </r>
       <r>    7.8772    0.0000 </r>
       <r>    8.3479    0.0000 </r>
      </set>
      <set comment="kpoint 11">
       <r>  -35.0409    1.0000 </r>
       <r>  -35.0408    1.0000 </r>
       <r>  -34.9217    1.0000 </r>
       <r>  -34.9216    1.0000 </r>
       <r>  -34.8343    1.0000 </r>
       <r>  -34.8342    1.0000 </r>
       <r>  -13.2410    1.0000 </r>
       <r>  -12.4218    1.0000 </r>
       <r>  -12.2482    1.0000 </r>
       <r>  -11.8691    1.0000 </r>
       <r>   -5.7100    1.0000 </r>
       <r>   -5.0359    1.0000 </r>
       <r>   -5.0324    1.0000 </r>
       <r>   -4.2706    1.0000 </r>
       <r>   -4.0894    1.0000 </r>
       <r>   -3.4006    1.0000 </r>
       <r>   -3.2568    1.0000 </r>
       <r>   -2.8489    1.0000 </r>
       <r>   -2.3902    1.0000 </r>
       <r>   -1.7392    1.0000 </r>
       <r>   -1.5570    1.0000 </r>
       <r>   -0.9997    1.0000 </r>
       <r>   -0.9685    1.0000 </r>
       <r>   -0.1163    1.0000 </r>
       <r>    1.7473   -0.0001 </r>
       <r>    2.1719   -0.0000 </r>
       <r>    2.2472   -0.0000 </r>
       <r>    2.6276   -0.0000 </r>
       <r>    2.9944   -0.0000 </r>
       <r>    3.7503   -0.0000 </r>
       <r>    3.7685   -0.0000 </r>
       <r>    4.4543    0.0000 </r>
       <r>    6.9488    0.0000 </r>
       <r>    7.3469    0.0000 </r>
       <r>    7.4725    0.0000 </r>
       <r>    8.1456    0.0000 </r>
      </set>
      <set comment="kpoint 12">
       <r>  -35.0934    1.0000 </r>
       <r>  -35.0933    1.0000 </r>
       <r>  -34.9105    1.0000 </r>
       <r>  -34.9104    1.0000 </r>
       <r>  -34.8492    1.0000 </r>
       <r>  -34.8491    1.0000 </r>
       <r>  -12.9578    1.0000 </r>
       <r>  -12.1007    1.0000 </r>
       <r>  -12.0373    1.0000 </r>
       <r>  -11.7353    1.0000 </r>
       <r>   -5.8849    1.0000 </r>
       <r>   -5.3756    1.0000 </r>
       <r>   -5.3434    1.0000 </r>
       <r>   -4.5388    1.0000 </r>
       <r>   -4.4837    1.0000 </r>
       <r>   -3.5303    1.0000 </r>
       <r>   -3.3348    1.0000 </r>
       <r>   -2.9928    1.0000 </r>
       <r>   -2.6744    1.0000 </r>
       <r>   -1.6760    1.0000 </r>
       <r>   -1.4675    1.0000 </r>
       <r>   -0.9496    1.0000 </r>
       <r>   -0.7915    1.0000 </r>
       <r>    0.0236    1.0000 </r>
       <r>    1.9919   -0.0000 </r>
       <r>    2.2766   -0.0000 </r>
       <r>    2.3755   -0.0000 </r>
       <r>    2.7450   -0.0000 </r>
       <r>    3.3128   -0.0000 </r>
       <r>    3.7291   -0.0000 </r>
       <r>    4.0392   -0.0000 </r>
       <r>    4.4978    0.0000 </r>
       <r>    6.0375    0.0000 </r>
       <r>    7.3323    0.0000 </r>
       <r>    7.5919    0.0000 </r>
       <r>    8.3376    0.0000 </r>
      </set>
      <set comment="kpoint 13">
       <r>  -35.1122    1.0000 </r>
       <r>  -35.1121    1.0000 </r>
       <r>  -34.9065    1.0000 </r>
       <r>  -34.9064    1.0000 </r>
       <r>  -34.8546    1.0000 </r>
       <r>  -34.8545    1.0000 </r>
       <r>  -12.8516    1.0000 </r>
       <r>  -11.9822    1.0000 </r>
       <r>  -11.9518    1.0000 </r>
       <r>  -11.6782    1.0000 </r>
       <r>   -6.0016    1.0000 </r>
       <r>   -5.4814    1.0000 </r>
       <r>   -5.4615    1.0000 </r>
       <r>   -4.6289    1.0000 </r>
       <r>   -4.6283    1.0000 </r>
       <r>   -3.6132    1.0000 </r>
       <r>   -3.3412    1.0000 </r>
       <r>   -3.0408    1.0000 </r>
       <r>   -2.8045    1.0000 </r>
       <r>   -1.6463    1.0000 </r>
       <r>   -1.4468    1.0000 </r>
       <r>   -0.9248    1.0000 </r>
       <r>   -0.6781    1.0000 </r>
       <r>    0.1792    1.0000 </r>
       <r>    2.0867   -0.0000 </r>
       <r>    2.2433   -0.0000 </r>
       <r>    2.5335   -0.0000 </r>
       <r>    2.8445   -0.0000 </r>
       <r>    3.5094   -0.0000 </r>
       <r>    3.5868   -0.0000 </r>
       <r>    4.1864    0.0000 </r>
       <r>    4.4309    0.0000 </r>
       <r>    5.6325    0.0000 </r>
       <r>    7.0424    0.0000 </r>
       <r>    7.6793    0.0000 </r>
       <r>    8.5048    0.0000 </r>
      </set>
      <set comment="kpoint 14">
       <r>  -34.9478    1.0000 </r>
       <r>  -34.9477    1.0000 </r>
       <r>  -34.9398    1.0000 </r>
       <r>  -34.9397    1.0000 </r>
       <r>  -34.8172    1.0000 </r>
       <r>  -34.8171    1.0000 </r>
       <r>  -13.6676    1.0000 </r>
       <r>  -12.9005    1.0000 </r>
       <r>  -12.5351    1.0000 </r>
       <r>  -12.0520    1.0000 </r>
       <r>   -5.7401    1.0000 </r>
       <r>   -4.5820    1.0000 </r>
       <r>   -4.2995    1.0000 </r>
       <r>   -3.7303    1.0000 </r>
       <r>   -3.5703    1.0000 </r>
       <r>   -3.2759    1.0000 </r>
       <r>   -3.2667    1.0000 </r>
       <r>   -2.6797    1.0000 </r>
       <r>   -2.1493    1.0000 </r>
       <r>   -1.8792    1.0000 </r>
       <r>   -1.7283    1.0000 </r>
       <r>   -0.8299    1.0000 </r>
       <r>   -0.8084    1.0000 </r>
       <r>    0.2030    1.0000 </r>
       <r>    1.4775    0.2616 </r>
       <r>    2.1119   -0.0000 </r>
       <r>    2.1749   -0.0000 </r>
       <r>    2.4121   -0.0000 </r>
       <r>    2.5381   -0.0000 </r>
       <r>    3.1908   -0.0000 </r>
       <r>    3.6743   -0.0000 </r>
       <r>    4.2875    0.0000 </r>
       <r>    6.7136    0.0000 </r>
       <r>    6.7936    0.0000 </r>
       <r>    8.1878    0.0000 </r>
       <r>    8.3670    0.0000 </r>
      </set>
      <set comment="kpoint 15">
       <r>  -35.0108    1.0000 </r>
       <r>  -35.0107    1.0000 </r>
       <r>  -34.9246    1.0000 </r>
       <r>  -34.9245    1.0000 </r>
       <r>  -34.8476    1.0000 </r>
       <r>  -34.8475    1.0000 </r>
       <r>  -13.3137    1.0000 </r>
       <r>  -12.5040    1.0000 </r>
       <r>  -12.2960    1.0000 </r>
       <r>  -11.8958    1.0000 </r>
       <r>   -5.6074    1.0000 </r>
       <r>   -4.8198    1.0000 </r>
       <r>   -4.7531    1.0000 </r>
       <r>   -4.2172    1.0000 </r>
       <r>   -3.9634    1.0000 </r>
       <r>   -3.4955    1.0000 </r>
       <r>   -3.4335    1.0000 </r>
       <r>   -2.7610    1.0000 </r>
       <r>   -2.3503    1.0000 </r>
       <r>   -1.9777    1.0000 </r>
       <r>   -1.8511    1.0000 </r>
       <r>   -0.9258    1.0000 </r>
       <r>   -0.8659    1.0000 </r>
       <r>   -0.1299    1.0000 </r>
       <r>    1.5385   -0.0124 </r>
       <r>    2.2510   -0.0000 </r>
       <r>    2.2589   -0.0000 </r>
       <r>    2.5910   -0.0000 </r>
       <r>    2.6301   -0.0000 </r>
       <r>    3.3827   -0.0000 </r>
       <r>    3.8957   -0.0000 </r>
       <r>    4.6166    0.0000 </r>
       <r>    7.3485    0.0000 </r>
       <r>    7.4194    0.0000 </r>
       <r>    7.5263    0.0000 </r>
       <r>    8.9309    0.0000 </r>
      </set>
      <set comment="kpoint 16">
       <r>  -35.0615    1.0000 </r>
       <r>  -35.0614    1.0000 </r>
       <r>  -34.9119    1.0000 </r>
       <r>  -34.9118    1.0000 </r>
       <r>  -34.8737    1.0000 </r>
       <r>  -34.8736    1.0000 </r>
       <r>  -12.9996    1.0000 </r>
       <r>  -12.1485    1.0000 </r>
       <r>  -12.0642    1.0000 </r>
       <r>  -11.7455    1.0000 </r>
       <r>   -5.6482    1.0000 </r>
       <r>   -5.1472    1.0000 </r>
       <r>   -5.0680    1.0000 </r>
       <r>   -4.6049    1.0000 </r>
       <r>   -4.5083    1.0000 </r>
       <r>   -3.4987    1.0000 </r>
       <r>   -3.4294    1.0000 </r>
       <r>   -2.8520    1.0000 </r>
       <r>   -2.6297    1.0000 </r>
       <r>   -2.0853    1.0000 </r>
       <r>   -2.0556    1.0000 </r>
       <r>   -0.8313    1.0000 </r>
       <r>   -0.7751    1.0000 </r>
       <r>   -0.2584    1.0000 </r>
       <r>    1.8115   -0.0000 </r>
       <r>    2.4095   -0.0000 </r>
       <r>    2.4118   -0.0000 </r>
       <r>    2.6934   -0.0000 </r>
       <r>    2.8913   -0.0000 </r>
       <r>    3.6472   -0.0000 </r>
       <r>    3.9603   -0.0000 </r>
       <r>    4.7425    0.0000 </r>
       <r>    6.6396    0.0000 </r>
       <r>    7.7868    0.0000 </r>
       <r>    8.0287    0.0000 </r>
       <r>    8.4599    0.0000 </r>
      </set>
      <set comment="kpoint 17">
       <r>  -35.0898    1.0000 </r>
       <r>  -35.0897    1.0000 </r>
       <r>  -34.9048    1.0000 </r>
       <r>  -34.9047    1.0000 </r>
       <r>  -34.8886    1.0000 </r>
       <r>  -34.8885    1.0000 </r>
       <r>  -12.8133    1.0000 </r>
       <r>  -11.9408    1.0000 </r>
       <r>  -11.9138    1.0000 </r>
       <r>  -11.6431    1.0000 </r>
       <r>   -5.7653    1.0000 </r>
       <r>   -5.3766    1.0000 </r>
       <r>   -5.2072    1.0000 </r>
       <r>   -4.8110    1.0000 </r>
       <r>   -4.7825    1.0000 </r>
       <r>   -3.5677    1.0000 </r>
       <r>   -3.4021    1.0000 </r>
       <r>   -2.9137    1.0000 </r>
       <r>   -2.8880    1.0000 </r>
       <r>   -2.2055    1.0000 </r>
       <r>   -2.0460    1.0000 </r>
       <r>   -0.8968    1.0000 </r>
       <r>   -0.5581    1.0000 </r>
       <r>   -0.0655    1.0000 </r>
       <r>    1.9745   -0.0000 </r>
       <r>    2.1993   -0.0000 </r>
       <r>    2.6123   -0.0000 </r>
       <r>    3.0351   -0.0000 </r>
       <r>    3.0720   -0.0000 </r>
       <r>    3.8211   -0.0000 </r>
       <r>    3.9365   -0.0000 </r>
       <r>    4.7291    0.0000 </r>
       <r>    5.9775    0.0000 </r>
       <r>    7.4269    0.0000 </r>
       <r>    8.3565    0.0000 </r>
       <r>    8.6647    0.0000 </r>
      </set>
      <set comment="kpoint 18">
       <r>  -35.0434    1.0000 </r>
       <r>  -35.0433    1.0000 </r>
       <r>  -34.9125    1.0000 </r>
       <r>  -34.9123    1.0000 </r>
       <r>  -34.8893    1.0000 </r>
[...]
       <r>    -2.1517     1.7792    19.1022 </r>
       <r>    -1.9896     3.3980    19.6529 </r>
       <r>    -1.8275     2.0365    19.9830 </r>
       <r>    -1.6654     2.9829    20.4665 </r>
       <r>    -1.5033     1.6213    20.7293 </r>
       <r>    -1.3412     1.0034    20.8919 </r>
       <r>    -1.1792     0.5989    20.9890 </r>
       <r>    -1.0171     0.9717    21.1465 </r>
       <r>    -0.8550     4.6266    21.8964 </r>
       <r>    -0.6929     3.6101    22.4815 </r>
       <r>    -0.5308     1.7265    22.7614 </r>
       <r>    -0.3687     1.0929    22.9385 </r>
       <r>    -0.2066     1.3729    23.1610 </r>
       <r>    -0.0446     1.7313    23.4417 </r>
       <r>     0.1175     1.3522    23.6608 </r>
       <r>     0.2796     0.7338    23.7798 </r>
       <r>     0.4417     0.2222    23.8158 </r>
       <r>     0.6038     0.3608    23.8742 </r>
       <r>     0.7659     0.0782    23.8869 </r>
       <r>     0.9279     0.1527    23.9117 </r>
       <r>     1.0900     0.2223    23.9477 </r>
       <r>     1.2521     0.0618    23.9577 </r>
       <r>     1.4142     0.1874    23.9881 </r>
       <r>     1.5763     0.8063    24.1188 </r>
       <r>     1.7384     1.7106    24.3961 </r>
       <r>     1.9004     2.2313    24.7577 </r>
       <r>     2.0625     2.1440    25.1052 </r>
       <r>     2.2246     4.2443    25.7932 </r>
       <r>     2.3867     4.1779    26.4703 </r>
       <r>     2.5488     4.4641    27.1939 </r>
       <r>     2.7109     4.6235    27.9433 </r>
       <r>     2.8729     2.1538    28.2924 </r>
       <r>     3.0350     2.3834    28.6787 </r>
       <r>     3.1971     2.5418    29.0907 </r>
       <r>     3.3592     1.7576    29.3756 </r>
       <r>     3.5213     2.2672    29.7430 </r>
       <r>     3.6834     2.0719    30.0788 </r>
       <r>     3.8455     3.2803    30.6105 </r>
       <r>     4.0075     1.6088    30.8713 </r>
       <r>     4.1696     1.1337    31.0550 </r>
       <r>     4.3317     1.6403    31.3209 </r>
       <r>     4.4938     1.2601    31.5252 </r>
       <r>     4.6559     0.9045    31.6718 </r>
       <r>     4.8180     0.9609    31.8275 </r>
       <r>     4.9800     0.3131    31.8783 </r>
       <r>     5.1421     0.5321    31.9645 </r>
       <r>     5.3042     0.1988    31.9968 </r>
       <r>     5.4663     0.1035    32.0135 </r>
       <r>     5.6284     0.6174    32.1136 </r>
       <r>     5.7905     0.4741    32.1905 </r>
       <r>     5.9525     0.7018    32.3042 </r>
       <r>     6.1146     0.8813    32.4471 </r>
       <r>     6.2767     0.8930    32.5918 </r>
       <r>     6.4388     0.9817    32.7509 </r>
       <r>     6.6009     0.6458    32.8556 </r>
       <r>     6.7630     1.1064    33.0349 </r>
       <r>     6.9251     1.0794    33.2099 </r>
       <r>     7.0871     1.5404    33.4595 </r>
       <r>     7.2492     0.4259    33.5286 </r>
       <r>     7.4113     2.5757    33.9460 </r>
       <r>     7.5734     1.6847    34.2191 </r>
       <r>     7.7355     1.4501    34.4541 </r>
       <r>     7.8976     2.2033    34.8113 </r>
       <r>     8.0596     1.4960    35.0537 </r>
       <r>     8.2217     0.7086    35.1686 </r>
       <r>     8.3838     2.0755    35.5050 </r>
       <r>     8.5459     1.4612    35.7418 </r>
       <r>     8.7080     0.6089    35.8405 </r>
       <r>     8.8701     0.6918    35.9527 </r>
       <r>     9.0321     0.1560    35.9779 </r>
       <r>     9.1942     0.1425    36.0010 </r>
       <r>     9.3563    -0.0064    36.0000 </r>
       <r>     9.5184    -0.0000    36.0000 </r>
       <r>     9.6805    -0.0000    36.0000 </r>
       <r>     9.8426     0.0000    36.0000 </r>
       <r>    10.0046     0.0000    36.0000 </r>
       <r>    10.1667     0.0000    36.0000 </r>
       <r>    10.3288     0.0000    36.0000 </r>
       <r>    10.4909     0.0000    36.0000 </r>
       <r>    10.6530     0.0000    36.0000 </r>
       <r>    10.8151     0.0000    36.0000 </r>
       <r>    10.9772     0.0000    36.0000 </r>
       <r>    11.1392     0.0000    36.0000 </r>
       <r>    11.3013     0.0000    36.0000 </r>
      </set>
      <set comment="spin 2">
       <r>   -37.3239     0.0000     0.0000 </r>
       <r>   -37.1618     0.0000     0.0000 </r>
       <r>   -36.9997     0.0000     0.0000 </r>
       <r>   -36.8376     0.0000     0.0000 </r>
       <r>   -36.6755     0.0000     0.0000 </r>
       <r>   -36.5135     0.0000     0.0000 </r>
       <r>   -36.3514     0.0000     0.0000 </r>
       <r>   -36.1893     0.0000     0.0000 </r>
       <r>   -36.0272    -0.0000    -0.0000 </r>
       <r>   -35.8651    -0.0000    -0.0000 </r>
       <r>   -35.7030    -0.0000    -0.0000 </r>
       <r>   -35.5410    -0.0000    -0.0000 </r>
       <r>   -35.3789    -0.0009    -0.0002 </r>
       <r>   -35.2168    -0.1974    -0.0321 </r>
       <r>   -35.0547     4.2747     0.6607 </r>
       <r>   -34.8926    18.4113     3.6449 </r>
       <r>   -34.7305    14.4513     5.9872 </r>
       <r>   -34.5685     0.1026     6.0038 </r>
       <r>   -34.4064    -0.0237     6.0000 </r>
       <r>   -34.2443    -0.0000     6.0000 </r>
       <r>   -34.0822    -0.0000     6.0000 </r>
       <r>   -33.9201     0.0000     6.0000 </r>
       <r>   -33.7580     0.0000     6.0000 </r>
       <r>   -33.5960     0.0000     6.0000 </r>
       <r>   -33.4339     0.0000     6.0000 </r>
       <r>   -33.2718     0.0000     6.0000 </r>
       <r>   -33.1097     0.0000     6.0000 </r>
       <r>   -32.9476     0.0000     6.0000 </r>
       <r>   -32.7855     0.0000     6.0000 </r>
       <r>   -32.6234     0.0000     6.0000 </r>
       <r>   -32.4614     0.0000     6.0000 </r>
       <r>   -32.2993     0.0000     6.0000 </r>
       <r>   -32.1372     0.0000     6.0000 </r>
       <r>   -31.9751     0.0000     6.0000 </r>
       <r>   -31.8130     0.0000     6.0000 </r>
       <r>   -31.6509     0.0000     6.0000 </r>
       <r>   -31.4889     0.0000     6.0000 </r>
       <r>   -31.3268     0.0000     6.0000 </r>
       <r>   -31.1647     0.0000     6.0000 </r>
       <r>   -31.0026     0.0000     6.0000 </r>
       <r>   -30.8405     0.0000     6.0000 </r>
       <r>   -30.6784     0.0000     6.0000 </r>
       <r>   -30.5164     0.0000     6.0000 </r>
       <r>   -30.3543     0.0000     6.0000 </r>
       <r>   -30.1922     0.0000     6.0000 </r>
       <r>   -30.0301     0.0000     6.0000 </r>
       <r>   -29.8680     0.0000     6.0000 </r>
       <r>   -29.7059     0.0000     6.0000 </r>
       <r>   -29.5439     0.0000     6.0000 </r>
       <r>   -29.3818     0.0000     6.0000 </r>
       <r>   -29.2197     0.0000     6.0000 </r>
       <r>   -29.0576     0.0000     6.0000 </r>
       <r>   -28.8955     0.0000     6.0000 </r>
       <r>   -28.7334     0.0000     6.0000 </r>
       <r>   -28.5713     0.0000     6.0000 </r>
       <r>   -28.4093     0.0000     6.0000 </r>
       <r>   -28.2472     0.0000     6.0000 </r>
       <r>   -28.0851     0.0000     6.0000 </r>
       <r>   -27.9230     0.0000     6.0000 </r>
       <r>   -27.7609     0.0000     6.0000 </r>
       <r>   -27.5988     0.0000     6.0000 </r>
       <r>   -27.4368     0.0000     6.0000 </r>
       <r>   -27.2747     0.0000     6.0000 </r>
       <r>   -27.1126     0.0000     6.0000 </r>
       <r>   -26.9505     0.0000     6.0000 </r>
       <r>   -26.7884     0.0000     6.0000 </r>
       <r>   -26.6263     0.0000     6.0000 </r>
       <r>   -26.4643     0.0000     6.0000 </r>
       <r>   -26.3022     0.0000     6.0000 </r>
       <r>   -26.1401     0.0000     6.0000 </r>
       <r>   -25.9780     0.0000     6.0000 </r>
       <r>   -25.8159     0.0000     6.0000 </r>
       <r>   -25.6538     0.0000     6.0000 </r>
       <r>   -25.4918     0.0000     6.0000 </r>
       <r>   -25.3297     0.0000     6.0000 </r>
       <r>   -25.1676     0.0000     6.0000 </r>
       <r>   -25.0055     0.0000     6.0000 </r>
       <r>   -24.8434     0.0000     6.0000 </r>
       <r>   -24.6813     0.0000     6.0000 </r>
       <r>   -24.5192     0.0000     6.0000 </r>
       <r>   -24.3572     0.0000     6.0000 </r>
       <r>   -24.1951     0.0000     6.0000 </r>
       <r>   -24.0330     0.0000     6.0000 </r>
       <r>   -23.8709     0.0000     6.0000 </r>
       <r>   -23.7088     0.0000     6.0000 </r>
       <r>   -23.5467     0.0000     6.0000 </r>
       <r>   -23.3847     0.0000     6.0000 </r>
       <r>   -23.2226     0.0000     6.0000 </r>
       <r>   -23.0605     0.0000     6.0000 </r>
       <r>   -22.8984     0.0000     6.0000 </r>
       <r>   -22.7363     0.0000     6.0000 </r>
       <r>   -22.5742     0.0000     6.0000 </r>
       <r>   -22.4122     0.0000     6.0000 </r>
       <r>   -22.2501     0.0000     6.0000 </r>
       <r>   -22.0880     0.0000     6.0000 </r>
       <r>   -21.9259     0.0000     6.0000 </r>
       <r>   -21.7638     0.0000     6.0000 </r>
       <r>   -21.6017     0.0000     6.0000 </r>
       <r>   -21.4397     0.0000     6.0000 </r>
       <r>   -21.2776     0.0000     6.0000 </r>
       <r>   -21.1155     0.0000     6.0000 </r>
       <r>   -20.9534     0.0000     6.0000 </r>
       <r>   -20.7913     0.0000     6.0000 </r>
       <r>   -20.6292     0.0000     6.0000 </r>
       <r>   -20.4671     0.0000     6.0000 </r>
       <r>   -20.3051     0.0000     6.0000 </r>
       <r>   -20.1430     0.0000     6.0000 </r>
       <r>   -19.9809     0.0000     6.0000 </r>
       <r>   -19.8188     0.0000     6.0000 </r>
       <r>   -19.6567     0.0000     6.0000 </r>
       <r>   -19.4946     0.0000     6.0000 </r>
       <r>   -19.3326     0.0000     6.0000 </r>
       <r>   -19.1705     0.0000     6.0000 </r>
       <r>   -19.0084     0.0000     6.0000 </r>
       <r>   -18.8463     0.0000     6.0000 </r>
       <r>   -18.6842     0.0000     6.0000 </r>
       <r>   -18.5221     0.0000     6.0000 </r>
       <r>   -18.3601     0.0000     6.0000 </r>
       <r>   -18.1980     0.0000     6.0000 </r>
       <r>   -18.0359     0.0000     6.0000 </r>
       <r>   -17.8738     0.0000     6.0000 </r>
       <r>   -17.7117     0.0000     6.0000 </r>
       <r>   -17.5496     0.0000     6.0000 </r>
       <r>   -17.3876     0.0000     6.0000 </r>
       <r>   -17.2255     0.0000     6.0000 </r>
       <r>   -17.0634     0.0000     6.0000 </r>
       <r>   -16.9013     0.0000     6.0000 </r>
       <r>   -16.7392     0.0000     6.0000 </r>
       <r>   -16.5771     0.0000     6.0000 </r>
       <r>   -16.4150     0.0000     6.0000 </r>
       <r>   -16.2530     0.0000     6.0000 </r>
       <r>   -16.0909     0.0000     6.0000 </r>
       <r>   -15.9288     0.0000     6.0000 </r>
       <r>   -15.7667     0.0000     6.0000 </r>
       <r>   -15.6046     0.0000     6.0000 </r>
       <r>   -15.4425    -0.0000     6.0000 </r>
       <r>   -15.2805    -0.0000     6.0000 </r>
       <r>   -15.1184    -0.0000     6.0000 </r>
       <r>   -14.9563    -0.0000     6.0000 </r>
       <r>   -14.7942    -0.0000     6.0000 </r>
       <r>   -14.6321    -0.0022     5.9996 </r>
       <r>   -14.4700     0.0499     6.0077 </r>
       <r>   -14.3080     0.2414     6.0469 </r>
       <r>   -14.1459     0.3659     6.1062 </r>
       <r>   -13.9838     0.2334     6.1440 </r>
       <r>   -13.8217     0.4150     6.2113 </r>
       <r>   -13.6596     0.4725     6.2878 </r>
       <r>   -13.4975     0.8180     6.4204 </r>
       <r>   -13.3355     0.4680     6.4963 </r>
       <r>   -13.1734     1.1557     6.6836 </r>
       <r>   -13.0113     0.8713     6.8248 </r>
       <r>   -12.8492     2.0960     7.1646 </r>
       <r>   -12.6871     2.0217     7.4922 </r>
       <r>   -12.5250     0.9417     7.6449 </r>
       <r>   -12.3629     1.4448     7.8791 </r>
       <r>   -12.2009     1.8778     8.1834 </r>
       <r>   -12.0388     2.9220     8.6570 </r>
       <r>   -11.8767     3.6678     9.2515 </r>
       <r>   -11.7146     2.7522     9.6976 </r>
       <r>   -11.5525     1.6534     9.9656 </r>
       <r>   -11.3904     0.2240    10.0019 </r>
       <r>   -11.2284    -0.0116    10.0000 </r>
       <r>   -11.0663    -0.0000    10.0000 </r>
       <r>   -10.9042    -0.0000    10.0000 </r>
       <r>   -10.7421     0.0000    10.0000 </r>
       <r>   -10.5800     0.0000    10.0000 </r>
       <r>   -10.4179     0.0000    10.0000 </r>
       <r>   -10.2559     0.0000    10.0000 </r>
       <r>   -10.0938     0.0000    10.0000 </r>
       <r>    -9.9317     0.0000    10.0000 </r>
       <r>    -9.7696     0.0000    10.0000 </r>
       <r>    -9.6075     0.0000    10.0000 </r>
       <r>    -9.4454     0.0000    10.0000 </r>
       <r>    -9.2834     0.0000    10.0000 </r>
       <r>    -9.1213     0.0000    10.0000 </r>
       <r>    -8.9592     0.0000    10.0000 </r>
       <r>    -8.7971     0.0000    10.0000 </r>
       <r>    -8.6350     0.0000    10.0000 </r>
       <r>    -8.4729     0.0000    10.0000 </r>
       <r>    -8.3108     0.0000    10.0000 </r>
       <r>    -8.1488     0.0000    10.0000 </r>
       <r>    -7.9867     0.0000    10.0000 </r>
       <r>    -7.8246     0.0000    10.0000 </r>
       <r>    -7.6625     0.0000    10.0000 </r>
       <r>    -7.5004     0.0000    10.0000 </r>
       <r>    -7.3383    -0.0000    10.0000 </r>
       <r>    -7.1763    -0.0000    10.0000 </r>
       <r>    -7.0142    -0.0000    10.0000 </r>
       <r>    -6.8521    -0.0000    10.0000 </r>
       <r>    -6.6900    -0.0001    10.0000 </r>
       <r>    -6.5279    -0.0042     9.9993 </r>
       <r>    -6.3658     0.1368    10.0215 </r>
       <r>    -6.2038     0.2507    10.0621 </r>
       <r>    -6.0417     0.4624    10.1371 </r>
       <r>    -5.8796     1.0629    10.3093 </r>
       <r>    -5.7175     1.7062    10.5859 </r>
       <r>    -5.5554     1.9235    10.8977 </r>
       <r>    -5.3933     1.8718    11.2011 </r>
       <r>    -5.2313     1.8312    11.4979 </r>
       <r>    -5.0692     2.0447    11.8293 </r>
       <r>    -4.9071     2.4987    12.2343 </r>
       <r>    -4.7450     3.2841    12.7666 </r>
       <r>    -4.5829     2.5311    13.1768 </r>
       <r>    -4.4208     3.0163    13.6657 </r>
       <r>    -4.2587     0.8441    13.8025 </r>
       <r>    -4.0967     1.1368    13.9868 </r>
       <r>    -3.9346     1.0165    14.1516 </r>
       <r>    -3.7725     1.1375    14.3359 </r>
       <r>    -3.6104     1.6861    14.6092 </r>
       <r>    -3.4483     4.2912    15.3048 </r>
       <r>    -3.2862     4.1908    15.9840 </r>
       <r>    -3.1242     2.7692    16.4328 </r>
       <r>    -2.9621     2.2082    16.7908 </r>
       <r>    -2.8000     3.4516    17.3502 </r>
       <r>    -2.6379     3.7282    17.9545 </r>
       <r>    -2.4758     2.4753    18.3557 </r>
       <r>    -2.3137     2.8265    18.8138 </r>
       <r>    -2.1517     1.7794    19.1022 </r>
       <r>    -1.9896     3.3978    19.6530 </r>
       <r>    -1.8275     2.0366    19.9831 </r>
       <r>    -1.6654     2.9829    20.4665 </r>
       <r>    -1.5033     1.6212    20.7293 </r>
       <r>    -1.3412     1.0033    20.8919 </r>
       <r>    -1.1792     0.5990    20.9890 </r>
       <r>    -1.0171     0.9719    21.1465 </r>
       <r>    -0.8550     4.6270    21.8965 </r>
       <r>    -0.6929     3.6098    22.4816 </r>
       <r>    -0.5308     1.7261    22.7614 </r>
       <r>    -0.3687     1.0930    22.9385 </r>
       <r>    -0.2066     1.3727    23.1610 </r>
       <r>    -0.0446     1.7313    23.4416 </r>
       <r>     0.1175     1.3523    23.6608 </r>
       <r>     0.2796     0.7338    23.7798 </r>
       <r>     0.4417     0.2222    23.8158 </r>
       <r>     0.6038     0.3608    23.8742 </r>
       <r>     0.7659     0.0782    23.8869 </r>
       <r>     0.9279     0.1527    23.9117 </r>
       <r>     1.0900     0.2223    23.9477 </r>
       <r>     1.2521     0.0618    23.9577 </r>
       <r>     1.4142     0.1874    23.9881 </r>
       <r>     1.5763     0.8065    24.1188 </r>
       <r>     1.7384     1.7107    24.3961 </r>
       <r>     1.9004     2.2312    24.7577 </r>
       <r>     2.0625     2.1440    25.1052 </r>
       <r>     2.2246     4.2444    25.7932 </r>
       <r>     2.3867     4.1781    26.4704 </r>
       <r>     2.5488     4.4643    27.1940 </r>
       <r>     2.7109     4.6233    27.9433 </r>
       <r>     2.8729     2.1537    28.2924 </r>
       <r>     3.0350     2.3836    28.6788 </r>
       <r>     3.1971     2.5415    29.0907 </r>
       <r>     3.3592     1.7579    29.3756 </r>
       <r>     3.5213     2.2669    29.7431 </r>
       <r>     3.6834     2.0721    30.0789 </r>
       <r>     3.8455     3.2802    30.6106 </r>
       <r>     4.0075     1.6087    30.8713 </r>
       <r>     4.1696     1.1336    31.0551 </r>
       <r>     4.3317     1.6404    31.3210 </r>
       <r>     4.4938     1.2602    31.5252 </r>
       <r>     4.6559     0.9044    31.6718 </r>
       <r>     4.8180     0.9609    31.8275 </r>
       <r>     4.9800     0.3131    31.8783 </r>
       <r>     5.1421     0.5321    31.9645 </r>
       <r>     5.3042     0.1975    31.9966 </r>
       <r>     5.4663     0.0753    32.0088 </r>
       <r>     5.6284     0.6159    32.1086 </r>
       <r>     5.7905     0.4447    32.1807 </r>
       <r>     5.9525     0.7175    32.2970 </r>
       <r>     6.1146     0.9037    32.4434 </r>
       <r>     6.2767     0.8225    32.5768 </r>
       <r>     6.4388     1.0308    32.7438 </r>
       <r>     6.6009     0.6735    32.8530 </r>
       <r>     6.7630     0.9596    33.0085 </r>
       <r>     6.9251     1.1391    33.1931 </r>
       <r>     7.0871     1.4250    33.4241 </r>
       <r>     7.2492     0.6548    33.5302 </r>
       <r>     7.4113     2.4551    33.9282 </r>
       <r>     7.5734     1.9754    34.2484 </r>
       <r>     7.7355     1.4726    34.4871 </r>
       <r>     7.8976     1.9771    34.8075 </r>
       <r>     8.0596     1.2566    35.0112 </r>
       <r>     8.2217     1.2736    35.2176 </r>
       <r>     8.3838     1.6491    35.4849 </r>
       <r>     8.5459     1.5833    35.7415 </r>
       <r>     8.7080     0.5377    35.8287 </r>
       <r>     8.8701     0.4504    35.9017 </r>
       <r>     9.0321     0.4177    35.9694 </r>
       <r>     9.1942     0.1953    36.0010 </r>
       <r>     9.3563    -0.0063    36.0000 </r>
       <r>     9.5184    -0.0001    36.0000 </r>
       <r>     9.6805    -0.0000    36.0000 </r>
       <r>     9.8426    -0.0000    36.0000 </r>
       <r>    10.0046     0.0000    36.0000 </r>
       <r>    10.1667     0.0000    36.0000 </r>
       <r>    10.3288     0.0000    36.0000 </r>
       <r>    10.4909     0.0000    36.0000 </r>
       <r>    10.6530     0.0000    36.0000 </r>
       <r>    10.8151     0.0000    36.0000 </r>
       <r>    10.9772     0.0000    36.0000 </r>
       <r>    11.1392     0.0000    36.0000 </r>
       <r>    11.3013     0.0000    36.0000 </r>
      </set>
     </set>
    </array>
   </total>
  </dos>
 </calculation>
 <structure name="finalpos" >
  <crystal>
   <varray name="basis" >
    <v>       3.19031700       0.00000000       0.00000000 </v>
    <v>      -1.59515800       2.76289700       0.00000000 </v>
    <v>       0.00000000       0.00000000      23.14049200 </v>
   </varray>
   <i name="volume">    203.97226633 </i>
   <varray name="rec_basis" >
    <v>       0.31344848       0.18096941       0.00000000 </v>
    <v>       0.00000000       0.36193894       0.00000000 </v>
    <v>       0.00000000       0.00000000       0.04321429 </v>
   </varray>
  </crystal>
  <varray name="positions" >
   <v>       0.66666700       0.33333300       0.06785900 </v>
   <v>       0.33333300       0.66666700       0.00000000 </v>
   <v>       0.33333300       0.66666700       0.13571500 </v>
   <v>       0.66666700       0.33333300       0.31160900 </v>
   <v>       0.33333300       0.66666700       0.24375100 </v>
   <v>       0.33333300       0.66666700       0.37946500 </v>
  </varray>
 </structure>
</modeling>
