  24  24   0   0
  0.4176334E+02  0.3540400E-09  0.1044544E-08  0.2750143E-08  0.5000000E-15
  1.000000000000000E-004
  CAR 
 unknown system                          
      4.21300346    -15.03705965  301      0.02131600      1.00000000
    -15.037  0.0000E+00  0.0000E+00
    -14.973  0.0000E+00  0.0000E+00
    -14.909  0.0000E+00  0.0000E+00
    -14.845  0.0000E+00  0.0000E+00
    -14.780  0.0000E+00  0.0000E+00
    -14.716  0.0000E+00  0.0000E+00
    -14.652  0.0000E+00  0.0000E+00
    -14.588  0.4359E-14  0.2797E-15
    -14.524  0.4065E-11  0.2611E-12
    -14.460  0.1688E-08  0.1086E-09
    -14.395  0.3155E-06  0.2035E-07
    -14.331  0.2676E-04  0.1738E-05
    -14.267  0.1045E-02  0.6879E-04
    -14.203  0.1920E-01  0.1301E-02
    -14.139  0.1715E+00  0.1231E-01
    -14.075  0.7762E+00  0.6211E-01
    -14.010  0.1845E+01  0.1805E+00
    -13.946  0.2366E+01  0.3323E+00
    -13.882  0.1869E+01  0.4522E+00
    -13.818  0.1645E+01  0.5578E+00
    -13.754  0.1830E+01  0.6752E+00
    -13.690  0.1539E+01  0.7739E+00
    -13.625  0.1556E+01  0.8737E+00
    -13.561  0.2449E+01  0.1031E+01
    -13.497  0.3450E+01  0.1252E+01
    -13.433  0.3527E+01  0.1479E+01
    -13.369  0.2671E+01  0.1650E+01
    -13.305  0.1895E+01  0.1772E+01
    -13.240  0.1576E+01  0.1873E+01
    -13.176  0.1862E+01  0.1992E+01
    -13.112  0.3189E+01  0.2197E+01
    -13.048  0.4482E+01  0.2484E+01
    -12.984  0.4103E+01  0.2748E+01
    -12.920  0.2753E+01  0.2924E+01
    -12.855  0.1928E+01  0.3048E+01
    -12.791  0.2367E+01  0.3200E+01
    -12.727  0.4163E+01  0.3467E+01
    -12.663  0.6262E+01  0.3869E+01
    -12.599  0.7468E+01  0.4348E+01
    -12.535  0.7175E+01  0.4809E+01
    -12.470  0.5579E+01  0.5167E+01
    -12.406  0.4166E+01  0.5434E+01
    -12.342  0.3512E+01  0.5659E+01
    -12.278  0.3601E+01  0.5890E+01
    -12.214  0.5098E+01  0.6217E+01
    -12.150  0.7693E+01  0.6711E+01
    -12.085  0.8746E+01  0.7272E+01
    -12.021  0.6882E+01  0.7714E+01
    -11.957  0.5084E+01  0.8040E+01
    -11.893  0.5232E+01  0.8376E+01
    -11.829  0.5803E+01  0.8748E+01
    -11.765  0.5931E+01  0.9129E+01
    -11.700  0.6505E+01  0.9546E+01
    -11.636  0.7968E+01  0.1006E+02
    -11.572  0.8615E+01  0.1061E+02
    -11.508  0.7617E+01  0.1110E+02
    -11.444  0.7654E+01  0.1159E+02
    -11.380  0.9446E+01  0.1220E+02
    -11.315  0.9798E+01  0.1283E+02
    -11.251  0.8248E+01  0.1335E+02
    -11.187  0.7799E+01  0.1385E+02
    -11.123  0.9795E+01  0.1448E+02
    -11.059  0.1211E+02  0.1526E+02
    -10.995  0.1262E+02  0.1607E+02
    -10.930  0.1247E+02  0.1687E+02
    -10.866  0.1217E+02  0.1765E+02
    -10.802  0.1110E+02  0.1836E+02
    -10.738  0.9801E+01  0.1899E+02
    -10.674  0.8282E+01  0.1952E+02
    -10.610  0.7574E+01  0.2001E+02
    -10.545  0.8846E+01  0.2058E+02
    -10.481  0.9385E+01  0.2118E+02
    -10.417  0.8492E+01  0.2172E+02
    -10.353  0.7564E+01  0.2221E+02
    -10.289  0.5561E+01  0.2257E+02
    -10.225  0.3059E+01  0.2276E+02
    -10.160  0.1954E+01  0.2289E+02
    -10.096  0.1764E+01  0.2300E+02
    -10.032  0.1603E+01  0.2310E+02
     -9.968  0.1660E+01  0.2321E+02
     -9.904  0.1616E+01  0.2331E+02
     -9.840  0.1354E+01  0.2340E+02
     -9.775  0.1572E+01  0.2350E+02
     -9.711  0.1693E+01  0.2361E+02
     -9.647  0.1009E+01  0.2368E+02
     -9.583  0.5576E+00  0.2371E+02
     -9.519  0.1063E+01  0.2378E+02
     -9.455  0.1667E+01  0.2389E+02
     -9.390  0.1251E+01  0.2397E+02
     -9.326  0.4371E+00  0.2400E+02
     -9.262  0.8396E-01  0.2400E+02
     -9.198  0.1341E+00  0.2401E+02
     -9.134  0.6056E+00  0.2405E+02
     -9.070  0.1520E+01  0.2415E+02
     -9.005  0.2451E+01  0.2430E+02
     -8.941  0.3458E+01  0.2452E+02
     -8.877  0.4679E+01  0.2482E+02
     -8.813  0.5219E+01  0.2516E+02
     -8.749  0.5065E+01  0.2548E+02
     -8.685  0.4955E+01  0.2580E+02
     -8.620  0.4669E+01  0.2610E+02
     -8.556  0.4507E+01  0.2639E+02
     -8.492  0.4410E+01  0.2667E+02
     -8.428  0.3849E+01  0.2692E+02
     -8.364  0.4305E+01  0.2720E+02
     -8.300  0.6563E+01  0.2762E+02
     -8.235  0.8160E+01  0.2814E+02
     -8.171  0.7474E+01  0.2862E+02
     -8.107  0.6092E+01  0.2901E+02
     -8.043  0.5399E+01  0.2936E+02
     -7.979  0.4952E+01  0.2968E+02
     -7.915  0.4908E+01  0.2999E+02
     -7.850  0.5341E+01  0.3033E+02
     -7.786  0.5283E+01  0.3067E+02
     -7.722  0.4631E+01  0.3097E+02
     -7.658  0.4405E+01  0.3125E+02
     -7.594  0.5546E+01  0.3161E+02
     -7.530  0.7746E+01  0.3211E+02
     -7.465  0.9331E+01  0.3271E+02
     -7.401  0.8966E+01  0.3328E+02
     -7.337  0.7383E+01  0.3375E+02
     -7.273  0.6560E+01  0.3418E+02
     -7.209  0.6970E+01  0.3462E+02
     -7.145  0.7768E+01  0.3512E+02
     -7.080  0.7870E+01  0.3563E+02
     -7.016  0.6440E+01  0.3604E+02
     -6.952  0.5319E+01  0.3638E+02
     -6.888  0.6474E+01  0.3680E+02
     -6.824  0.9595E+01  0.3741E+02
     -6.760  0.1197E+02  0.3818E+02
     -6.695  0.1140E+02  0.3891E+02
     -6.631  0.1065E+02  0.3959E+02
     -6.567  0.1021E+02  0.4025E+02
     -6.503  0.7678E+01  0.4074E+02
     -6.439  0.5237E+01  0.4108E+02
     -6.375  0.5295E+01  0.4142E+02
     -6.310  0.5945E+01  0.4180E+02
     -6.246  0.5304E+01  0.4214E+02
     -6.182  0.3969E+01  0.4240E+02
     -6.118  0.3099E+01  0.4259E+02
     -6.054  0.3104E+01  0.4279E+02
     -5.990  0.3789E+01  0.4304E+02
     -5.925  0.5221E+01  0.4337E+02
     -5.861  0.7220E+01  0.4383E+02
     -5.797  0.7969E+01  0.4435E+02
     -5.733  0.6183E+01  0.4474E+02
     -5.669  0.3444E+01  0.4496E+02
     -5.605  0.1692E+01  0.4507E+02
     -5.540  0.1905E+01  0.4519E+02
     -5.476  0.3968E+01  0.4545E+02
     -5.412  0.5870E+01  0.4583E+02
     -5.348  0.6314E+01  0.4623E+02
     -5.284  0.6264E+01  0.4663E+02
     -5.220  0.5967E+01  0.4702E+02
     -5.155  0.5898E+01  0.4739E+02
     -5.091  0.6713E+01  0.4783E+02
     -5.027  0.7817E+01  0.4833E+02
     -4.963  0.8493E+01  0.4887E+02
     -4.899  0.8061E+01  0.4939E+02
     -4.835  0.7524E+01  0.4987E+02
     -4.770  0.7931E+01  0.5038E+02
     -4.706  0.8829E+01  0.5095E+02
     -4.642  0.1052E+02  0.5162E+02
     -4.578  0.1204E+02  0.5239E+02
     -4.514  0.1145E+02  0.5313E+02
     -4.450  0.1043E+02  0.5380E+02
     -4.385  0.1229E+02  0.5459E+02
     -4.321  0.1523E+02  0.5556E+02
     -4.257  0.1536E+02  0.5655E+02
     -4.193  0.1342E+02  0.5741E+02
     -4.129  0.1209E+02  0.5819E+02
     -4.065  0.1115E+02  0.5890E+02
     -4.000  0.1019E+02  0.5956E+02
     -3.936  0.1072E+02  0.6024E+02
     -3.872  0.1177E+02  0.6100E+02
     -3.808  0.1190E+02  0.6176E+02
     -3.744  0.1239E+02  0.6256E+02
     -3.680  0.1301E+02  0.6339E+02
     -3.615  0.1312E+02  0.6423E+02
     -3.551  0.1288E+02  0.6506E+02
     -3.487  0.1266E+02  0.6587E+02
     -3.423  0.1436E+02  0.6679E+02
     -3.359  0.1714E+02  0.6789E+02
     -3.295  0.1758E+02  0.6902E+02
     -3.230  0.1645E+02  0.7008E+02
     -3.166  0.1599E+02  0.7110E+02
     -3.102  0.1544E+02  0.7209E+02
     -3.038  0.1457E+02  0.7303E+02
     -2.974  0.1444E+02  0.7396E+02
     -2.910  0.1460E+02  0.7489E+02
     -2.845  0.1424E+02  0.7581E+02
     -2.781  0.1404E+02  0.7671E+02
     -2.717  0.1460E+02  0.7764E+02
     -2.653  0.1446E+02  0.7857E+02
     -2.589  0.1361E+02  0.7945E+02
     -2.525  0.1405E+02  0.8035E+02
     -2.460  0.1482E+02  0.8130E+02
     -2.396  0.1503E+02  0.8226E+02
     -2.332  0.1619E+02  0.8330E+02
     -2.268  0.1772E+02  0.8444E+02
     -2.204  0.1719E+02  0.8554E+02
     -2.140  0.1585E+02  0.8656E+02
     -2.075  0.1719E+02  0.8766E+02
     -2.011  0.1986E+02  0.8893E+02
     -1.947  0.2057E+02  0.9025E+02
     -1.883  0.1947E+02  0.9150E+02
     -1.819  0.1729E+02  0.9261E+02
     -1.755  0.1415E+02  0.9352E+02
     -1.690  0.1182E+02  0.9428E+02
     -1.626  0.1189E+02  0.9504E+02
     -1.562  0.1303E+02  0.9588E+02
     -1.498  0.1228E+02  0.9667E+02
     -1.434  0.9432E+01  0.9727E+02
     -1.370  0.7177E+01  0.9773E+02
     -1.305  0.8119E+01  0.9825E+02
     -1.241  0.1097E+02  0.9896E+02
     -1.177  0.1219E+02  0.9974E+02
     -1.113  0.1123E+02  0.1005E+03
     -1.049  0.9541E+01  0.1011E+03
     -0.985  0.7224E+01  0.1015E+03
     -0.920  0.5120E+01  0.1019E+03
     -0.856  0.4469E+01  0.1022E+03
     -0.792  0.4913E+01  0.1025E+03
     -0.728  0.5254E+01  0.1028E+03
     -0.664  0.5190E+01  0.1031E+03
     -0.600  0.4975E+01  0.1035E+03
     -0.535  0.5165E+01  0.1038E+03
     -0.471  0.6215E+01  0.1042E+03
     -0.407  0.7286E+01  0.1047E+03
     -0.343  0.7076E+01  0.1051E+03
     -0.279  0.6206E+01  0.1055E+03
     -0.215  0.6282E+01  0.1059E+03
     -0.150  0.7732E+01  0.1064E+03
     -0.086  0.9479E+01  0.1070E+03
     -0.022  0.9619E+01  0.1076E+03
      0.042  0.8314E+01  0.1082E+03
      0.106  0.7258E+01  0.1086E+03
      0.170  0.6822E+01  0.1091E+03
      0.235  0.5950E+01  0.1094E+03
      0.299  0.5003E+01  0.1098E+03
      0.363  0.5037E+01  0.1101E+03
      0.427  0.5035E+01  0.1104E+03
      0.491  0.4412E+01  0.1107E+03
      0.555  0.4691E+01  0.1110E+03
      0.620  0.5890E+01  0.1114E+03
      0.684  0.5931E+01  0.1118E+03
      0.748  0.4261E+01  0.1120E+03
      0.812  0.2832E+01  0.1122E+03
      0.876  0.3387E+01  0.1124E+03
      0.940  0.5186E+01  0.1128E+03
      1.005  0.6654E+01  0.1132E+03
      1.069  0.7548E+01  0.1137E+03
      1.133  0.8090E+01  0.1142E+03
      1.197  0.8051E+01  0.1147E+03
      1.261  0.7905E+01  0.1152E+03
      1.325  0.8440E+01  0.1158E+03
      1.390  0.9124E+01  0.1163E+03
      1.454  0.9192E+01  0.1169E+03
      1.518  0.9406E+01  0.1175E+03
      1.582  0.1048E+02  0.1182E+03
      1.646  0.1112E+02  0.1189E+03
      1.710  0.1038E+02  0.1196E+03
      1.775  0.9281E+01  0.1202E+03
      1.839  0.8761E+01  0.1207E+03
      1.903  0.8874E+01  0.1213E+03
      1.967  0.9437E+01  0.1219E+03
      2.031  0.1081E+02  0.1226E+03
      2.095  0.1342E+02  0.1235E+03
      2.160  0.1495E+02  0.1244E+03
      2.224  0.1317E+02  0.1253E+03
      2.288  0.1075E+02  0.1260E+03
      2.352  0.9910E+01  0.1266E+03
      2.416  0.9621E+01  0.1272E+03
      2.480  0.1053E+02  0.1279E+03
      2.545  0.1294E+02  0.1287E+03
      2.609  0.1372E+02  0.1296E+03
      2.673  0.1318E+02  0.1305E+03
      2.737  0.1381E+02  0.1313E+03
      2.801  0.1424E+02  0.1323E+03
      2.865  0.1360E+02  0.1331E+03
      2.930  0.1253E+02  0.1339E+03
      2.994  0.1052E+02  0.1346E+03
      3.058  0.7962E+01  0.1351E+03
      3.122  0.5939E+01  0.1355E+03
      3.186  0.4256E+01  0.1358E+03
      3.251  0.2431E+01  0.1359E+03
      3.315  0.9030E+00  0.1360E+03
      3.379  0.1888E+00  0.1360E+03
      3.443  0.2031E-01  0.1360E+03
      3.507  0.1064E-02  0.1360E+03
      3.571  0.2628E-04  0.1360E+03
      3.636  0.3001E-06  0.1360E+03
      3.700  0.1565E-08  0.1360E+03
      3.764  0.3693E-11  0.1360E+03
      3.828  0.3926E-14  0.1360E+03
      3.892  0.0000E+00  0.1360E+03
      3.956  0.0000E+00  0.1360E+03
      4.021  0.0000E+00  0.1360E+03
      4.085  0.0000E+00  0.1360E+03
      4.149  0.0000E+00  0.1360E+03
      4.213  0.0000E+00  0.1360E+03
