       N       E                     dE             d eps       ncg     rms          rms(c)
DAV:   1     0.487427317415E+03    0.48743E+03   -0.28632E+04  7352   0.790E+02
DAV:   2    -0.687317209202E+02   -0.55616E+03   -0.54188E+03  9796   0.189E+02
DAV:   3    -0.123622238846E+03   -0.54891E+02   -0.54046E+02  8836   0.614E+01
DAV:   4    -0.126025016243E+03   -0.24028E+01   -0.23858E+01 10752   0.137E+01
DAV:   5    -0.126086803329E+03   -0.61787E-01   -0.61723E-01 10072   0.217E+00    0.960E+00
DAV:   6    -0.124211170626E+03    0.18756E+01   -0.59079E+00  8832   0.607E+00    0.536E+00
DAV:   7    -0.124007251500E+03    0.20392E+00   -0.31852E+00  9320   0.536E+00    0.236E+00
DAV:   8    -0.123978734783E+03    0.28517E-01   -0.15193E+00  9016   0.331E+00    0.969E-01
DAV:   9    -0.123964483168E+03    0.14252E-01   -0.27574E-01  8824   0.141E+00    0.586E-01
DAV:  10    -0.123943066256E+03    0.21417E-01   -0.79891E-02  9000   0.724E-01    0.308E-01
DAV:  11    -0.123928010846E+03    0.15055E-01   -0.21921E-02  9208   0.376E-01    0.113E-01
DAV:  12    -0.123921890526E+03    0.61203E-02   -0.35498E-03  8736   0.174E-01    0.551E-02
DAV:  13    -0.123918535845E+03    0.33547E-02   -0.65712E-04  9176   0.761E-02    0.333E-02
DAV:  14    -0.123914963962E+03    0.35719E-02   -0.22730E-04  9032   0.517E-02    0.153E-02
DAV:  15    -0.123913640189E+03    0.13238E-02   -0.12006E-04  9304   0.309E-02    0.104E-02
DAV:  16    -0.123913721936E+03   -0.81747E-04   -0.54493E-05  8088   0.208E-02    0.647E-03
DAV:  17    -0.123914257271E+03   -0.53534E-03   -0.13959E-04  8232   0.255E-02    0.384E-03
DAV:  18    -0.123914479704E+03   -0.22243E-03   -0.12434E-04  8336   0.209E-02    0.224E-03
DAV:  19    -0.123914534988E+03   -0.55284E-04   -0.39825E-05  7280   0.131E-02    0.134E-03
DAV:  20    -0.123914582684E+03   -0.47696E-04   -0.18990E-05  6836   0.937E-03    0.925E-04
DAV:  21    -0.123914607849E+03   -0.25165E-04   -0.21137E-05  7120   0.100E-02    0.617E-04
DAV:  22    -0.123914580088E+03    0.27761E-04   -0.10472E-05  6528   0.882E-03    0.365E-04
DAV:  23    -0.123914520580E+03    0.59509E-04   -0.86140E-06  6260   0.868E-03    0.187E-04
DAV:  24    -0.123914497557E+03    0.23023E-04   -0.51396E-06  6320   0.792E-03    0.979E-05
DAV:  25    -0.123914485230E+03    0.12327E-04   -0.42974E-06  6360   0.681E-03    0.455E-05
DAV:  26    -0.123914482243E+03    0.29866E-05   -0.17206E-06  6080   0.509E-03    0.254E-05
DAV:  27    -0.123914482779E+03   -0.53586E-06   -0.14605E-06  5968   0.483E-03
   1 F= -.12391448E+03 E0= -.12389438E+03  d E =-.402004E-01
