<?xml version="1.0" encoding="ISO-8859-1"?>
<modeling>
 <generator>
  <i name="program" type="string">vasp </i>
  <i name="version" type="string">5.3.5  </i>
  <i name="subversion" type="string">31Mar14 (build Oct 29 2014 16:16:03) complex                          parallel </i>
  <i name="platform" type="string">Linux-UFHPC </i>
  <i name="date" type="string">2016 02 09 </i>
  <i name="time" type="string">18:23:30 </i>
 </generator>
 <incar>
  <i type="string" name="PREC">accurate</i>
  <i type="int" name="IBRION">     2</i>
  <i name="EDIFF">      0.00000100</i>
  <i type="int" name="NSW">     0</i>
  <i type="int" name="ISIF">     3</i>
  <i name="ENCUT">    300.00000000</i>
  <i type="string" name="LREAL"> Auto</i>
  <i type="int" name="ISMEAR">     0</i>
  <i name="SIGMA">      0.10000000</i>
  <i type="logical" name="LWAVE"> F  </i>
  <i type="logical" name="LCHARG"> F  </i>
  <i type="logical" name="LAECHG"> F  </i>
  <i type="string" name="GGA"> Bo</i>
  <i name="PARAM1">      0.18333333</i>
  <i name="PARAM2">      0.22000000</i>
  <i type="logical" name="LUSE_VDW"> T  </i>
  <i name="AGGAC">      0.00000000</i>
 </incar>
 <kpoints>
  <generation param="Gamma">
   <v type="int" name="divisions">      13        4        2 </v>
   <v name="usershift">      0.00000000       0.00000000       0.00000000 </v>
   <v name="genvec1">      0.07692308      -0.00000000       0.00000000 </v>
   <v name="genvec2">      0.00000000       0.25000000       0.00000000 </v>
   <v name="genvec3">      0.00000000       0.00000000       0.50000000 </v>
   <v name="shift">      0.00000000       0.00000000       0.00000000 </v>
  </generation>
  <varray name="kpointlist" >
   <v>       0.00000000       0.00000000       0.00000000 </v>
   <v>       0.07692308      -0.00000000       0.00000000 </v>
   <v>       0.15384615      -0.00000000       0.00000000 </v>
   <v>       0.23076923      -0.00000000       0.00000000 </v>
   <v>       0.30769231      -0.00000000       0.00000000 </v>
   <v>       0.38461538      -0.00000000       0.00000000 </v>
   <v>       0.46153846      -0.00000000       0.00000000 </v>
   <v>       0.00000000       0.25000000       0.00000000 </v>
   <v>       0.07692308       0.25000000       0.00000000 </v>
   <v>       0.15384615       0.25000000       0.00000000 </v>
   <v>       0.23076923       0.25000000       0.00000000 </v>
   <v>       0.30769231       0.25000000       0.00000000 </v>
   <v>       0.38461538       0.25000000       0.00000000 </v>
   <v>       0.46153846       0.25000000       0.00000000 </v>
   <v>      -0.46153846       0.25000000       0.00000000 </v>
   <v>      -0.38461538       0.25000000       0.00000000 </v>
   <v>      -0.30769231       0.25000000       0.00000000 </v>
   <v>      -0.23076923       0.25000000       0.00000000 </v>
   <v>      -0.15384615       0.25000000       0.00000000 </v>
   <v>      -0.07692308       0.25000000       0.00000000 </v>
   <v>       0.00000000       0.50000000       0.00000000 </v>
   <v>       0.07692308       0.50000000       0.00000000 </v>
   <v>       0.15384615       0.50000000       0.00000000 </v>
   <v>       0.23076923       0.50000000       0.00000000 </v>
   <v>       0.30769231       0.50000000       0.00000000 </v>
   <v>       0.38461538       0.50000000       0.00000000 </v>
   <v>       0.46153846       0.50000000       0.00000000 </v>
   <v>       0.00000000       0.00000000       0.50000000 </v>
   <v>       0.07692308      -0.00000000       0.50000000 </v>
   <v>       0.15384615      -0.00000000       0.50000000 </v>
   <v>       0.23076923      -0.00000000       0.50000000 </v>
   <v>       0.30769231      -0.00000000       0.50000000 </v>
   <v>       0.38461538      -0.00000000       0.50000000 </v>
   <v>       0.46153846      -0.00000000       0.50000000 </v>
   <v>       0.00000000       0.25000000       0.50000000 </v>
   <v>       0.07692308       0.25000000       0.50000000 </v>
   <v>       0.15384615       0.25000000       0.50000000 </v>
   <v>       0.23076923       0.25000000       0.50000000 </v>
   <v>       0.30769231       0.25000000       0.50000000 </v>
   <v>       0.38461538       0.25000000       0.50000000 </v>
   <v>       0.46153846       0.25000000       0.50000000 </v>
   <v>      -0.46153846       0.25000000       0.50000000 </v>
   <v>      -0.38461538       0.25000000       0.50000000 </v>
   <v>      -0.30769231       0.25000000       0.50000000 </v>
   <v>      -0.23076923       0.25000000       0.50000000 </v>
   <v>      -0.15384615       0.25000000       0.50000000 </v>
   <v>      -0.07692308       0.25000000       0.50000000 </v>
   <v>       0.00000000       0.50000000       0.50000000 </v>
   <v>       0.07692308       0.50000000       0.50000000 </v>
   <v>       0.15384615       0.50000000       0.50000000 </v>
   <v>       0.23076923       0.50000000       0.50000000 </v>
   <v>       0.30769231       0.50000000       0.50000000 </v>
   <v>       0.38461538       0.50000000       0.50000000 </v>
   <v>       0.46153846       0.50000000       0.50000000 </v>
  </varray>
  <varray name="weights" >
   <v>       0.00961538 </v>
   <v>       0.01923077 </v>
   <v>       0.01923077 </v>
   <v>       0.01923077 </v>
   <v>       0.01923077 </v>
   <v>       0.01923077 </v>
   <v>       0.01923077 </v>
   <v>       0.01923077 </v>
   <v>       0.01923077 </v>
   <v>       0.01923077 </v>
   <v>       0.01923077 </v>
   <v>       0.01923077 </v>
   <v>       0.01923077 </v>
   <v>       0.01923077 </v>
   <v>       0.01923077 </v>
   <v>       0.01923077 </v>
   <v>       0.01923077 </v>
   <v>       0.01923077 </v>
   <v>       0.01923077 </v>
   <v>       0.01923077 </v>
   <v>       0.00961538 </v>
   <v>       0.01923077 </v>
   <v>       0.01923077 </v>
   <v>       0.01923077 </v>
   <v>       0.01923077 </v>
   <v>       0.01923077 </v>
   <v>       0.01923077 </v>
   <v>       0.00961538 </v>
   <v>       0.01923077 </v>
   <v>       0.01923077 </v>
   <v>       0.01923077 </v>
   <v>       0.01923077 </v>
   <v>       0.01923077 </v>
   <v>       0.01923077 </v>
   <v>       0.01923077 </v>
   <v>       0.01923077 </v>
   <v>       0.01923077 </v>
   <v>       0.01923077 </v>
   <v>       0.01923077 </v>
   <v>       0.01923077 </v>
   <v>       0.01923077 </v>
   <v>       0.01923077 </v>
   <v>       0.01923077 </v>
   <v>       0.01923077 </v>
   <v>       0.01923077 </v>
   <v>       0.01923077 </v>
   <v>       0.01923077 </v>
   <v>       0.00961538 </v>
   <v>       0.01923077 </v>
   <v>       0.01923077 </v>
   <v>       0.01923077 </v>
   <v>       0.01923077 </v>
   <v>       0.01923077 </v>
   <v>       0.01923077 </v>
  </varray>
 </kpoints>
 <parameters>
  <separator name="general" >
   <i type="string" name="SYSTEM">unknown system</i>
   <i type="logical" name="LCOMPAT"> F  </i>
  </separator>
  <separator name="electronic" >
   <i type="string" name="PREC">accura</i>
   <i name="ENMAX">    300.00000000</i>
   <i name="ENAUG">    342.92400000</i>
   <i name="EDIFF">      0.00000100</i>
   <i type="int" name="IALGO">    38</i>
   <i type="int" name="IWAVPR">    10</i>
   <i type="int" name="NBANDS">    68</i>
   <i name="NELECT">    108.00000000</i>
   <i type="int" name="TURBO">     0</i>
   <i type="int" name="IRESTART">     0</i>
   <i type="int" name="NREBOOT">     0</i>
   <i type="int" name="NMIN">     0</i>
   <i name="EREF">      0.00000000</i>
   <separator name="electronic smearing" >
    <i type="int" name="ISMEAR">     0</i>
    <i name="SIGMA">      0.10000000</i>
    <i name="KSPACING">      0.50000000</i>
    <i type="logical" name="KGAMMA"> T  </i>
   </separator>
   <separator name="electronic projectors" >
    <i type="logical" name="LREAL"> T  </i>
    <v name="ROPT">     -0.00025000     -0.00025000</v>
    <i type="int" name="LMAXPAW">  -100</i>
    <i type="int" name="LMAXMIX">     2</i>
    <i type="logical" name="NLSPLINE"> F  </i>
   </separator>
   <separator name="electronic startup" >
    <i type="int" name="ISTART">     0</i>
    <i type="int" name="ICHARG">     2</i>
    <i type="int" name="INIWAV">     1</i>
   </separator>
   <separator name="electronic spin" >
    <i type="int" name="ISPIN">     1</i>
    <i type="logical" name="LNONCOLLINEAR"> F  </i>
    <v name="MAGMOM">      1.00000000      1.00000000      1.00000000      1.00000000      1.00000000      1.00000000      1.00000000      1.00000000      1.00000000      1.00000000      1.00000000      1.00000000      1.00000000      1.00000000      1.00000000      1.00000000      1.00000000      1.00000000      1.00000000      1.00000000
      1.00000000      1.00000000      1.00000000      1.00000000</v>
    <i name="NUPDOWN">     -1.00000000</i>
    <i type="logical" name="LSORBIT"> F  </i>
    <v name="SAXIS">      0.00000000      0.00000000      1.00000000</v>
    <i type="logical" name="LSPIRAL"> F  </i>
    <v name="QSPIRAL">      0.00000000      0.00000000      0.00000000</v>
    <i type="logical" name="LZEROZ"> F  </i>
   </separator>
   <separator name="electronic exchange-correlation" >
    <i type="logical" name="LASPH"> F  </i>
    <i type="logical" name="LMETAGGA"> F  </i>
   </separator>
   <separator name="electronic convergence" >
    <i type="int" name="NELM">    60</i>
    <i type="int" name="NELMDL">    -5</i>
    <i type="int" name="NELMIN">     2</i>
    <i name="ENINI">    300.00000000</i>
    <separator name="electronic convergence detail" >
     <i type="logical" name="LDIAG"> T  </i>
     <i type="logical" name="LSUBROT"> F  </i>
     <i name="WEIMIN">      0.00000000</i>
     <i name="EBREAK">      0.00000000</i>
     <i name="DEPER">      0.30000000</i>
     <i type="int" name="NRMM">     4</i>
     <i name="TIME">      0.40000000</i>
    </separator>
   </separator>
   <separator name="electronic mixer" >
    <i name="AMIX">      0.40000000</i>
    <i name="BMIX">      1.00000000</i>
    <i name="AMIN">      0.10000000</i>
    <i name="AMIX_MAG">      1.60000000</i>
    <i name="BMIX_MAG">      1.00000000</i>
    <separator name="electronic mixer details" >
     <i type="int" name="IMIX">     4</i>
     <i type="int" name="MAXMIX">   -45</i>
     <i name="WC">    100.00000000</i>
     <i type="int" name="INIMIX">     1</i>
     <i type="int" name="MIXPRE">     1</i>
     <i type="int" name="MREMOVE">     5</i>
    </separator>
   </separator>
   <separator name="electronic dipolcorrection" >
    <i type="logical" name="LDIPOL"> F  </i>
    <i type="logical" name="LMONO"> F  </i>
    <i type="int" name="IDIPOL">     0</i>
    <i name="EPSILON">      1.00000000</i>
    <v name="DIPOL">   -100.00000000   -100.00000000   -100.00000000</v>
    <i name="EFIELD">      0.00000000</i>
   </separator>
  </separator>
  <separator name="grids" >
   <i type="int" name="NGX">    20</i>
   <i type="int" name="NGY">    60</i>
   <i type="int" name="NGZ">   160</i>
   <i type="int" name="NGXF">    40</i>
   <i type="int" name="NGYF">   120</i>
   <i type="int" name="NGZF">   320</i>
   <i type="logical" name="ADDGRID"> F  </i>
  </separator>
  <separator name="ionic" >
   <i type="int" name="NSW">     0</i>
   <i type="int" name="IBRION">    -1</i>
   <i type="int" name="ISIF">     3</i>
   <i name="PSTRESS">      0.00000000</i>
   <i name="EDIFFG">      0.00001000</i>
   <i type="int" name="NFREE">     1</i>
   <i name="POTIM">      0.50000000</i>
   <i name="SMASS">     -3.00000000</i>
   <i name="SCALEE">      1.00000000</i>
  </separator>
  <separator name="ionic md" >
   <i name="TEBEG">      0.00010000</i>
   <i name="TEEND">      0.00010000</i>
   <i type="int" name="NBLOCK">     1</i>
   <i type="int" name="KBLOCK">     1</i>
   <i type="int" name="NPACO">   256</i>
   <i name="APACO">     16.00000000</i>
  </separator>
  <separator name="symmetry" >
   <i type="int" name="ISYM">     2</i>
   <i name="SYMPREC">      0.00001000</i>
  </separator>
  <separator name="dos" >
   <i type="logical" name="LORBIT"> F  </i>
   <v name="RWIGS">     -1.00000000     -1.00000000</v>
   <i type="int" name="NEDOS">   301</i>
   <i name="EMIN">     10.00000000</i>
   <i name="EMAX">    -10.00000000</i>
   <i name="EFERMI">      0.00000000</i>
  </separator>
  <separator name="writing" >
   <i type="int" name="NWRITE">     2</i>
   <i type="logical" name="LWAVE"> F  </i>
   <i type="logical" name="LCHARG"> F  </i>
   <i type="logical" name="LPARD"> F  </i>
   <i type="logical" name="LVTOT"> F  </i>
   <i type="logical" name="LVHAR"> F  </i>
   <i type="logical" name="LELF"> F  </i>
   <i type="logical" name="LOPTICS"> F  </i>
   <v name="STM">      0.00000000      0.00000000      0.00000000      0.00000000      0.00000000      0.00000000      0.00000000</v>
  </separator>
  <separator name="performance" >
   <i type="int" name="NPAR">     4</i>
   <i type="int" name="NSIM">     4</i>
   <i type="int" name="NBLK">    -1</i>
   <i type="logical" name="LPLANE"> T  </i>
   <i type="logical" name="LSCALAPACK"> T  </i>
   <i type="logical" name="LSCAAWARE"> F  </i>
   <i type="logical" name="LSCALU"> F  </i>
   <i type="logical" name="LASYNC"> F  </i>
   <i type="logical" name="LORBITALREAL"> F  </i>
  </separator>
  <separator name="miscellaneous" >
   <i type="int" name="IDIOT">     3</i>
   <i type="logical" name="LMUSIC"> F  </i>
   <v name="POMASS">     30.97400000     28.08500000</v>
   <v name="DARWINR">      0.00000000      0.00000000</v>
   <v name="DARWINV">      1.00000000      1.00000000</v>
   <i type="logical" name="LCORR"> T  </i>
  </separator>
  <i type="logical" name="GGA_COMPAT"> T  </i>
  <i type="logical" name="LBERRY"> F  </i>
  <i type="int" name="ICORELEVEL">     0</i>
  <i type="logical" name="LDAU"> F  </i>
  <i type="int" name="I_CONSTRAINED_M">     0</i>
  <separator name="electronic exchange-correlation" >
   <i type="string" name="GGA">BO</i>
   <i type="int" name="VOSKOWN">     0</i>
   <i type="logical" name="LHFCALC"> F  </i>
   <i type="string" name="PRECFOCK"></i>
   <i type="logical" name="LSYMGRAD"> F  </i>
   <i type="logical" name="LHFONE"> F  </i>
   <i type="logical" name="LRHFCALC"> F  </i>
   <i type="logical" name="LTHOMAS"> F  </i>
   <i type="logical" name="LMODELHF"> F  </i>
   <i name="ENCUT4O">     -1.00000000</i>
   <i type="int" name="EXXOEP">     0</i>
   <i type="int" name="FOURORBIT">     0</i>
   <i name="AEXX">      0.00000000</i>
   <i name="HFALPHA">      0.00000000</i>
   <i name="MCALPHA">      0.00000000</i>
   <i name="ALDAX">      1.00000000</i>
   <i name="AGGAX">      1.00000000</i>
   <i name="ALDAC">      1.00000000</i>
   <i name="AGGAC">      0.00000000</i>
   <i type="int" name="NKREDX">     1</i>
   <i type="int" name="NKREDY">     1</i>
   <i type="int" name="NKREDZ">     1</i>
   <i type="logical" name="SHIFTRED"> F  </i>
   <i type="logical" name="ODDONLY"> F  </i>
   <i type="logical" name="EVENONLY"> F  </i>
   <i type="int" name="LMAXFOCK">     0</i>
   <i type="int" name="NMAXFOCKAE">     0</i>
   <i type="logical" name="LFOCKAEDFT"> F  </i>
   <i name="HFSCREEN">      0.00000000</i>
   <i name="HFSCREENC">      0.00000000</i>
   <i type="int" name="NBANDSGWLOW">     0</i>
  </separator>
  <separator name="vdW DFT" >
   <i type="logical" name="LUSE_VDW"> T  </i>
   <i name="Zab_VDW">     -0.84910000</i>
   <i name="PARAM1">      0.18333333</i>
   <i name="PARAM2">      0.22000000</i>
   <i name="PARAM3">      0.00000000</i>
  </separator>
  <separator name="model GW" >
   <i type="int" name="MODEL_GW">     0</i>
   <i name="MODEL_EPS0">     25.05800243</i>
   <i name="MODEL_ALPHA">      1.00000000</i>
  </separator>
  <separator name="linear response parameters" >
   <i type="logical" name="LEPSILON"> F  </i>
   <i type="logical" name="LRPA"> F  </i>
   <i type="logical" name="LNABLA"> F  </i>
   <i type="logical" name="LVEL"> F  </i>
   <i type="int" name="KINTER">     0</i>
   <i name="CSHIFT">      0.10000000</i>
   <i name="OMEGAMAX">     -1.00000000</i>
   <i name="DEG_THRESHOLD">      0.00200000</i>
  </separator>
  <separator name="orbital magnetization" >
   <i type="logical" name="NUCIND"> F  </i>
   <v name="MAGPOS">      0.00000000      0.00000000      0.00000000</v>
   <i type="logical" name="LNICSALL"> T  </i>
   <i type="logical" name="ORBITALMAG"> F  </i>
   <i type="logical" name="LMAGBLOCH"> F  </i>
   <i type="logical" name="LCHIMAG"> F  </i>
   <i type="logical" name="LGAUGE"> T  </i>
   <i type="int" name="MAGATOM">     0</i>
   <v name="MAGDIPOL">      0.00000000      0.00000000      0.00000000</v>
   <v name="AVECCONST">      0.00000000      0.00000000      0.00000000</v>
  </separator>
  <separator name="response functions" >
   <i type="logical" name="LADDER"> F  </i>
   <i type="logical" name="LFXC"> F  </i>
   <i type="logical" name="LHARTREE"> T  </i>
   <i type="int" name="IBSE">     0</i>
   <i type="logical" name="LTCTE"> F  </i>
   <i type="logical" name="LTETE"> F  </i>
   <i type="logical" name="LTRIPLET"> F  </i>
   <i type="logical" name="LFXCEPS"> F  </i>
   <i type="logical" name="LFXHEG"> F  </i>
   <i type="logical" name="L2ORDER"> F  </i>
   <i type="logical" name="LUSEW"> F  </i>
   <i name="ENCUTGW">     -2.00000000</i>
   <i name="ENCUTGWSOFT">     -2.00000000</i>
   <i name="ENCUTLF">     -1.00000000</i>
   <i type="int" name="LMAXMP2">    -1</i>
   <i name="SCISSOR">      0.00000000</i>
   <i type="int" name="NOMEGA">     0</i>
   <i type="int" name="NOMEGAR">     0</i>
   <i type="int" name="NBANDSGW">    -1</i>
   <i type="int" name="NBANDSO">    -1</i>
   <i type="int" name="NBANDSV">    -1</i>
   <i type="int" name="NELM">     1</i>
   <i type="int" name="DIM">     3</i>
   <i type="int" name="ANTIRES">     0</i>
   <i name="OMEGAMAX">    -30.00000000</i>
   <i name="OMEGAMIN">    -30.00000000</i>
   <i name="OMEGATL">   -200.00000000</i>
   <i type="int" name="OMEGAGRID">     0</i>
   <i name="CSHIFT">     -0.10000000</i>
   <i type="logical" name="SELFENERGY"> F  </i>
   <i type="logical" name="LSPECTRAL"> F  </i>
   <i type="logical" name="ODDONLYGW"> F  </i>
   <i type="logical" name="EVENONLYGW"> F  </i>
   <i type="int" name="NKREDLFX">     1</i>
   <i type="int" name="NKREDLFY">     1</i>
   <i type="int" name="NKREDLFZ">     1</i>
   <i type="int" name="MAXMEM">  1800</i>
   <i type="int" name="TELESCOPE">     0</i>
   <i type="int" name="TAUPAR">     1</i>
  </separator>
  <separator name="External order field" >
   <i name="OFIELD_KAPPA">      0.00000000</i>
   <v name="OFIELD_K">      0.00000000      0.00000000      0.00000000</v>
   <i name="OFIELD_Q6_NEAR">      0.00000000</i>
   <i name="OFIELD_Q6_FAR">      0.00000000</i>
   <i name="OFIELD_A">      0.00000000</i>
  </separator>
 </parameters>
 <atominfo>
  <atoms>      24 </atoms>
  <types>       2 </types>
  <array name="atoms" >
   <dimension dim="1">ion</dimension>
   <field type="string">element</field>
   <field type="int">atomtype</field>
   <set>
    <rc><c>P </c><c>   1</c></rc>
    <rc><c>P </c><c>   1</c></rc>
    <rc><c>P </c><c>   1</c></rc>
    <rc><c>P </c><c>   1</c></rc>
    <rc><c>P </c><c>   1</c></rc>
    <rc><c>P </c><c>   1</c></rc>
    <rc><c>P </c><c>   1</c></rc>
    <rc><c>P </c><c>   1</c></rc>
    <rc><c>P </c><c>   1</c></rc>
    <rc><c>P </c><c>   1</c></rc>
    <rc><c>P </c><c>   1</c></rc>
    <rc><c>P </c><c>   1</c></rc>
    <rc><c>Si</c><c>   2</c></rc>
    <rc><c>Si</c><c>   2</c></rc>
    <rc><c>Si</c><c>   2</c></rc>
    <rc><c>Si</c><c>   2</c></rc>
    <rc><c>Si</c><c>   2</c></rc>
    <rc><c>Si</c><c>   2</c></rc>
    <rc><c>Si</c><c>   2</c></rc>
    <rc><c>Si</c><c>   2</c></rc>
    <rc><c>Si</c><c>   2</c></rc>
    <rc><c>Si</c><c>   2</c></rc>
    <rc><c>Si</c><c>   2</c></rc>
    <rc><c>Si</c><c>   2</c></rc>
   </set>
  </array>
  <array name="atomtypes" >
   <dimension dim="1">type</dimension>
   <field type="int">atomspertype</field>
   <field type="string">element</field>
   <field>mass</field>
   <field>valence</field>
   <field type="string">pseudopotential</field>
   <set>
    <rc><c>  12</c><c>P </c><c>     30.97400000</c><c>      5.00000000</c><c>  PAW_PBE P 17Jan2003                   </c></rc>
    <rc><c>  12</c><c>Si</c><c>     28.08500000</c><c>      4.00000000</c><c> PAW_PBE Si 05Jan2001                   </c></rc>
   </set>
  </array>
 </atominfo>
 <structure name="initialpos" >
  <crystal>
   <varray name="basis" >
    <v>       3.54040000       0.00000000       0.00000000 </v>
    <v>      -1.77020000      10.29434800       0.00000000 </v>
    <v>       0.00000000       0.00000000      27.50142900 </v>
   </varray>
   <i name="volume">   1002.32009712 </i>
   <varray name="rec_basis" >
    <v>       0.28245396       0.04857034       0.00000000 </v>
    <v>       0.00000000       0.09714068       0.00000000 </v>
    <v>       0.00000000       0.00000000       0.03636175 </v>
   </varray>
  </crystal>
  <varray name="positions" >
   <v>       0.11402300       0.22804500       0.23316207 </v>
   <v>       0.81402300       0.62804500       0.51499159 </v>
   <v>       0.45808900       0.91617900       0.20939482 </v>
   <v>       0.15808900       0.31617900       0.49122434 </v>
   <v>       0.31085400       0.62170900       0.08414979 </v>
   <v>       0.31085400       0.62170900       0.36597930 </v>
   <v>       0.99923000       0.99846000       0.08631254 </v>
   <v>       0.99923000       0.99846000       0.36814206 </v>
   <v>       0.65492700       0.30985400       0.06041748 </v>
   <v>       0.65492700       0.30985400       0.34224700 </v>
   <v>       0.76973800       0.53947500       0.20725292 </v>
   <v>       0.46973800       0.93947500       0.48908244 </v>
   <v>       0.93971600       0.87943300       0.15783749 </v>
   <v>       0.63971600       0.27943300       0.43966701 </v>
   <v>       0.20515200       0.41030300       0.18578822 </v>
   <v>       0.90515200       0.81030300       0.46761774 </v>
   <v>       0.20184900       0.40369900       0.09969156 </v>
   <v>       0.20184900       0.40369900       0.38152107 </v>
   <v>       0.56380500       0.12761000       0.10779021 </v>
   <v>       0.56380500       0.12761000       0.38961973 </v>
   <v>       0.56710600       0.13421200       0.19387616 </v>
   <v>       0.26710600       0.53421200       0.47570568 </v>
   <v>       0.82923400       0.65846800       0.13571444 </v>
   <v>       0.52923400       0.05846800       0.41754396 </v>
  </varray>
 </structure>
 <calculation>
  <scstep>
   <time name="dav">   83.13   83.20</time>
   <time name="total">  100.19  100.27</time>
   <energy>
    <i name="alphaZ">     36.80884744 </i>
    <i name="ewald">  12072.42120462 </i>
    <i name="hartreedc"> -15048.75515811 </i>
    <i name="XCdc">    -87.44915528 </i>
    <i name="pawpsdc">   1056.43050070 </i>
    <i name="pawaedc">   -732.41190547 </i>
    <i name="eentropy">     -0.04703028 </i>
    <i name="bandstr">    -96.15457878 </i>
    <i name="atom">   3354.04126044 </i>
    <i name="e_fr_energy">    554.88398528 </i>
    <i name="e_wo_entrp">    554.93101557 </i>
    <i name="e_0_energy">    554.90750043 </i>
   </energy>
  </scstep>
  <scstep>
   <time name="dav">  101.23  101.42</time>
   <time name="total">  101.24  101.44</time>
   <energy>
    <i name="e_fr_energy">    -11.58043355 </i>
    <i name="e_wo_entrp">    -11.55068239 </i>
    <i name="e_0_energy">    -11.56555797 </i>
   </energy>
  </scstep>
  <scstep>
   <time name="dav">  108.29  108.37</time>
   <time name="total">  108.31  108.40</time>
   <energy>
    <i name="e_fr_energy">    -73.20713485 </i>
    <i name="e_wo_entrp">    -73.18011763 </i>
    <i name="e_0_energy">    -73.19362624 </i>
   </energy>
  </scstep>
  <scstep>
   <time name="dav">  110.32  110.50</time>
   <time name="total">  110.33  110.52</time>
   <energy>
    <i name="e_fr_energy">    -76.34046855 </i>
    <i name="e_wo_entrp">    -76.32038363 </i>
    <i name="e_0_energy">    -76.33042609 </i>
   </energy>
  </scstep>
  <scstep>
   <time name="dav">  103.56  103.75</time>
   <time name="total">  108.14  108.33</time>
   <energy>
    <i name="e_fr_energy">    -76.40979924 </i>
    <i name="e_wo_entrp">    -76.38968603 </i>
    <i name="e_0_energy">    -76.39974263 </i>
   </energy>
  </scstep>
  <scstep>
   <time name="dav">   96.80   96.85</time>
   <time name="total">  119.77  119.88</time>
   <energy>
    <i name="e_fr_energy">    -71.32606847 </i>
    <i name="e_wo_entrp">    -71.28963310 </i>
    <i name="e_0_energy">    -71.30785078 </i>
   </energy>
  </scstep>
  <scstep>
   <time name="dav">   87.80   87.93</time>
   <time name="total">  108.68  108.85</time>
   <energy>
    <i name="e_fr_energy">    -70.36942334 </i>
    <i name="e_wo_entrp">    -70.32204771 </i>
    <i name="e_0_energy">    -70.34573553 </i>
   </energy>
  </scstep>
  <scstep>
   <time name="dav">   90.10   90.13</time>
   <time name="total">  110.73  110.79</time>
   <energy>
    <i name="e_fr_energy">    -70.28746541 </i>
    <i name="e_wo_entrp">    -70.24347513 </i>
    <i name="e_0_energy">    -70.26547027 </i>
   </energy>
  </scstep>
  <scstep>
   <time name="dav">   97.27   97.38</time>
   <time name="total">  117.09  117.25</time>
   <energy>
    <i name="e_fr_energy">    -70.34548847 </i>
    <i name="e_wo_entrp">    -70.27379296 </i>
    <i name="e_0_energy">    -70.30964072 </i>
   </energy>
  </scstep>
  <scstep>
   <time name="dav">   91.87   91.90</time>
   <time name="total">  111.17  111.22</time>
   <energy>
    <i name="e_fr_energy">    -70.30137161 </i>
    <i name="e_wo_entrp">    -70.24721582 </i>
    <i name="e_0_energy">    -70.27429371 </i>
   </energy>
  </scstep>
  <scstep>
   <time name="dav">   92.64   92.67</time>
   <time name="total">  112.80  112.85</time>
   <energy>
    <i name="e_fr_energy">    -70.29258481 </i>
    <i name="e_wo_entrp">    -70.23436899 </i>
    <i name="e_0_energy">    -70.26347690 </i>
   </energy>
  </scstep>
  <scstep>
   <time name="dav">   93.72   93.87</time>
   <time name="total">  114.41  114.57</time>
   <energy>
    <i name="e_fr_energy">    -70.28534871 </i>
    <i name="e_wo_entrp">    -70.22616468 </i>
    <i name="e_0_energy">    -70.25575670 </i>
   </energy>
  </scstep>
  <scstep>
   <time name="dav">   94.35   94.38</time>
   <time name="total">  114.15  114.21</time>
   <energy>
    <i name="e_fr_energy">    -70.27893012 </i>
    <i name="e_wo_entrp">    -70.21930776 </i>
    <i name="e_0_energy">    -70.24911894 </i>
   </energy>
  </scstep>
  <scstep>
   <time name="dav">  101.96  102.01</time>
   <time name="total">  122.54  122.59</time>
   <energy>
    <i name="e_fr_energy">    -70.27440401 </i>
    <i name="e_wo_entrp">    -70.21502633 </i>
    <i name="e_0_energy">    -70.24471517 </i>
   </energy>
  </scstep>
  <scstep>
   <time name="dav">   94.49   94.52</time>
   <time name="total">  115.07  115.10</time>
   <energy>
    <i name="e_fr_energy">    -70.27193962 </i>
    <i name="e_wo_entrp">    -70.21273380 </i>
    <i name="e_0_energy">    -70.24233671 </i>
   </energy>
  </scstep>
  <scstep>
   <time name="dav">   89.33   89.41</time>
   <time name="total">  108.79  108.89</time>
   <energy>
    <i name="e_fr_energy">    -70.27112550 </i>
    <i name="e_wo_entrp">    -70.21179216 </i>
    <i name="e_0_energy">    -70.24145883 </i>
   </energy>
  </scstep>
  <scstep>
   <time name="dav">   84.45   84.49</time>
   <time name="total">  104.38  104.43</time>
   <energy>
    <i name="e_fr_energy">    -70.27114289 </i>
    <i name="e_wo_entrp">    -70.21190372 </i>
    <i name="e_0_energy">    -70.24152331 </i>
   </energy>
  </scstep>
  <scstep>
   <time name="dav">   91.89   91.95</time>
   <time name="total">  111.92  111.99</time>
   <energy>
    <i name="e_fr_energy">    -70.27157190 </i>
    <i name="e_wo_entrp">    -70.21226079 </i>
    <i name="e_0_energy">    -70.24191635 </i>
   </energy>
  </scstep>
  <scstep>
   <time name="dav">   82.77   82.84</time>
   <time name="total">  103.20  103.28</time>
   <energy>
    <i name="e_fr_energy">    -70.27182815 </i>
    <i name="e_wo_entrp">    -70.21254078 </i>
    <i name="e_0_energy">    -70.24218446 </i>
   </energy>
  </scstep>
  <scstep>
   <time name="dav">   79.49   79.57</time>
   <time name="total">   99.54   99.65</time>
   <energy>
    <i name="e_fr_energy">    -70.27190016 </i>
    <i name="e_wo_entrp">    -70.21260726 </i>
    <i name="e_0_energy">    -70.24225371 </i>
   </energy>
  </scstep>
  <scstep>
   <time name="dav">   71.71   71.73</time>
   <time name="total">   92.20   92.30</time>
   <energy>
    <i name="e_fr_energy">    -70.27194817 </i>
    <i name="e_wo_entrp">    -70.21266083 </i>
    <i name="e_0_energy">    -70.24230450 </i>
   </energy>
  </scstep>
  <scstep>
   <time name="dav">   78.73   78.83</time>
   <time name="total">   98.99   99.11</time>
   <energy>
    <i name="e_fr_energy">    -70.27195307 </i>
    <i name="e_wo_entrp">    -70.21266554 </i>
    <i name="e_0_energy">    -70.24230930 </i>
   </energy>
  </scstep>
  <scstep>
   <time name="dav">   85.42   85.48</time>
   <time name="total">  105.74  105.82</time>
   <energy>
    <i name="e_fr_energy">    -70.27191249 </i>
    <i name="e_wo_entrp">    -70.21261957 </i>
    <i name="e_0_energy">    -70.24226603 </i>
   </energy>
  </scstep>
  <scstep>
   <time name="dav">   72.99   73.03</time>
   <time name="total">   93.74   93.80</time>
   <energy>
    <i name="e_fr_energy">    -70.27185998 </i>
    <i name="e_wo_entrp">    -70.21256865 </i>
    <i name="e_0_energy">    -70.24221432 </i>
   </energy>
  </scstep>
  <scstep>
   <time name="dav">   72.64   72.67</time>
   <time name="total">   92.42   92.46</time>
   <energy>
    <i name="e_fr_energy">    -70.27183780 </i>
    <i name="e_wo_entrp">    -70.21254709 </i>
    <i name="e_0_energy">    -70.24219244 </i>
   </energy>
  </scstep>
  <scstep>
   <time name="dav">   73.29   73.33</time>
   <time name="total">   93.70   93.74</time>
   <energy>
    <i name="e_fr_energy">    -70.27182830 </i>
    <i name="e_wo_entrp">    -70.21253768 </i>
    <i name="e_0_energy">    -70.24218299 </i>
   </energy>
  </scstep>
  <scstep>
   <time name="dav">   68.68   68.70</time>
   <time name="total">   89.00   89.05</time>
   <energy>
    <i name="e_fr_energy">    -70.27182275 </i>
    <i name="e_wo_entrp">    -70.21253205 </i>
    <i name="e_0_energy">    -70.24217740 </i>
   </energy>
  </scstep>
  <scstep>
   <time name="dav">   70.76   70.81</time>
   <time name="total">   94.32   94.41</time>
   <energy>
    <i name="e_fr_energy">    -70.27182015 </i>
    <i name="e_wo_entrp">    -70.21252930 </i>
    <i name="e_0_energy">    -70.24217473 </i>
   </energy>
  </scstep>
  <scstep>
   <time name="dav">   64.52   64.64</time>
   <time name="total">   79.94   80.09</time>
   <energy>
    <i name="alphaZ">     36.80884744 </i>
    <i name="ewald">  12072.42120462 </i>
    <i name="hartreedc"> -15149.76767502 </i>
    <i name="XCdc">    -79.14188371 </i>
    <i name="pawpsdc">   1191.65576141 </i>
    <i name="pawaedc">   -871.83293357 </i>
    <i name="eentropy">     -0.05929077 </i>
    <i name="bandstr">   -624.39711089 </i>
    <i name="atom">   3354.04126044 </i>
    <i name="e_fr_energy">    -70.27182004 </i>
    <i name="e_wo_entrp">    -70.21252927 </i>
    <i name="e_0_energy">    -70.24217465 </i>
   </energy>
  </scstep>
  <structure>
   <crystal>
    <varray name="basis" >
     <v>       3.54040000       0.00000000       0.00000000 </v>
     <v>      -1.77020000      10.29434800       0.00000000 </v>
     <v>       0.00000000       0.00000000      27.50142900 </v>
    </varray>
    <i name="volume">   1002.32009712 </i>
    <varray name="rec_basis" >
     <v>       0.28245396       0.04857034       0.00000000 </v>
     <v>       0.00000000       0.09714068       0.00000000 </v>
     <v>       0.00000000       0.00000000       0.03636175 </v>
    </varray>
   </crystal>
   <varray name="positions" >
    <v>       0.11402300       0.22804500       0.23316207 </v>
    <v>       0.81402300       0.62804500       0.51499159 </v>
    <v>       0.45808900       0.91617900       0.20939482 </v>
    <v>       0.15808900       0.31617900       0.49122434 </v>
    <v>       0.31085400       0.62170900       0.08414979 </v>
    <v>       0.31085400       0.62170900       0.36597930 </v>
    <v>       0.99923000       0.99846000       0.08631254 </v>
    <v>       0.99923000       0.99846000       0.36814206 </v>
    <v>       0.65492700       0.30985400       0.06041748 </v>
    <v>       0.65492700       0.30985400       0.34224700 </v>
    <v>       0.76973800       0.53947500       0.20725292 </v>
    <v>       0.46973800       0.93947500       0.48908244 </v>
    <v>       0.93971600       0.87943300       0.15783749 </v>
    <v>       0.63971600       0.27943300       0.43966701 </v>
    <v>       0.20515200       0.41030300       0.18578822 </v>
    <v>       0.90515200       0.81030300       0.46761774 </v>
    <v>       0.20184900       0.40369900       0.09969156 </v>
    <v>       0.20184900       0.40369900       0.38152107 </v>
    <v>       0.56380500       0.12761000       0.10779021 </v>
    <v>       0.56380500       0.12761000       0.38961973 </v>
    <v>       0.56710600       0.13421200       0.19387616 </v>
    <v>       0.26710600       0.53421200       0.47570568 </v>
    <v>       0.82923400       0.65846800       0.13571444 </v>
    <v>       0.52923400       0.05846800       0.41754396 </v>
   </varray>
  </structure>
  <varray name="forces" >
   <v>       0.00000000       0.04138065       0.19722780 </v>
   <v>       0.00000000      -0.23276014       0.17968323 </v>
   <v>       0.00000000      -0.01159276       0.08665625 </v>
   <v>       0.00000000      -0.50107097       1.11177212 </v>
   <v>       0.00000000      -0.00739490       0.01136978 </v>
   <v>       0.00000000      -0.91058786       1.28773443 </v>
   <v>       0.00000000      -0.00785170      -0.00946538 </v>
   <v>       0.00000000      -1.14411023      -0.93183476 </v>
   <v>       0.00000000      -0.00139370       0.02036413 </v>
   <v>       0.00000000      -0.25754065      -1.08334401 </v>
   <v>       0.00000000       0.00134038       0.10772754 </v>
   <v>       0.00000000       0.30256876       0.13759495 </v>
   <v>       0.00000000       0.00344984       0.00309662 </v>
   <v>       0.00000000       2.62745677       2.74517409 </v>
   <v>       0.00000000       0.02653352       0.05309522 </v>
   <v>       0.00000000       0.00001589      -0.85592385 </v>
   <v>       0.00000000      -0.00905974      -0.02965522 </v>
   <v>       0.00000000       1.56238142      -1.01442464 </v>
   <v>       0.00000000      -0.00981704      -0.03583204 </v>
   <v>       0.00000000     101.73177392    -114.58381999 </v>
   <v>       0.00000000      -0.05208175       0.01860397 </v>
   <v>       0.00000000       0.65819838      -0.55148504 </v>
   <v>       0.00000000       0.01741798      -0.00797951 </v>
   <v>      -0.00000000    -103.82725608     113.14366430 </v>
  </varray>
  <varray name="stress" >
   <v>      -1.66173312       0.00000000       0.00000000 </v>
   <v>       0.00000000     121.24275624    -119.44686250 </v>
   <v>       0.00000000    -119.44686258     143.34495368 </v>
  </varray>
  <energy>
   <i name="e_fr_energy">    -70.27182004 </i>
   <i name="e_wo_entrp">    -70.24217465 </i>
   <i name="e_0_energy">     -0.05929077 </i>
  </energy>
  <time name="totalsc"> 3172.33 3175.28</time>
  <eigenvalues>
   <array>
    <dimension dim="1">band</dimension>
    <dimension dim="2">kpoint</dimension>
    <dimension dim="3">spin</dimension>
    <field>eigene</field>
    <field>occ</field>
    <set>
     <set comment="spin 1">
      <set comment="kpoint 1">
       <r>  -14.6697    1.0000 </r>
       <r>  -13.6427    1.0000 </r>
       <r>  -13.2217    1.0000 </r>
       <r>  -12.9012    1.0000 </r>
       <r>  -12.6499    1.0000 </r>
       <r>  -12.5763    1.0000 </r>
       <r>  -12.1892    1.0000 </r>
       <r>  -11.8732    1.0000 </r>
       <r>  -11.5348    1.0000 </r>
       <r>  -11.4629    1.0000 </r>
       <r>  -11.0920    1.0000 </r>
       <r>  -10.2365    1.0000 </r>
       <r>   -9.4602    1.0000 </r>
       <r>   -8.1370    1.0000 </r>
       <r>   -7.9328    1.0000 </r>
       <r>   -7.1477    1.0000 </r>
       <r>   -7.0490    1.0000 </r>
       <r>   -7.0072    1.0000 </r>
       <r>   -6.8135    1.0000 </r>
       <r>   -6.5964    1.0000 </r>
       <r>   -6.3367    1.0000 </r>
       <r>   -5.9255    1.0000 </r>
       <r>   -5.1019    1.0000 </r>
       <r>   -4.8354    1.0000 </r>
       <r>   -4.4026    1.0000 </r>
       <r>   -4.1867    1.0000 </r>
       <r>   -4.0002    1.0000 </r>
       <r>   -3.7936    1.0000 </r>
       <r>   -3.6562    1.0000 </r>
       <r>   -3.2570    1.0000 </r>
       <r>   -3.1916    1.0000 </r>
       <r>   -3.1527    1.0000 </r>
       <r>   -2.9431    1.0000 </r>
       <r>   -2.8670    1.0000 </r>
       <r>   -2.5461    1.0000 </r>
       <r>   -2.4979    1.0000 </r>
       <r>   -2.4942    1.0000 </r>
       <r>   -2.3787    1.0000 </r>
       <r>   -2.3132    1.0000 </r>
       <r>   -2.1153    1.0000 </r>
       <r>   -2.0645    1.0000 </r>
       <r>   -1.9655    1.0000 </r>
       <r>   -1.8283    1.0000 </r>
       <r>   -1.7449    1.0000 </r>
       <r>   -1.6775    1.0000 </r>
       <r>   -1.6181    1.0000 </r>
       <r>   -1.5334    1.0000 </r>
       <r>   -1.4566    1.0000 </r>
       <r>   -1.3007    1.0000 </r>
       <r>   -1.1390    1.0000 </r>
       <r>   -1.1052    1.0000 </r>
       <r>   -0.6363    1.0000 </r>
       <r>    0.3988    0.4413 </r>
       <r>    0.4300    0.2779 </r>
       <r>    0.5204    0.0309 </r>
       <r>    0.7910    0.0000 </r>
       <r>    1.0674    0.0000 </r>
       <r>    1.1910    0.0000 </r>
       <r>    1.2179    0.0000 </r>
       <r>    1.3090    0.0000 </r>
       <r>    1.3460    0.0000 </r>
       <r>    1.6416    0.0000 </r>
       <r>    1.8917    0.0000 </r>
       <r>    2.0484    0.0000 </r>
       <r>    2.2056    0.0000 </r>
       <r>    2.3223    0.0000 </r>
       <r>    2.3435    0.0000 </r>
       <r>    2.5326    0.0000 </r>
      </set>
      <set comment="kpoint 2">
       <r>  -14.6148    1.0000 </r>
       <r>  -13.5814    1.0000 </r>
       <r>  -13.1670    1.0000 </r>
       <r>  -12.8491    1.0000 </r>
       <r>  -12.5926    1.0000 </r>
       <r>  -12.5205    1.0000 </r>
       <r>  -12.1270    1.0000 </r>
       <r>  -11.8254    1.0000 </r>
       <r>  -11.4858    1.0000 </r>
       <r>  -11.4114    1.0000 </r>
       <r>  -11.0436    1.0000 </r>
       <r>  -10.2172    1.0000 </r>
       <r>   -9.4383    1.0000 </r>
       <r>   -8.1733    1.0000 </r>
       <r>   -7.8961    1.0000 </r>
       <r>   -7.3419    1.0000 </r>
       <r>   -7.0875    1.0000 </r>
       <r>   -6.9591    1.0000 </r>
       <r>   -6.7653    1.0000 </r>
       <r>   -6.5898    1.0000 </r>
       <r>   -6.3054    1.0000 </r>
       <r>   -5.8917    1.0000 </r>
       <r>   -5.0919    1.0000 </r>
       <r>   -4.8405    1.0000 </r>
       <r>   -4.5098    1.0000 </r>
       <r>   -4.1756    1.0000 </r>
       <r>   -3.9986    1.0000 </r>
       <r>   -3.8242    1.0000 </r>
       <r>   -3.7034    1.0000 </r>
       <r>   -3.5309    1.0000 </r>
       <r>   -3.5194    1.0000 </r>
       <r>   -3.3673    1.0000 </r>
       <r>   -3.2742    1.0000 </r>
       <r>   -2.9154    1.0000 </r>
       <r>   -2.8170    1.0000 </r>
       <r>   -2.7916    1.0000 </r>
       <r>   -2.5972    1.0000 </r>
       <r>   -2.5739    1.0000 </r>
       <r>   -2.3971    1.0000 </r>
       <r>   -2.3014    1.0000 </r>
       <r>   -2.2304    1.0000 </r>
       <r>   -2.1074    1.0000 </r>
       <r>   -2.0639    1.0000 </r>
       <r>   -1.9325    1.0000 </r>
       <r>   -1.8580    1.0000 </r>
       <r>   -1.8301    1.0000 </r>
       <r>   -1.6101    1.0000 </r>
       <r>   -1.5496    1.0000 </r>
       <r>   -1.2518    1.0000 </r>
       <r>   -1.0572    1.0000 </r>
       <r>   -1.0210    1.0000 </r>
       <r>   -0.5947    1.0000 </r>
       <r>    0.4061    0.4007 </r>
       <r>    0.5061    0.0479 </r>
       <r>    0.6336    0.0003 </r>
       <r>    1.0525    0.0000 </r>
       <r>    1.1095    0.0000 </r>
       <r>    1.3142    0.0000 </r>
       <r>    1.4766    0.0000 </r>
       <r>    1.5346    0.0000 </r>
       <r>    1.6703    0.0000 </r>
       <r>    2.0378    0.0000 </r>
       <r>    2.1193    0.0000 </r>
       <r>    2.2200    0.0000 </r>
       <r>    2.5083    0.0000 </r>
       <r>    2.5409    0.0000 </r>
       <r>    2.5943    0.0000 </r>
       <r>    2.6652    0.0000 </r>
      </set>
      <set comment="kpoint 3">
       <r>  -14.4514    1.0000 </r>
       <r>  -13.3984    1.0000 </r>
       <r>  -13.0046    1.0000 </r>
       <r>  -12.6933    1.0000 </r>
       <r>  -12.4236    1.0000 </r>
       <r>  -12.3553    1.0000 </r>
       <r>  -11.9447    1.0000 </r>
       <r>  -11.6861    1.0000 </r>
       <r>  -11.3437    1.0000 </r>
       <r>  -11.2637    1.0000 </r>
       <r>  -10.9049    1.0000 </r>
       <r>  -10.1723    1.0000 </r>
       <r>   -9.3801    1.0000 </r>
       <r>   -8.2692    1.0000 </r>
       <r>   -7.9161    1.0000 </r>
       <r>   -7.8534    1.0000 </r>
       <r>   -7.0135    1.0000 </r>
       <r>   -6.8663    1.0000 </r>
       <r>   -6.6731    1.0000 </r>
       <r>   -6.6003    1.0000 </r>
       <r>   -6.2586    1.0000 </r>
       <r>   -5.8170    1.0000 </r>
       <r>   -5.1232    1.0000 </r>
       <r>   -5.0319    1.0000 </r>
       <r>   -4.9636    1.0000 </r>
       <r>   -4.3275    1.0000 </r>
       <r>   -4.3000    1.0000 </r>
       <r>   -4.1884    1.0000 </r>
       <r>   -4.0929    1.0000 </r>
       <r>   -3.9398    1.0000 </r>
       <r>   -3.8158    1.0000 </r>
       <r>   -3.7655    1.0000 </r>
       <r>   -3.5860    1.0000 </r>
       <r>   -3.3875    1.0000 </r>
       <r>   -3.2624    1.0000 </r>
       <r>   -3.1917    1.0000 </r>
       <r>   -3.0654    1.0000 </r>
       <r>   -3.0374    1.0000 </r>
       <r>   -2.7756    1.0000 </r>
       <r>   -2.6824    1.0000 </r>
       <r>   -2.4806    1.0000 </r>
       <r>   -2.3997    1.0000 </r>
       <r>   -2.2514    1.0000 </r>
       <r>   -2.1737    1.0000 </r>
       <r>   -2.0278    1.0000 </r>
       <r>   -1.8704    1.0000 </r>
       <r>   -1.7509    1.0000 </r>
       <r>   -1.5174    1.0000 </r>
       <r>   -1.3118    1.0000 </r>
       <r>   -1.0687    1.0000 </r>
       <r>   -0.9650    1.0000 </r>
       <r>   -0.3903    1.0000 </r>
       <r>    0.3720    0.5914 </r>
       <r>    0.4839    0.0882 </r>
       <r>    0.6509    0.0001 </r>
       <r>    0.7775    0.0000 </r>
       <r>    1.2240    0.0000 </r>
       <r>    1.5427    0.0000 </r>
       <r>    1.8354    0.0000 </r>
       <r>    2.0276    0.0000 </r>
       <r>    2.1773    0.0000 </r>
       <r>    2.3438    0.0000 </r>
       <r>    2.4711    0.0000 </r>
       <r>    2.5441    0.0000 </r>
       <r>    2.6052    0.0000 </r>
       <r>    2.7874    0.0000 </r>
       <r>    2.8594    0.0000 </r>
       <r>    2.9452    0.0000 </r>
      </set>
      <set comment="kpoint 4">
       <r>  -14.1844    1.0000 </r>
       <r>  -13.0974    1.0000 </r>
       <r>  -12.7417    1.0000 </r>
       <r>  -12.4369    1.0000 </r>
       <r>  -12.1531    1.0000 </r>
       <r>  -12.0888    1.0000 </r>
       <r>  -11.6571    1.0000 </r>
       <r>  -11.4721    1.0000 </r>
       <r>  -11.1266    1.0000 </r>
       <r>  -11.0473    1.0000 </r>
       <r>  -10.7021    1.0000 </r>
       <r>  -10.1433    1.0000 </r>
       <r>   -9.3120    1.0000 </r>
       <r>   -8.5724    1.0000 </r>
       <r>   -8.4603    1.0000 </r>
       <r>   -7.9268    1.0000 </r>
       <r>   -6.9779    1.0000 </r>
       <r>   -6.8133    1.0000 </r>
       <r>   -6.7366    1.0000 </r>
       <r>   -6.6261    1.0000 </r>
       <r>   -6.2637    1.0000 </r>
       <r>   -5.8531    1.0000 </r>
       <r>   -5.8336    1.0000 </r>
       <r>   -5.4408    1.0000 </r>
       <r>   -5.3194    1.0000 </r>
       <r>   -4.9122    1.0000 </r>
       <r>   -4.7101    1.0000 </r>
       <r>   -4.6357    1.0000 </r>
       <r>   -4.5934    1.0000 </r>
       <r>   -4.3075    1.0000 </r>
       <r>   -4.2270    1.0000 </r>
       <r>   -4.1200    1.0000 </r>
       <r>   -3.8870    1.0000 </r>
       <r>   -3.7306    1.0000 </r>
       <r>   -3.5668    1.0000 </r>
       <r>   -3.4886    1.0000 </r>
       <r>   -3.2861    1.0000 </r>
       <r>   -3.0985    1.0000 </r>
       <r>   -3.0738    1.0000 </r>
       <r>   -2.7430    1.0000 </r>
       <r>   -2.6482    1.0000 </r>
       <r>   -2.5351    1.0000 </r>
       <r>   -2.4553    1.0000 </r>
       <r>   -2.2527    1.0000 </r>
       <r>   -2.0044    1.0000 </r>
       <r>   -1.9260    1.0000 </r>
       <r>   -1.8337    1.0000 </r>
       <r>   -1.5777    1.0000 </r>
       <r>   -1.5214    1.0000 </r>
       <r>   -1.2075    1.0000 </r>
       <r>   -1.0243    1.0000 </r>
       <r>   -0.2240    1.0000 </r>
       <r>   -0.1792    1.0000 </r>
       <r>    0.4458    0.2081 </r>
       <r>    0.5192    0.0321 </r>
       <r>    0.7254    0.0000 </r>
       <r>    1.2107    0.0000 </r>
       <r>    1.5747    0.0000 </r>
       <r>    1.7820    0.0000 </r>
       <r>    1.8457    0.0000 </r>
       <r>    1.9454    0.0000 </r>
       <r>    2.1310    0.0000 </r>
       <r>    2.2043    0.0000 </r>
       <r>    2.3266    0.0000 </r>
       <r>    2.5706    0.0000 </r>
       <r>    2.6491    0.0000 </r>
       <r>    2.7950    0.0000 </r>
       <r>    2.8770    0.0000 </r>
      </set>
      <set comment="kpoint 5">
       <r>  -13.8245    1.0000 </r>
       <r>  -12.6857    1.0000 </r>
       <r>  -12.3983    1.0000 </r>
       <r>  -12.0886    1.0000 </r>
       <r>  -11.8089    1.0000 </r>
       <r>  -11.7415    1.0000 </r>
       <r>  -11.3001    1.0000 </r>
       <r>  -11.2434    1.0000 </r>
       <r>  -10.8820    1.0000 </r>
       <r>  -10.8396    1.0000 </r>
       <r>  -10.5166    1.0000 </r>
       <r>  -10.1543    1.0000 </r>
       <r>   -9.3019    1.0000 </r>
       <r>   -9.1008    1.0000 </r>
       <r>   -8.7550    1.0000 </r>
       <r>   -8.1869    1.0000 </r>
       <r>   -7.1730    1.0000 </r>
       <r>   -7.0999    1.0000 </r>
       <r>   -7.0030    1.0000 </r>
       <r>   -6.9001    1.0000 </r>
       <r>   -6.5300    1.0000 </r>
       <r>   -6.2717    1.0000 </r>
       <r>   -6.2250    1.0000 </r>
       <r>   -6.0665    1.0000 </r>
       <r>   -5.6148    1.0000 </r>
       <r>   -5.3105    1.0000 </r>
       <r>   -4.9545    1.0000 </r>
       <r>   -4.8708    1.0000 </r>
       <r>   -4.7979    1.0000 </r>
       <r>   -4.6742    1.0000 </r>
       <r>   -4.4118    1.0000 </r>
       <r>   -4.3831    1.0000 </r>
       <r>   -4.3146    1.0000 </r>
       <r>   -3.6952    1.0000 </r>
       <r>   -3.4914    1.0000 </r>
       <r>   -3.3526    1.0000 </r>
       <r>   -3.2745    1.0000 </r>
       <r>   -3.1799    1.0000 </r>
       <r>   -3.0474    1.0000 </r>
       <r>   -2.8561    1.0000 </r>
       <r>   -2.7446    1.0000 </r>
       <r>   -2.6783    1.0000 </r>
       <r>   -2.5031    1.0000 </r>
       <r>   -2.4127    1.0000 </r>
       <r>   -2.1601    1.0000 </r>
       <r>   -1.9936    1.0000 </r>
       <r>   -1.9659    1.0000 </r>
       <r>   -1.8129    1.0000 </r>
       <r>   -1.6057    1.0000 </r>
       <r>   -1.4120    1.0000 </r>
       <r>   -1.0833    1.0000 </r>
       <r>   -0.8291    1.0000 </r>
       <r>   -0.0857    1.0000 </r>
       <r>    0.2708    0.9518 </r>
       <r>    0.3843    0.5227 </r>
       <r>    0.4769    0.1052 </r>
       <r>    1.1329    0.0000 </r>
       <r>    1.3959    0.0000 </r>
       <r>    1.5080    0.0000 </r>
       <r>    1.6835    0.0000 </r>
       <r>    1.7777    0.0000 </r>
       <r>    1.8965    0.0000 </r>
       <r>    2.0495    0.0000 </r>
       <r>    2.2126    0.0000 </r>
       <r>    2.2876    0.0000 </r>
       <r>    2.5350    0.0000 </r>
       <r>    2.6203    0.0000 </r>
       <r>    2.7309    0.0000 </r>
      </set>
      <set comment="kpoint 6">
       <r>  -13.3984    1.0000 </r>
       <r>  -12.1776    1.0000 </r>
       <r>  -12.0566    1.0000 </r>
       <r>  -11.6693    1.0000 </r>
       <r>  -11.5098    1.0000 </r>
       <r>  -11.3536    1.0000 </r>
       <r>  -11.1365    1.0000 </r>
       <r>  -10.9541    1.0000 </r>
       <r>  -10.7266    1.0000 </r>
       <r>  -10.7143    1.0000 </r>
       <r>  -10.5566    1.0000 </r>
       <r>  -10.0553    1.0000 </r>
       <r>   -9.5461    1.0000 </r>
       <r>   -9.2955    1.0000 </r>
       <r>   -8.9311    1.0000 </r>
       <r>   -8.4790    1.0000 </r>
       <r>   -7.6056    1.0000 </r>
       <r>   -7.5588    1.0000 </r>
       <r>   -7.5165    1.0000 </r>
       <r>   -7.2569    1.0000 </r>
       <r>   -6.9525    1.0000 </r>
       <r>   -6.8590    1.0000 </r>
       <r>   -6.7636    1.0000 </r>
       <r>   -6.5338    1.0000 </r>
       <r>   -5.5768    1.0000 </r>
       <r>   -5.3143    1.0000 </r>
       <r>   -5.1537    1.0000 </r>
       <r>   -4.9042    1.0000 </r>
       <r>   -4.6790    1.0000 </r>
       <r>   -4.6225    1.0000 </r>
       <r>   -4.3290    1.0000 </r>
       <r>   -4.2535    1.0000 </r>
       <r>   -4.1810    1.0000 </r>
       <r>   -3.7665    1.0000 </r>
       <r>   -3.6453    1.0000 </r>
       <r>   -3.3714    1.0000 </r>
       <r>   -3.3490    1.0000 </r>
       <r>   -3.2599    1.0000 </r>
       <r>   -3.1287    1.0000 </r>
       <r>   -2.8938    1.0000 </r>
       <r>   -2.8369    1.0000 </r>
       <r>   -2.6555    1.0000 </r>
       <r>   -2.5449    1.0000 </r>
       <r>   -2.4550    1.0000 </r>
       <r>   -2.3778    1.0000 </r>
       <r>   -2.1992    1.0000 </r>
       <r>   -2.1220    1.0000 </r>
       <r>   -1.9523    1.0000 </r>
       <r>   -1.7599    1.0000 </r>
       <r>   -1.5142    1.0000 </r>
       <r>   -1.2692    1.0000 </r>
       <r>   -1.1361    1.0000 </r>
       <r>   -0.1912    1.0000 </r>
       <r>    0.1654    0.9992 </r>
       <r>    0.2894    0.9191 </r>
       <r>    0.3773    0.5618 </r>
       <r>    1.0949    0.0000 </r>
       <r>    1.2714    0.0000 </r>
       <r>    1.3457    0.0000 </r>
       <r>    1.4799    0.0000 </r>
       <r>    1.6157    0.0000 </r>
       <r>    1.6539    0.0000 </r>
       <r>    1.9283    0.0000 </r>
       <r>    2.0295    0.0000 </r>
       <r>    2.1725    0.0000 </r>
       <r>    2.2347    0.0000 </r>
       <r>    2.4899    0.0000 </r>
       <r>    2.6539    0.0000 </r>
      </set>
      <set comment="kpoint 7">
       <r>  -13.0015    1.0000 </r>
       <r>  -12.0426    1.0000 </r>
       <r>  -11.6041    1.0000 </r>
       <r>  -11.3165    1.0000 </r>
       <r>  -11.2466    1.0000 </r>
       <r>  -11.0559    1.0000 </r>
       <r>  -11.0091    1.0000 </r>
       <r>  -10.9424    1.0000 </r>
       <r>  -10.8301    1.0000 </r>
       <r>  -10.7364    1.0000 </r>
       <r>  -10.6895    1.0000 </r>
       <r>   -9.8304    1.0000 </r>
       <r>   -9.7262    1.0000 </r>
       <r>   -9.5021    1.0000 </r>
       <r>   -8.7881    1.0000 </r>
       <r>   -8.5421    1.0000 </r>
       <r>   -8.1805    1.0000 </r>
       <r>   -7.8857    1.0000 </r>
       <r>   -7.6729    1.0000 </r>
       <r>   -7.4320    1.0000 </r>
       <r>   -7.3873    1.0000 </r>
       <r>   -7.2818    1.0000 </r>
       <r>   -7.2577    1.0000 </r>
       <r>   -6.8110    1.0000 </r>
       <r>   -5.4755    1.0000 </r>
       <r>   -5.3413    1.0000 </r>
       <r>   -5.0215    1.0000 </r>
       <r>   -4.6264    1.0000 </r>
       <r>   -4.5682    1.0000 </r>
       <r>   -4.3197    1.0000 </r>
       <r>   -4.2011    1.0000 </r>
       <r>   -4.0945    1.0000 </r>
       <r>   -4.0319    1.0000 </r>
       <r>   -3.9268    1.0000 </r>
       <r>   -3.8363    1.0000 </r>
       <r>   -3.6757    1.0000 </r>
       <r>   -3.5635    1.0000 </r>
       <r>   -3.3545    1.0000 </r>
       <r>   -3.1130    1.0000 </r>
       <r>   -2.8957    1.0000 </r>
       <r>   -2.8548    1.0000 </r>
       <r>   -2.7808    1.0000 </r>
       <r>   -2.6694    1.0000 </r>
       <r>   -2.4578    1.0000 </r>
       <r>   -2.3876    1.0000 </r>
       <r>   -2.2910    1.0000 </r>
       <r>   -2.2006    1.0000 </r>
       <r>   -2.0144    1.0000 </r>
       <r>   -1.8107    1.0000 </r>
       <r>   -1.6174    1.0000 </r>
       <r>   -1.4437    1.0000 </r>
       <r>   -1.1841    1.0000 </r>
       <r>   -0.1989    1.0000 </r>
       <r>   -0.0216    1.0000 </r>
       <r>    0.2022    0.9958 </r>
       <r>    0.5163    0.0352 </r>
       <r>    1.0668    0.0000 </r>
       <r>    1.1443    0.0000 </r>
       <r>    1.2597    0.0000 </r>
       <r>    1.4111    0.0000 </r>
       <r>    1.4864    0.0000 </r>
       <r>    1.5813    0.0000 </r>
       <r>    1.7732    0.0000 </r>
       <r>    1.9377    0.0000 </r>
       <r>    2.0033    0.0000 </r>
       <r>    2.2863    0.0000 </r>
       <r>    2.2989    0.0000 </r>
       <r>    2.4187    0.0000 </r>
      </set>
      <set comment="kpoint 8">
       <r>  -14.6665    1.0000 </r>
       <r>  -13.5876    1.0000 </r>
       <r>  -13.2610    1.0000 </r>
       <r>  -13.0747    1.0000 </r>
       <r>  -12.6020    1.0000 </r>
       <r>  -12.5326    1.0000 </r>
       <r>  -12.0287    1.0000 </r>
       <r>  -11.9649    1.0000 </r>
       <r>  -11.5795    1.0000 </r>
       <r>  -11.3223    1.0000 </r>
       <r>  -11.1009    1.0000 </r>
       <r>  -10.2608    1.0000 </r>
       <r>   -9.5201    1.0000 </r>
       <r>   -8.6173    1.0000 </r>
       <r>   -7.5025    1.0000 </r>
       <r>   -7.1393    1.0000 </r>
       <r>   -7.0489    1.0000 </r>
       <r>   -6.9133    1.0000 </r>
       <r>   -6.7716    1.0000 </r>
       <r>   -6.6916    1.0000 </r>
       <r>   -6.2079    1.0000 </r>
       <r>   -5.8481    1.0000 </r>
       <r>   -5.2452    1.0000 </r>
       <r>   -4.7447    1.0000 </r>
       <r>   -4.3919    1.0000 </r>
       <r>   -4.1385    1.0000 </r>
       <r>   -4.1068    1.0000 </r>
       <r>   -3.8352    1.0000 </r>
       <r>   -3.5508    1.0000 </r>
       <r>   -3.3724    1.0000 </r>
       <r>   -3.2332    1.0000 </r>
       <r>   -3.1782    1.0000 </r>
       <r>   -2.9606    1.0000 </r>
       <r>   -2.8093    1.0000 </r>
       <r>   -2.6470    1.0000 </r>
       <r>   -2.5006    1.0000 </r>
       <r>   -2.4546    1.0000 </r>
       <r>   -2.4089    1.0000 </r>
       <r>   -2.3391    1.0000 </r>
       <r>   -2.2037    1.0000 </r>
       <r>   -2.0607    1.0000 </r>
       <r>   -2.0181    1.0000 </r>
       <r>   -1.9768    1.0000 </r>
       <r>   -1.7299    1.0000 </r>
       <r>   -1.6432    1.0000 </r>
       <r>   -1.4892    1.0000 </r>
       <r>   -1.4799    1.0000 </r>
       <r>   -1.4627    1.0000 </r>
       <r>   -1.2906    1.0000 </r>
       <r>   -1.1822    1.0000 </r>
       <r>   -1.0327    1.0000 </r>
       <r>   -0.6783    1.0000 </r>
       <r>    0.2823    0.9331 </r>
       <r>    0.4341    0.2587 </r>
       <r>    0.5403    0.0158 </r>
       <r>    0.8014    0.0000 </r>
       <r>    1.0993    0.0000 </r>
       <r>    1.2193    0.0000 </r>
       <r>    1.3223    0.0000 </r>
       <r>    1.3529    0.0000 </r>
       <r>    1.4515    0.0000 </r>
       <r>    1.6533    0.0000 </r>
       <r>    1.7667    0.0000 </r>
       <r>    2.1595    0.0000 </r>
       <r>    2.1958    0.0000 </r>
       <r>    2.4274    0.0000 </r>
       <r>    2.4937    0.0000 </r>
       <r>    2.5547    0.0000 </r>
      </set>
      <set comment="kpoint 9">
       <r>  -14.6109    1.0000 </r>
       <r>  -13.5109    1.0000 </r>
       <r>  -13.2131    1.0000 </r>
       <r>  -13.0555    1.0000 </r>
       <r>  -12.5416    1.0000 </r>
       <r>  -12.4576    1.0000 </r>
       <r>  -12.0038    1.0000 </r>
       <r>  -11.8701    1.0000 </r>
       <r>  -11.5383    1.0000 </r>
       <r>  -11.2435    1.0000 </r>
       <r>  -11.0566    1.0000 </r>
       <r>  -10.2525    1.0000 </r>
       <r>   -9.5073    1.0000 </r>
       <r>   -8.6757    1.0000 </r>
       <r>   -7.4550    1.0000 </r>
       <r>   -7.3190    1.0000 </r>
       <r>   -7.0957    1.0000 </r>
       <r>   -6.8559    1.0000 </r>
       <r>   -6.7792    1.0000 </r>
       <r>   -6.6237    1.0000 </r>
       <r>   -6.1423    1.0000 </r>
       <r>   -5.7992    1.0000 </r>
       <r>   -5.2769    1.0000 </r>
       <r>   -4.7919    1.0000 </r>
       <r>   -4.4556    1.0000 </r>
       <r>   -4.1998    1.0000 </r>
       <r>   -4.1300    1.0000 </r>
       <r>   -3.8329    1.0000 </r>
       <r>   -3.7126    1.0000 </r>
       <r>   -3.5308    1.0000 </r>
       <r>   -3.4905    1.0000 </r>
       <r>   -3.4070    1.0000 </r>
       <r>   -3.1232    1.0000 </r>
       <r>   -2.9636    1.0000 </r>
       <r>   -2.8802    1.0000 </r>
       <r>   -2.7871    1.0000 </r>
       <r>   -2.6208    1.0000 </r>
       <r>   -2.5667    1.0000 </r>
       <r>   -2.4603    1.0000 </r>
       <r>   -2.3867    1.0000 </r>
       <r>   -2.2692    1.0000 </r>
       <r>   -2.1887    1.0000 </r>
       <r>   -2.0972    1.0000 </r>
       <r>   -1.9383    1.0000 </r>
       <r>   -1.8805    1.0000 </r>
       <r>   -1.8467    1.0000 </r>
       <r>   -1.5585    1.0000 </r>
       <r>   -1.4110    1.0000 </r>
       <r>   -1.2325    1.0000 </r>
       <r>   -1.1178    1.0000 </r>
       <r>   -0.9891    1.0000 </r>
       <r>   -0.5865    1.0000 </r>
       <r>    0.3008    0.8921 </r>
       <r>    0.4900    0.0752 </r>
       <r>    0.6265    0.0004 </r>
       <r>    1.0784    0.0000 </r>
       <r>    1.1350    0.0000 </r>
       <r>    1.4341    0.0000 </r>
       <r>    1.5109    0.0000 </r>
       <r>    1.5894    0.0000 </r>
       <r>    1.7083    0.0000 </r>
       <r>    1.8780    0.0000 </r>
       <r>    2.1387    0.0000 </r>
       <r>    2.4282    0.0000 </r>
       <r>    2.5520    0.0000 </r>
       <r>    2.5746    0.0000 </r>
       <r>    2.8015    0.0000 </r>
       <r>    2.8382    0.0000 </r>
      </set>
      <set comment="kpoint 10">
       <r>  -14.4473    1.0000 </r>
       <r>  -13.3145    1.0000 </r>
       <r>  -13.0530    1.0000 </r>
       <r>  -12.9188    1.0000 </r>
       <r>  -12.3734    1.0000 </r>
       <r>  -12.2770    1.0000 </r>
       <r>  -11.8804    1.0000 </r>
       <r>  -11.6734    1.0000 </r>
       <r>  -11.3989    1.0000 </r>
       <r>  -11.0724    1.0000 </r>
       <r>  -10.9154    1.0000 </r>
       <r>  -10.2290    1.0000 </r>
       <r>   -9.4482    1.0000 </r>
       <r>   -8.7412    1.0000 </r>
       <r>   -7.8907    1.0000 </r>
       <r>   -7.4166    1.0000 </r>
       <r>   -7.0210    1.0000 </r>
       <r>   -6.7696    1.0000 </r>
       <r>   -6.7520    1.0000 </r>
       <r>   -6.5903    1.0000 </r>
       <r>   -6.0836    1.0000 </r>
       <r>   -5.7512    1.0000 </r>
       <r>   -5.3448    1.0000 </r>
       <r>   -4.9516    1.0000 </r>
       <r>   -4.9094    1.0000 </r>
       <r>   -4.4828    1.0000 </r>
       <r>   -4.4024    1.0000 </r>
       <r>   -4.3535    1.0000 </r>
       <r>   -4.0848    1.0000 </r>
       <r>   -3.8633    1.0000 </r>
       <r>   -3.8145    1.0000 </r>
       <r>   -3.7095    1.0000 </r>
       <r>   -3.5581    1.0000 </r>
       <r>   -3.2694    1.0000 </r>
       <r>   -3.1605    1.0000 </r>
       <r>   -3.0699    1.0000 </r>
       <r>   -3.0563    1.0000 </r>
       <r>   -2.9161    1.0000 </r>
       <r>   -2.8232    1.0000 </r>
       <r>   -2.7040    1.0000 </r>
       <r>   -2.6457    1.0000 </r>
       <r>   -2.4618    1.0000 </r>
       <r>   -2.4131    1.0000 </r>
       <r>   -2.2535    1.0000 </r>
       <r>   -2.0305    1.0000 </r>
       <r>   -1.9828    1.0000 </r>
       <r>   -1.6089    1.0000 </r>
       <r>   -1.4530    1.0000 </r>
       <r>   -1.2573    1.0000 </r>
       <r>   -1.0939    1.0000 </r>
       <r>   -1.0072    1.0000 </r>
       <r>   -0.3913    1.0000 </r>
       <r>    0.3350    0.7748 </r>
       <r>    0.4902    0.0748 </r>
       <r>    0.6095    0.0009 </r>
       <r>    0.7917    0.0000 </r>
       <r>    1.2443    0.0000 </r>
       <r>    1.5614    0.0000 </r>
       <r>    1.6743    0.0000 </r>
       <r>    1.9833    0.0000 </r>
       <r>    2.0690    0.0000 </r>
       <r>    2.2835    0.0000 </r>
       <r>    2.4786    0.0000 </r>
       <r>    2.6329    0.0000 </r>
       <r>    2.6781    0.0000 </r>
       <r>    2.8008    0.0000 </r>
       <r>    2.9524    0.0000 </r>
       <r>    3.0268    0.0000 </r>
      </set>
      <set comment="kpoint 11">
       <r>  -14.1804    1.0000 </r>
       <r>  -13.0033    1.0000 </r>
       <r>  -12.7871    1.0000 </r>
       <r>  -12.6673    1.0000 </r>
       <r>  -12.1051    1.0000 </r>
       <r>  -12.0083    1.0000 </r>
       <r>  -11.6653    1.0000 </r>
       <r>  -11.3972    1.0000 </r>
       <r>  -11.1772    1.0000 </r>
       <r>  -10.8334    1.0000 </r>
       <r>  -10.6983    1.0000 </r>
       <r>  -10.2393    1.0000 </r>
       <r>   -9.3664    1.0000 </r>
       <r>   -8.8725    1.0000 </r>
       <r>   -8.5390    1.0000 </r>
       <r>   -7.4992    1.0000 </r>
       <r>   -6.9906    1.0000 </r>
       <r>   -6.7990    1.0000 </r>
       <r>   -6.7568    1.0000 </r>
       <r>   -6.6680    1.0000 </r>
       <r>   -6.2004    1.0000 </r>
       <r>   -5.9208    1.0000 </r>
       <r>   -5.7506    1.0000 </r>
       <r>   -5.4249    1.0000 </r>
       <r>   -5.3110    1.0000 </r>
       <r>   -5.1283    1.0000 </r>
       <r>   -4.7729    1.0000 </r>
       <r>   -4.6694    1.0000 </r>
       <r>   -4.6167    1.0000 </r>
       <r>   -4.3330    1.0000 </r>
       <r>   -4.1936    1.0000 </r>
       <r>   -4.1033    1.0000 </r>
       <r>   -3.8431    1.0000 </r>
       <r>   -3.5937    1.0000 </r>
       <r>   -3.4162    1.0000 </r>
       <r>   -3.3126    1.0000 </r>
       <r>   -3.2535    1.0000 </r>
       <r>   -3.1912    1.0000 </r>
       <r>   -2.9397    1.0000 </r>
       <r>   -2.7712    1.0000 </r>
       <r>   -2.6946    1.0000 </r>
       <r>   -2.6270    1.0000 </r>
       <r>   -2.4676    1.0000 </r>
       <r>   -2.2927    1.0000 </r>
       <r>   -2.0908    1.0000 </r>
       <r>   -1.9847    1.0000 </r>
       <r>   -1.8746    1.0000 </r>
       <r>   -1.5385    1.0000 </r>
       <r>   -1.4955    1.0000 </r>
       <r>   -1.1599    1.0000 </r>
       <r>   -1.0877    1.0000 </r>
       <r>   -0.2616    1.0000 </r>
       <r>   -0.1120    1.0000 </r>
       <r>    0.3602    0.6547 </r>
       <r>    0.5095    0.0433 </r>
       <r>    0.7662    0.0000 </r>
       <r>    1.2198    0.0000 </r>
       <r>    1.3747    0.0000 </r>
       <r>    1.5142    0.0000 </r>
       <r>    1.6396    0.0000 </r>
       <r>    1.7631    0.0000 </r>
       <r>    1.9919    0.0000 </r>
       <r>    2.1863    0.0000 </r>
       <r>    2.3776    0.0000 </r>
       <r>    2.5045    0.0000 </r>
       <r>    2.6446    0.0000 </r>
       <r>    2.9402    0.0000 </r>
       <r>    3.1509    0.0000 </r>
      </set>
      <set comment="kpoint 12">
       <r>  -13.8212    1.0000 </r>
       <r>  -12.5870    1.0000 </r>
       <r>  -12.4341    1.0000 </r>
       <r>  -12.3080    1.0000 </r>
       <r>  -11.7567    1.0000 </r>
       <r>  -11.6994    1.0000 </r>
       <r>  -11.3824    1.0000 </r>
       <r>  -11.0841    1.0000 </r>
       <r>  -10.9136    1.0000 </r>
       <r>  -10.6587    1.0000 </r>
       <r>  -10.4935    1.0000 </r>
       <r>  -10.2631    1.0000 </r>
       <r>   -9.3159    1.0000 </r>
       <r>   -9.0815    1.0000 </r>
       <r>   -9.0702    1.0000 </r>
       <r>   -7.8111    1.0000 </r>
       <r>   -7.2212    1.0000 </r>
       <r>   -7.2105    1.0000 </r>
       <r>   -7.0649    1.0000 </r>
       <r>   -6.8402    1.0000 </r>
       <r>   -6.6183    1.0000 </r>
       <r>   -6.2910    1.0000 </r>
       <r>   -6.0964    1.0000 </r>
       <r>   -6.0210    1.0000 </r>
       <r>   -5.6959    1.0000 </r>
       <r>   -5.4776    1.0000 </r>
       <r>   -5.0435    1.0000 </r>
       <r>   -4.9611    1.0000 </r>
       <r>   -4.7483    1.0000 </r>
       <r>   -4.5242    1.0000 </r>
       <r>   -4.4258    1.0000 </r>
       <r>   -4.3270    1.0000 </r>
       <r>   -4.1102    1.0000 </r>
       <r>   -3.6782    1.0000 </r>
       <r>   -3.4406    1.0000 </r>
       <r>   -3.2751    1.0000 </r>
       <r>   -3.2435    1.0000 </r>
       <r>   -3.1067    1.0000 </r>
       <r>   -2.9780    1.0000 </r>
       <r>   -2.8523    1.0000 </r>
       <r>   -2.8173    1.0000 </r>
       <r>   -2.5951    1.0000 </r>
       <r>   -2.5081    1.0000 </r>
       <r>   -2.4133    1.0000 </r>
       <r>   -2.3088    1.0000 </r>
       <r>   -2.0604    1.0000 </r>
       <r>   -1.9785    1.0000 </r>
       <r>   -1.8454    1.0000 </r>
       <r>   -1.6809    1.0000 </r>
       <r>   -1.4146    1.0000 </r>
       <r>   -1.0894    1.0000 </r>
       <r>   -0.6909    1.0000 </r>
       <r>   -0.1245    1.0000 </r>
       <r>    0.1949    0.9969 </r>
       <r>    0.3446    0.7321 </r>
       <r>    0.4667    0.1338 </r>
       <r>    1.1034    0.0000 </r>
       <r>    1.1412    0.0000 </r>
       <r>    1.2484    0.0000 </r>
       <r>    1.3620    0.0000 </r>
       <r>    1.6520    0.0000 </r>
       <r>    1.8337    0.0000 </r>
       <r>    2.0888    0.0000 </r>
       <r>    2.1958    0.0000 </r>
       <r>    2.3514    0.0000 </r>
       <r>    2.4528    0.0000 </r>
       <r>    2.5277    0.0000 </r>
       <r>    2.8653    0.0000 </r>
      </set>
      <set comment="kpoint 13">
       <r>  -13.3961    1.0000 </r>
       <r>  -12.0867    1.0000 </r>
       <r>  -12.0691    1.0000 </r>
       <r>  -11.8577    1.0000 </r>
       <r>  -11.5150    1.0000 </r>
       <r>  -11.3530    1.0000 </r>
       <r>  -11.0966    1.0000 </r>
       <r>  -10.8271    1.0000 </r>
       <r>  -10.7343    1.0000 </r>
       <r>  -10.7028    1.0000 </r>
       <r>  -10.5689    1.0000 </r>
       <r>  -10.0511    1.0000 </r>
       <r>   -9.5215    1.0000 </r>
       <r>   -9.3200    1.0000 </r>
       <r>   -9.0612    1.0000 </r>
       <r>   -8.2147    1.0000 </r>
       <r>   -7.8797    1.0000 </r>
       <r>   -7.6417    1.0000 </r>
       <r>   -7.4602    1.0000 </r>
       <r>   -7.1777    1.0000 </r>
       <r>   -7.0025    1.0000 </r>
       <r>   -6.7980    1.0000 </r>
       <r>   -6.7586    1.0000 </r>
       <r>   -6.5337    1.0000 </r>
       <r>   -5.6123    1.0000 </r>
       <r>   -5.4419    1.0000 </r>
       <r>   -5.1593    1.0000 </r>
       <r>   -4.9150    1.0000 </r>
       <r>   -4.8799    1.0000 </r>
       <r>   -4.5145    1.0000 </r>
       <r>   -4.2265    1.0000 </r>
       <r>   -4.1500    1.0000 </r>
       <r>   -3.9618    1.0000 </r>
       <r>   -3.6918    1.0000 </r>
       <r>   -3.4518    1.0000 </r>
       <r>   -3.3871    1.0000 </r>
       <r>   -3.3148    1.0000 </r>
       <r>   -3.2224    1.0000 </r>
       <r>   -3.1504    1.0000 </r>
       <r>   -3.0196    1.0000 </r>
       <r>   -2.9312    1.0000 </r>
       <r>   -2.7394    1.0000 </r>
       <r>   -2.5578    1.0000 </r>
       <r>   -2.3987    1.0000 </r>
       <r>   -2.3457    1.0000 </r>
       <r>   -2.2362    1.0000 </r>
       <r>   -2.1680    1.0000 </r>
       <r>   -1.9600    1.0000 </r>
       <r>   -1.7834    1.0000 </r>
       <r>   -1.5652    1.0000 </r>
       <r>   -1.2162    1.0000 </r>
       <r>   -1.0872    1.0000 </r>
       <r>   -0.1569    1.0000 </r>
       <r>    0.1552    0.9995 </r>
       <r>    0.2290    0.9879 </r>
       <r>    0.2676    0.9561 </r>
       <r>    1.0591    0.0000 </r>
       <r>    1.1138    0.0000 </r>
       <r>    1.1457    0.0000 </r>
       <r>    1.2539    0.0000 </r>
       <r>    1.5222    0.0000 </r>
       <r>    1.7189    0.0000 </r>
       <r>    1.8013    0.0000 </r>
       <r>    1.9595    0.0000 </r>
       <r>    2.0882    0.0000 </r>
       <r>    2.4255    0.0000 </r>
       <r>    2.5301    0.0000 </r>
       <r>    2.5867    0.0000 </r>
      </set>
      <set comment="kpoint 14">
       <r>  -13.0007    1.0000 </r>
       <r>  -12.0427    1.0000 </r>
       <r>  -11.5345    1.0000 </r>
       <r>  -11.3623    1.0000 </r>
       <r>  -11.3349    1.0000 </r>
       <r>  -11.0666    1.0000 </r>
       <r>  -10.9931    1.0000 </r>
       <r>  -10.9610    1.0000 </r>
       <r>  -10.8002    1.0000 </r>
       <r>  -10.6891    1.0000 </r>
       <r>  -10.6826    1.0000 </r>
       <r>   -9.8209    1.0000 </r>
       <r>   -9.7248    1.0000 </r>
       <r>   -9.5137    1.0000 </r>
       <r>   -8.6549    1.0000 </r>
       <r>   -8.5002    1.0000 </r>
       <r>   -8.4308    1.0000 </r>
       <r>   -7.8918    1.0000 </r>
       <r>   -7.6190    1.0000 </r>
       <r>   -7.4184    1.0000 </r>
       <r>   -7.3863    1.0000 </r>
       <r>   -7.3013    1.0000 </r>
       <r>   -7.2364    1.0000 </r>
       <r>   -6.8170    1.0000 </r>
       <r>   -5.5079    1.0000 </r>
       <r>   -5.3151    1.0000 </r>
       <r>   -5.1208    1.0000 </r>
       <r>   -4.6281    1.0000 </r>
       <r>   -4.5507    1.0000 </r>
       <r>   -4.2811    1.0000 </r>
       <r>   -4.2505    1.0000 </r>
       <r>   -4.0379    1.0000 </r>
       <r>   -4.0104    1.0000 </r>
       <r>   -3.8658    1.0000 </r>
       <r>   -3.7579    1.0000 </r>
       <r>   -3.6056    1.0000 </r>
       <r>   -3.5735    1.0000 </r>
       <r>   -3.3585    1.0000 </r>
       <r>   -3.0963    1.0000 </r>
       <r>   -2.9212    1.0000 </r>
       <r>   -2.8835    1.0000 </r>
       <r>   -2.7412    1.0000 </r>
       <r>   -2.7029    1.0000 </r>
       <r>   -2.6424    1.0000 </r>
       <r>   -2.3390    1.0000 </r>
       <r>   -2.2602    1.0000 </r>
       <r>   -2.2153    1.0000 </r>
       <r>   -1.9706    1.0000 </r>
       <r>   -1.7983    1.0000 </r>
       <r>   -1.6519    1.0000 </r>
       <r>   -1.4587    1.0000 </r>
       <r>   -1.1704    1.0000 </r>
       <r>   -0.1746    1.0000 </r>
       <r>   -0.0276    1.0000 </r>
       <r>    0.1757    0.9987 </r>
       <r>    0.4981    0.0603 </r>
       <r>    0.9887    0.0000 </r>
       <r>    1.1274    0.0000 </r>
       <r>    1.3053    0.0000 </r>
       <r>    1.4122    0.0000 </r>
       <r>    1.4357    0.0000 </r>
       <r>    1.4886    0.0000 </r>
       <r>    1.6937    0.0000 </r>
       <r>    1.8928    0.0000 </r>
       <r>    2.0550    0.0000 </r>
       <r>    2.3062    0.0000 </r>
       <r>    2.3549    0.0000 </r>
       <r>    2.3801    0.0000 </r>
      </set>
      <set comment="kpoint 15">
       <r>  -13.0022    1.0000 </r>
       <r>  -12.0425    1.0000 </r>
       <r>  -11.6375    1.0000 </r>
       <r>  -11.3001    1.0000 </r>
       <r>  -11.1702    1.0000 </r>
       <r>  -11.0465    1.0000 </r>
       <r>  -11.0214    1.0000 </r>
       <r>  -10.9078    1.0000 </r>
       <r>  -10.8593    1.0000 </r>
       <r>  -10.8030    1.0000 </r>
       <r>  -10.6899    1.0000 </r>
       <r>   -9.8400    1.0000 </r>
       <r>   -9.7232    1.0000 </r>
       <r>   -9.4955    1.0000 </r>
       <r>   -8.8567    1.0000 </r>
       <r>   -8.5360    1.0000 </r>
       <r>   -8.0458    1.0000 </r>
       <r>   -7.8789    1.0000 </r>
       <r>   -7.7060    1.0000 </r>
       <r>   -7.4603    1.0000 </r>
       <r>   -7.3804    1.0000 </r>
       <r>   -7.3202    1.0000 </r>
       <r>   -7.2371    1.0000 </r>
       <r>   -6.8069    1.0000 </r>
       <r>   -5.4615    1.0000 </r>
       <r>   -5.3444    1.0000 </r>
       <r>   -4.8557    1.0000 </r>
       <r>   -4.6869    1.0000 </r>
       <r>   -4.5598    1.0000 </r>
       <r>   -4.4154    1.0000 </r>
       <r>   -4.2079    1.0000 </r>
       <r>   -4.0909    1.0000 </r>
       <r>   -4.0841    1.0000 </r>
       <r>   -3.9853    1.0000 </r>
       <r>   -3.8330    1.0000 </r>
       <r>   -3.7369    1.0000 </r>
       <r>   -3.5325    1.0000 </r>
       <r>   -3.4548    1.0000 </r>
       <r>   -2.9558    1.0000 </r>
       <r>   -2.8638    1.0000 </r>
       <r>   -2.8467    1.0000 </r>
       <r>   -2.7807    1.0000 </r>
       <r>   -2.6076    1.0000 </r>
       <r>   -2.4894    1.0000 </r>
       <r>   -2.4330    1.0000 </r>
       <r>   -2.2672    1.0000 </r>
       <r>   -2.2174    1.0000 </r>
       <r>   -2.0549    1.0000 </r>
       <r>   -1.8007    1.0000 </r>
       <r>   -1.5949    1.0000 </r>
       <r>   -1.4487    1.0000 </r>
       <r>   -1.1887    1.0000 </r>
       <r>   -0.2141    1.0000 </r>
       <r>   -0.0335    1.0000 </r>
       <r>    0.2713    0.9511 </r>
       <r>    0.5231    0.0283 </r>
       <r>    1.0554    0.0000 </r>
       <r>    1.2174    0.0000 </r>
       <r>    1.2838    0.0000 </r>
       <r>    1.3667    0.0000 </r>
       <r>    1.5562    0.0000 </r>
       <r>    1.6818    0.0000 </r>
       <r>    1.7128    0.0000 </r>
       <r>    1.9983    0.0000 </r>
       <r>    2.1820    0.0000 </r>
       <r>    2.2771    0.0000 </r>
       <r>    2.3050    0.0000 </r>
       <r>    2.4982    0.0000 </r>
      </set>
      <set comment="kpoint 16">
       <r>  -13.3994    1.0000 </r>
       <r>  -12.2039    1.0000 </r>
       <r>  -12.0494    1.0000 </r>
       <r>  -11.5845    1.0000 </r>
       <r>  -11.5071    1.0000 </r>
       <r>  -11.3509    1.0000 </r>
       <r>  -11.1541    1.0000 </r>
       <r>  -11.0350    1.0000 </r>
       <r>  -10.7291    1.0000 </r>
       <r>  -10.7070    1.0000 </r>
       <r>  -10.5521    1.0000 </r>
       <r>  -10.0557    1.0000 </r>
       <r>   -9.5578    1.0000 </r>
       <r>   -9.2850    1.0000 </r>
       <r>   -8.8430    1.0000 </r>
       <r>   -8.5927    1.0000 </r>
       <r>   -7.5841    1.0000 </r>
       <r>   -7.5404    1.0000 </r>
       <r>   -7.4312    1.0000 </r>
       <r>   -7.2891    1.0000 </r>
       <r>   -6.9376    1.0000 </r>
       <r>   -6.9069    1.0000 </r>
       <r>   -6.7688    1.0000 </r>
       <r>   -6.5332    1.0000 </r>
       <r>   -5.5589    1.0000 </r>
       <r>   -5.1721    1.0000 </r>
       <r>   -5.1463    1.0000 </r>
       <r>   -4.9733    1.0000 </r>
       <r>   -4.7999    1.0000 </r>
       <r>   -4.4993    1.0000 </r>
       <r>   -4.3612    1.0000 </r>
       <r>   -4.2990    1.0000 </r>
       <r>   -4.1952    1.0000 </r>
       <r>   -3.8313    1.0000 </r>
       <r>   -3.6348    1.0000 </r>
       <r>   -3.5075    1.0000 </r>
       <r>   -3.3353    1.0000 </r>
       <r>   -3.2756    1.0000 </r>
       <r>   -3.1305    1.0000 </r>
       <r>   -2.8552    1.0000 </r>
       <r>   -2.8077    1.0000 </r>
       <r>   -2.6313    1.0000 </r>
       <r>   -2.5933    1.0000 </r>
       <r>   -2.5027    1.0000 </r>
       <r>   -2.3387    1.0000 </r>
       <r>   -2.1869    1.0000 </r>
       <r>   -2.0430    1.0000 </r>
       <r>   -1.9313    1.0000 </r>
       <r>   -1.7584    1.0000 </r>
       <r>   -1.4987    1.0000 </r>
       <r>   -1.2910    1.0000 </r>
       <r>   -1.1426    1.0000 </r>
       <r>   -0.1924    1.0000 </r>
       <r>    0.1643    0.9992 </r>
       <r>    0.3267    0.8083 </r>
       <r>    0.3872    0.5065 </r>
       <r>    1.0824    0.0000 </r>
       <r>    1.2932    0.0000 </r>
       <r>    1.3655    0.0000 </r>
       <r>    1.5036    0.0000 </r>
       <r>    1.7125    0.0000 </r>
       <r>    1.8004    0.0000 </r>
       <r>    2.0283    0.0000 </r>
       <r>    2.0751    0.0000 </r>
       <r>    2.2437    0.0000 </r>
       <r>    2.3306    0.0000 </r>
       <r>    2.5111    0.0000 </r>
       <r>    2.5537    0.0000 </r>
      </set>
      <set comment="kpoint 17">
       <r>  -13.8251    1.0000 </r>
       <r>  -12.6979    1.0000 </r>
       <r>  -12.3910    1.0000 </r>
       <r>  -12.0470    1.0000 </r>
       <r>  -11.8217    1.0000 </r>
       <r>  -11.7425    1.0000 </r>
       <r>  -11.3449    1.0000 </r>
       <r>  -11.2162    1.0000 </r>
       <r>  -10.8787    1.0000 </r>
       <r>  -10.8703    1.0000 </r>
       <r>  -10.5226    1.0000 </r>
       <r>  -10.1388    1.0000 </r>
       <r>   -9.3008    1.0000 </r>
       <r>   -9.1030    1.0000 </r>
       <r>   -8.6563    1.0000 </r>
       <r>   -8.2893    1.0000 </r>
       <r>   -7.1648    1.0000 </r>
       <r>   -7.1049    1.0000 </r>
       <r>   -6.9737    1.0000 </r>
       <r>   -6.9080    1.0000 </r>
       <r>   -6.5121    1.0000 </r>
       <r>   -6.2752    1.0000 </r>
       <r>   -6.2431    1.0000 </r>
       <r>   -6.0754    1.0000 </r>
       <r>   -5.6009    1.0000 </r>
       <r>   -5.2505    1.0000 </r>
       <r>   -5.0047    1.0000 </r>
       <r>   -4.9019    1.0000 </r>
       <r>   -4.7460    1.0000 </r>
       <r>   -4.6640    1.0000 </r>
       <r>   -4.4163    1.0000 </r>
       <r>   -4.3904    1.0000 </r>
       <r>   -4.3359    1.0000 </r>
       <r>   -3.6971    1.0000 </r>
       <r>   -3.5563    1.0000 </r>
       <r>   -3.3640    1.0000 </r>
       <r>   -3.2900    1.0000 </r>
       <r>   -3.1787    1.0000 </r>
       <r>   -3.0475    1.0000 </r>
       <r>   -2.8653    1.0000 </r>
       <r>   -2.7186    1.0000 </r>
       <r>   -2.6700    1.0000 </r>
       <r>   -2.5037    1.0000 </r>
       <r>   -2.4408    1.0000 </r>
       <r>   -2.1226    1.0000 </r>
       <r>   -1.9776    1.0000 </r>
       <r>   -1.9629    1.0000 </r>
       <r>   -1.8066    1.0000 </r>
       <r>   -1.5910    1.0000 </r>
       <r>   -1.4147    1.0000 </r>
       <r>   -1.0827    1.0000 </r>
       <r>   -0.8505    1.0000 </r>
       <r>   -0.0817    1.0000 </r>
       <r>    0.2961    0.9041 </r>
       <r>    0.3786    0.5545 </r>
       <r>    0.4791    0.0996 </r>
       <r>    1.1231    0.0000 </r>
       <r>    1.4092    0.0000 </r>
       <r>    1.5472    0.0000 </r>
       <r>    1.7429    0.0000 </r>
       <r>    1.8610    0.0000 </r>
       <r>    1.9030    0.0000 </r>
       <r>    2.0988    0.0000 </r>
       <r>    2.2322    0.0000 </r>
       <r>    2.3007    0.0000 </r>
       <r>    2.5731    0.0000 </r>
       <r>    2.6349    0.0000 </r>
       <r>    2.6933    0.0000 </r>
      </set>
      <set comment="kpoint 18">
       <r>  -14.1841    1.0000 </r>
       <r>  -13.0932    1.0000 </r>
       <r>  -12.7447    1.0000 </r>
       <r>  -12.4516    1.0000 </r>
       <r>  -12.1481    1.0000 </r>
       <r>  -12.0875    1.0000 </r>
       <r>  -11.6401    1.0000 </r>
       <r>  -11.4846    1.0000 </r>
       <r>  -11.1302    1.0000 </r>
       <r>  -11.0329    1.0000 </r>
       <r>  -10.7007    1.0000 </r>
       <r>  -10.1478    1.0000 </r>
       <r>   -9.3157    1.0000 </r>
       <r>   -8.5704    1.0000 </r>
       <r>   -8.5005    1.0000 </r>
       <r>   -7.8855    1.0000 </r>
       <r>   -6.9781    1.0000 </r>
       <r>   -6.8114    1.0000 </r>
       <r>   -6.7403    1.0000 </r>
       <r>   -6.6289    1.0000 </r>
       <r>   -6.2608    1.0000 </r>
       <r>   -5.8495    1.0000 </r>
       <r>   -5.8327    1.0000 </r>
       <r>   -5.4365    1.0000 </r>
       <r>   -5.3254    1.0000 </r>
       <r>   -4.9328    1.0000 </r>
       <r>   -4.7030    1.0000 </r>
       <r>   -4.6388    1.0000 </r>
       <r>   -4.5959    1.0000 </r>
       <r>   -4.3060    1.0000 </r>
       <r>   -4.2301    1.0000 </r>
       <r>   -4.1228    1.0000 </r>
       <r>   -3.8824    1.0000 </r>
       <r>   -3.7209    1.0000 </r>
       <r>   -3.5477    1.0000 </r>
       <r>   -3.4815    1.0000 </r>
       <r>   -3.2854    1.0000 </r>
       <r>   -3.0980    1.0000 </r>
       <r>   -3.0644    1.0000 </r>
       <r>   -2.7573    1.0000 </r>
       <r>   -2.6620    1.0000 </r>
       <r>   -2.5393    1.0000 </r>
       <r>   -2.4515    1.0000 </r>
       <r>   -2.2557    1.0000 </r>
       <r>   -1.9952    1.0000 </r>
       <r>   -1.9272    1.0000 </r>
       <r>   -1.8465    1.0000 </r>
       <r>   -1.5729    1.0000 </r>
       <r>   -1.5212    1.0000 </r>
       <r>   -1.2038    1.0000 </r>
       <r>   -1.0264    1.0000 </r>
[...]
       <r>    2.6223    0.0000 </r>
      </set>
      <set comment="kpoint 54">
       <r>  -13.0013    1.0000 </r>
       <r>  -12.0426    1.0000 </r>
       <r>  -11.5928    1.0000 </r>
       <r>  -11.3207    1.0000 </r>
       <r>  -11.2686    1.0000 </r>
       <r>  -11.0583    1.0000 </r>
       <r>  -11.0053    1.0000 </r>
       <r>  -10.9479    1.0000 </r>
       <r>  -10.8230    1.0000 </r>
       <r>  -10.7231    1.0000 </r>
       <r>  -10.6894    1.0000 </r>
       <r>   -9.8280    1.0000 </r>
       <r>   -9.7264    1.0000 </r>
       <r>   -9.5043    1.0000 </r>
       <r>   -8.7652    1.0000 </r>
       <r>   -8.5426    1.0000 </r>
       <r>   -8.2205    1.0000 </r>
       <r>   -7.8873    1.0000 </r>
       <r>   -7.6626    1.0000 </r>
       <r>   -7.4238    1.0000 </r>
       <r>   -7.3917    1.0000 </r>
       <r>   -7.2765    1.0000 </r>
       <r>   -7.2601    1.0000 </r>
       <r>   -6.8122    1.0000 </r>
       <r>   -5.4817    1.0000 </r>
       <r>   -5.3371    1.0000 </r>
       <r>   -5.0498    1.0000 </r>
       <r>   -4.6120    1.0000 </r>
       <r>   -4.5673    1.0000 </r>
       <r>   -4.3265    1.0000 </r>
       <r>   -4.2103    1.0000 </r>
       <r>   -4.0914    1.0000 </r>
       <r>   -4.0247    1.0000 </r>
       <r>   -3.8685    1.0000 </r>
       <r>   -3.8371    1.0000 </r>
       <r>   -3.6591    1.0000 </r>
       <r>   -3.5690    1.0000 </r>
       <r>   -3.3566    1.0000 </r>
       <r>   -3.1337    1.0000 </r>
       <r>   -2.9029    1.0000 </r>
       <r>   -2.8570    1.0000 </r>
       <r>   -2.7789    1.0000 </r>
       <r>   -2.6776    1.0000 </r>
       <r>   -2.4738    1.0000 </r>
       <r>   -2.3771    1.0000 </r>
       <r>   -2.2878    1.0000 </r>
       <r>   -2.2017    1.0000 </r>
       <r>   -2.0049    1.0000 </r>
       <r>   -1.8114    1.0000 </r>
       <r>   -1.6234    1.0000 </r>
       <r>   -1.4446    1.0000 </r>
       <r>   -1.1820    1.0000 </r>
       <r>   -0.1943    1.0000 </r>
       <r>   -0.0205    1.0000 </r>
       <r>    0.1915    0.9973 </r>
       <r>    0.5112    0.0412 </r>
       <r>    1.0633    0.0000 </r>
       <r>    1.1304    0.0000 </r>
       <r>    1.2428    0.0000 </r>
       <r>    1.4121    0.0000 </r>
       <r>    1.5027    0.0000 </r>
       <r>    1.5665    0.0000 </r>
       <r>    1.7874    0.0000 </r>
       <r>    1.9057    0.0000 </r>
       <r>    1.9899    0.0000 </r>
       <r>    2.2715    0.0000 </r>
       <r>    2.2993    0.0000 </r>
       <r>    2.4012    0.0000 </r>
      </set>
     </set>
    </set>
   </array>
  </eigenvalues>
  <separator name="orbital magnetization" >
   <v name="MAGDIPOLOUT">      0.00000000      0.00000000      0.00000000</v>
  </separator>
  <dos>
   <i name="efermi">      0.38833597 </i>
   <total>
    <array>
     <dimension dim="1">gridpoints</dimension>
     <dimension dim="2">spin</dimension>
     <field>energy</field>
     <field>total</field>
     <field>integrated</field>
     <set>
      <set comment="spin 1">
       <r>   -15.6697     0.0000     0.0000 </r>
       <r>   -15.6036     0.0000     0.0000 </r>
       <r>   -15.5375     0.0000     0.0000 </r>
       <r>   -15.4714     0.0000     0.0000 </r>
       <r>   -15.4052     0.0000     0.0000 </r>
       <r>   -15.3391     0.0000     0.0000 </r>
       <r>   -15.2730     0.0000     0.0000 </r>
       <r>   -15.2069     0.0000     0.0000 </r>
       <r>   -15.1407     0.0000     0.0000 </r>
       <r>   -15.0746     0.0000     0.0000 </r>
       <r>   -15.0085     0.0000     0.0000 </r>
       <r>   -14.9424     0.0001     0.0000 </r>
       <r>   -14.8762     0.0038     0.0003 </r>
       <r>   -14.8101     0.0571     0.0040 </r>
       <r>   -14.7440     0.4002     0.0305 </r>
       <r>   -14.6778     1.3701     0.1211 </r>
       <r>   -14.6117     2.3597     0.2771 </r>
       <r>   -14.5456     2.2693     0.4272 </r>
       <r>   -14.4795     1.9100     0.5535 </r>
       <r>   -14.4133     1.8165     0.6736 </r>
       <r>   -14.3472     1.1390     0.7489 </r>
       <r>   -14.2811     0.6434     0.7915 </r>
       <r>   -14.2150     1.1595     0.8681 </r>
       <r>   -14.1488     1.6763     0.9790 </r>
       <r>   -14.0827     1.1109     1.0524 </r>
       <r>   -14.0166     0.3400     1.0749 </r>
       <r>   -13.9505     0.1949     1.0878 </r>
       <r>   -13.8843     0.7360     1.1365 </r>
       <r>   -13.8182     1.5607     1.2397 </r>
       <r>   -13.7521     1.5174     1.3400 </r>
       <r>   -13.6860     0.9208     1.4009 </r>
       <r>   -13.6198     1.0907     1.4731 </r>
       <r>   -13.5537     1.8221     1.5935 </r>
       <r>   -13.4876     2.4416     1.7550 </r>
       <r>   -13.4215     3.2123     1.9674 </r>
       <r>   -13.3553     3.7863     2.2178 </r>
       <r>   -13.2892     3.7415     2.4652 </r>
       <r>   -13.2231     3.8359     2.7189 </r>
       <r>   -13.1569     3.9150     2.9777 </r>
       <r>   -13.0908     4.4934     3.2749 </r>
       <r>   -13.0247     5.9565     3.6687 </r>
       <r>   -12.9586     5.9723     4.0637 </r>
       <r>   -12.8924     3.9428     4.3244 </r>
       <r>   -12.8263     2.7022     4.5031 </r>
       <r>   -12.7602     3.2677     4.7192 </r>
       <r>   -12.6941     4.2968     5.0033 </r>
       <r>   -12.6279     4.9231     5.3288 </r>
       <r>   -12.5618     5.3738     5.6842 </r>
       <r>   -12.4957     5.7785     6.0663 </r>
       <r>   -12.4296     6.3488     6.4861 </r>
       <r>   -12.3634     6.4566     6.9131 </r>
       <r>   -12.2973     5.2155     7.2579 </r>
       <r>   -12.2312     4.2939     7.5419 </r>
       <r>   -12.1651     5.4613     7.9030 </r>
       <r>   -12.0989     8.1295     8.4406 </r>
       <r>   -12.0328     9.6305     9.0774 </r>
       <r>   -11.9667     8.2363     9.6221 </r>
       <r>   -11.9006     6.0876    10.0246 </r>
       <r>   -11.8344     5.5115    10.3891 </r>
       <r>   -11.7683     6.2919    10.8051 </r>
       <r>   -11.7022     7.3641    11.2921 </r>
       <r>   -11.6360     7.8282    11.8097 </r>
       <r>   -11.5699     7.8138    12.3264 </r>
       <r>   -11.5038     7.7193    12.8369 </r>
       <r>   -11.4377     7.7585    13.3499 </r>
       <r>   -11.3715     9.0438    13.9479 </r>
       <r>   -11.3054    10.1005    14.6158 </r>
       <r>   -11.2393     9.0864    15.2167 </r>
       <r>   -11.1732     8.5744    15.7837 </r>
       <r>   -11.1070    10.0453    16.4479 </r>
       <r>   -11.0409    11.3544    17.1988 </r>
       <r>   -10.9748    10.7859    17.9120 </r>
       <r>   -10.9087     9.9187    18.5679 </r>
       <r>   -10.8425     9.5761    19.2011 </r>
       <r>   -10.7764     9.4370    19.8251 </r>
       <r>   -10.7103    10.1600    20.4970 </r>
       <r>   -10.6442     9.1036    21.0990 </r>
       <r>   -10.5780     5.9241    21.4907 </r>
       <r>   -10.5119     3.9982    21.7551 </r>
       <r>   -10.4458     2.5934    21.9266 </r>
       <r>   -10.3797     1.4621    22.0233 </r>
       <r>   -10.3135     2.4232    22.1835 </r>
       <r>   -10.2474     5.1109    22.5215 </r>
       <r>   -10.1813     6.3480    22.9412 </r>
       <r>   -10.1151     5.1688    23.2830 </r>
       <r>   -10.0490     3.4773    23.5130 </r>
       <r>    -9.9829     1.9935    23.6448 </r>
       <r>    -9.9168     1.1231    23.7190 </r>
       <r>    -9.8506     1.5527    23.8217 </r>
       <r>    -9.7845     2.4132    23.9813 </r>
       <r>    -9.7184     2.5736    24.1515 </r>
       <r>    -9.6523     2.2071    24.2974 </r>
       <r>    -9.5861     2.9392    24.4918 </r>
       <r>    -9.5200     5.3640    24.8465 </r>
       <r>    -9.4539     6.6393    25.2855 </r>
       <r>    -9.3878     6.1551    25.6925 </r>
       <r>    -9.3216     6.0169    26.0904 </r>
       <r>    -9.2555     5.0388    26.4236 </r>
       <r>    -9.1894     2.8142    26.6097 </r>
       <r>    -9.1233     2.2184    26.7564 </r>
       <r>    -9.0571     3.0677    26.9592 </r>
       <r>    -8.9910     3.0272    27.1594 </r>
       <r>    -8.9249     2.6753    27.3363 </r>
       <r>    -8.8588     3.3280    27.5564 </r>
       <r>    -8.7926     3.9074    27.8148 </r>
       <r>    -8.7265     3.5825    28.0517 </r>
       <r>    -8.6604     3.4481    28.2797 </r>
       <r>    -8.5942     4.4659    28.5750 </r>
       <r>    -8.5281     5.7692    28.9565 </r>
       <r>    -8.4620     5.3309    29.3090 </r>
       <r>    -8.3959     3.3290    29.5291 </r>
       <r>    -8.3297     2.0074    29.6619 </r>
       <r>    -8.2636     2.1446    29.8037 </r>
       <r>    -8.1975     2.7152    29.9832 </r>
       <r>    -8.1314     2.4497    30.1452 </r>
       <r>    -8.0652     1.5864    30.2501 </r>
       <r>    -7.9991     1.7387    30.3651 </r>
       <r>    -7.9330     3.9294    30.6249 </r>
       <r>    -7.8669     6.1459    31.0313 </r>
       <r>    -7.8007     5.1304    31.3706 </r>
       <r>    -7.7346     3.2310    31.5843 </r>
       <r>    -7.6685     3.5306    31.8177 </r>
       <r>    -7.6024     4.7652    32.1328 </r>
       <r>    -7.5362     5.7147    32.5107 </r>
       <r>    -7.4701     6.9587    32.9709 </r>
       <r>    -7.4040     8.2482    33.5163 </r>
       <r>    -7.3379     8.7590    34.0955 </r>
       <r>    -7.2717     8.7781    34.6760 </r>
       <r>    -7.2056     8.5450    35.2410 </r>
       <r>    -7.1395     8.2439    35.7861 </r>
       <r>    -7.0733     8.7292    36.3634 </r>
       <r>    -7.0072     9.8417    37.0142 </r>
       <r>    -6.9411    10.5589    37.7124 </r>
       <r>    -6.8750    11.6297    38.4814 </r>
       <r>    -6.8088    13.9536    39.4041 </r>
       <r>    -6.7427    14.4729    40.3611 </r>
       <r>    -6.6766    11.6903    41.1342 </r>
       <r>    -6.6105     8.8892    41.7220 </r>
       <r>    -6.5443     7.0142    42.1858 </r>
       <r>    -6.4782     4.7863    42.5023 </r>
       <r>    -6.4121     2.7988    42.6874 </r>
       <r>    -6.3460     2.8230    42.8741 </r>
       <r>    -6.2798     4.8275    43.1933 </r>
       <r>    -6.2137     6.2518    43.6067 </r>
       <r>    -6.1476     5.4950    43.9701 </r>
       <r>    -6.0815     4.3842    44.2600 </r>
       <r>    -6.0153     3.9829    44.5233 </r>
       <r>    -5.9492     3.9920    44.7873 </r>
       <r>    -5.8831     4.6560    45.0952 </r>
       <r>    -5.8170     5.5300    45.4609 </r>
       <r>    -5.7508     5.4902    45.8239 </r>
       <r>    -5.6847     4.7687    46.1392 </r>
       <r>    -5.6186     4.3661    46.4280 </r>
       <r>    -5.5524     4.5996    46.7321 </r>
       <r>    -5.4863     5.7820    47.1145 </r>
       <r>    -5.4202     7.2010    47.5906 </r>
       <r>    -5.3541     7.5266    48.0883 </r>
       <r>    -5.2879     7.1524    48.5613 </r>
       <r>    -5.2218     6.3657    48.9822 </r>
       <r>    -5.1557     6.4264    49.4072 </r>
       <r>    -5.0896     7.0927    49.8762 </r>
       <r>    -5.0234     7.7058    50.3857 </r>
       <r>    -4.9573     8.8698    50.9723 </r>
       <r>    -4.8912     9.3544    51.5908 </r>
       <r>    -4.8251     8.5311    52.1550 </r>
       <r>    -4.7589     8.1598    52.6945 </r>
       <r>    -4.6928     8.8082    53.2770 </r>
       <r>    -4.6267     9.7465    53.9215 </r>
       <r>    -4.5606     9.9962    54.5825 </r>
       <r>    -4.4944     9.5408    55.2134 </r>
       <r>    -4.4283    10.0757    55.8797 </r>
       <r>    -4.3622    12.0646    56.6775 </r>
       <r>    -4.2961    13.4464    57.5666 </r>
       <r>    -4.2299    13.7980    58.4790 </r>
       <r>    -4.1638    14.5117    59.4386 </r>
       <r>    -4.0977    14.0527    60.3679 </r>
       <r>    -4.0315    11.2058    61.1089 </r>
       <r>    -3.9654     8.2910    61.6571 </r>
       <r>    -3.8993     8.3986    62.2125 </r>
       <r>    -3.8332    10.9437    62.9362 </r>
       <r>    -3.7670    12.3102    63.7502 </r>
       <r>    -3.7009    12.3536    64.5671 </r>
       <r>    -3.6348    12.4577    65.3909 </r>
       <r>    -3.5687    12.9245    66.2455 </r>
       <r>    -3.5025    13.0484    67.1083 </r>
       <r>    -3.4364    12.3788    67.9269 </r>
       <r>    -3.3703    13.2925    68.8059 </r>
       <r>    -3.3042    15.3849    69.8232 </r>
       <r>    -3.2380    16.2163    70.8955 </r>
       <r>    -3.1719    15.8164    71.9414 </r>
       <r>    -3.1058    15.0169    72.9344 </r>
       <r>    -3.0397    13.7197    73.8417 </r>
       <r>    -2.9735    13.0945    74.7075 </r>
       <r>    -2.9074    14.6750    75.6779 </r>
       <r>    -2.8413    17.1365    76.8111 </r>
       <r>    -2.7752    17.8560    77.9919 </r>
       <r>    -2.7090    17.2193    79.1305 </r>
       <r>    -2.6429    17.0850    80.2603 </r>
       <r>    -2.5768    16.6577    81.3618 </r>
       <r>    -2.5106    17.0302    82.4879 </r>
       <r>    -2.4445    18.5968    83.7177 </r>
       <r>    -2.3784    18.0459    84.9110 </r>
       <r>    -2.3123    16.1903    85.9816 </r>
       <r>    -2.2461    15.8758    87.0314 </r>
       <r>    -2.1800    15.3863    88.0488 </r>
       <r>    -2.1139    13.8973    88.9678 </r>
       <r>    -2.0478    14.2629    89.9109 </r>
       <r>    -1.9816    16.1791    90.9808 </r>
       <r>    -1.9155    16.1741    92.0503 </r>
       <r>    -1.8494    14.4894    93.0084 </r>
       <r>    -1.7833    12.3078    93.8223 </r>
       <r>    -1.7171     9.4697    94.4485 </r>
       <r>    -1.6510     8.4371    95.0064 </r>
       <r>    -1.5849    10.6316    95.7094 </r>
       <r>    -1.5188    13.2859    96.5880 </r>
       <r>    -1.4526    13.1899    97.4602 </r>
       <r>    -1.3865    10.1737    98.1329 </r>
       <r>    -1.3204     7.5941    98.6351 </r>
       <r>    -1.2543     8.1998    99.1773 </r>
       <r>    -1.1881    10.1556    99.8489 </r>
       <r>    -1.1220    11.6335   100.6182 </r>
       <r>    -1.0559    12.0875   101.4175 </r>
       <r>    -0.9897    10.1076   102.0858 </r>
       <r>    -0.9236     5.9844   102.4816 </r>
       <r>    -0.8575     2.6470   102.6566 </r>
       <r>    -0.7914     1.5333   102.7580 </r>
       <r>    -0.7252     1.7078   102.8709 </r>
       <r>    -0.6591     2.3322   103.0251 </r>
       <r>    -0.5930     2.6076   103.1976 </r>
       <r>    -0.5269     2.0309   103.3319 </r>
       <r>    -0.4607     1.4060   103.4248 </r>
       <r>    -0.3946     1.7361   103.5396 </r>
       <r>    -0.3285     2.3021   103.6919 </r>
       <r>    -0.2624     3.4953   103.9230 </r>
       <r>    -0.1962     5.8608   104.3106 </r>
       <r>    -0.1301     6.9523   104.7703 </r>
       <r>    -0.0640     5.7593   105.1511 </r>
       <r>     0.0021     3.7695   105.4004 </r>
       <r>     0.0683     2.2912   105.5519 </r>
       <r>     0.1344     2.9299   105.7456 </r>
       <r>     0.2005     5.5841   106.1149 </r>
       <r>     0.2666     8.3492   106.6670 </r>
       <r>     0.3328    10.4635   107.3589 </r>
       <r>     0.3989    11.6003   108.1260 </r>
       <r>     0.4650    12.4286   108.9478 </r>
       <r>     0.5312    12.1916   109.7540 </r>
       <r>     0.5973     9.2277   110.3642 </r>
       <r>     0.6634     6.1443   110.7705 </r>
       <r>     0.7295     4.8415   111.0907 </r>
       <r>     0.7957     4.5522   111.3917 </r>
       <r>     0.8618     3.2352   111.6056 </r>
       <r>     0.9279     1.6737   111.7163 </r>
       <r>     0.9940     2.7098   111.8955 </r>
       <r>     1.0602     7.2557   112.3753 </r>
       <r>     1.1263    12.2977   113.1885 </r>
       <r>     1.1924    13.9521   114.1111 </r>
       <r>     1.2585    13.3099   114.9912 </r>
       <r>     1.3247    12.3528   115.8080 </r>
       <r>     1.3908    12.0671   116.6060 </r>
       <r>     1.4569    12.6789   117.4444 </r>
       <r>     1.5230    13.8340   118.3592 </r>
       <r>     1.5892    13.9015   119.2784 </r>
       <r>     1.6553    13.0695   120.1427 </r>
       <r>     1.7214    13.1011   121.0090 </r>
       <r>     1.7876    12.5086   121.8361 </r>
       <r>     1.8537    11.0863   122.5692 </r>
       <r>     1.9198    10.4698   123.2615 </r>
       <r>     1.9859    11.1890   124.0014 </r>
       <r>     2.0521    12.3822   124.8202 </r>
       <r>     2.1182    12.7908   125.6660 </r>
       <r>     2.1843    13.0771   126.5308 </r>
       <r>     2.2504    13.3657   127.4146 </r>
       <r>     2.3166    13.3654   128.2984 </r>
       <r>     2.3827    13.2044   129.1715 </r>
       <r>     2.4488    13.0633   130.0354 </r>
       <r>     2.5149    14.0567   130.9649 </r>
       <r>     2.5811    15.1831   131.9689 </r>
       <r>     2.6472    14.2834   132.9134 </r>
       <r>     2.7133    11.5298   133.6758 </r>
       <r>     2.7794     8.9653   134.2686 </r>
       <r>     2.8456     7.5998   134.7712 </r>
       <r>     2.9117     6.5051   135.2013 </r>
       <r>     2.9778     5.0821   135.5374 </r>
       <r>     3.0439     3.2411   135.7517 </r>
       <r>     3.1101     1.7308   135.8662 </r>
       <r>     3.1762     1.1079   135.9394 </r>
       <r>     3.2423     0.6632   135.9833 </r>
       <r>     3.3085     0.2174   135.9977 </r>
       <r>     3.3746     0.0329   135.9998 </r>
       <r>     3.4407     0.0022   136.0000 </r>
       <r>     3.5068     0.0001   136.0000 </r>
       <r>     3.5730     0.0000   136.0000 </r>
       <r>     3.6391     0.0000   136.0000 </r>
       <r>     3.7052     0.0000   136.0000 </r>
       <r>     3.7713     0.0000   136.0000 </r>
       <r>     3.8375     0.0000   136.0000 </r>
       <r>     3.9036     0.0000   136.0000 </r>
       <r>     3.9697     0.0000   136.0000 </r>
       <r>     4.0358     0.0000   136.0000 </r>
       <r>     4.1020     0.0000   136.0000 </r>
       <r>     4.1681     0.0000   136.0000 </r>
      </set>
     </set>
    </array>
   </total>
  </dos>
 </calculation>
 <structure name="finalpos" >
  <crystal>
   <varray name="basis" >
    <v>       3.54040000       0.00000000       0.00000000 </v>
    <v>      -1.77020000      10.29434800       0.00000000 </v>
    <v>       0.00000000       0.00000000      27.50142900 </v>
   </varray>
   <i name="volume">   1002.32009712 </i>
   <varray name="rec_basis" >
    <v>       0.28245396       0.04857034       0.00000000 </v>
    <v>       0.00000000       0.09714068       0.00000000 </v>
    <v>       0.00000000       0.00000000       0.03636175 </v>
   </varray>
  </crystal>
  <varray name="positions" >
   <v>       0.11402300       0.22804500       0.23316207 </v>
   <v>       0.81402300       0.62804500       0.51499159 </v>
   <v>       0.45808900       0.91617900       0.20939482 </v>
   <v>       0.15808900       0.31617900       0.49122434 </v>
   <v>       0.31085400       0.62170900       0.08414979 </v>
   <v>       0.31085400       0.62170900       0.36597930 </v>
   <v>       0.99923000       0.99846000       0.08631254 </v>
   <v>       0.99923000       0.99846000       0.36814206 </v>
   <v>       0.65492700       0.30985400       0.06041748 </v>
   <v>       0.65492700       0.30985400       0.34224700 </v>
   <v>       0.76973800       0.53947500       0.20725292 </v>
   <v>       0.46973800       0.93947500       0.48908244 </v>
   <v>       0.93971600       0.87943300       0.15783749 </v>
   <v>       0.63971600       0.27943300       0.43966701 </v>
   <v>       0.20515200       0.41030300       0.18578822 </v>
   <v>       0.90515200       0.81030300       0.46761774 </v>
   <v>       0.20184900       0.40369900       0.09969156 </v>
   <v>       0.20184900       0.40369900       0.38152107 </v>
   <v>       0.56380500       0.12761000       0.10779021 </v>
   <v>       0.56380500       0.12761000       0.38961973 </v>
   <v>       0.56710600       0.13421200       0.19387616 </v>
   <v>       0.26710600       0.53421200       0.47570568 </v>
   <v>       0.82923400       0.65846800       0.13571444 </v>
   <v>       0.52923400       0.05846800       0.41754396 </v>
  </varray>
 </structure>
</modeling>
