<?xml version="1.0" encoding="ISO-8859-1"?>
<modeling>
 <generator>
  <i name="program" type="string">vasp </i>
  <i name="version" type="string">5.4.1  </i>
  <i name="subversion" type="string">24Jun15 (build May 10 2016 14:18:23) complex                          parallel </i>
  <i name="platform" type="string">IFC91_ompi </i>
  <i name="date" type="string">2016 12 09 </i>
  <i name="time" type="string">14:58:04 </i>
 </generator>
 <incar>
  <i type="string" name="PREC">accurate</i>
  <i type="string" name="ALGO"> Fast</i>
  <i type="int" name="ISPIN">     2</i>
  <i type="int" name="IBRION">     2</i>
  <i name="EDIFF">      0.00010000</i>
  <i type="int" name="NSW">     0</i>
  <i type="int" name="ISIF">     3</i>
  <i name="ENCUT">    500.00000000</i>
  <v name="MAGMOM">      6.00000000      0.50000000      0.50000000      6.00000000      0.50000000      0.50000000</v>
  <i type="string" name="LREAL"> Auto</i>
  <i type="int" name="ISMEAR">     1</i>
  <i name="SIGMA">      0.10000000</i>
  <i type="logical" name="LWAVE"> F  </i>
  <i type="logical" name="LCHARG"> F  </i>
  <i type="logical" name="LVTOT"> T  </i>
  <i type="logical" name="LVHAR"> T  </i>
  <i type="logical" name="LAECHG"> F  </i>
  <v type="int" name="KPOINT_BSE">    -1     0     0     0</v>
  <i type="string" name="GGA"> Bo</i>
  <i name="PARAM1">      0.18333333</i>
  <i name="PARAM2">      0.22000000</i>
  <i type="logical" name="LUSE_VDW"> T  </i>
  <i name="AGGAC">      0.00000000</i>
 </incar>
 <kpoints>
  <generation param="Gamma">
   <v type="int" name="divisions">      13       13        1 </v>
   <v name="usershift">      0.00000000       0.00000000       0.00000000 </v>
   <v name="genvec1">      0.07692308       0.00000000       0.00000000 </v>
   <v name="genvec2">      0.00000000       0.07692308       0.00000000 </v>
   <v name="genvec3">      0.00000000       0.00000000       1.00000000 </v>
   <v name="shift">      0.00000000       0.00000000       0.00000000 </v>
  </generation>
  <varray name="kpointlist" >
   <v>       0.00000000       0.00000000       0.00000000 </v>
   <v>       0.07692308      -0.00000000       0.00000000 </v>
   <v>       0.15384615       0.00000000       0.00000000 </v>
   <v>       0.23076923       0.00000000       0.00000000 </v>
   <v>       0.30769231      -0.00000000       0.00000000 </v>
   <v>       0.38461538       0.00000000       0.00000000 </v>
   <v>       0.46153846       0.00000000       0.00000000 </v>
   <v>       0.00000000       0.07692308       0.00000000 </v>
   <v>       0.07692308       0.07692308       0.00000000 </v>
   <v>       0.15384615       0.07692308       0.00000000 </v>
   <v>       0.23076923       0.07692308       0.00000000 </v>
   <v>       0.30769231       0.07692308       0.00000000 </v>
   <v>       0.38461538       0.07692308       0.00000000 </v>
   <v>       0.46153846       0.07692308       0.00000000 </v>
   <v>      -0.46153846       0.07692308       0.00000000 </v>
   <v>      -0.38461538       0.07692308       0.00000000 </v>
   <v>      -0.30769231       0.07692308       0.00000000 </v>
   <v>      -0.23076923       0.07692308       0.00000000 </v>
   <v>      -0.15384615       0.07692308       0.00000000 </v>
   <v>      -0.07692308       0.07692308       0.00000000 </v>
   <v>       0.00000000       0.15384615       0.00000000 </v>
   <v>       0.07692308       0.15384615       0.00000000 </v>
   <v>       0.15384615       0.15384615       0.00000000 </v>
   <v>       0.23076923       0.15384615       0.00000000 </v>
   <v>       0.30769231       0.15384615       0.00000000 </v>
   <v>       0.38461538       0.15384615       0.00000000 </v>
   <v>       0.46153846       0.15384615       0.00000000 </v>
   <v>      -0.46153846       0.15384615       0.00000000 </v>
   <v>      -0.38461538       0.15384615       0.00000000 </v>
   <v>      -0.30769231       0.15384615       0.00000000 </v>
   <v>      -0.23076923       0.15384615       0.00000000 </v>
   <v>      -0.15384615       0.15384615       0.00000000 </v>
   <v>      -0.07692308       0.15384615       0.00000000 </v>
   <v>       0.00000000       0.23076923       0.00000000 </v>
   <v>       0.07692308       0.23076923       0.00000000 </v>
   <v>       0.15384615       0.23076923       0.00000000 </v>
   <v>       0.23076923       0.23076923       0.00000000 </v>
   <v>       0.30769231       0.23076923       0.00000000 </v>
   <v>       0.38461538       0.23076923       0.00000000 </v>
   <v>       0.46153846       0.23076923       0.00000000 </v>
   <v>      -0.46153846       0.23076923       0.00000000 </v>
   <v>      -0.38461538       0.23076923       0.00000000 </v>
   <v>      -0.30769231       0.23076923       0.00000000 </v>
   <v>      -0.23076923       0.23076923       0.00000000 </v>
   <v>      -0.15384615       0.23076923       0.00000000 </v>
   <v>      -0.07692308       0.23076923       0.00000000 </v>
   <v>       0.00000000       0.30769231       0.00000000 </v>
   <v>       0.07692308       0.30769231       0.00000000 </v>
   <v>       0.15384615       0.30769231       0.00000000 </v>
   <v>       0.23076923       0.30769231       0.00000000 </v>
   <v>       0.30769231       0.30769231       0.00000000 </v>
   <v>       0.38461538       0.30769231       0.00000000 </v>
   <v>       0.46153846       0.30769231       0.00000000 </v>
   <v>      -0.46153846       0.30769231       0.00000000 </v>
   <v>      -0.38461538       0.30769231       0.00000000 </v>
   <v>      -0.30769231       0.30769231       0.00000000 </v>
   <v>      -0.23076923       0.30769231       0.00000000 </v>
   <v>      -0.15384615       0.30769231       0.00000000 </v>
   <v>      -0.07692308       0.30769231       0.00000000 </v>
   <v>       0.00000000       0.38461538       0.00000000 </v>
   <v>       0.07692308       0.38461538       0.00000000 </v>
   <v>       0.15384615       0.38461538       0.00000000 </v>
   <v>       0.23076923       0.38461538       0.00000000 </v>
   <v>       0.30769231       0.38461538       0.00000000 </v>
   <v>       0.38461538       0.38461538       0.00000000 </v>
   <v>       0.46153846       0.38461538       0.00000000 </v>
   <v>      -0.46153846       0.38461538       0.00000000 </v>
   <v>      -0.38461538       0.38461538       0.00000000 </v>
   <v>      -0.30769231       0.38461538       0.00000000 </v>
   <v>      -0.23076923       0.38461538       0.00000000 </v>
   <v>      -0.15384615       0.38461538       0.00000000 </v>
   <v>      -0.07692308       0.38461538       0.00000000 </v>
   <v>       0.00000000       0.46153846       0.00000000 </v>
   <v>       0.07692308       0.46153846       0.00000000 </v>
   <v>       0.15384615       0.46153846       0.00000000 </v>
   <v>       0.23076923       0.46153846       0.00000000 </v>
   <v>       0.30769231       0.46153846       0.00000000 </v>
   <v>       0.38461538       0.46153846       0.00000000 </v>
   <v>       0.46153846       0.46153846       0.00000000 </v>
   <v>      -0.46153846       0.46153846       0.00000000 </v>
   <v>      -0.38461538       0.46153846       0.00000000 </v>
   <v>      -0.30769231       0.46153846       0.00000000 </v>
   <v>      -0.23076923       0.46153846       0.00000000 </v>
   <v>      -0.15384615       0.46153846       0.00000000 </v>
   <v>      -0.07692308       0.46153846       0.00000000 </v>
  </varray>
  <varray name="weights" >
   <v>       0.00591716 </v>
   <v>       0.01183432 </v>
   <v>       0.01183432 </v>
   <v>       0.01183432 </v>
   <v>       0.01183432 </v>
   <v>       0.01183432 </v>
   <v>       0.01183432 </v>
   <v>       0.01183432 </v>
   <v>       0.01183432 </v>
   <v>       0.01183432 </v>
   <v>       0.01183432 </v>
   <v>       0.01183432 </v>
   <v>       0.01183432 </v>
   <v>       0.01183432 </v>
   <v>       0.01183432 </v>
   <v>       0.01183432 </v>
   <v>       0.01183432 </v>
   <v>       0.01183432 </v>
   <v>       0.01183432 </v>
   <v>       0.01183432 </v>
   <v>       0.01183432 </v>
   <v>       0.01183432 </v>
   <v>       0.01183432 </v>
   <v>       0.01183432 </v>
   <v>       0.01183432 </v>
   <v>       0.01183432 </v>
   <v>       0.01183432 </v>
   <v>       0.01183432 </v>
   <v>       0.01183432 </v>
   <v>       0.01183432 </v>
   <v>       0.01183432 </v>
   <v>       0.01183432 </v>
   <v>       0.01183432 </v>
   <v>       0.01183432 </v>
   <v>       0.01183432 </v>
   <v>       0.01183432 </v>
   <v>       0.01183432 </v>
   <v>       0.01183432 </v>
   <v>       0.01183432 </v>
   <v>       0.01183432 </v>
   <v>       0.01183432 </v>
   <v>       0.01183432 </v>
   <v>       0.01183432 </v>
   <v>       0.01183432 </v>
   <v>       0.01183432 </v>
   <v>       0.01183432 </v>
   <v>       0.01183432 </v>
   <v>       0.01183432 </v>
   <v>       0.01183432 </v>
   <v>       0.01183432 </v>
   <v>       0.01183432 </v>
   <v>       0.01183432 </v>
   <v>       0.01183432 </v>
   <v>       0.01183432 </v>
   <v>       0.01183432 </v>
   <v>       0.01183432 </v>
   <v>       0.01183432 </v>
   <v>       0.01183432 </v>
   <v>       0.01183432 </v>
   <v>       0.01183432 </v>
   <v>       0.01183432 </v>
   <v>       0.01183432 </v>
   <v>       0.01183432 </v>
   <v>       0.01183432 </v>
   <v>       0.01183432 </v>
   <v>       0.01183432 </v>
   <v>       0.01183432 </v>
   <v>       0.01183432 </v>
   <v>       0.01183432 </v>
   <v>       0.01183432 </v>
   <v>       0.01183432 </v>
   <v>       0.01183432 </v>
   <v>       0.01183432 </v>
   <v>       0.01183432 </v>
   <v>       0.01183432 </v>
   <v>       0.01183432 </v>
   <v>       0.01183432 </v>
   <v>       0.01183432 </v>
   <v>       0.01183432 </v>
   <v>       0.01183432 </v>
   <v>       0.01183432 </v>
   <v>       0.01183432 </v>
   <v>       0.01183432 </v>
   <v>       0.01183432 </v>
   <v>       0.01183432 </v>
  </varray>
 </kpoints>
 <parameters>
  <separator name="general" >
   <i type="string" name="SYSTEM">unknown system</i>
   <i type="logical" name="LCOMPAT"> F  </i>
  </separator>
  <separator name="electronic" >
   <i type="string" name="PREC">accura</i>
   <i name="ENMAX">    500.00000000</i>
   <i name="ENAUG">    392.42700000</i>
   <i name="EDIFF">      0.00010000</i>
   <i type="int" name="IALGO">    68</i>
   <i type="int" name="IWAVPR">    10</i>
   <i type="int" name="NBANDS">    36</i>
   <i name="NELECT">     48.00000000</i>
   <i type="int" name="TURBO">     0</i>
   <i type="int" name="IRESTART">     0</i>
   <i type="int" name="NREBOOT">     0</i>
   <i type="int" name="NMIN">     0</i>
   <i name="EREF">      0.00000000</i>
   <separator name="electronic smearing" >
    <i type="int" name="ISMEAR">     1</i>
    <i name="SIGMA">      0.10000000</i>
    <i name="KSPACING">      0.50000000</i>
    <i type="logical" name="KGAMMA"> T  </i>
   </separator>
   <separator name="electronic projectors" >
    <i type="logical" name="LREAL"> T  </i>
    <v name="ROPT">     -0.00025000     -0.00025000     -0.00025000     -0.00025000</v>
    <i type="int" name="LMAXPAW">  -100</i>
    <i type="int" name="LMAXMIX">     2</i>
    <i type="logical" name="NLSPLINE"> F  </i>
   </separator>
   <separator name="electronic startup" >
    <i type="int" name="ISTART">     0</i>
    <i type="int" name="ICHARG">     2</i>
    <i type="int" name="INIWAV">     1</i>
   </separator>
   <separator name="electronic spin" >
    <i type="int" name="ISPIN">     2</i>
    <i type="logical" name="LNONCOLLINEAR"> F  </i>
    <v name="MAGMOM">      6.00000000      0.50000000      0.50000000      6.00000000      0.50000000      0.50000000</v>
    <i name="NUPDOWN">     -1.00000000</i>
    <i type="logical" name="LSORBIT"> F  </i>
    <v name="SAXIS">      0.00000000      0.00000000      1.00000000</v>
    <i type="logical" name="LSPIRAL"> F  </i>
    <v name="QSPIRAL">      0.00000000      0.00000000      0.00000000</v>
    <i type="logical" name="LZEROZ"> F  </i>
   </separator>
   <separator name="electronic exchange-correlation" >
    <i type="logical" name="LASPH"> F  </i>
    <i type="logical" name="LMETAGGA"> F  </i>
   </separator>
   <separator name="electronic convergence" >
    <i type="int" name="NELM">    60</i>
    <i type="int" name="NELMDL">     0</i>
    <i type="int" name="NELMIN">     2</i>
    <i name="ENINI">    500.00000000</i>
    <separator name="electronic convergence detail" >
     <i type="logical" name="LDIAG"> T  </i>
     <i type="logical" name="LSUBROT"> F  </i>
     <i name="WEIMIN">      0.00000000</i>
     <i name="EBREAK">      0.00000069</i>
     <i name="DEPER">      0.30000000</i>
     <i type="int" name="NRMM">     4</i>
     <i name="TIME">      0.40000000</i>
    </separator>
   </separator>
   <separator name="electronic mixer" >
    <i name="AMIX">      0.40000000</i>
    <i name="BMIX">      1.00000000</i>
    <i name="AMIN">      0.10000000</i>
    <i name="AMIX_MAG">      1.60000000</i>
    <i name="BMIX_MAG">      1.00000000</i>
    <separator name="electronic mixer details" >
     <i type="int" name="IMIX">     4</i>
     <i type="logical" name="MIXFIRST"> F  </i>
     <i type="int" name="MAXMIX">   -45</i>
     <i name="WC">    100.00000000</i>
     <i type="int" name="INIMIX">     1</i>
     <i type="int" name="MIXPRE">     1</i>
     <i type="int" name="MREMOVE">     5</i>
    </separator>
   </separator>
   <separator name="electronic dipolcorrection" >
    <i type="logical" name="LDIPOL"> F  </i>
    <i type="logical" name="LMONO"> F  </i>
    <i type="int" name="IDIPOL">     0</i>
    <i name="EPSILON">      1.00000000</i>
    <v name="DIPOL">   -100.00000000   -100.00000000   -100.00000000</v>
    <i name="EFIELD">      0.00000000</i>
   </separator>
  </separator>
  <separator name="grids" >
   <i type="int" name="NGX">    24</i>
   <i type="int" name="NGY">    24</i>
   <i type="int" name="NGZ">   180</i>
   <i type="int" name="NGXF">    48</i>
   <i type="int" name="NGYF">    48</i>
   <i type="int" name="NGZF">   360</i>
   <i type="logical" name="ADDGRID"> F  </i>
  </separator>
  <separator name="ionic" >
   <i type="int" name="NSW">     0</i>
   <i type="int" name="IBRION">    -1</i>
   <i type="int" name="ISIF">     3</i>
   <i name="PSTRESS">      0.00000000</i>
   <i name="EDIFFG">      0.00100000</i>
   <i type="int" name="NFREE">     1</i>
   <i name="POTIM">      0.50000000</i>
   <i name="SMASS">     -3.00000000</i>
   <i name="SCALEE">      1.00000000</i>
  </separator>
  <separator name="ionic md" >
   <i name="TEBEG">      0.00010000</i>
   <i name="TEEND">      0.00010000</i>
   <i type="int" name="NBLOCK">     1</i>
   <i type="int" name="KBLOCK">     1</i>
   <i type="int" name="NPACO">   256</i>
   <i name="APACO">     16.00000000</i>
  </separator>
  <separator name="symmetry" >
   <i type="int" name="ISYM">     2</i>
   <i name="SYMPREC">      0.00001000</i>
  </separator>
  <separator name="dos" >
   <i type="logical" name="LORBIT"> F  </i>
   <v name="RWIGS">     -1.00000000     -1.00000000     -1.00000000     -1.00000000</v>
   <i type="int" name="NEDOS">   301</i>
   <i name="EMIN">     10.00000000</i>
   <i name="EMAX">    -10.00000000</i>
   <i name="EFERMI">      0.00000000</i>
  </separator>
  <separator name="writing" >
   <i type="int" name="NWRITE">     2</i>
   <i type="logical" name="LWAVE"> F  </i>
   <i type="logical" name="LCHARG"> F  </i>
   <i type="logical" name="LPARD"> F  </i>
   <i type="logical" name="LVTOT"> F  </i>
   <i type="logical" name="LVHAR"> T  </i>
   <i type="logical" name="LELF"> F  </i>
   <i type="logical" name="LOPTICS"> F  </i>
   <v name="STM">      0.00000000      0.00000000      0.00000000      0.00000000      0.00000000      0.00000000      0.00000000</v>
  </separator>
  <separator name="performance" >
   <i type="int" name="NPAR">     4</i>
   <i type="int" name="NSIM">     4</i>
   <i type="int" name="NBLK">    -1</i>
   <i type="logical" name="LPLANE"> T  </i>
   <i type="logical" name="LSCALAPACK"> T  </i>
   <i type="logical" name="LSCAAWARE"> F  </i>
   <i type="logical" name="LSCALU"> F  </i>
   <i type="logical" name="LASYNC"> F  </i>
   <i type="logical" name="LORBITALREAL"> F  </i>
  </separator>
  <separator name="miscellaneous" >
   <i type="int" name="IDIOT">     3</i>
   <i type="logical" name="LMUSIC"> F  </i>
   <v name="POMASS">     95.94000000     32.06600000     95.94000000     32.06600000</v>
   <v name="DARWINR">      0.00000000      0.00000000      0.00000000      0.00000000</v>
   <v name="DARWINV">      1.00000000      1.00000000      1.00000000      1.00000000</v>
   <i type="logical" name="LCORR"> T  </i>
  </separator>
  <i type="logical" name="GGA_COMPAT"> T  </i>
  <i type="logical" name="LBERRY"> F  </i>
  <i type="int" name="ICORELEVEL">     0</i>
  <i type="logical" name="LDAU"> F  </i>
  <i type="int" name="I_CONSTRAINED_M">     0</i>
  <separator name="electronic exchange-correlation" >
   <i type="string" name="GGA">BO</i>
   <i type="int" name="VOSKOWN">     0</i>
   <i type="logical" name="LHFCALC"> F  </i>
   <i type="string" name="PRECFOCK"></i>
   <i type="logical" name="LSYMGRAD"> F  </i>
   <i type="logical" name="LHFONE"> F  </i>
   <i type="logical" name="LRHFCALC"> F  </i>
   <i type="logical" name="LTHOMAS"> F  </i>
   <i type="logical" name="LMODELHF"> F  </i>
   <i name="ENCUT4O">     -1.00000000</i>
   <i type="int" name="EXXOEP">     0</i>
   <i type="int" name="FOURORBIT">     0</i>
   <i name="AEXX">      0.00000000</i>
   <i name="HFALPHA">      0.00000000</i>
   <i name="MCALPHA">      0.00000000</i>
   <i name="ALDAX">      1.00000000</i>
   <i name="AGGAX">      1.00000000</i>
   <i name="ALDAC">      1.00000000</i>
   <i name="AGGAC">      0.00000000</i>
   <i type="int" name="NKREDX">     1</i>
   <i type="int" name="NKREDY">     1</i>
   <i type="int" name="NKREDZ">     1</i>
   <i type="logical" name="SHIFTRED"> F  </i>
   <i type="logical" name="ODDONLY"> F  </i>
   <i type="logical" name="EVENONLY"> F  </i>
   <i type="int" name="LMAXFOCK">     0</i>
   <i type="int" name="NMAXFOCKAE">     0</i>
   <i type="logical" name="LFOCKAEDFT"> F  </i>
   <i name="HFSCREEN">      0.00000000</i>
   <i name="HFSCREENC">      0.00000000</i>
   <i type="int" name="NBANDSGWLOW">     0</i>
  </separator>
  <separator name="vdW DFT" >
   <i type="logical" name="LUSE_VDW"> T  </i>
   <i name="Zab_VDW">     -0.84910000</i>
   <i name="PARAM1">      0.18333333</i>
   <i name="PARAM2">      0.22000000</i>
   <i name="PARAM3">      0.00000000</i>
  </separator>
  <separator name="model GW" >
   <i type="int" name="MODEL_GW">     0</i>
   <i name="MODEL_EPS0">     20.39722663</i>
   <i name="MODEL_ALPHA">      1.00000000</i>
  </separator>
  <separator name="linear response parameters" >
   <i type="logical" name="LEPSILON"> F  </i>
   <i type="logical" name="LRPA"> F  </i>
   <i type="logical" name="LNABLA"> F  </i>
   <i type="logical" name="LVEL"> F  </i>
   <i type="int" name="KINTER">     0</i>
   <i name="CSHIFT">      0.10000000</i>
   <i name="OMEGAMAX">     -1.00000000</i>
   <i name="DEG_THRESHOLD">      0.00200000</i>
  </separator>
  <separator name="orbital magnetization" >
   <i type="logical" name="NUCIND"> F  </i>
   <v name="MAGPOS">      0.00000000      0.00000000      0.00000000</v>
   <i type="logical" name="LNICSALL"> T  </i>
   <i type="logical" name="ORBITALMAG"> F  </i>
   <i type="logical" name="LMAGBLOCH"> F  </i>
   <i type="logical" name="LCHIMAG"> F  </i>
   <i type="logical" name="LGAUGE"> T  </i>
   <i type="int" name="MAGATOM">     0</i>
   <v name="MAGDIPOL">      0.00000000      0.00000000      0.00000000</v>
   <v name="AVECCONST">      0.00000000      0.00000000      0.00000000</v>
  </separator>
  <separator name="response functions" >
   <i type="logical" name="LADDER"> F  </i>
   <i type="logical" name="LFXC"> F  </i>
   <i type="logical" name="LHARTREE"> T  </i>
   <i type="int" name="IBSE">     0</i>
   <v type="int" name="KPOINT">    -1     0     0     0</v>
   <i type="logical" name="LTCTE"> F  </i>
   <i type="logical" name="LTETE"> F  </i>
   <i type="logical" name="LTRIPLET"> F  </i>
   <i type="logical" name="LFXCEPS"> F  </i>
   <i type="logical" name="LFXHEG"> F  </i>
   <i type="int" name="NATURALO">     0</i>
   <i type="logical" name="L2ORDER"> F  </i>
   <i type="logical" name="LUSEW"> F  </i>
   <i name="ENCUTGW">     -2.00000000</i>
   <i name="ENCUTGWSOFT">     -2.00000000</i>
   <i name="ENCUTLF">     -1.00000000</i>
   <i type="int" name="LMAXMP2">    -1</i>
   <i name="SCISSOR">      0.00000000</i>
   <i type="int" name="NOMEGA">     0</i>
   <i type="int" name="NOMEGAR">     0</i>
   <i type="int" name="NBANDSGW">    -1</i>
   <i type="int" name="NBANDSO">    -1</i>
   <i type="int" name="NBANDSV">    -1</i>
   <i type="int" name="NELM">     1</i>
   <i type="int" name="NELMHF">     1</i>
   <i type="int" name="DIM">     3</i>
   <i type="int" name="ANTIRES">     0</i>
   <i name="OMEGAMAX">    -30.00000000</i>
   <i name="OMEGAMIN">    -30.00000000</i>
   <i name="OMEGATL">   -200.00000000</i>
   <i type="int" name="OMEGAGRID">     0</i>
   <i name="CSHIFT">     -0.10000000</i>
   <i type="logical" name="SELFENERGY"> F  </i>
   <i type="logical" name="LSPECTRAL"> F  </i>
   <i type="logical" name="LSPECTRALGW"> F  </i>
   <i type="logical" name="LSINGLES"> F  </i>
   <i type="logical" name="LFERMIGW"> F  </i>
   <i type="logical" name="ODDONLYGW"> F  </i>
   <i type="logical" name="EVENONLYGW"> F  </i>
   <i type="int" name="NKREDLFX">     1</i>
   <i type="int" name="NKREDLFY">     1</i>
   <i type="int" name="NKREDLFZ">     1</i>
   <i type="int" name="MAXMEM">  1800</i>
   <i type="int" name="TELESCOPE">     0</i>
   <i type="int" name="TAUPAR">     1</i>
   <i type="int" name="OMEGAPAR">    -1</i>
   <i name="LAMBDA">      1.00000000</i>
  </separator>
  <separator name="External order field" >
   <i name="OFIELD_KAPPA">      0.00000000</i>
   <v name="OFIELD_K">      0.00000000      0.00000000      0.00000000</v>
   <i name="OFIELD_Q6_NEAR">      0.00000000</i>
   <i name="OFIELD_Q6_FAR">      0.00000000</i>
   <i name="OFIELD_A">      0.00000000</i>
  </separator>
 </parameters>
 <atominfo>
  <atoms>       6 </atoms>
  <types>       4 </types>
  <array name="atoms" >
   <dimension dim="1">ion</dimension>
   <field type="string">element</field>
   <field type="int">atomtype</field>
   <set>
    <rc><c>Mo</c><c>   1</c></rc>
    <rc><c>S </c><c>   2</c></rc>
    <rc><c>S </c><c>   2</c></rc>
    <rc><c>Mo</c><c>   3</c></rc>
    <rc><c>S </c><c>   4</c></rc>
    <rc><c>S </c><c>   4</c></rc>
   </set>
  </array>
  <array name="atomtypes" >
   <dimension dim="1">type</dimension>
   <field type="int">atomspertype</field>
   <field type="string">element</field>
   <field>mass</field>
   <field>valence</field>
   <field type="string">pseudopotential</field>
   <set>
    <rc><c>   1</c><c>Mo</c><c>     95.94000000</c><c>     12.00000000</c><c> PAW_PBE Mo_pv 08Apr2002                </c></rc>
    <rc><c>   2</c><c>S </c><c>     32.06600000</c><c>      6.00000000</c><c>  PAW_PBE S 17Jan2003                   </c></rc>
    <rc><c>   1</c><c>Mo</c><c>     95.94000000</c><c>     12.00000000</c><c> PAW_PBE Mo_pv 08Apr2002                </c></rc>
    <rc><c>   2</c><c>S </c><c>     32.06600000</c><c>      6.00000000</c><c>  PAW_PBE S 17Jan2003                   </c></rc>
   </set>
  </array>
 </atominfo>
 <structure name="initialpos" >
  <crystal>
   <varray name="basis" >
    <v>       3.19031700       0.00000000       0.00000000 </v>
    <v>      -1.59515800       2.76289700       0.00000000 </v>
    <v>       0.00000000       0.00000000      23.14049200 </v>
   </varray>
   <i name="volume">    203.97226633 </i>
   <varray name="rec_basis" >
    <v>       0.31344848       0.18096941       0.00000000 </v>
    <v>       0.00000000       0.36193894       0.00000000 </v>
    <v>       0.00000000       0.00000000       0.04321429 </v>
   </varray>
  </crystal>
  <varray name="positions" >
   <v>       0.66666700       0.33333300       0.06785900 </v>
   <v>       0.33333300       0.66666700       0.00000000 </v>
   <v>       0.33333300       0.66666700       0.13571500 </v>
   <v>       0.95238129       0.76190443       0.35482300 </v>
   <v>       0.61904729       0.09523843       0.28696500 </v>
   <v>       0.61904729       0.09523843       0.42267900 </v>
  </varray>
 </structure>
 <calculation>
  <scstep>
   <time name="dav">   61.07   61.11</time>
   <time name="total">   71.28   71.35</time>
   <energy>
    <i name="alphaZ">    104.15310261 </i>
    <i name="ewald">   7699.04583467 </i>
    <i name="hartreedc"> -11109.09877689 </i>
    <i name="XCdc">    128.46410048 </i>
    <i name="pawpsdc">   2252.92270536 </i>
    <i name="pawaedc">  -2205.68654582 </i>
    <i name="eentropy">     -0.00069419 </i>
    <i name="bandstr">   -159.36124781 </i>
    <i name="atom">   3688.31848598 </i>
    <i name="e_fr_energy">    398.75696440 </i>
    <i name="e_wo_entrp">    398.75765859 </i>
    <i name="e_0_energy">    398.75719580 </i>
   </energy>
  </scstep>
  <scstep>
   <time name="dav">   66.00   66.04</time>
   <time name="total">   66.00   66.05</time>
   <energy>
    <i name="e_fr_energy">     -1.56319447 </i>
    <i name="e_wo_entrp">     -1.56283965 </i>
    <i name="e_0_energy">     -1.56307619 </i>
   </energy>
  </scstep>
  <scstep>
   <time name="dav">   68.00   68.05</time>
   <time name="total">   68.01   68.06</time>
   <energy>
    <i name="e_fr_energy">    -32.96239959 </i>
    <i name="e_wo_entrp">    -32.96353320 </i>
    <i name="e_0_energy">    -32.96277746 </i>
   </energy>
  </scstep>
  <scstep>
   <time name="dav">   64.43   64.48</time>
   <time name="total">   64.44   64.48</time>
   <energy>
    <i name="e_fr_energy">    -33.84537518 </i>
    <i name="e_wo_entrp">    -33.84659508 </i>
    <i name="e_0_energy">    -33.84578181 </i>
   </energy>
  </scstep>
  <scstep>
   <time name="dav">   67.04   67.09</time>
   <time name="total">   72.30   72.62</time>
   <energy>
    <i name="e_fr_energy">    -33.87255653 </i>
    <i name="e_wo_entrp">    -33.87378618 </i>
    <i name="e_0_energy">    -33.87296641 </i>
   </energy>
  </scstep>
  <scstep>
   <time name="diag">   12.31   12.31</time>
   <time name="diis">   42.38   42.41</time>
   <time name="orth">    0.39    0.39</time>
   <time name="total">   69.97   70.33</time>
   <energy>
    <i name="e_fr_energy">    -30.17321989 </i>
    <i name="e_wo_entrp">    -30.17278072 </i>
    <i name="e_0_energy">    -30.17307350 </i>
   </energy>
  </scstep>
  <scstep>
   <time name="diag">   12.26   12.27</time>
   <time name="diis">   41.84   41.87</time>
   <time name="orth">    0.40    0.40</time>
   <time name="total">   69.48   69.56</time>
   <energy>
    <i name="e_fr_energy">    -32.81535008 </i>
    <i name="e_wo_entrp">    -32.81592365 </i>
    <i name="e_0_energy">    -32.81554127 </i>
   </energy>
  </scstep>
  <scstep>
   <time name="diag">   12.23   12.24</time>
   <time name="diis">   45.85   45.88</time>
   <time name="orth">    0.39    0.39</time>
   <time name="total">   73.48   73.53</time>
   <energy>
    <i name="e_fr_energy">    -34.31075744 </i>
    <i name="e_wo_entrp">    -34.31092351 </i>
    <i name="e_0_energy">    -34.31081279 </i>
   </energy>
  </scstep>
  <scstep>
   <time name="diag">   12.23   12.23</time>
   <time name="diis">   41.10   41.13</time>
   <time name="orth">    0.40    0.41</time>
   <time name="total">   68.63   68.68</time>
   <energy>
    <i name="e_fr_energy">    -37.10389200 </i>
    <i name="e_wo_entrp">    -37.10405887 </i>
    <i name="e_0_energy">    -37.10394762 </i>
   </energy>
  </scstep>
  <scstep>
   <time name="diag">   12.14   12.15</time>
   <time name="diis">   38.55   38.58</time>
   <time name="orth">    0.39    0.39</time>
   <time name="total">   66.03   66.08</time>
   <energy>
    <i name="e_fr_energy">    -39.09512682 </i>
    <i name="e_wo_entrp">    -39.09529420 </i>
    <i name="e_0_energy">    -39.09518261 </i>
   </energy>
  </scstep>
  <scstep>
   <time name="diag">   12.08   12.09</time>
   <time name="diis">   41.31   41.34</time>
   <time name="orth">    0.40    0.40</time>
   <time name="total">   68.85   68.90</time>
   <energy>
    <i name="e_fr_energy">    -39.38520196 </i>
    <i name="e_wo_entrp">    -39.38553479 </i>
    <i name="e_0_energy">    -39.38531290 </i>
   </energy>
  </scstep>
  <scstep>
   <time name="diag">   12.03   12.04</time>
   <time name="diis">   41.21   41.24</time>
   <time name="orth">    0.40    0.40</time>
   <time name="total">   68.74   68.79</time>
   <energy>
    <i name="e_fr_energy">    -39.40324657 </i>
    <i name="e_wo_entrp">    -39.40357975 </i>
    <i name="e_0_energy">    -39.40335763 </i>
   </energy>
  </scstep>
  <scstep>
   <time name="diag">   12.00   12.01</time>
   <time name="diis">   46.09   46.13</time>
   <time name="orth">    0.39    0.40</time>
   <time name="total">   73.59   73.64</time>
   <energy>
    <i name="e_fr_energy">    -39.41667025 </i>
    <i name="e_wo_entrp">    -39.41700322 </i>
    <i name="e_0_energy">    -39.41678124 </i>
   </energy>
  </scstep>
  <scstep>
   <time name="diag">   11.97   11.98</time>
   <time name="diis">   43.25   43.28</time>
   <time name="orth">    0.40    0.40</time>
   <time name="total">   70.68   70.73</time>
   <energy>
    <i name="e_fr_energy">    -39.42054259 </i>
    <i name="e_wo_entrp">    -39.42087671 </i>
    <i name="e_0_energy">    -39.42065397 </i>
   </energy>
  </scstep>
  <scstep>
   <time name="diag">   11.94   11.95</time>
   <time name="diis">   39.03   39.05</time>
   <time name="orth">    0.40    0.40</time>
   <time name="total">   66.44   66.51</time>
   <energy>
    <i name="e_fr_energy">    -39.42004650 </i>
    <i name="e_wo_entrp">    -39.42038061 </i>
    <i name="e_0_energy">    -39.42015787 </i>
   </energy>
  </scstep>
  <scstep>
   <time name="diag">   12.07   12.08</time>
   <time name="diis">   30.48   30.51</time>
   <time name="orth">    0.40    0.40</time>
   <time name="total">   52.65   52.73</time>
   <energy>
    <i name="alphaZ">    104.15310261 </i>
    <i name="ewald">   7699.04583467 </i>
    <i name="hartreedc"> -11093.48270785 </i>
    <i name="XCdc">    122.66639326 </i>
    <i name="pawpsdc">   2398.85193469 </i>
    <i name="pawaedc">  -2361.02543566 </i>
    <i name="eentropy">      0.00033417 </i>
    <i name="bandstr">   -597.94805003 </i>
    <i name="atom">   3688.31848598 </i>
    <i name="e_fr_energy">    -39.42010816 </i>
    <i name="e_wo_entrp">    -39.42044233 </i>
    <i name="e_0_energy">    -39.42021955 </i>
   </energy>
  </scstep>
  <structure>
   <crystal>
    <varray name="basis" >
     <v>       3.19031700       0.00000000       0.00000000 </v>
     <v>      -1.59515800       2.76289700       0.00000000 </v>
     <v>       0.00000000       0.00000000      23.14049200 </v>
    </varray>
    <i name="volume">    203.97226633 </i>
    <varray name="rec_basis" >
     <v>       0.31344848       0.18096941       0.00000000 </v>
     <v>       0.00000000       0.36193894       0.00000000 </v>
     <v>       0.00000000       0.00000000       0.04321429 </v>
    </varray>
   </crystal>
   <varray name="positions" >
    <v>       0.66666700       0.33333300       0.06785900 </v>
    <v>       0.33333300       0.66666700       0.00000000 </v>
    <v>       0.33333300       0.66666700       0.13571500 </v>
    <v>       0.95238129       0.76190443       0.35482300 </v>
    <v>       0.61904729       0.09523843       0.28696500 </v>
    <v>       0.61904729       0.09523843       0.42267900 </v>
   </varray>
  </structure>
  <varray name="forces" >
   <v>       0.00043991      -0.00552179      -0.00331550 </v>
   <v>       0.00033894       0.00062974      -0.05829863 </v>
   <v>      -0.00224760      -0.02682980       0.11340363 </v>
   <v>       0.00127535       0.00297454       0.00182661 </v>
   <v>       0.00210123       0.02809311      -0.11710697 </v>
   <v>      -0.00190783       0.00065421       0.06349086 </v>
  </varray>
  <varray name="stress" >
   <v>       3.21064933       0.14120511       0.12718525 </v>
   <v>       0.14120522       3.66107569       0.91643024 </v>
   <v>       0.12718521       0.91643035       0.00420400 </v>
  </varray>
  <energy>
   <i name="e_fr_energy">    -39.42010816 </i>
   <i name="e_wo_entrp">    -39.42021955 </i>
   <i name="e_0_energy">      0.00033417 </i>
  </energy>
  <time name="totalsc"> 1194.26 1195.84</time>
  <eigenvalues>
   <array>
    <dimension dim="1">band</dimension>
    <dimension dim="2">kpoint</dimension>
    <dimension dim="3">spin</dimension>
    <field>eigene</field>
    <field>occ</field>
    <set>
     <set comment="spin 1">
      <set comment="kpoint 1">
       <r>  -34.9791    1.0000 </r>
       <r>  -34.9699    1.0000 </r>
       <r>  -34.7884    1.0000 </r>
       <r>  -34.7882    1.0000 </r>
       <r>  -34.7793    1.0000 </r>
       <r>  -34.7792    1.0000 </r>
       <r>  -13.9599    1.0000 </r>
       <r>  -13.9036    1.0000 </r>
       <r>  -12.6938    1.0000 </r>
       <r>  -12.6002    1.0000 </r>
       <r>   -5.6714    1.0000 </r>
       <r>   -5.3826    1.0000 </r>
       <r>   -2.6092    1.0000 </r>
       <r>   -2.6091    1.0000 </r>
       <r>   -2.5998    1.0000 </r>
       <r>   -2.5996    1.0000 </r>
       <r>   -2.1623    1.0000 </r>
       <r>   -1.5165    1.0000 </r>
       <r>   -1.5154    1.0000 </r>
       <r>   -1.5060    1.0000 </r>
       <r>   -1.5056    1.0000 </r>
       <r>   -1.4581    1.0000 </r>
       <r>   -0.2074    1.0000 </r>
       <r>    0.2308    0.7954 </r>
       <r>    2.7074   -0.0000 </r>
       <r>    2.7132   -0.0000 </r>
       <r>    2.7276   -0.0000 </r>
       <r>    2.7323   -0.0000 </r>
       <r>    2.8882   -0.0000 </r>
       <r>    2.8950   -0.0000 </r>
       <r>    2.9117   -0.0000 </r>
       <r>    2.9199   -0.0000 </r>
       <r>    5.3768    0.0000 </r>
       <r>    5.7037    0.0000 </r>
       <r>    6.2537    0.0000 </r>
       <r>    6.5893    0.0000 </r>
      </set>
      <set comment="kpoint 2">
       <r>  -34.9750    1.0000 </r>
       <r>  -34.9658    1.0000 </r>
       <r>  -34.8095    1.0000 </r>
       <r>  -34.8005    1.0000 </r>
       <r>  -34.7932    1.0000 </r>
       <r>  -34.7840    1.0000 </r>
       <r>  -13.8731    1.0000 </r>
       <r>  -13.8171    1.0000 </r>
       <r>  -12.6571    1.0000 </r>
       <r>  -12.5658    1.0000 </r>
       <r>   -5.5722    1.0000 </r>
       <r>   -5.2838    1.0000 </r>
       <r>   -2.7963    1.0000 </r>
       <r>   -2.7863    1.0000 </r>
       <r>   -2.5183    1.0000 </r>
       <r>   -2.5093    1.0000 </r>
       <r>   -2.4473    1.0000 </r>
       <r>   -2.0570    1.0000 </r>
       <r>   -1.6529    1.0000 </r>
       <r>   -1.6436    1.0000 </r>
       <r>   -1.3450    1.0000 </r>
       <r>   -1.0557    1.0000 </r>
       <r>   -0.2284    1.0000 </r>
       <r>    0.1549    1.0341 </r>
       <r>    2.6000   -0.0000 </r>
       <r>    2.6207   -0.0000 </r>
       <r>    2.6557   -0.0000 </r>
       <r>    2.7225   -0.0000 </r>
       <r>    2.8041   -0.0000 </r>
       <r>    2.8164   -0.0000 </r>
       <r>    2.8634   -0.0000 </r>
       <r>    2.8738   -0.0000 </r>
       <r>    5.5084    0.0000 </r>
       <r>    5.8497    0.0000 </r>
       <r>    6.5862    0.0000 </r>
       <r>    6.9618    0.0000 </r>
      </set>
      <set comment="kpoint 3">
       <r>  -34.9636    1.0000 </r>
       <r>  -34.9544    1.0000 </r>
       <r>  -34.8680    1.0000 </r>
       <r>  -34.8590    1.0000 </r>
       <r>  -34.8066    1.0000 </r>
       <r>  -34.7974    1.0000 </r>
       <r>  -13.6245    1.0000 </r>
       <r>  -13.5694    1.0000 </r>
       <r>  -12.5520    1.0000 </r>
       <r>  -12.4676    1.0000 </r>
       <r>   -5.3117    1.0000 </r>
       <r>   -5.0300    1.0000 </r>
       <r>   -3.2478    1.0000 </r>
       <r>   -3.2330    1.0000 </r>
       <r>   -2.9465    1.0000 </r>
       <r>   -2.6730    1.0000 </r>
       <r>   -2.2626    1.0000 </r>
       <r>   -2.2535    1.0000 </r>
       <r>   -1.9880    1.0000 </r>
       <r>   -1.9786    1.0000 </r>
       <r>   -1.2586    1.0000 </r>
       <r>   -0.9271    1.0000 </r>
       <r>   -0.3584    1.0000 </r>
       <r>   -0.1235    1.0000 </r>
       <r>    2.1897   -0.0000 </r>
       <r>    2.3757   -0.0000 </r>
       <r>    2.5087   -0.0000 </r>
       <r>    2.5746   -0.0000 </r>
       <r>    2.5866   -0.0000 </r>
       <r>    2.6358   -0.0000 </r>
       <r>    3.2109    0.0000 </r>
       <r>    3.2229    0.0000 </r>
       <r>    5.8616    0.0000 </r>
       <r>    6.2004    0.0000 </r>
       <r>    6.9276    0.0000 </r>
       <r>    7.8073    0.0000 </r>
      </set>
      <set comment="kpoint 4">
       <r>  -34.9495    1.0000 </r>
       <r>  -34.9474    1.0000 </r>
       <r>  -34.9405    1.0000 </r>
       <r>  -34.9383    1.0000 </r>
       <r>  -34.8254    1.0000 </r>
       <r>  -34.8163    1.0000 </r>
       <r>  -13.2491    1.0000 </r>
       <r>  -13.1962    1.0000 </r>
       <r>  -12.3941    1.0000 </r>
       <r>  -12.3206    1.0000 </r>
       <r>   -5.0478    1.0000 </r>
       <r>   -4.8134    1.0000 </r>
       <r>   -3.7135    1.0000 </r>
       <r>   -3.6606    1.0000 </r>
       <r>   -3.4759    1.0000 </r>
       <r>   -3.2924    1.0000 </r>
       <r>   -2.3831    1.0000 </r>
       <r>   -2.3735    1.0000 </r>
       <r>   -1.8934    1.0000 </r>
       <r>   -1.8841    1.0000 </r>
       <r>   -1.4295    1.0000 </r>
       <r>   -1.1178    1.0000 </r>
       <r>   -0.6764    1.0000 </r>
       <r>   -0.5724    1.0000 </r>
       <r>    1.9588   -0.0000 </r>
       <r>    2.2511   -0.0000 </r>
       <r>    2.3244   -0.0000 </r>
       <r>    2.3377   -0.0000 </r>
       <r>    2.7070   -0.0000 </r>
       <r>    2.9144   -0.0000 </r>
       <r>    3.5935    0.0000 </r>
       <r>    3.6079    0.0000 </r>
       <r>    6.3981    0.0000 </r>
       <r>    6.6909    0.0000 </r>
       <r>    7.3908    0.0000 </r>
       <r>    8.2077    0.0000 </r>
      </set>
      <set comment="kpoint 5">
       <r>  -35.0348    1.0000 </r>
       <r>  -35.0258    1.0000 </r>
       <r>  -34.9304    1.0000 </r>
       <r>  -34.9212    1.0000 </r>
       <r>  -34.8453    1.0000 </r>
       <r>  -34.8362    1.0000 </r>
       <r>  -12.8083    1.0000 </r>
       <r>  -12.7603    1.0000 </r>
       <r>  -12.2115    1.0000 </r>
       <r>  -12.1517    1.0000 </r>
       <r>   -5.1016    1.0000 </r>
       <r>   -4.9834    1.0000 </r>
       <r>   -4.0461    1.0000 </r>
       <r>   -3.9167    1.0000 </r>
       <r>   -3.8524    1.0000 </r>
       <r>   -3.7313    1.0000 </r>
       <r>   -2.7384    1.0000 </r>
       <r>   -2.7288    1.0000 </r>
       <r>   -1.7014    1.0000 </r>
       <r>   -1.4978    1.0000 </r>
       <r>   -1.4885    1.0000 </r>
       <r>   -1.4157    1.0000 </r>
       <r>   -0.9694    1.0000 </r>
       <r>   -0.8949    1.0000 </r>
       <r>    2.0527   -0.0000 </r>
       <r>    2.1561   -0.0000 </r>
       <r>    2.1677   -0.0000 </r>
       <r>    2.3325   -0.0000 </r>
       <r>    3.1159    0.0000 </r>
       <r>    3.3598    0.0000 </r>
       <r>    3.8971    0.0000 </r>
       <r>    3.9149    0.0000 </r>
       <r>    7.0609    0.0000 </r>
       <r>    7.2470    0.0000 </r>
       <r>    7.8491    0.0000 </r>
       <r>    8.1028    0.0000 </r>
      </set>
      <set comment="kpoint 6">
       <r>  -35.1045    1.0000 </r>
       <r>  -35.0955    1.0000 </r>
       <r>  -34.9161    1.0000 </r>
       <r>  -34.9070    1.0000 </r>
       <r>  -34.8618    1.0000 </r>
       <r>  -34.8526    1.0000 </r>
       <r>  -12.3962    1.0000 </r>
       <r>  -12.3559    1.0000 </r>
       <r>  -12.0451    1.0000 </r>
       <r>  -11.9999    1.0000 </r>
       <r>   -5.4164    1.0000 </r>
       <r>   -5.3569    1.0000 </r>
       <r>   -4.4625    1.0000 </r>
       <r>   -4.3740    1.0000 </r>
       <r>   -3.9418    1.0000 </r>
       <r>   -3.8068    1.0000 </r>
       <r>   -2.9982    1.0000 </r>
       <r>   -2.9886    1.0000 </r>
       <r>   -1.9091    1.0000 </r>
       <r>   -1.6518    1.0000 </r>
       <r>   -1.1800    1.0000 </r>
       <r>   -1.1689    1.0000 </r>
       <r>   -0.9273    1.0000 </r>
       <r>   -0.8296    1.0000 </r>
       <r>    2.1109   -0.0000 </r>
       <r>    2.1212   -0.0000 </r>
       <r>    2.3182   -0.0000 </r>
       <r>    2.5064   -0.0000 </r>
       <r>    3.5114    0.0000 </r>
       <r>    3.7416    0.0000 </r>
       <r>    4.0863    0.0000 </r>
       <r>    4.1072    0.0000 </r>
       <r>    6.8476    0.0000 </r>
       <r>    7.1742    0.0000 </r>
       <r>    7.6878    0.0000 </r>
       <r>    7.9655    0.0000 </r>
      </set>
      <set comment="kpoint 7">
       <r>  -35.1436    1.0000 </r>
       <r>  -35.1346    1.0000 </r>
       <r>  -34.9081    1.0000 </r>
       <r>  -34.8989    1.0000 </r>
       <r>  -34.8710    1.0000 </r>
       <r>  -34.8619    1.0000 </r>
       <r>  -12.1369    1.0000 </r>
       <r>  -12.1044    1.0000 </r>
       <r>  -11.9432    1.0000 </r>
       <r>  -11.9090    1.0000 </r>
       <r>   -5.6545    1.0000 </r>
       <r>   -5.6110    1.0000 </r>
       <r>   -4.7113    1.0000 </r>
       <r>   -4.6425    1.0000 </r>
       <r>   -4.0436    1.0000 </r>
       <r>   -3.9193    1.0000 </r>
       <r>   -3.1342    1.0000 </r>
       <r>   -3.1245    1.0000 </r>
       <r>   -2.0089    1.0000 </r>
       <r>   -1.7689    1.0000 </r>
       <r>   -1.0130    1.0000 </r>
       <r>   -1.0009    1.0000 </r>
       <r>   -0.7072    1.0000 </r>
       <r>   -0.6019    1.0000 </r>
       <r>    2.1367   -0.0000 </r>
       <r>    2.1461   -0.0000 </r>
       <r>    2.5727   -0.0000 </r>
       <r>    2.6533   -0.0000 </r>
       <r>    3.7285    0.0000 </r>
       <r>    3.9337    0.0000 </r>
       <r>    4.1721    0.0000 </r>
       <r>    4.1946    0.0000 </r>
       <r>    6.0774    0.0000 </r>
       <r>    6.4842    0.0000 </r>
       <r>    7.9286    0.0000 </r>
       <r>    8.1138    0.0000 </r>
      </set>
      <set comment="kpoint 8">
       <r>  -34.9750    1.0000 </r>
       <r>  -34.9658    1.0000 </r>
       <r>  -34.8096    1.0000 </r>
       <r>  -34.8004    1.0000 </r>
       <r>  -34.7931    1.0000 </r>
       <r>  -34.7841    1.0000 </r>
       <r>  -13.8731    1.0000 </r>
       <r>  -13.8171    1.0000 </r>
       <r>  -12.6570    1.0000 </r>
       <r>  -12.5659    1.0000 </r>
       <r>   -5.5720    1.0000 </r>
       <r>   -5.2839    1.0000 </r>
       <r>   -2.7964    1.0000 </r>
       <r>   -2.7862    1.0000 </r>
       <r>   -2.5184    1.0000 </r>
       <r>   -2.5090    1.0000 </r>
       <r>   -2.4479    1.0000 </r>
       <r>   -2.0570    1.0000 </r>
       <r>   -1.6532    1.0000 </r>
       <r>   -1.6431    1.0000 </r>
       <r>   -1.3407    1.0000 </r>
       <r>   -1.0592    1.0000 </r>
       <r>   -0.2278    1.0000 </r>
       <r>    0.1520    1.0349 </r>
       <r>    2.6073   -0.0000 </r>
       <r>    2.6213   -0.0000 </r>
       <r>    2.6637   -0.0000 </r>
       <r>    2.7119   -0.0000 </r>
       <r>    2.7965   -0.0000 </r>
       <r>    2.8193   -0.0000 </r>
       <r>    2.8626   -0.0000 </r>
       <r>    2.8761   -0.0000 </r>
       <r>    5.5084    0.0000 </r>
       <r>    5.8496    0.0000 </r>
       <r>    6.5820    0.0000 </r>
       <r>    6.9631    0.0000 </r>
      </set>
      <set comment="kpoint 9">
       <r>  -34.9672    1.0000 </r>
       <r>  -34.9581    1.0000 </r>
       <r>  -34.8485    1.0000 </r>
       <r>  -34.8394    1.0000 </r>
       <r>  -34.8031    1.0000 </r>
       <r>  -34.7941    1.0000 </r>
       <r>  -13.7053    1.0000 </r>
       <r>  -13.6500    1.0000 </r>
       <r>  -12.5859    1.0000 </r>
       <r>  -12.4997    1.0000 </r>
       <r>   -5.3900    1.0000 </r>
       <r>   -5.1053    1.0000 </r>
       <r>   -3.1110    1.0000 </r>
       <r>   -3.0983    1.0000 </r>
       <r>   -2.7859    1.0000 </r>
       <r>   -2.4700    1.0000 </r>
       <r>   -2.3503    1.0000 </r>
       <r>   -2.3408    1.0000 </r>
       <r>   -1.9668    1.0000 </r>
       <r>   -1.9554    1.0000 </r>
       <r>   -1.1803    1.0000 </r>
       <r>   -0.8787    1.0000 </r>
       <r>   -0.3013    1.0000 </r>
       <r>   -0.0304    1.0001 </r>
       <r>    2.3167   -0.0000 </r>
       <r>    2.4354   -0.0000 </r>
       <r>    2.4755   -0.0000 </r>
       <r>    2.5522   -0.0000 </r>
       <r>    2.6321   -0.0000 </r>
       <r>    2.6561   -0.0000 </r>
       <r>    3.1377    0.0000 </r>
       <r>    3.1593    0.0000 </r>
       <r>    5.7497    0.0000 </r>
       <r>    6.0939    0.0000 </r>
       <r>    6.8507    0.0000 </r>
       <r>    7.5651    0.0000 </r>
      </set>
      <set comment="kpoint 10">
       <r>  -34.9535    1.0000 </r>
       <r>  -34.9443    1.0000 </r>
       <r>  -34.9161    1.0000 </r>
       <r>  -34.9070    1.0000 </r>
       <r>  -34.8217    1.0000 </r>
       <r>  -34.8126    1.0000 </r>
       <r>  -13.3925    1.0000 </r>
       <r>  -13.3391    1.0000 </r>
       <r>  -12.4536    1.0000 </r>
       <r>  -12.3766    1.0000 </r>
       <r>   -5.1105    1.0000 </r>
       <r>   -4.8469    1.0000 </r>
       <r>   -3.5543    1.0000 </r>
       <r>   -3.5286    1.0000 </r>
       <r>   -3.2202    1.0000 </r>
       <r>   -2.9910    1.0000 </r>
       <r>   -2.4521    1.0000 </r>
       <r>   -2.4295    1.0000 </r>
       <r>   -2.0661    1.0000 </r>
       <r>   -2.0563    1.0000 </r>
       <r>   -1.1583    1.0000 </r>
       <r>   -0.8858    1.0000 </r>
       <r>   -0.5316    1.0000 </r>
       <r>   -0.4038    1.0000 </r>
       <r>    1.9704   -0.0000 </r>
       <r>    2.1994   -0.0000 </r>
       <r>    2.4059   -0.0000 </r>
       <r>    2.4289   -0.0000 </r>
       <r>    2.4858   -0.0000 </r>
       <r>    2.6390   -0.0000 </r>
       <r>    3.5451    0.0000 </r>
       <r>    3.5747    0.0000 </r>
       <r>    6.1945    0.0000 </r>
       <r>    6.5169    0.0000 </r>
       <r>    7.2258    0.0000 </r>
       <r>    8.1980    0.0000 </r>
      </set>
      <set comment="kpoint 11">
       <r>  -34.9964    1.0000 </r>
       <r>  -34.9874    1.0000 </r>
       <r>  -34.9369    1.0000 </r>
       <r>  -34.9277    1.0000 </r>
       <r>  -34.8441    1.0000 </r>
       <r>  -34.8350    1.0000 </r>
       <r>  -12.9822    1.0000 </r>
       <r>  -12.9326    1.0000 </r>
       <r>  -12.2814    1.0000 </r>
       <r>  -12.2169    1.0000 </r>
       <r>   -4.9868    1.0000 </r>
       <r>   -4.8167    1.0000 </r>
       <r>   -3.8601    1.0000 </r>
       <r>   -3.7609    1.0000 </r>
       <r>   -3.7034    1.0000 </r>
       <r>   -3.5856    1.0000 </r>
       <r>   -2.8474    1.0000 </r>
       <r>   -2.7914    1.0000 </r>
       <r>   -1.7839    1.0000 </r>
       <r>   -1.7708    1.0000 </r>
       <r>   -1.3700    1.0000 </r>
       <r>   -1.1366    1.0000 </r>
       <r>   -0.8374    1.0000 </r>
       <r>   -0.7787    1.0000 </r>
       <r>    1.8647   -0.0000 </r>
       <r>    2.0738   -0.0000 </r>
       <r>    2.2918   -0.0000 </r>
       <r>    2.3827   -0.0000 </r>
       <r>    2.7663   -0.0000 </r>
       <r>    2.9562   -0.0000 </r>
       <r>    3.8994    0.0000 </r>
       <r>    3.9365    0.0000 </r>
       <r>    6.8146    0.0000 </r>
       <r>    7.0640    0.0000 </r>
       <r>    7.7681    0.0000 </r>
       <r>    8.3351    0.0000 </r>
      </set>
      <set comment="kpoint 12">
       <r>  -35.0710    1.0000 </r>
       <r>  -35.0620    1.0000 </r>
       <r>  -34.9212    1.0000 </r>
       <r>  -34.9120    1.0000 </r>
       <r>  -34.8651    1.0000 </r>
       <r>  -34.8560    1.0000 </r>
       <r>  -12.5505    1.0000 </r>
       <r>  -12.5075    1.0000 </r>
       <r>  -12.1031    1.0000 </r>
       <r>  -12.0530    1.0000 </r>
       <r>   -5.2074    1.0000 </r>
       <r>   -5.1274    1.0000 </r>
       <r>   -4.2789    1.0000 </r>
       <r>   -4.1954    1.0000 </r>
       <r>   -3.8624    1.0000 </r>
       <r>   -3.7257    1.0000 </r>
       <r>   -3.0627    1.0000 </r>
       <r>   -3.0034    1.0000 </r>
       <r>   -1.6784    1.0000 </r>
       <r>   -1.6193    1.0000 </r>
       <r>   -1.6022    1.0000 </r>
       <r>   -1.4506    1.0000 </r>
       <r>   -0.8598    1.0000 </r>
       <r>   -0.8124    1.0000 </r>
       <r>    1.9697   -0.0000 </r>
       <r>    2.1098   -0.0000 </r>
       <r>    2.3325   -0.0000 </r>
       <r>    2.4458   -0.0000 </r>
       <r>    3.1947    0.0000 </r>
       <r>    3.3727    0.0000 </r>
       <r>    4.0990    0.0000 </r>
       <r>    4.1508    0.0000 </r>
       <r>    7.3777    0.0000 </r>
       <r>    7.5281    0.0000 </r>
       <r>    7.6364    0.0000 </r>
       <r>    8.0986    0.0000 </r>
      </set>
      <set comment="kpoint 13">
       <r>  -35.1234    1.0000 </r>
       <r>  -35.1144    1.0000 </r>
       <r>  -34.9100    1.0000 </r>
       <r>  -34.9009    1.0000 </r>
       <r>  -34.8800    1.0000 </r>
       <r>  -34.8708    1.0000 </r>
       <r>  -12.2067    1.0000 </r>
       <r>  -12.1721    1.0000 </r>
       <r>  -11.9645    1.0000 </r>
       <r>  -11.9274    1.0000 </r>
       <r>   -5.4864    1.0000 </r>
       <r>   -5.4378    1.0000 </r>
       <r>   -4.6633    1.0000 </r>
       <r>   -4.6037    1.0000 </r>
       <r>   -3.9648    1.0000 </r>
       <r>   -3.8353    1.0000 </r>
       <r>   -3.1504    1.0000 </r>
       <r>   -3.1103    1.0000 </r>
       <r>   -1.9066    1.0000 </r>
       <r>   -1.6933    1.0000 </r>
       <r>   -1.4823    1.0000 </r>
       <r>   -1.4531    1.0000 </r>
       <r>   -0.6483    1.0000 </r>
       <r>   -0.5837    1.0000 </r>
       <r>    2.1132   -0.0000 </r>
       <r>    2.1775   -0.0000 </r>
       <r>    2.5091   -0.0000 </r>
       <r>    2.6030   -0.0000 </r>
       <r>    3.5975    0.0000 </r>
       <r>    3.7340    0.0000 </r>
       <r>    4.0928    0.0000 </r>
       <r>    4.1881    0.0000 </r>
       <r>    6.4848    0.0000 </r>
       <r>    6.8907    0.0000 </r>
       <r>    8.1135    0.0000 </r>
       <r>    8.3390    0.0000 </r>
      </set>
      <set comment="kpoint 14">
       <r>  -35.1422    1.0000 </r>
       <r>  -35.1332    1.0000 </r>
       <r>  -34.9060    1.0000 </r>
       <r>  -34.8968    1.0000 </r>
       <r>  -34.8854    1.0000 </r>
       <r>  -34.8762    1.0000 </r>
       <r>  -12.0728    1.0000 </r>
       <r>  -12.0421    1.0000 </r>
       <r>  -11.9115    1.0000 </r>
       <r>  -11.8797    1.0000 </r>
       <r>   -5.6025    1.0000 </r>
       <r>   -5.5609    1.0000 </r>
       <r>   -4.8056    1.0000 </r>
       <r>   -4.7511    1.0000 </r>
       <r>   -4.0337    1.0000 </r>
       <r>   -3.9097    1.0000 </r>
       <r>   -3.1678    1.0000 </r>
       <r>   -3.1445    1.0000 </r>
       <r>   -1.9969    1.0000 </r>
       <r>   -1.7776    1.0000 </r>
       <r>   -1.4256    1.0000 </r>
       <r>   -1.3715    1.0000 </r>
       <r>   -0.5147    1.0000 </r>
       <r>   -0.4422    1.0000 </r>
       <r>    2.1542   -0.0000 </r>
       <r>    2.1726   -0.0000 </r>
       <r>    2.6601   -0.0000 </r>
       <r>    2.7143   -0.0000 </r>
       <r>    3.8456    0.0000 </r>
       <r>    3.9120    0.0000 </r>
       <r>    3.9969    0.0000 </r>
       <r>    4.1062    0.0000 </r>
       <r>    6.0583    0.0000 </r>
       <r>    6.4896    0.0000 </r>
       <r>    8.3356    0.0000 </r>
       <r>    8.3989    0.0000 </r>
      </set>
      <set comment="kpoint 15">
       <r>  -35.1234    1.0000 </r>
       <r>  -35.1144    1.0000 </r>
       <r>  -34.9100    1.0000 </r>
       <r>  -34.9009    1.0000 </r>
       <r>  -34.8800    1.0000 </r>
       <r>  -34.8708    1.0000 </r>
       <r>  -12.2078    1.0000 </r>
       <r>  -12.1714    1.0000 </r>
       <r>  -11.9653    1.0000 </r>
       <r>  -11.9263    1.0000 </r>
       <r>   -5.4866    1.0000 </r>
       <r>   -5.4374    1.0000 </r>
       <r>   -4.6646    1.0000 </r>
       <r>   -4.6026    1.0000 </r>
       <r>   -3.9651    1.0000 </r>
       <r>   -3.8345    1.0000 </r>
       <r>   -3.1495    1.0000 </r>
       <r>   -3.1122    1.0000 </r>
       <r>   -1.9137    1.0000 </r>
       <r>   -1.6930    1.0000 </r>
       <r>   -1.4959    1.0000 </r>
       <r>   -1.4299    1.0000 </r>
       <r>   -0.6462    1.0000 </r>
       <r>   -0.5861    1.0000 </r>
       <r>    2.1176   -0.0000 </r>
       <r>    2.1716   -0.0000 </r>
       <r>    2.5068   -0.0000 </r>
       <r>    2.6055   -0.0000 </r>
       <r>    3.5720    0.0000 </r>
       <r>    3.7586    0.0000 </r>
       <r>    4.1050    0.0000 </r>
       <r>    4.1793    0.0000 </r>
       <r>    6.4846    0.0000 </r>
       <r>    6.8911    0.0000 </r>
       <r>    8.0820    0.0000 </r>
       <r>    8.2301    0.0000 </r>
      </set>
      <set comment="kpoint 16">
       <r>  -35.0710    1.0000 </r>
       <r>  -35.0620    1.0000 </r>
       <r>  -34.9212    1.0000 </r>
       <r>  -34.9120    1.0000 </r>
       <r>  -34.8652    1.0000 </r>
       <r>  -34.8560    1.0000 </r>
       <r>  -12.5516    1.0000 </r>
       <r>  -12.5066    1.0000 </r>
       <r>  -12.1042    1.0000 </r>
       <r>  -12.0516    1.0000 </r>
       <r>   -5.2075    1.0000 </r>
       <r>   -5.1270    1.0000 </r>
       <r>   -4.2810    1.0000 </r>
       <r>   -4.1939    1.0000 </r>
       <r>   -3.8644    1.0000 </r>
       <r>   -3.7226    1.0000 </r>
       <r>   -3.0638    1.0000 </r>
       <r>   -3.0043    1.0000 </r>
       <r>   -1.7019    1.0000 </r>
       <r>   -1.6156    1.0000 </r>
       <r>   -1.5964    1.0000 </r>
       <r>   -1.4326    1.0000 </r>
       <r>   -0.8599    1.0000 </r>
       <r>   -0.8115    1.0000 </r>
       <r>    1.9671   -0.0000 </r>
       <r>    2.1090   -0.0000 </r>
       <r>    2.3319   -0.0000 </r>
       <r>    2.4484   -0.0000 </r>
       <r>    3.1733    0.0000 </r>
       <r>    3.3963    0.0000 </r>
       <r>    4.1007    0.0000 </r>
       <r>    4.1477    0.0000 </r>
       <r>    7.3778    0.0000 </r>
       <r>    7.5376    0.0000 </r>
       <r>    7.6331    0.0000 </r>
       <r>    8.1308    0.0000 </r>
      </set>
      <set comment="kpoint 17">
       <r>  -34.9963    1.0000 </r>
       <r>  -34.9874    1.0000 </r>
       <r>  -34.9369    1.0000 </r>
       <r>  -34.9277    1.0000 </r>
       <r>  -34.8441    1.0000 </r>
       <r>  -34.8349    1.0000 </r>
       <r>  -12.9830    1.0000 </r>
       <r>  -12.9319    1.0000 </r>
       <r>  -12.2824    1.0000 </r>
       <r>  -12.2157    1.0000 </r>
       <r>   -4.9868    1.0000 </r>
       <r>   -4.8168    1.0000 </r>
       <r>   -3.8649    1.0000 </r>
       <r>   -3.7567    1.0000 </r>
       <r>   -3.7046    1.0000 </r>
       <r>   -3.5832    1.0000 </r>
       <r>   -2.8504    1.0000 </r>
       <r>   -2.7901    1.0000 </r>
       <r>   -1.7832    1.0000 </r>
       <r>   -1.7733    1.0000 </r>
       <r>   -1.3794    1.0000 </r>
       <r>   -1.1251    1.0000 </r>
       <r>   -0.8382    1.0000 </r>
       <r>   -0.7722    1.0000 </r>
       <r>    1.8589   -0.0000 </r>
       <r>    2.0776   -0.0000 </r>
       <r>    2.2910   -0.0000 </r>
       <r>    2.3849   -0.0000 </r>
       <r>    2.7511   -0.0000 </r>
       <r>    2.9706   -0.0000 </r>
       <r>    3.9008    0.0000 </r>
       <r>    3.9324    0.0000 </r>
       <r>    6.8151    0.0000 </r>
       <r>    7.0638    0.0000 </r>
       <r>    7.7791    0.0000 </r>
       <r>    8.3259    0.0000 </r>
      </set>
      <set comment="kpoint 18">
       <r>  -34.9535    1.0000 </r>
       <r>  -34.9443    1.0000 </r>
       <r>  -34.9160    1.0000 </r>
       <r>  -34.9070    1.0000 </r>
       <r>  -34.8218    1.0000 </r>
       <r>  -34.8126    1.0000 </r>
       <r>  -13.3931    1.0000 </r>
       <r>  -13.3387    1.0000 </r>
       <r>  -12.4544    1.0000 </r>
       <r>  -12.3758    1.0000 </r>
       <r>   -5.1114    1.0000 </r>
       <r>   -4.8463    1.0000 </r>
       <r>   -3.5554    1.0000 </r>
       <r>   -3.5277    1.0000 </r>
       <r>   -3.2186    1.0000 </r>
       <r>   -2.9924    1.0000 </r>
       <r>   -2.4549    1.0000 </r>
       <r>   -2.4273    1.0000 </r>
       <r>   -2.0659    1.0000 </r>
       <r>   -2.0567    1.0000 </r>
       <r>   -1.1720    1.0000 </r>
       <r>   -0.8751    1.0000 </r>
       <r>   -0.5358    1.0000 </r>
       <r>   -0.3879    1.0000 </r>
       <r>    1.9630   -0.0000 </r>
       <r>    2.1980   -0.0000 </r>
       <r>    2.4075   -0.0000 </r>
       <r>    2.4342   -0.0000 </r>
       <r>    2.4749   -0.0000 </r>
       <r>    2.6453   -0.0000 </r>
       <r>    3.5516    0.0000 </r>
       <r>    3.5664    0.0000 </r>
       <r>    6.1944    0.0000 </r>
       <r>    6.5174    0.0000 </r>
       <r>    7.2256    0.0000 </r>
       <r>    8.2039    0.0000 </r>
      </set>
      <set comment="kpoint 19">
       <r>  -34.9672    1.0000 </r>
       <r>  -34.9581    1.0000 </r>
       <r>  -34.8484    1.0000 </r>
       <r>  -34.8395    1.0000 </r>
       <r>  -34.8033    1.0000 </r>
       <r>  -34.7941    1.0000 </r>
       <r>  -13.7056    1.0000 </r>
       <r>  -13.6498    1.0000 </r>
       <r>  -12.5864    1.0000 </r>
       <r>  -12.4992    1.0000 </r>
       <r>   -5.3908    1.0000 </r>
       <r>   -5.1046    1.0000 </r>
       <r>   -3.1102    1.0000 </r>
       <r>   -3.0992    1.0000 </r>
       <r>   -2.7840    1.0000 </r>
       <r>   -2.4716    1.0000 </r>
       <r>   -2.3501    1.0000 </r>
       <r>   -2.3409    1.0000 </r>
       <r>   -1.9664    1.0000 </r>
       <r>   -1.9563    1.0000 </r>
       <r>   -1.1939    1.0000 </r>
       <r>   -0.8676    1.0000 </r>
       <r>   -0.3050    1.0000 </r>
       <r>   -0.0143    1.0002 </r>
       <r>    2.2950   -0.0000 </r>
       <r>    2.4336   -0.0000 </r>
       <r>    2.4684   -0.0000 </r>
       <r>    2.5684   -0.0000 </r>
       <r>    2.6392   -0.0000 </r>
       <r>    2.6532   -0.0000 </r>
       <r>    3.1420    0.0000 </r>
       <r>    3.1546    0.0000 </r>
       <r>    5.7491    0.0000 </r>
       <r>    6.0944    0.0000 </r>
       <r>    6.9331    0.0000 </r>
       <r>    7.6025    0.0000 </r>
      </set>
      <set comment="kpoint 20">
       <r>  -34.9750    1.0000 </r>
       <r>  -34.9658    1.0000 </r>
       <r>  -34.8095    1.0000 </r>
       <r>  -34.8005    1.0000 </r>
       <r>  -34.7932    1.0000 </r>
       <r>  -34.7840    1.0000 </r>
       <r>  -13.8732    1.0000 </r>
       <r>  -13.8170    1.0000 </r>
       <r>  -12.6572    1.0000 </r>
       <r>  -12.5657    1.0000 </r>
       <r>   -5.5723    1.0000 </r>
       <r>   -5.2836    1.0000 </r>
       <r>   -2.7963    1.0000 </r>
       <r>   -2.7864    1.0000 </r>
       <r>   -2.5187    1.0000 </r>
       <r>   -2.5090    1.0000 </r>
       <r>   -2.4467    1.0000 </r>
       <r>   -2.0571    1.0000 </r>
       <r>   -1.6538    1.0000 </r>
       <r>   -1.6426    1.0000 </r>
       <r>   -1.3504    1.0000 </r>
       <r>   -1.0515    1.0000 </r>
       <r>   -0.2291    1.0000 </r>
       <r>    0.1585    1.0326 </r>
       <r>    2.5885   -0.0000 </r>
       <r>    2.6227   -0.0000 </r>
       <r>    2.6508   -0.0000 </r>
       <r>    2.7371   -0.0000 </r>
       <r>    2.7913   -0.0000 </r>
       <r>    2.8227   -0.0000 </r>
       <r>    2.8588   -0.0000 </r>
       <r>    2.8820   -0.0000 </r>
       <r>    5.5116    0.0000 </r>
       <r>    5.8498    0.0000 </r>
       <r>    6.5658    0.0000 </r>
       <r>    6.9613    0.0000 </r>
      </set>
      <set comment="kpoint 21">
       <r>  -34.9636    1.0000 </r>
       <r>  -34.9544    1.0000 </r>
       <r>  -34.8681    1.0000 </r>
       <r>  -34.8589    1.0000 </r>
       <r>  -34.8065    1.0000 </r>
       <r>  -34.7975    1.0000 </r>
       <r>  -13.6243    1.0000 </r>
       <r>  -13.5695    1.0000 </r>
       <r>  -12.5517    1.0000 </r>
       <r>  -12.4680    1.0000 </r>
       <r>   -5.3113    1.0000 </r>
       <r>   -5.0304    1.0000 </r>
       <r>   -3.2468    1.0000 </r>
       <r>   -3.2340    1.0000 </r>
       <r>   -2.9469    1.0000 </r>
       <r>   -2.6733    1.0000 </r>
       <r>   -2.2632    1.0000 </r>
       <r>   -2.2530    1.0000 </r>
       <r>   -1.9892    1.0000 </r>
       <r>   -1.9773    1.0000 </r>
       <r>   -1.2469    1.0000 </r>
       <r>   -0.9364    1.0000 </r>
       <r>   -0.3557    1.0000 </r>
       <r>   -0.1341    1.0000 </r>
       <r>    2.2024   -0.0000 </r>
       <r>    2.3740   -0.0000 </r>
       <r>    2.5144   -0.0000 </r>
       <r>    2.5635   -0.0000 </r>
       <r>    2.5970   -0.0000 </r>
       <r>    2.6262   -0.0000 </r>
       <r>    3.2046    0.0000 </r>
       <r>    3.2294    0.0000 </r>
       <r>    5.8562    0.0000 </r>
       <r>    6.1997    0.0000 </r>
       <r>    6.8966    0.0000 </r>
       <r>    7.7719    0.0000 </r>
      </set>
      <set comment="kpoint 22">
       <r>  -34.9535    1.0000 </r>
       <r>  -34.9443    1.0000 </r>
       <r>  -34.9161    1.0000 </r>
       <r>  -34.9069    1.0000 </r>
       <r>  -34.8216    1.0000 </r>
       <r>  -34.8126    1.0000 </r>
       <r>  -13.3924    1.0000 </r>
       <r>  -13.3393    1.0000 </r>
       <r>  -12.4534    1.0000 </r>
       <r>  -12.3769    1.0000 </r>
       <r>   -5.1103    1.0000 </r>
       <r>   -4.8471    1.0000 </r>
       <r>   -3.5518    1.0000 </r>
       <r>   -3.5311    1.0000 </r>
       <r>   -3.2200    1.0000 </r>
       <r>   -2.9916    1.0000 </r>
       <r>   -2.4533    1.0000 </r>
       <r>   -2.4279    1.0000 </r>
       <r>   -2.0668    1.0000 </r>
       <r>   -2.0555    1.0000 </r>
       <r>   -1.1495    1.0000 </r>
       <r>   -0.8926    1.0000 </r>
       <r>   -0.5292    1.0000 </r>
       <r>   -0.4119    1.0000 </r>
       <r>    1.9749   -0.0000 </r>
       <r>    2.1994   -0.0000 </r>
       <r>    2.4011   -0.0000 </r>
       <r>    2.4370   -0.0000 </r>
       <r>    2.4842   -0.0000 </r>
       <r>    2.6372   -0.0000 </r>
       <r>    3.5388    0.0000 </r>
       <r>    3.5806    0.0000 </r>
       <r>    6.1930    0.0000 </r>
       <r>    6.5161    0.0000 </r>
       <r>    7.2278    0.0000 </r>
       <r>    8.2604    0.0000 </r>
      </set>
      <set comment="kpoint 23">
       <r>  -34.9782    1.0000 </r>
       <r>  -34.9691    1.0000 </r>
       <r>  -34.9392    1.0000 </r>
       <r>  -34.9300    1.0000 </r>
       <r>  -34.8480    1.0000 </r>
       <r>  -34.8390    1.0000 </r>
       <r>  -13.0432    1.0000 </r>
       <r>  -12.9934    1.0000 </r>
       <r>  -12.3052    1.0000 </r>
       <r>  -12.2396    1.0000 </r>
       <r>   -4.9385    1.0000 </r>
       <r>   -4.7405    1.0000 </r>
       <r>   -3.7959    1.0000 </r>
       <r>   -3.7276    1.0000 </r>
       <r>   -3.5093    1.0000 </r>
       <r>   -3.3854    1.0000 </r>
       <r>   -3.0801    1.0000 </r>
       <r>   -2.9855    1.0000 </r>
       <r>   -1.9382    1.0000 </r>
       <r>   -1.9211    1.0000 </r>
       <r>   -1.1240    1.0000 </r>
       <r>   -0.9325    1.0000 </r>
       <r>   -0.7705    1.0000 </r>
       <r>   -0.7229    1.0000 </r>
       <r>    1.7732   -0.0000 </r>
       <r>    2.0006   -0.0000 </r>
       <r>    2.3340   -0.0000 </r>
       <r>    2.4137   -0.0000 </r>
       <r>    2.5351   -0.0000 </r>
       <r>    2.7218   -0.0000 </r>
       <r>    3.9371    0.0000 </r>
       <r>    3.9979    0.0000 </r>
       <r>    6.7315    0.0000 </r>
       <r>    7.0070    0.0000 </r>
       <r>    7.7344    0.0000 </r>
       <r>    8.5582    0.0000 </r>
      </set>
      <set comment="kpoint 24">
       <r>  -35.0410    1.0000 </r>
       <r>  -35.0319    1.0000 </r>
       <r>  -34.9240    1.0000 </r>
       <r>  -34.9149    1.0000 </r>
       <r>  -34.8783    1.0000 </r>
       <r>  -34.8693    1.0000 </r>
       <r>  -12.6362    1.0000 </r>
       <r>  -12.5922    1.0000 </r>
       <r>  -12.1327    1.0000 </r>
       <r>  -12.0804    1.0000 </r>
       <r>   -5.0146    1.0000 </r>
       <r>   -4.9091    1.0000 </r>
       <r>   -4.0883    1.0000 </r>
       <r>   -4.0444    1.0000 </r>
       <r>   -3.7685    1.0000 </r>
       <r>   -3.6421    1.0000 </r>
       <r>   -3.2999    1.0000 </r>
       <r>   -3.1540    1.0000 </r>
       <r>   -2.0664    1.0000 </r>
       <r>   -2.0402    1.0000 </r>
       <r>   -1.3436    1.0000 </r>
       <r>   -1.1845    1.0000 </r>
       <r>   -0.8320    1.0000 </r>
       <r>   -0.7971    1.0000 </r>
       <r>    1.7979   -0.0000 </r>
       <r>    2.0548   -0.0000 </r>
       <r>    2.4032   -0.0000 </r>
       <r>    2.4563   -0.0000 </r>
       <r>    2.8004   -0.0000 </r>
       <r>    2.9708   -0.0000 </r>
       <r>    4.1959    0.0000 </r>
       <r>    4.2760    0.0000 </r>
       <r>    7.4064    0.0000 </r>
       <r>    7.5918    0.0000 </r>
       <r>    8.1405    0.0000 </r>
       <r>    8.4638    0.0000 </r>
      </set>
      <set comment="kpoint 25">
       <r>  -35.0916    1.0000 </r>
       <r>  -35.0826    1.0000 </r>
       <r>  -34.9114    1.0000 </r>
       <r>  -34.9044    1.0000 </r>
       <r>  -34.9023    1.0000 </r>
       <r>  -34.8952    1.0000 </r>
       <r>  -12.2607    1.0000 </r>
       <r>  -12.2248    1.0000 </r>
       <r>  -11.9746    1.0000 </r>
       <r>  -11.9356    1.0000 </r>
       <r>   -5.2122    1.0000 </r>
       <r>   -5.1502    1.0000 </r>
       <r>   -4.6279    1.0000 </r>
       <r>   -4.5953    1.0000 </r>
       <r>   -3.7978    1.0000 </r>
       <r>   -3.6625    1.0000 </r>
       <r>   -3.2709    1.0000 </r>
       <r>   -3.1516    1.0000 </r>
       <r>   -2.1971    1.0000 </r>
       <r>   -2.1642    1.0000 </r>
       <r>   -1.6852    1.0000 </r>
       <r>   -1.5201    1.0000 </r>
       <r>   -0.6548    1.0000 </r>
       <r>   -0.6245    1.0000 </r>
       <r>    2.0178   -0.0000 </r>
       <r>    2.2297   -0.0000 </r>
       <r>    2.5233   -0.0000 </r>
       <r>    2.5617   -0.0000 </r>
       <r>    3.1635    0.0000 </r>
       <r>    3.2722    0.0000 </r>
       <r>    4.2643    0.0000 </r>
       <r>    4.3811    0.0000 </r>
       <r>    7.1208    0.0000 </r>
       <r>    7.4992    0.0000 </r>
       <r>    8.2237    0.0000 </r>
       <r>    8.5175    0.0000 </r>
      </set>
      <set comment="kpoint 26">
       <r>  -35.1198    1.0000 </r>
       <r>  -35.1107    1.0000 </r>
       <r>  -34.9192    1.0000 </r>
       <r>  -34.9101    1.0000 </r>
       <r>  -34.9043    1.0000 </r>
       <r>  -34.8951    1.0000 </r>
       <r>  -12.0288    1.0000 </r>
       <r>  -11.9992    1.0000 </r>
       <r>  -11.8777    1.0000 </r>
       <r>  -11.8473    1.0000 </r>
       <r>   -5.3398    1.0000 </r>
       <r>   -5.2967    1.0000 </r>
       <r>   -4.9359    1.0000 </r>
       <r>   -4.9034    1.0000 </r>
       <r>   -3.9369    1.0000 </r>
       <r>   -3.8106    1.0000 </r>
       <r>   -3.1773    1.0000 </r>
       <r>   -3.1028    1.0000 </r>
       <r>   -2.2090    1.0000 </r>
       <r>   -2.1448    1.0000 </r>
       <r>   -1.9438    1.0000 </r>
       <r>   -1.7620    1.0000 </r>
       <r>   -0.4281    1.0000 </r>
       <r>   -0.3833    1.0000 </r>
       <r>    2.0713   -0.0000 </r>
       <r>    2.1234   -0.0000 </r>
       <r>    2.7740   -0.0000 </r>
       <r>    2.8664   -0.0000 </r>
       <r>    3.4318    0.0000 </r>
       <r>    3.4853    0.0000 </r>
       <r>    4.2085    0.0000 </r>
       <r>    4.3686    0.0000 </r>
       <r>    6.4063    0.0000 </r>
       <r>    6.8609    0.0000 </r>
       <r>    8.8475    0.0000 </r>
       <r>    8.9409    0.0000 </r>
      </set>
      <set comment="kpoint 27">
       <r>  -35.1197    1.0000 </r>
       <r>  -35.1108    1.0000 </r>
       <r>  -34.9193    1.0000 </r>
       <r>  -34.9101    1.0000 </r>
       <r>  -34.9043    1.0000 </r>
       <r>  -34.8951    1.0000 </r>
       <r>  -12.0303    1.0000 </r>
       <r>  -11.9982    1.0000 </r>
       <r>  -11.8786    1.0000 </r>
       <r>  -11.8459    1.0000 </r>
       <r>   -5.3400    1.0000 </r>
       <r>   -5.2961    1.0000 </r>
       <r>   -4.9365    1.0000 </r>
       <r>   -4.9029    1.0000 </r>
       <r>   -3.9371    1.0000 </r>
       <r>   -3.8106    1.0000 </r>
       <r>   -3.1763    1.0000 </r>
       <r>   -3.1048    1.0000 </r>
       <r>   -2.2241    1.0000 </r>
       <r>   -2.1364    1.0000 </r>
       <r>   -1.9381    1.0000 </r>
       <r>   -1.7581    1.0000 </r>
       <r>   -0.4282    1.0000 </r>
       <r>   -0.3837    1.0000 </r>
       <r>    2.0739   -0.0000 </r>
       <r>    2.1209   -0.0000 </r>
       <r>    2.7745   -0.0000 </r>
       <r>    2.8655   -0.0000 </r>
       <r>    3.3909    0.0000 </r>
       <r>    3.5289    0.0000 </r>
       <r>    4.2096    0.0000 </r>
       <r>    4.3676    0.0000 </r>
       <r>    6.4049    0.0000 </r>
       <r>    6.8602    0.0000 </r>
       <r>    8.7413    0.0000 </r>
       <r>    8.8459    0.0000 </r>
      </set>
      <set comment="kpoint 28">
       <r>  -35.0916    1.0000 </r>
       <r>  -35.0826    1.0000 </r>
       <r>  -34.9114    1.0000 </r>
       <r>  -34.9044    1.0000 </r>
       <r>  -34.9023    1.0000 </r>
       <r>  -34.8951    1.0000 </r>
       <r>  -12.2633    1.0000 </r>
       <r>  -12.2229    1.0000 </r>
       <r>  -11.9768    1.0000 </r>
       <r>  -11.9327    1.0000 </r>
       <r>   -5.2123    1.0000 </r>
       <r>   -5.1493    1.0000 </r>
       <r>   -4.6298    1.0000 </r>
       <r>   -4.5933    1.0000 </r>
       <r>   -3.8015    1.0000 </r>
       <r>   -3.6600    1.0000 </r>
       <r>   -3.2726    1.0000 </r>
       <r>   -3.1522    1.0000 </r>
       <r>   -2.2171    1.0000 </r>
       <r>   -2.1492    1.0000 </r>
       <r>   -1.6836    1.0000 </r>
       <r>   -1.5089    1.0000 </r>
       <r>   -0.6540    1.0000 </r>
       <r>   -0.6268    1.0000 </r>
       <r>    2.0217   -0.0000 </r>
       <r>    2.2230   -0.0000 </r>
       <r>    2.5203   -0.0000 </r>
       <r>    2.5668   -0.0000 </r>
       <r>    3.1246    0.0000 </r>
       <r>    3.3158    0.0000 </r>
       <r>    4.2640    0.0000 </r>
       <r>    4.3797    0.0000 </r>
       <r>    7.1244    0.0000 </r>
       <r>    7.4944    0.0000 </r>
       <r>    8.2219    0.0000 </r>
       <r>    8.4568    0.0000 </r>
      </set>
      <set comment="kpoint 29">
       <r>  -35.0409    1.0000 </r>
       <r>  -35.0320    1.0000 </r>
       <r>  -34.9240    1.0000 </r>
       <r>  -34.9149    1.0000 </r>
       <r>  -34.8784    1.0000 </r>
       <r>  -34.8692    1.0000 </r>
       <r>  -12.6384    1.0000 </r>
       <r>  -12.5905    1.0000 </r>
       <r>  -12.1351    1.0000 </r>
       <r>  -12.0776    1.0000 </r>
       <r>   -5.0137    1.0000 </r>
       <r>   -4.9094    1.0000 </r>
       <r>   -4.0903    1.0000 </r>
       <r>   -4.0394    1.0000 </r>
       <r>   -3.7834    1.0000 </r>
       <r>   -3.6323    1.0000 </r>
       <r>   -3.3033    1.0000 </r>
       <r>   -3.1515    1.0000 </r>
       <r>   -2.0630    1.0000 </r>
       <r>   -2.0449    1.0000 </r>
       <r>   -1.3571    1.0000 </r>
       <r>   -1.1622    1.0000 </r>
       <r>   -0.8246    1.0000 </r>
       <r>   -0.8032    1.0000 </r>
       <r>    1.7958   -0.0000 </r>
       <r>    2.0547   -0.0000 </r>
       <r>    2.4017   -0.0000 </r>
       <r>    2.4611   -0.0000 </r>
       <r>    2.7804   -0.0000 </r>
       <r>    2.9896   -0.0000 </r>
       <r>    4.1916    0.0000 </r>
       <r>    4.2778    0.0000 </r>
       <r>    7.4072    0.0000 </r>
       <r>    7.5915    0.0000 </r>
       <r>    8.1769    0.0000 </r>
       <r>    8.4350    0.0000 </r>
      </set>
      <set comment="kpoint 30">
       <r>  -34.9781    1.0000 </r>
       <r>  -34.9692    1.0000 </r>
       <r>  -34.9392    1.0000 </r>
       <r>  -34.9301    1.0000 </r>
       <r>  -34.8481    1.0000 </r>
       <r>  -34.8389    1.0000 </r>
       <r>  -13.0447    1.0000 </r>
       <r>  -12.9922    1.0000 </r>
       <r>  -12.3072    1.0000 </r>
       <r>  -12.2374    1.0000 </r>
       <r>   -4.9382    1.0000 </r>
       <r>   -4.7413    1.0000 </r>
       <r>   -3.8074    1.0000 </r>
       <r>   -3.7137    1.0000 </r>
       <r>   -3.5111    1.0000 </r>
       <r>   -3.3861    1.0000 </r>
       <r>   -3.0863    1.0000 </r>
       <r>   -2.9803    1.0000 </r>
       <r>   -1.9344    1.0000 </r>
       <r>   -1.9253    1.0000 </r>
       <r>   -1.1528    1.0000 </r>
       <r>   -0.9106    1.0000 </r>
       <r>   -0.7720    1.0000 </r>
       <r>   -0.7017    1.0000 </r>
       <r>    1.7672   -0.0000 </r>
       <r>    2.0018   -0.0000 </r>
       <r>    2.3320   -0.0000 </r>
       <r>    2.4168   -0.0000 </r>
       <r>    2.5255   -0.0000 </r>
       <r>    2.7265   -0.0000 </r>
       <r>    3.9401    0.0000 </r>
       <r>    3.9937    0.0000 </r>
       <r>    6.7308    0.0000 </r>
       <r>    7.0096    0.0000 </r>
       <r>    7.7334    0.0000 </r>
       <r>    8.5477    0.0000 </r>
      </set>
      <set comment="kpoint 31">
       <r>  -34.9535    1.0000 </r>
       <r>  -34.9443    1.0000 </r>
       <r>  -34.9160    1.0000 </r>
       <r>  -34.9070    1.0000 </r>
       <r>  -34.8218    1.0000 </r>
       <r>  -34.8126    1.0000 </r>
       <r>  -13.3933    1.0000 </r>
       <r>  -13.3385    1.0000 </r>
       <r>  -12.4548    1.0000 </r>
       <r>  -12.3754    1.0000 </r>
       <r>   -5.1117    1.0000 </r>
       <r>   -4.8461    1.0000 </r>
       <r>   -3.5581    1.0000 </r>
       <r>   -3.5249    1.0000 </r>
       <r>   -3.2189    1.0000 </r>
       <r>   -2.9917    1.0000 </r>
       <r>   -2.4546    1.0000 </r>
       <r>   -2.4282    1.0000 </r>
       <r>   -2.0663    1.0000 </r>
       <r>   -2.0561    1.0000 </r>
       <r>   -1.1816    1.0000 </r>
       <r>   -0.8682    1.0000 </r>
       <r>   -0.5382    1.0000 </r>
       <r>   -0.3782    1.0000 </r>
       <r>    1.9574   -0.0000 </r>
       <r>    2.1978   -0.0000 </r>
       <r>    2.4092   -0.0000 </r>
       <r>    2.4268   -0.0000 </r>
       <r>    2.4786   -0.0000 </r>
       <r>    2.6472   -0.0000 </r>
       <r>    3.5545    0.0000 </r>
       <r>    3.5644    0.0000 </r>
       <r>    6.1947    0.0000 </r>
       <r>    6.5185    0.0000 </r>
       <r>    7.2255    0.0000 </r>
       <r>    8.2392    0.0000 </r>
      </set>
      <set comment="kpoint 32">
       <r>  -34.9636    1.0000 </r>
       <r>  -34.9544    1.0000 </r>
       <r>  -34.8680    1.0000 </r>
       <r>  -34.8590    1.0000 </r>
       <r>  -34.8066    1.0000 </r>
       <r>  -34.7974    1.0000 </r>
       <r>  -13.6248    1.0000 </r>
       <r>  -13.5692    1.0000 </r>
       <r>  -12.5524    1.0000 </r>
       <r>  -12.4672    1.0000 </r>
       <r>   -5.3124    1.0000 </r>
       <r>   -5.0295    1.0000 </r>
       <r>   -3.2493    1.0000 </r>
       <r>   -3.2317    1.0000 </r>
       <r>   -2.9459    1.0000 </r>
       <r>   -2.6728    1.0000 </r>
       <r>   -2.2632    1.0000 </r>
       <r>   -2.2530    1.0000 </r>
       <r>   -1.9891    1.0000 </r>
       <r>   -1.9775    1.0000 </r>
       <r>   -1.2727    1.0000 </r>
       <r>   -0.9163    1.0000 </r>
       <r>   -0.3617    1.0000 </r>
       <r>   -0.1100    1.0000 </r>
       <r>    2.1744   -0.0000 </r>
       <r>    2.3774   -0.0000 </r>
       <r>    2.5048   -0.0000 </r>
       <r>    2.5654   -0.0000 </r>
       <r>    2.5955   -0.0000 </r>
       <r>    2.6450   -0.0000 </r>
       <r>    3.2029    0.0000 </r>
       <r>    3.2312    0.0000 </r>
       <r>    5.8613    0.0000 </r>
       <r>    6.2013    0.0000 </r>
       <r>    6.9275    0.0000 </r>
       <r>    7.7885    0.0000 </r>
      </set>
      <set comment="kpoint 33">
       <r>  -34.9672    1.0000 </r>
       <r>  -34.9581    1.0000 </r>
       <r>  -34.8485    1.0000 </r>
       <r>  -34.8394    1.0000 </r>
       <r>  -34.8031    1.0000 </r>
       <r>  -34.7941    1.0000 </r>
       <r>  -13.7054    1.0000 </r>
       <r>  -13.6499    1.0000 </r>
       <r>  -12.5862    1.0000 </r>
       <r>  -12.4994    1.0000 </r>
       <r>   -5.3905    1.0000 </r>
       <r>   -5.1049    1.0000 </r>
       <r>   -3.1106    1.0000 </r>
       <r>   -3.0988    1.0000 </r>
       <r>   -2.7848    1.0000 </r>
       <r>   -2.4709    1.0000 </r>
       <r>   -2.3503    1.0000 </r>
       <r>   -2.3408    1.0000 </r>
       <r>   -1.9666    1.0000 </r>
       <r>   -1.9559    1.0000 </r>
       <r>   -1.1881    1.0000 </r>
       <r>   -0.8723    1.0000 </r>
       <r>   -0.3034    1.0000 </r>
       <r>   -0.0213    1.0002 </r>
       <r>    2.3046   -0.0000 </r>
       <r>    2.4345   -0.0000 </r>
       <r>    2.4710   -0.0000 </r>
       <r>    2.5601   -0.0000 </r>
       <r>    2.6362   -0.0000 </r>
       <r>    2.6558   -0.0000 </r>
       <r>    3.1418    0.0000 </r>
       <r>    3.1551    0.0000 </r>
       <r>    5.7492    0.0000 </r>
       <r>    6.0942    0.0000 </r>
       <r>    6.9222    0.0000 </r>
       <r>    7.5973    0.0000 </r>
      </set>
      <set comment="kpoint 34">
       <r>  -34.9496    1.0000 </r>
       <r>  -34.9475    1.0000 </r>
       <r>  -34.9407    1.0000 </r>
       <r>  -34.9381    1.0000 </r>
       <r>  -34.8253    1.0000 </r>
       <r>  -34.8163    1.0000 </r>
       <r>  -13.2485    1.0000 </r>
       <r>  -13.1967    1.0000 </r>
       <r>  -12.3933    1.0000 </r>
       <r>  -12.3215    1.0000 </r>
       <r>   -5.0475    1.0000 </r>
       <r>   -4.8135    1.0000 </r>
       <r>   -3.7052    1.0000 </r>
       <r>   -3.6687    1.0000 </r>
       <r>   -3.4751    1.0000 </r>
       <r>   -3.2942    1.0000 </r>
       <r>   -2.3850    1.0000 </r>
       <r>   -2.3716    1.0000 </r>
       <r>   -1.8949    1.0000 </r>
       <r>   -1.8823    1.0000 </r>
       <r>   -1.4071    1.0000 </r>
       <r>   -1.1369    1.0000 </r>
       <r>   -0.6698    1.0000 </r>
       <r>   -0.5892    1.0000 </r>
       <r>    1.9673   -0.0000 </r>
       <r>    2.2509   -0.0000 </r>
       <r>    2.3123   -0.0000 </r>
       <r>    2.3492   -0.0000 </r>
       <r>    2.7114   -0.0000 </r>
       <r>    2.9100   -0.0000 </r>
       <r>    3.5808    0.0000 </r>
       <r>    3.6209    0.0000 </r>
       <r>    6.3988    0.0000 </r>
       <r>    6.6884    0.0000 </r>
       <r>    7.4141    0.0000 </r>
       <r>    8.3352    0.0000 </r>
      </set>
      <set comment="kpoint 35">
       <r>  -34.9965    1.0000 </r>
       <r>  -34.9873    1.0000 </r>
       <r>  -34.9369    1.0000 </r>
       <r>  -34.9277    1.0000 </r>
       <r>  -34.8440    1.0000 </r>
       <r>  -34.8350    1.0000 </r>
       <r>  -12.9815    1.0000 </r>
       <r>  -12.9331    1.0000 </r>
       <r>  -12.2805    1.0000 </r>
       <r>  -12.2178    1.0000 </r>
       <r>   -4.9871    1.0000 </r>
       <r>   -4.8165    1.0000 </r>
       <r>   -3.8516    1.0000 </r>
       <r>   -3.7695    1.0000 </r>
       <r>   -3.7014    1.0000 </r>
       <r>   -3.5872    1.0000 </r>
       <r>   -2.8483    1.0000 </r>
       <r>   -2.7905    1.0000 </r>
       <r>   -1.7864    1.0000 </r>
       <r>   -1.7687    1.0000 </r>
       <r>   -1.3490    1.0000 </r>
       <r>   -1.1549    1.0000 </r>
       <r>   -0.8326    1.0000 </r>
       <r>   -0.7906    1.0000 </r>
       <r>    1.8645   -0.0000 </r>
       <r>    2.0769   -0.0000 </r>
       <r>    2.2903   -0.0000 </r>
       <r>    2.3865   -0.0000 </r>
       <r>    2.7627   -0.0000 </r>
       <r>    2.9607   -0.0000 </r>
       <r>    3.8878    0.0000 </r>
       <r>    3.9466    0.0000 </r>
       <r>    6.8161    0.0000 </r>
       <r>    7.0604    0.0000 </r>
       <r>    7.8092    0.0000 </r>
       <r>    8.3804    0.0000 </r>
      </set>
      <set comment="kpoint 36">
       <r>  -35.0411    1.0000 </r>
       <r>  -35.0319    1.0000 </r>
       <r>  -34.9240    1.0000 </r>
       <r>  -34.9149    1.0000 </r>
       <r>  -34.8783    1.0000 </r>
       <r>  -34.8693    1.0000 </r>
[...]
       <r>    -2.1658     1.7780    18.4930 </r>
       <r>    -2.0036     3.4478    19.0521 </r>
       <r>    -1.8414     3.7166    19.6548 </r>
       <r>    -1.6793     3.3093    20.1915 </r>
       <r>    -1.5171     2.7730    20.6412 </r>
       <r>    -1.3549     3.3650    21.1869 </r>
       <r>    -1.1928     1.4566    21.4231 </r>
       <r>    -1.0306     2.1070    21.7648 </r>
       <r>    -0.8685     2.1782    22.1180 </r>
       <r>    -0.7063     3.4819    22.6826 </r>
       <r>    -0.5441     2.8503    23.1448 </r>
       <r>    -0.3820     2.3104    23.5195 </r>
       <r>    -0.2198     1.5471    23.7704 </r>
       <r>    -0.0576     0.9729    23.9282 </r>
       <r>     0.1045     0.2234    23.9644 </r>
       <r>     0.2667     0.2189    23.9999 </r>
       <r>     0.4289     0.0010    24.0001 </r>
       <r>     0.5910    -0.0004    24.0000 </r>
       <r>     0.7532    -0.0000    24.0000 </r>
       <r>     0.9154    -0.0000    24.0000 </r>
       <r>     1.0775    -0.0000    24.0000 </r>
       <r>     1.2397    -0.0000    24.0000 </r>
       <r>     1.4019    -0.0001    24.0000 </r>
       <r>     1.5640    -0.0170    23.9972 </r>
       <r>     1.7262     0.3526    24.0544 </r>
       <r>     1.8884     1.4240    24.2853 </r>
       <r>     2.0505     3.3762    24.8328 </r>
       <r>     2.2127     5.2103    25.6778 </r>
       <r>     2.3749     3.5687    26.2565 </r>
       <r>     2.5370     5.1300    27.0884 </r>
       <r>     2.6992     4.6021    27.8347 </r>
       <r>     2.8614     3.2194    28.3568 </r>
       <r>     3.0235     2.7754    28.8068 </r>
       <r>     3.1857     2.8178    29.2638 </r>
       <r>     3.3479     2.1664    29.6151 </r>
       <r>     3.5100     1.6325    29.8799 </r>
       <r>     3.6722     1.9840    30.2016 </r>
       <r>     3.8343     0.9306    30.3525 </r>
       <r>     3.9965     2.1466    30.7006 </r>
       <r>     4.1587     2.3962    31.0892 </r>
       <r>     4.3208     2.6276    31.5153 </r>
       <r>     4.4830     1.4320    31.7475 </r>
       <r>     4.6452     1.0106    31.9114 </r>
       <r>     4.8073     0.5110    31.9943 </r>
       <r>     4.9695     0.0374    32.0003 </r>
       <r>     5.1317    -0.0021    32.0000 </r>
       <r>     5.2938    -0.0009    31.9998 </r>
       <r>     5.4560     0.0613    32.0098 </r>
       <r>     5.6182     0.1935    32.0412 </r>
       <r>     5.7803     0.2117    32.0755 </r>
       <r>     5.9425     0.5116    32.1585 </r>
       <r>     6.1047     0.3552    32.2161 </r>
       <r>     6.2668     0.9413    32.3687 </r>
       <r>     6.4290     0.6867    32.4801 </r>
       <r>     6.5912     1.3969    32.7066 </r>
       <r>     6.7533     0.8206    32.8397 </r>
       <r>     6.9155     1.6618    33.1092 </r>
       <r>     7.0777     1.9886    33.4317 </r>
       <r>     7.2398     1.2838    33.6398 </r>
       <r>     7.4020     1.5080    33.8844 </r>
       <r>     7.5642     1.5909    34.1424 </r>
       <r>     7.7263     1.5985    34.4016 </r>
       <r>     7.8885     1.2777    34.6088 </r>
       <r>     8.0507     0.8388    34.7448 </r>
       <r>     8.2128     2.1479    35.0931 </r>
       <r>     8.3750     2.4262    35.4866 </r>
       <r>     8.5372     1.3207    35.7007 </r>
       <r>     8.6993     0.8105    35.8322 </r>
       <r>     8.8615     0.6615    35.9394 </r>
       <r>     9.0236     0.3083    35.9894 </r>
       <r>     9.1858     0.0682    36.0005 </r>
       <r>     9.3480    -0.0031    36.0000 </r>
       <r>     9.5101    -0.0000    36.0000 </r>
       <r>     9.6723    -0.0000    36.0000 </r>
       <r>     9.8345     0.0000    36.0000 </r>
       <r>     9.9966     0.0000    36.0000 </r>
       <r>    10.1588     0.0000    36.0000 </r>
       <r>    10.3210     0.0000    36.0000 </r>
       <r>    10.4831     0.0000    36.0000 </r>
       <r>    10.6453     0.0000    36.0000 </r>
       <r>    10.8075     0.0000    36.0000 </r>
       <r>    10.9696     0.0000    36.0000 </r>
       <r>    11.1318     0.0000    36.0000 </r>
       <r>    11.2940     0.0000    36.0000 </r>
      </set>
      <set comment="spin 2">
       <r>   -37.3557     0.0000     0.0000 </r>
       <r>   -37.1935     0.0000     0.0000 </r>
       <r>   -37.0314     0.0000     0.0000 </r>
       <r>   -36.8692     0.0000     0.0000 </r>
       <r>   -36.7071     0.0000     0.0000 </r>
       <r>   -36.5449     0.0000     0.0000 </r>
       <r>   -36.3827     0.0000     0.0000 </r>
       <r>   -36.2206     0.0000     0.0000 </r>
       <r>   -36.0584    -0.0000    -0.0000 </r>
       <r>   -35.8962    -0.0000    -0.0000 </r>
       <r>   -35.7341    -0.0000    -0.0000 </r>
       <r>   -35.5719    -0.0000    -0.0000 </r>
       <r>   -35.4097    -0.0008    -0.0001 </r>
       <r>   -35.2476    -0.1854    -0.0302 </r>
       <r>   -35.0854     4.0755     0.6307 </r>
       <r>   -34.9232    15.0866     3.0772 </r>
       <r>   -34.7611    18.0130     5.9983 </r>
       <r>   -34.5989     0.0378     6.0045 </r>
       <r>   -34.4367    -0.0275     6.0000 </r>
       <r>   -34.2746    -0.0000     6.0000 </r>
       <r>   -34.1124    -0.0000     6.0000 </r>
       <r>   -33.9502     0.0000     6.0000 </r>
       <r>   -33.7881     0.0000     6.0000 </r>
       <r>   -33.6259     0.0000     6.0000 </r>
       <r>   -33.4637     0.0000     6.0000 </r>
       <r>   -33.3016     0.0000     6.0000 </r>
       <r>   -33.1394     0.0000     6.0000 </r>
       <r>   -32.9772     0.0000     6.0000 </r>
       <r>   -32.8151     0.0000     6.0000 </r>
       <r>   -32.6529     0.0000     6.0000 </r>
       <r>   -32.4907     0.0000     6.0000 </r>
       <r>   -32.3286     0.0000     6.0000 </r>
       <r>   -32.1664     0.0000     6.0000 </r>
       <r>   -32.0042     0.0000     6.0000 </r>
       <r>   -31.8421     0.0000     6.0000 </r>
       <r>   -31.6799     0.0000     6.0000 </r>
       <r>   -31.5178     0.0000     6.0000 </r>
       <r>   -31.3556     0.0000     6.0000 </r>
       <r>   -31.1934     0.0000     6.0000 </r>
       <r>   -31.0313     0.0000     6.0000 </r>
       <r>   -30.8691     0.0000     6.0000 </r>
       <r>   -30.7069     0.0000     6.0000 </r>
       <r>   -30.5448     0.0000     6.0000 </r>
       <r>   -30.3826     0.0000     6.0000 </r>
       <r>   -30.2204     0.0000     6.0000 </r>
       <r>   -30.0583     0.0000     6.0000 </r>
       <r>   -29.8961     0.0000     6.0000 </r>
       <r>   -29.7339     0.0000     6.0000 </r>
       <r>   -29.5718     0.0000     6.0000 </r>
       <r>   -29.4096     0.0000     6.0000 </r>
       <r>   -29.2474     0.0000     6.0000 </r>
       <r>   -29.0853     0.0000     6.0000 </r>
       <r>   -28.9231     0.0000     6.0000 </r>
       <r>   -28.7609     0.0000     6.0000 </r>
       <r>   -28.5988     0.0000     6.0000 </r>
       <r>   -28.4366     0.0000     6.0000 </r>
       <r>   -28.2744     0.0000     6.0000 </r>
       <r>   -28.1123     0.0000     6.0000 </r>
       <r>   -27.9501     0.0000     6.0000 </r>
       <r>   -27.7879     0.0000     6.0000 </r>
       <r>   -27.6258     0.0000     6.0000 </r>
       <r>   -27.4636     0.0000     6.0000 </r>
       <r>   -27.3014     0.0000     6.0000 </r>
       <r>   -27.1393     0.0000     6.0000 </r>
       <r>   -26.9771     0.0000     6.0000 </r>
       <r>   -26.8149     0.0000     6.0000 </r>
       <r>   -26.6528     0.0000     6.0000 </r>
       <r>   -26.4906     0.0000     6.0000 </r>
       <r>   -26.3285     0.0000     6.0000 </r>
       <r>   -26.1663     0.0000     6.0000 </r>
       <r>   -26.0041     0.0000     6.0000 </r>
       <r>   -25.8420     0.0000     6.0000 </r>
       <r>   -25.6798     0.0000     6.0000 </r>
       <r>   -25.5176     0.0000     6.0000 </r>
       <r>   -25.3555     0.0000     6.0000 </r>
       <r>   -25.1933     0.0000     6.0000 </r>
       <r>   -25.0311     0.0000     6.0000 </r>
       <r>   -24.8690     0.0000     6.0000 </r>
       <r>   -24.7068     0.0000     6.0000 </r>
       <r>   -24.5446     0.0000     6.0000 </r>
       <r>   -24.3825     0.0000     6.0000 </r>
       <r>   -24.2203     0.0000     6.0000 </r>
       <r>   -24.0581     0.0000     6.0000 </r>
       <r>   -23.8960     0.0000     6.0000 </r>
       <r>   -23.7338     0.0000     6.0000 </r>
       <r>   -23.5716     0.0000     6.0000 </r>
       <r>   -23.4095     0.0000     6.0000 </r>
       <r>   -23.2473     0.0000     6.0000 </r>
       <r>   -23.0851     0.0000     6.0000 </r>
       <r>   -22.9230     0.0000     6.0000 </r>
       <r>   -22.7608     0.0000     6.0000 </r>
       <r>   -22.5986     0.0000     6.0000 </r>
       <r>   -22.4365     0.0000     6.0000 </r>
       <r>   -22.2743     0.0000     6.0000 </r>
       <r>   -22.1121     0.0000     6.0000 </r>
       <r>   -21.9500     0.0000     6.0000 </r>
       <r>   -21.7878     0.0000     6.0000 </r>
       <r>   -21.6257     0.0000     6.0000 </r>
       <r>   -21.4635     0.0000     6.0000 </r>
       <r>   -21.3013     0.0000     6.0000 </r>
       <r>   -21.1392     0.0000     6.0000 </r>
       <r>   -20.9770     0.0000     6.0000 </r>
       <r>   -20.8148     0.0000     6.0000 </r>
       <r>   -20.6527     0.0000     6.0000 </r>
       <r>   -20.4905     0.0000     6.0000 </r>
       <r>   -20.3283     0.0000     6.0000 </r>
       <r>   -20.1662     0.0000     6.0000 </r>
       <r>   -20.0040     0.0000     6.0000 </r>
       <r>   -19.8418     0.0000     6.0000 </r>
       <r>   -19.6797     0.0000     6.0000 </r>
       <r>   -19.5175     0.0000     6.0000 </r>
       <r>   -19.3553     0.0000     6.0000 </r>
       <r>   -19.1932     0.0000     6.0000 </r>
       <r>   -19.0310     0.0000     6.0000 </r>
       <r>   -18.8688     0.0000     6.0000 </r>
       <r>   -18.7067     0.0000     6.0000 </r>
       <r>   -18.5445     0.0000     6.0000 </r>
       <r>   -18.3823     0.0000     6.0000 </r>
       <r>   -18.2202     0.0000     6.0000 </r>
       <r>   -18.0580     0.0000     6.0000 </r>
       <r>   -17.8958     0.0000     6.0000 </r>
       <r>   -17.7337     0.0000     6.0000 </r>
       <r>   -17.5715     0.0000     6.0000 </r>
       <r>   -17.4093     0.0000     6.0000 </r>
       <r>   -17.2472     0.0000     6.0000 </r>
       <r>   -17.0850     0.0000     6.0000 </r>
       <r>   -16.9228     0.0000     6.0000 </r>
       <r>   -16.7607     0.0000     6.0000 </r>
       <r>   -16.5985     0.0000     6.0000 </r>
       <r>   -16.4364     0.0000     6.0000 </r>
       <r>   -16.2742     0.0000     6.0000 </r>
       <r>   -16.1120     0.0000     6.0000 </r>
       <r>   -15.9499     0.0000     6.0000 </r>
       <r>   -15.7877     0.0000     6.0000 </r>
       <r>   -15.6255     0.0000     6.0000 </r>
       <r>   -15.4634     0.0000     6.0000 </r>
       <r>   -15.3012     0.0000     6.0000 </r>
       <r>   -15.1390     0.0000     6.0000 </r>
       <r>   -14.9769     0.0000     6.0000 </r>
       <r>   -14.8147    -0.0000     6.0000 </r>
       <r>   -14.6525    -0.0000     6.0000 </r>
       <r>   -14.4904    -0.0000     6.0000 </r>
       <r>   -14.3282    -0.0000     6.0000 </r>
       <r>   -14.1660    -0.0003     6.0000 </r>
       <r>   -14.0039    -0.0048     5.9992 </r>
       <r>   -13.8417     0.2975     6.0474 </r>
       <r>   -13.6795     0.4578     6.1217 </r>
       <r>   -13.5174     0.6053     6.2198 </r>
       <r>   -13.3552     0.5304     6.3058 </r>
       <r>   -13.1930     0.6959     6.4187 </r>
       <r>   -13.0309     0.3537     6.4760 </r>
       <r>   -12.8687     1.0843     6.6519 </r>
       <r>   -12.7065     0.4256     6.7209 </r>
       <r>   -12.5444     1.9243     7.0330 </r>
       <r>   -12.3822     2.1575     7.3828 </r>
       <r>   -12.2200     3.0446     7.8766 </r>
       <r>   -12.0579     3.9376     8.5151 </r>
       <r>   -11.8957     5.7129     9.4415 </r>
       <r>   -11.7335     3.4090     9.9944 </r>
       <r>   -11.5714     0.0413    10.0011 </r>
       <r>   -11.4092    -0.0066    10.0000 </r>
       <r>   -11.2471    -0.0000    10.0000 </r>
       <r>   -11.0849    -0.0000    10.0000 </r>
       <r>   -10.9227     0.0000    10.0000 </r>
       <r>   -10.7606     0.0000    10.0000 </r>
       <r>   -10.5984     0.0000    10.0000 </r>
       <r>   -10.4362     0.0000    10.0000 </r>
       <r>   -10.2741     0.0000    10.0000 </r>
       <r>   -10.1119     0.0000    10.0000 </r>
       <r>    -9.9497     0.0000    10.0000 </r>
       <r>    -9.7876     0.0000    10.0000 </r>
       <r>    -9.6254     0.0000    10.0000 </r>
       <r>    -9.4632     0.0000    10.0000 </r>
       <r>    -9.3011     0.0000    10.0000 </r>
       <r>    -9.1389     0.0000    10.0000 </r>
       <r>    -8.9767     0.0000    10.0000 </r>
       <r>    -8.8146     0.0000    10.0000 </r>
       <r>    -8.6524     0.0000    10.0000 </r>
       <r>    -8.4902     0.0000    10.0000 </r>
       <r>    -8.3281     0.0000    10.0000 </r>
       <r>    -8.1659     0.0000    10.0000 </r>
       <r>    -8.0037     0.0000    10.0000 </r>
       <r>    -7.8416     0.0000    10.0000 </r>
       <r>    -7.6794     0.0000    10.0000 </r>
       <r>    -7.5172     0.0000    10.0000 </r>
       <r>    -7.3551     0.0000    10.0000 </r>
       <r>    -7.1929     0.0000    10.0000 </r>
       <r>    -7.0307     0.0000    10.0000 </r>
       <r>    -6.8686     0.0000    10.0000 </r>
       <r>    -6.7064     0.0000    10.0000 </r>
       <r>    -6.5442    -0.0000    10.0000 </r>
       <r>    -6.3821    -0.0000    10.0000 </r>
       <r>    -6.2199    -0.0000    10.0000 </r>
       <r>    -6.0578    -0.0000    10.0000 </r>
       <r>    -5.8956    -0.0006     9.9999 </r>
       <r>    -5.7334    -0.0182     9.9970 </r>
       <r>    -5.5713     0.7934    10.1256 </r>
       <r>    -5.4091     1.3284    10.3410 </r>
       <r>    -5.2469     2.2858    10.7117 </r>
       <r>    -5.0848     3.0413    11.2049 </r>
       <r>    -4.9226     4.8442    11.9905 </r>
       <r>    -4.7604     2.3396    12.3699 </r>
       <r>    -4.5983     2.6003    12.7916 </r>
       <r>    -4.4361     1.0092    12.9552 </r>
       <r>    -4.2739     0.4874    13.0343 </r>
       <r>    -4.1118     0.7948    13.1631 </r>
       <r>    -3.9496     2.0183    13.4904 </r>
       <r>    -3.7874     4.4188    14.2070 </r>
       <r>    -3.6253     4.5026    14.9372 </r>
       <r>    -3.4631     2.5075    15.3438 </r>
       <r>    -3.3009     1.1562    15.5313 </r>
       <r>    -3.1388     4.1388    16.2025 </r>
       <r>    -2.9766     5.0571    17.0225 </r>
       <r>    -2.8144     2.7789    17.4732 </r>
       <r>    -2.6523     1.4827    17.7136 </r>
       <r>    -2.4901     1.1265    17.8963 </r>
       <r>    -2.3279     1.9036    18.2050 </r>
       <r>    -2.1658     1.7829    18.4941 </r>
       <r>    -2.0036     3.4498    19.0536 </r>
       <r>    -1.8414     3.7134    19.6558 </r>
       <r>    -1.6793     3.3127    20.1930 </r>
       <r>    -1.5171     2.7717    20.6424 </r>
       <r>    -1.3549     3.3624    21.1877 </r>
       <r>    -1.1928     1.4570    21.4240 </r>
       <r>    -1.0306     2.1055    21.7654 </r>
       <r>    -0.8685     2.1871    22.1201 </r>
       <r>    -0.7063     3.4735    22.6834 </r>
       <r>    -0.5441     2.8498    23.1455 </r>
       <r>    -0.3820     2.3120    23.5204 </r>
       <r>    -0.2198     1.5440    23.7708 </r>
       <r>    -0.0576     0.9706    23.9282 </r>
       <r>     0.1045     0.2231    23.9644 </r>
       <r>     0.2667     0.2189    23.9999 </r>
       <r>     0.4289     0.0010    24.0001 </r>
       <r>     0.5910    -0.0004    24.0000 </r>
       <r>     0.7532    -0.0000    24.0000 </r>
       <r>     0.9154    -0.0000    24.0000 </r>
       <r>     1.0775    -0.0000    24.0000 </r>
       <r>     1.2397    -0.0000    24.0000 </r>
       <r>     1.4019    -0.0001    24.0000 </r>
       <r>     1.5640    -0.0171    23.9972 </r>
       <r>     1.7262     0.3538    24.0546 </r>
       <r>     1.8884     1.4244    24.2856 </r>
       <r>     2.0505     3.3860    24.8347 </r>
       <r>     2.2127     5.2100    25.6796 </r>
       <r>     2.3749     3.5710    26.2587 </r>
       <r>     2.5370     5.1283    27.0903 </r>
       <r>     2.6992     4.5965    27.8357 </r>
       <r>     2.8614     3.2188    28.3577 </r>
       <r>     3.0235     2.7750    28.8077 </r>
       <r>     3.1857     2.8188    29.2648 </r>
       <r>     3.3479     2.1638    29.6157 </r>
       <r>     3.5100     1.6322    29.8804 </r>
       <r>     3.6722     1.9821    30.2018 </r>
       <r>     3.8343     0.9311    30.3528 </r>
       <r>     3.9965     2.1475    30.7010 </r>
       <r>     4.1587     2.3987    31.0900 </r>
       <r>     4.3208     2.6252    31.5158 </r>
       <r>     4.4830     1.4306    31.7478 </r>
       <r>     4.6452     1.0107    31.9116 </r>
       <r>     4.8073     0.5097    31.9943 </r>
       <r>     4.9695     0.0372    32.0003 </r>
       <r>     5.1317    -0.0021    32.0000 </r>
       <r>     5.2938    -0.0006    31.9999 </r>
       <r>     5.4560     0.0578    32.0093 </r>
       <r>     5.6182     0.1960    32.0411 </r>
       <r>     5.7803     0.1792    32.0701 </r>
       <r>     5.9425     0.4670    32.1458 </r>
       <r>     6.1047     0.3213    32.1979 </r>
       <r>     6.2668     0.9467    32.3515 </r>
       <r>     6.4290     0.9099    32.4990 </r>
       <r>     6.5912     1.1597    32.6871 </r>
       <r>     6.7533     0.9788    32.8458 </r>
       <r>     6.9155     1.8203    33.1410 </r>
       <r>     7.0777     1.4680    33.3791 </r>
       <r>     7.2398     1.7293    33.6595 </r>
       <r>     7.4020     1.3522    33.8788 </r>
       <r>     7.5642     1.4573    34.1151 </r>
       <r>     7.7263     2.2441    34.4790 </r>
       <r>     7.8885     0.8454    34.6161 </r>
       <r>     8.0507     0.8437    34.7529 </r>
       <r>     8.2128     2.1805    35.1065 </r>
       <r>     8.3750     2.6714    35.5398 </r>
       <r>     8.5372     0.9750    35.6979 </r>
       <r>     8.6993     0.6079    35.7964 </r>
       <r>     8.8615     0.6912    35.9085 </r>
       <r>     9.0236     0.4727    35.9852 </r>
       <r>     9.1858     0.0949    36.0006 </r>
       <r>     9.3480    -0.0036    36.0000 </r>
       <r>     9.5101    -0.0000    36.0000 </r>
       <r>     9.6723    -0.0000    36.0000 </r>
       <r>     9.8345    -0.0000    36.0000 </r>
       <r>     9.9966     0.0000    36.0000 </r>
       <r>    10.1588     0.0000    36.0000 </r>
       <r>    10.3210     0.0000    36.0000 </r>
       <r>    10.4831     0.0000    36.0000 </r>
       <r>    10.6453     0.0000    36.0000 </r>
       <r>    10.8075     0.0000    36.0000 </r>
       <r>    10.9696     0.0000    36.0000 </r>
       <r>    11.1318     0.0000    36.0000 </r>
       <r>    11.2940     0.0000    36.0000 </r>
      </set>
     </set>
    </array>
   </total>
  </dos>
 </calculation>
 <structure name="finalpos" >
  <crystal>
   <varray name="basis" >
    <v>       3.19031700       0.00000000       0.00000000 </v>
    <v>      -1.59515800       2.76289700       0.00000000 </v>
    <v>       0.00000000       0.00000000      23.14049200 </v>
   </varray>
   <i name="volume">    203.97226633 </i>
   <varray name="rec_basis" >
    <v>       0.31344848       0.18096941       0.00000000 </v>
    <v>       0.00000000       0.36193894       0.00000000 </v>
    <v>       0.00000000       0.00000000       0.04321429 </v>
   </varray>
  </crystal>
  <varray name="positions" >
   <v>       0.66666700       0.33333300       0.06785900 </v>
   <v>       0.33333300       0.66666700       0.00000000 </v>
   <v>       0.33333300       0.66666700       0.13571500 </v>
   <v>       0.95238129       0.76190443       0.35482300 </v>
   <v>       0.61904729       0.09523843       0.28696500 </v>
   <v>       0.61904729       0.09523843       0.42267900 </v>
  </varray>
 </structure>
</modeling>
