<?xml version="1.0" encoding="ISO-8859-1"?>
<modeling>
 <generator>
  <i name="program" type="string">vasp </i>
  <i name="version" type="string">5.3.5  </i>
  <i name="subversion" type="string">31Mar14 (build Oct 29 2014 16:16:03) complex                          parallel </i>
  <i name="platform" type="string">Linux-UFHPC </i>
  <i name="date" type="string">2016 02 09 </i>
  <i name="time" type="string">18:33:21 </i>
 </generator>
 <incar>
  <i type="string" name="PREC">accurate</i>
  <i type="int" name="IBRION">     2</i>
  <i name="EDIFF">      0.00000100</i>
  <i type="int" name="NSW">     0</i>
  <i type="int" name="ISIF">     3</i>
  <i name="ENCUT">    300.00000000</i>
  <i type="string" name="LREAL"> Auto</i>
  <i type="int" name="ISMEAR">     0</i>
  <i name="SIGMA">      0.10000000</i>
  <i type="logical" name="LWAVE"> F  </i>
  <i type="logical" name="LCHARG"> F  </i>
  <i type="logical" name="LAECHG"> F  </i>
  <i type="string" name="GGA"> Bo</i>
  <i name="PARAM1">      0.18333333</i>
  <i name="PARAM2">      0.22000000</i>
  <i type="logical" name="LUSE_VDW"> T  </i>
  <i name="AGGAC">      0.00000000</i>
 </incar>
 <kpoints>
  <generation param="Gamma">
   <v type="int" name="divisions">      13        4        2 </v>
   <v name="usershift">      0.00000000       0.00000000       0.00000000 </v>
   <v name="genvec1">      0.07692308      -0.00000000       0.00000000 </v>
   <v name="genvec2">      0.00000000       0.25000000       0.00000000 </v>
   <v name="genvec3">      0.00000000       0.00000000       0.50000000 </v>
   <v name="shift">      0.00000000       0.00000000       0.00000000 </v>
  </generation>
  <varray name="kpointlist" >
   <v>       0.00000000       0.00000000       0.00000000 </v>
   <v>       0.07692308      -0.00000000       0.00000000 </v>
   <v>       0.15384615      -0.00000000       0.00000000 </v>
   <v>       0.23076923      -0.00000000       0.00000000 </v>
   <v>       0.30769231      -0.00000000       0.00000000 </v>
   <v>       0.38461538      -0.00000000       0.00000000 </v>
   <v>       0.46153846      -0.00000000       0.00000000 </v>
   <v>       0.00000000       0.25000000       0.00000000 </v>
   <v>       0.07692308       0.25000000       0.00000000 </v>
   <v>       0.15384615       0.25000000       0.00000000 </v>
   <v>       0.23076923       0.25000000       0.00000000 </v>
   <v>       0.30769231       0.25000000       0.00000000 </v>
   <v>       0.38461538       0.25000000       0.00000000 </v>
   <v>       0.46153846       0.25000000       0.00000000 </v>
   <v>      -0.46153846       0.25000000       0.00000000 </v>
   <v>      -0.38461538       0.25000000       0.00000000 </v>
   <v>      -0.30769231       0.25000000       0.00000000 </v>
   <v>      -0.23076923       0.25000000       0.00000000 </v>
   <v>      -0.15384615       0.25000000       0.00000000 </v>
   <v>      -0.07692308       0.25000000       0.00000000 </v>
   <v>       0.00000000       0.50000000       0.00000000 </v>
   <v>       0.07692308       0.50000000       0.00000000 </v>
   <v>       0.15384615       0.50000000       0.00000000 </v>
   <v>       0.23076923       0.50000000       0.00000000 </v>
   <v>       0.30769231       0.50000000       0.00000000 </v>
   <v>       0.38461538       0.50000000       0.00000000 </v>
   <v>       0.46153846       0.50000000       0.00000000 </v>
   <v>       0.00000000       0.00000000       0.50000000 </v>
   <v>       0.07692308      -0.00000000       0.50000000 </v>
   <v>       0.15384615      -0.00000000       0.50000000 </v>
   <v>       0.23076923      -0.00000000       0.50000000 </v>
   <v>       0.30769231      -0.00000000       0.50000000 </v>
   <v>       0.38461538      -0.00000000       0.50000000 </v>
   <v>       0.46153846      -0.00000000       0.50000000 </v>
   <v>       0.00000000       0.25000000       0.50000000 </v>
   <v>       0.07692308       0.25000000       0.50000000 </v>
   <v>       0.15384615       0.25000000       0.50000000 </v>
   <v>       0.23076923       0.25000000       0.50000000 </v>
   <v>       0.30769231       0.25000000       0.50000000 </v>
   <v>       0.38461538       0.25000000       0.50000000 </v>
   <v>       0.46153846       0.25000000       0.50000000 </v>
   <v>      -0.46153846       0.25000000       0.50000000 </v>
   <v>      -0.38461538       0.25000000       0.50000000 </v>
   <v>      -0.30769231       0.25000000       0.50000000 </v>
   <v>      -0.23076923       0.25000000       0.50000000 </v>
   <v>      -0.15384615       0.25000000       0.50000000 </v>
   <v>      -0.07692308       0.25000000       0.50000000 </v>
   <v>       0.00000000       0.50000000       0.50000000 </v>
   <v>       0.07692308       0.50000000       0.50000000 </v>
   <v>       0.15384615       0.50000000       0.50000000 </v>
   <v>       0.23076923       0.50000000       0.50000000 </v>
   <v>       0.30769231       0.50000000       0.50000000 </v>
   <v>       0.38461538       0.50000000       0.50000000 </v>
   <v>       0.46153846       0.50000000       0.50000000 </v>
  </varray>
  <varray name="weights" >
   <v>       0.00961538 </v>
   <v>       0.01923077 </v>
   <v>       0.01923077 </v>
   <v>       0.01923077 </v>
   <v>       0.01923077 </v>
   <v>       0.01923077 </v>
   <v>       0.01923077 </v>
   <v>       0.01923077 </v>
   <v>       0.01923077 </v>
   <v>       0.01923077 </v>
   <v>       0.01923077 </v>
   <v>       0.01923077 </v>
   <v>       0.01923077 </v>
   <v>       0.01923077 </v>
   <v>       0.01923077 </v>
   <v>       0.01923077 </v>
   <v>       0.01923077 </v>
   <v>       0.01923077 </v>
   <v>       0.01923077 </v>
   <v>       0.01923077 </v>
   <v>       0.00961538 </v>
   <v>       0.01923077 </v>
   <v>       0.01923077 </v>
   <v>       0.01923077 </v>
   <v>       0.01923077 </v>
   <v>       0.01923077 </v>
   <v>       0.01923077 </v>
   <v>       0.00961538 </v>
   <v>       0.01923077 </v>
   <v>       0.01923077 </v>
   <v>       0.01923077 </v>
   <v>       0.01923077 </v>
   <v>       0.01923077 </v>
   <v>       0.01923077 </v>
   <v>       0.01923077 </v>
   <v>       0.01923077 </v>
   <v>       0.01923077 </v>
   <v>       0.01923077 </v>
   <v>       0.01923077 </v>
   <v>       0.01923077 </v>
   <v>       0.01923077 </v>
   <v>       0.01923077 </v>
   <v>       0.01923077 </v>
   <v>       0.01923077 </v>
   <v>       0.01923077 </v>
   <v>       0.01923077 </v>
   <v>       0.01923077 </v>
   <v>       0.00961538 </v>
   <v>       0.01923077 </v>
   <v>       0.01923077 </v>
   <v>       0.01923077 </v>
   <v>       0.01923077 </v>
   <v>       0.01923077 </v>
   <v>       0.01923077 </v>
  </varray>
 </kpoints>
 <parameters>
  <separator name="general" >
   <i type="string" name="SYSTEM">unknown system</i>
   <i type="logical" name="LCOMPAT"> F  </i>
  </separator>
  <separator name="electronic" >
   <i type="string" name="PREC">accura</i>
   <i name="ENMAX">    300.00000000</i>
   <i name="ENAUG">    342.92400000</i>
   <i name="EDIFF">      0.00000100</i>
   <i type="int" name="IALGO">    38</i>
   <i type="int" name="IWAVPR">    10</i>
   <i type="int" name="NBANDS">    68</i>
   <i name="NELECT">    108.00000000</i>
   <i type="int" name="TURBO">     0</i>
   <i type="int" name="IRESTART">     0</i>
   <i type="int" name="NREBOOT">     0</i>
   <i type="int" name="NMIN">     0</i>
   <i name="EREF">      0.00000000</i>
   <separator name="electronic smearing" >
    <i type="int" name="ISMEAR">     0</i>
    <i name="SIGMA">      0.10000000</i>
    <i name="KSPACING">      0.50000000</i>
    <i type="logical" name="KGAMMA"> T  </i>
   </separator>
   <separator name="electronic projectors" >
    <i type="logical" name="LREAL"> T  </i>
    <v name="ROPT">     -0.00025000     -0.00025000</v>
    <i type="int" name="LMAXPAW">  -100</i>
    <i type="int" name="LMAXMIX">     2</i>
    <i type="logical" name="NLSPLINE"> F  </i>
   </separator>
   <separator name="electronic startup" >
    <i type="int" name="ISTART">     0</i>
    <i type="int" name="ICHARG">     2</i>
    <i type="int" name="INIWAV">     1</i>
   </separator>
   <separator name="electronic spin" >
    <i type="int" name="ISPIN">     1</i>
    <i type="logical" name="LNONCOLLINEAR"> F  </i>
    <v name="MAGMOM">      1.00000000      1.00000000      1.00000000      1.00000000      1.00000000      1.00000000      1.00000000      1.00000000      1.00000000      1.00000000      1.00000000      1.00000000      1.00000000      1.00000000      1.00000000      1.00000000      1.00000000      1.00000000      1.00000000      1.00000000
      1.00000000      1.00000000      1.00000000      1.00000000</v>
    <i name="NUPDOWN">     -1.00000000</i>
    <i type="logical" name="LSORBIT"> F  </i>
    <v name="SAXIS">      0.00000000      0.00000000      1.00000000</v>
    <i type="logical" name="LSPIRAL"> F  </i>
    <v name="QSPIRAL">      0.00000000      0.00000000      0.00000000</v>
    <i type="logical" name="LZEROZ"> F  </i>
   </separator>
   <separator name="electronic exchange-correlation" >
    <i type="logical" name="LASPH"> F  </i>
    <i type="logical" name="LMETAGGA"> F  </i>
   </separator>
   <separator name="electronic convergence" >
    <i type="int" name="NELM">    60</i>
    <i type="int" name="NELMDL">    -5</i>
    <i type="int" name="NELMIN">     2</i>
    <i name="ENINI">    300.00000000</i>
    <separator name="electronic convergence detail" >
     <i type="logical" name="LDIAG"> T  </i>
     <i type="logical" name="LSUBROT"> F  </i>
     <i name="WEIMIN">      0.00000000</i>
     <i name="EBREAK">      0.00000000</i>
     <i name="DEPER">      0.30000000</i>
     <i type="int" name="NRMM">     4</i>
     <i name="TIME">      0.40000000</i>
    </separator>
   </separator>
   <separator name="electronic mixer" >
    <i name="AMIX">      0.40000000</i>
    <i name="BMIX">      1.00000000</i>
    <i name="AMIN">      0.10000000</i>
    <i name="AMIX_MAG">      1.60000000</i>
    <i name="BMIX_MAG">      1.00000000</i>
    <separator name="electronic mixer details" >
     <i type="int" name="IMIX">     4</i>
     <i type="int" name="MAXMIX">   -45</i>
     <i name="WC">    100.00000000</i>
     <i type="int" name="INIMIX">     1</i>
     <i type="int" name="MIXPRE">     1</i>
     <i type="int" name="MREMOVE">     5</i>
    </separator>
   </separator>
   <separator name="electronic dipolcorrection" >
    <i type="logical" name="LDIPOL"> F  </i>
    <i type="logical" name="LMONO"> F  </i>
    <i type="int" name="IDIPOL">     0</i>
    <i name="EPSILON">      1.00000000</i>
    <v name="DIPOL">   -100.00000000   -100.00000000   -100.00000000</v>
    <i name="EFIELD">      0.00000000</i>
   </separator>
  </separator>
  <separator name="grids" >
   <i type="int" name="NGX">    20</i>
   <i type="int" name="NGY">    60</i>
   <i type="int" name="NGZ">   160</i>
   <i type="int" name="NGXF">    40</i>
   <i type="int" name="NGYF">   120</i>
   <i type="int" name="NGZF">   320</i>
   <i type="logical" name="ADDGRID"> F  </i>
  </separator>
  <separator name="ionic" >
   <i type="int" name="NSW">     0</i>
   <i type="int" name="IBRION">    -1</i>
   <i type="int" name="ISIF">     3</i>
   <i name="PSTRESS">      0.00000000</i>
   <i name="EDIFFG">      0.00001000</i>
   <i type="int" name="NFREE">     1</i>
   <i name="POTIM">      0.50000000</i>
   <i name="SMASS">     -3.00000000</i>
   <i name="SCALEE">      1.00000000</i>
  </separator>
  <separator name="ionic md" >
   <i name="TEBEG">      0.00010000</i>
   <i name="TEEND">      0.00010000</i>
   <i type="int" name="NBLOCK">     1</i>
   <i type="int" name="KBLOCK">     1</i>
   <i type="int" name="NPACO">   256</i>
   <i name="APACO">     16.00000000</i>
  </separator>
  <separator name="symmetry" >
   <i type="int" name="ISYM">     2</i>
   <i name="SYMPREC">      0.00001000</i>
  </separator>
  <separator name="dos" >
   <i type="logical" name="LORBIT"> F  </i>
   <v name="RWIGS">     -1.00000000     -1.00000000</v>
   <i type="int" name="NEDOS">   301</i>
   <i name="EMIN">     10.00000000</i>
   <i name="EMAX">    -10.00000000</i>
   <i name="EFERMI">      0.00000000</i>
  </separator>
  <separator name="writing" >
   <i type="int" name="NWRITE">     2</i>
   <i type="logical" name="LWAVE"> F  </i>
   <i type="logical" name="LCHARG"> F  </i>
   <i type="logical" name="LPARD"> F  </i>
   <i type="logical" name="LVTOT"> F  </i>
   <i type="logical" name="LVHAR"> F  </i>
   <i type="logical" name="LELF"> F  </i>
   <i type="logical" name="LOPTICS"> F  </i>
   <v name="STM">      0.00000000      0.00000000      0.00000000      0.00000000      0.00000000      0.00000000      0.00000000</v>
  </separator>
  <separator name="performance" >
   <i type="int" name="NPAR">     4</i>
   <i type="int" name="NSIM">     4</i>
   <i type="int" name="NBLK">    -1</i>
   <i type="logical" name="LPLANE"> T  </i>
   <i type="logical" name="LSCALAPACK"> T  </i>
   <i type="logical" name="LSCAAWARE"> F  </i>
   <i type="logical" name="LSCALU"> F  </i>
   <i type="logical" name="LASYNC"> F  </i>
   <i type="logical" name="LORBITALREAL"> F  </i>
  </separator>
  <separator name="miscellaneous" >
   <i type="int" name="IDIOT">     3</i>
   <i type="logical" name="LMUSIC"> F  </i>
   <v name="POMASS">     30.97400000     28.08500000</v>
   <v name="DARWINR">      0.00000000      0.00000000</v>
   <v name="DARWINV">      1.00000000      1.00000000</v>
   <i type="logical" name="LCORR"> T  </i>
  </separator>
  <i type="logical" name="GGA_COMPAT"> T  </i>
  <i type="logical" name="LBERRY"> F  </i>
  <i type="int" name="ICORELEVEL">     0</i>
  <i type="logical" name="LDAU"> F  </i>
  <i type="int" name="I_CONSTRAINED_M">     0</i>
  <separator name="electronic exchange-correlation" >
   <i type="string" name="GGA">BO</i>
   <i type="int" name="VOSKOWN">     0</i>
   <i type="logical" name="LHFCALC"> F  </i>
   <i type="string" name="PRECFOCK"></i>
   <i type="logical" name="LSYMGRAD"> F  </i>
   <i type="logical" name="LHFONE"> F  </i>
   <i type="logical" name="LRHFCALC"> F  </i>
   <i type="logical" name="LTHOMAS"> F  </i>
   <i type="logical" name="LMODELHF"> F  </i>
   <i name="ENCUT4O">     -1.00000000</i>
   <i type="int" name="EXXOEP">     0</i>
   <i type="int" name="FOURORBIT">     0</i>
   <i name="AEXX">      0.00000000</i>
   <i name="HFALPHA">      0.00000000</i>
   <i name="MCALPHA">      0.00000000</i>
   <i name="ALDAX">      1.00000000</i>
   <i name="AGGAX">      1.00000000</i>
   <i name="ALDAC">      1.00000000</i>
   <i name="AGGAC">      0.00000000</i>
   <i type="int" name="NKREDX">     1</i>
   <i type="int" name="NKREDY">     1</i>
   <i type="int" name="NKREDZ">     1</i>
   <i type="logical" name="SHIFTRED"> F  </i>
   <i type="logical" name="ODDONLY"> F  </i>
   <i type="logical" name="EVENONLY"> F  </i>
   <i type="int" name="LMAXFOCK">     0</i>
   <i type="int" name="NMAXFOCKAE">     0</i>
   <i type="logical" name="LFOCKAEDFT"> F  </i>
   <i name="HFSCREEN">      0.00000000</i>
   <i name="HFSCREENC">      0.00000000</i>
   <i type="int" name="NBANDSGWLOW">     0</i>
  </separator>
  <separator name="vdW DFT" >
   <i type="logical" name="LUSE_VDW"> T  </i>
   <i name="Zab_VDW">     -0.84910000</i>
   <i name="PARAM1">      0.18333333</i>
   <i name="PARAM2">      0.22000000</i>
   <i name="PARAM3">      0.00000000</i>
  </separator>
  <separator name="model GW" >
   <i type="int" name="MODEL_GW">     0</i>
   <i name="MODEL_EPS0">     25.05800243</i>
   <i name="MODEL_ALPHA">      1.00000000</i>
  </separator>
  <separator name="linear response parameters" >
   <i type="logical" name="LEPSILON"> F  </i>
   <i type="logical" name="LRPA"> F  </i>
   <i type="logical" name="LNABLA"> F  </i>
   <i type="logical" name="LVEL"> F  </i>
   <i type="int" name="KINTER">     0</i>
   <i name="CSHIFT">      0.10000000</i>
   <i name="OMEGAMAX">     -1.00000000</i>
   <i name="DEG_THRESHOLD">      0.00200000</i>
  </separator>
  <separator name="orbital magnetization" >
   <i type="logical" name="NUCIND"> F  </i>
   <v name="MAGPOS">      0.00000000      0.00000000      0.00000000</v>
   <i type="logical" name="LNICSALL"> T  </i>
   <i type="logical" name="ORBITALMAG"> F  </i>
   <i type="logical" name="LMAGBLOCH"> F  </i>
   <i type="logical" name="LCHIMAG"> F  </i>
   <i type="logical" name="LGAUGE"> T  </i>
   <i type="int" name="MAGATOM">     0</i>
   <v name="MAGDIPOL">      0.00000000      0.00000000      0.00000000</v>
   <v name="AVECCONST">      0.00000000      0.00000000      0.00000000</v>
  </separator>
  <separator name="response functions" >
   <i type="logical" name="LADDER"> F  </i>
   <i type="logical" name="LFXC"> F  </i>
   <i type="logical" name="LHARTREE"> T  </i>
   <i type="int" name="IBSE">     0</i>
   <i type="logical" name="LTCTE"> F  </i>
   <i type="logical" name="LTETE"> F  </i>
   <i type="logical" name="LTRIPLET"> F  </i>
   <i type="logical" name="LFXCEPS"> F  </i>
   <i type="logical" name="LFXHEG"> F  </i>
   <i type="logical" name="L2ORDER"> F  </i>
   <i type="logical" name="LUSEW"> F  </i>
   <i name="ENCUTGW">     -2.00000000</i>
   <i name="ENCUTGWSOFT">     -2.00000000</i>
   <i name="ENCUTLF">     -1.00000000</i>
   <i type="int" name="LMAXMP2">    -1</i>
   <i name="SCISSOR">      0.00000000</i>
   <i type="int" name="NOMEGA">     0</i>
   <i type="int" name="NOMEGAR">     0</i>
   <i type="int" name="NBANDSGW">    -1</i>
   <i type="int" name="NBANDSO">    -1</i>
   <i type="int" name="NBANDSV">    -1</i>
   <i type="int" name="NELM">     1</i>
   <i type="int" name="DIM">     3</i>
   <i type="int" name="ANTIRES">     0</i>
   <i name="OMEGAMAX">    -30.00000000</i>
   <i name="OMEGAMIN">    -30.00000000</i>
   <i name="OMEGATL">   -200.00000000</i>
   <i type="int" name="OMEGAGRID">     0</i>
   <i name="CSHIFT">     -0.10000000</i>
   <i type="logical" name="SELFENERGY"> F  </i>
   <i type="logical" name="LSPECTRAL"> F  </i>
   <i type="logical" name="ODDONLYGW"> F  </i>
   <i type="logical" name="EVENONLYGW"> F  </i>
   <i type="int" name="NKREDLFX">     1</i>
   <i type="int" name="NKREDLFY">     1</i>
   <i type="int" name="NKREDLFZ">     1</i>
   <i type="int" name="MAXMEM">  1800</i>
   <i type="int" name="TELESCOPE">     0</i>
   <i type="int" name="TAUPAR">     1</i>
  </separator>
  <separator name="External order field" >
   <i name="OFIELD_KAPPA">      0.00000000</i>
   <v name="OFIELD_K">      0.00000000      0.00000000      0.00000000</v>
   <i name="OFIELD_Q6_NEAR">      0.00000000</i>
   <i name="OFIELD_Q6_FAR">      0.00000000</i>
   <i name="OFIELD_A">      0.00000000</i>
  </separator>
 </parameters>
 <atominfo>
  <atoms>      24 </atoms>
  <types>       2 </types>
  <array name="atoms" >
   <dimension dim="1">ion</dimension>
   <field type="string">element</field>
   <field type="int">atomtype</field>
   <set>
    <rc><c>P </c><c>   1</c></rc>
    <rc><c>P </c><c>   1</c></rc>
    <rc><c>P </c><c>   1</c></rc>
    <rc><c>P </c><c>   1</c></rc>
    <rc><c>P </c><c>   1</c></rc>
    <rc><c>P </c><c>   1</c></rc>
    <rc><c>P </c><c>   1</c></rc>
    <rc><c>P </c><c>   1</c></rc>
    <rc><c>P </c><c>   1</c></rc>
    <rc><c>P </c><c>   1</c></rc>
    <rc><c>P </c><c>   1</c></rc>
    <rc><c>P </c><c>   1</c></rc>
    <rc><c>Si</c><c>   2</c></rc>
    <rc><c>Si</c><c>   2</c></rc>
    <rc><c>Si</c><c>   2</c></rc>
    <rc><c>Si</c><c>   2</c></rc>
    <rc><c>Si</c><c>   2</c></rc>
    <rc><c>Si</c><c>   2</c></rc>
    <rc><c>Si</c><c>   2</c></rc>
    <rc><c>Si</c><c>   2</c></rc>
    <rc><c>Si</c><c>   2</c></rc>
    <rc><c>Si</c><c>   2</c></rc>
    <rc><c>Si</c><c>   2</c></rc>
    <rc><c>Si</c><c>   2</c></rc>
   </set>
  </array>
  <array name="atomtypes" >
   <dimension dim="1">type</dimension>
   <field type="int">atomspertype</field>
   <field type="string">element</field>
   <field>mass</field>
   <field>valence</field>
   <field type="string">pseudopotential</field>
   <set>
    <rc><c>  12</c><c>P </c><c>     30.97400000</c><c>      5.00000000</c><c>  PAW_PBE P 17Jan2003                   </c></rc>
    <rc><c>  12</c><c>Si</c><c>     28.08500000</c><c>      4.00000000</c><c> PAW_PBE Si 05Jan2001                   </c></rc>
   </set>
  </array>
 </atominfo>
 <structure name="initialpos" >
  <crystal>
   <varray name="basis" >
    <v>       3.54040000       0.00000000       0.00000000 </v>
    <v>      -1.77020000      10.29434800       0.00000000 </v>
    <v>       0.00000000       0.00000000      27.50142900 </v>
   </varray>
   <i name="volume">   1002.32009712 </i>
   <varray name="rec_basis" >
    <v>       0.28245396       0.04857034       0.00000000 </v>
    <v>       0.00000000       0.09714068       0.00000000 </v>
    <v>       0.00000000       0.00000000       0.03636175 </v>
   </varray>
  </crystal>
  <varray name="positions" >
   <v>       0.11402300       0.22804500       0.23316207 </v>
   <v>       0.91402300       0.22804500       0.51499159 </v>
   <v>       0.45808900       0.91617900       0.20939482 </v>
   <v>       0.25808900       0.91617900       0.49122434 </v>
   <v>       0.31085400       0.62170900       0.08414979 </v>
   <v>       0.31085400       0.62170900       0.36597930 </v>
   <v>       0.99923000       0.99846000       0.08631254 </v>
   <v>       0.99923000       0.99846000       0.36814206 </v>
   <v>       0.65492700       0.30985400       0.06041748 </v>
   <v>       0.65492700       0.30985400       0.34224700 </v>
   <v>       0.76973800       0.53947500       0.20725292 </v>
   <v>       0.56973800       0.53947500       0.48908244 </v>
   <v>       0.93971600       0.87943300       0.15783749 </v>
   <v>       0.73971600       0.87943300       0.43966701 </v>
   <v>       0.20515200       0.41030300       0.18578822 </v>
   <v>       0.00515200       0.41030300       0.46761774 </v>
   <v>       0.20184900       0.40369900       0.09969156 </v>
   <v>       0.20184900       0.40369900       0.38152107 </v>
   <v>       0.56380500       0.12761000       0.10779021 </v>
   <v>       0.56380500       0.12761000       0.38961973 </v>
   <v>       0.56710600       0.13421200       0.19387616 </v>
   <v>       0.36710600       0.13421200       0.47570568 </v>
   <v>       0.82923400       0.65846800       0.13571444 </v>
   <v>       0.62923400       0.65846800       0.41754396 </v>
  </varray>
 </structure>
 <calculation>
  <scstep>
   <time name="dav">   97.43   97.46</time>
   <time name="total">  113.46  113.50</time>
   <energy>
    <i name="alphaZ">     36.80884744 </i>
    <i name="ewald">  11895.04182806 </i>
    <i name="hartreedc"> -14948.11807429 </i>
    <i name="XCdc">    -88.16086446 </i>
    <i name="pawpsdc">   1056.43050070 </i>
    <i name="pawaedc">   -732.41190547 </i>
    <i name="eentropy">     -0.03635064 </i>
    <i name="bandstr">    -87.27999999 </i>
    <i name="atom">   3354.04126044 </i>
    <i name="e_fr_energy">    486.31524179 </i>
    <i name="e_wo_entrp">    486.35159243 </i>
    <i name="e_0_energy">    486.33341711 </i>
   </energy>
  </scstep>
  <scstep>
   <time name="dav">  123.26  123.29</time>
   <time name="total">  123.27  123.31</time>
   <energy>
    <i name="e_fr_energy">    -72.68756922 </i>
    <i name="e_wo_entrp">    -72.68749781 </i>
    <i name="e_0_energy">    -72.68753352 </i>
   </energy>
  </scstep>
  <scstep>
   <time name="dav">  109.53  109.56</time>
   <time name="total">  109.54  109.57</time>
   <energy>
    <i name="e_fr_energy">   -128.28388112 </i>
    <i name="e_wo_entrp">   -128.28388112 </i>
    <i name="e_0_energy">   -128.28388112 </i>
   </energy>
  </scstep>
  <scstep>
   <time name="dav">  117.37  117.42</time>
   <time name="total">  117.38  117.43</time>
   <energy>
    <i name="e_fr_energy">   -130.73074564 </i>
    <i name="e_wo_entrp">   -130.73074564 </i>
    <i name="e_0_energy">   -130.73074564 </i>
   </energy>
  </scstep>
  <scstep>
   <time name="dav">  109.80  109.88</time>
   <time name="total">  114.44  114.52</time>
   <energy>
    <i name="e_fr_energy">   -130.78901935 </i>
    <i name="e_wo_entrp">   -130.78901935 </i>
    <i name="e_0_energy">   -130.78901935 </i>
   </energy>
  </scstep>
  <scstep>
   <time name="dav">  103.26  103.29</time>
   <time name="total">  121.79  121.82</time>
   <energy>
    <i name="e_fr_energy">   -128.62663593 </i>
    <i name="e_wo_entrp">   -128.62663593 </i>
    <i name="e_0_energy">   -128.62663593 </i>
   </energy>
  </scstep>
  <scstep>
   <time name="dav">   94.26   94.29</time>
   <time name="total">  112.61  112.64</time>
   <energy>
    <i name="e_fr_energy">   -128.37219344 </i>
    <i name="e_wo_entrp">   -128.37219344 </i>
    <i name="e_0_energy">   -128.37219344 </i>
   </energy>
  </scstep>
  <scstep>
   <time name="dav">   88.92   88.94</time>
   <time name="total">  106.01  106.04</time>
   <energy>
    <i name="e_fr_energy">   -128.32045003 </i>
    <i name="e_wo_entrp">   -128.32045003 </i>
    <i name="e_0_energy">   -128.32045003 </i>
   </energy>
  </scstep>
  <scstep>
   <time name="dav">   96.34   96.37</time>
   <time name="total">  113.81  113.85</time>
   <energy>
    <i name="e_fr_energy">   -128.31853570 </i>
    <i name="e_wo_entrp">   -128.31853570 </i>
    <i name="e_0_energy">   -128.31853570 </i>
   </energy>
  </scstep>
  <scstep>
   <time name="dav">   93.12   93.15</time>
   <time name="total">  111.23  111.26</time>
   <energy>
    <i name="e_fr_energy">   -128.30769518 </i>
    <i name="e_wo_entrp">   -128.30769518 </i>
    <i name="e_0_energy">   -128.30769518 </i>
   </energy>
  </scstep>
  <scstep>
   <time name="dav">   90.75   90.78</time>
   <time name="total">  109.29  109.33</time>
   <energy>
    <i name="e_fr_energy">   -128.30093702 </i>
    <i name="e_wo_entrp">   -128.30093702 </i>
    <i name="e_0_energy">   -128.30093702 </i>
   </energy>
  </scstep>
  <scstep>
   <time name="dav">   92.96   92.99</time>
   <time name="total">  111.03  111.07</time>
   <energy>
    <i name="e_fr_energy">   -128.29906672 </i>
    <i name="e_wo_entrp">   -128.29906672 </i>
    <i name="e_0_energy">   -128.29906672 </i>
   </energy>
  </scstep>
  <scstep>
   <time name="dav">   93.32   93.35</time>
   <time name="total">  110.82  110.85</time>
   <energy>
    <i name="e_fr_energy">   -128.29677859 </i>
    <i name="e_wo_entrp">   -128.29677859 </i>
    <i name="e_0_energy">   -128.29677859 </i>
   </energy>
  </scstep>
  <scstep>
   <time name="dav">   89.56   89.58</time>
   <time name="total">  107.45  107.48</time>
   <energy>
    <i name="e_fr_energy">   -128.29655048 </i>
    <i name="e_wo_entrp">   -128.29655048 </i>
    <i name="e_0_energy">   -128.29655048 </i>
   </energy>
  </scstep>
  <scstep>
   <time name="dav">   84.82   84.90</time>
   <time name="total">  103.27  103.36</time>
   <energy>
    <i name="e_fr_energy">   -128.29663264 </i>
    <i name="e_wo_entrp">   -128.29663264 </i>
    <i name="e_0_energy">   -128.29663264 </i>
   </energy>
  </scstep>
  <scstep>
   <time name="dav">   91.17   91.20</time>
   <time name="total">  110.68  110.71</time>
   <energy>
    <i name="e_fr_energy">   -128.29714733 </i>
    <i name="e_wo_entrp">   -128.29714733 </i>
    <i name="e_0_energy">   -128.29714733 </i>
   </energy>
  </scstep>
  <scstep>
   <time name="dav">   78.25   78.28</time>
   <time name="total">   96.55   96.61</time>
   <energy>
    <i name="e_fr_energy">   -128.29731063 </i>
    <i name="e_wo_entrp">   -128.29731063 </i>
    <i name="e_0_energy">   -128.29731063 </i>
   </energy>
  </scstep>
  <scstep>
   <time name="dav">   67.32   67.34</time>
   <time name="total">   84.06   84.08</time>
   <energy>
    <i name="e_fr_energy">   -128.29736646 </i>
    <i name="e_wo_entrp">   -128.29736646 </i>
    <i name="e_0_energy">   -128.29736646 </i>
   </energy>
  </scstep>
  <scstep>
   <time name="dav">   63.99   64.01</time>
   <time name="total">   80.95   80.97</time>
   <energy>
    <i name="e_fr_energy">   -128.29739229 </i>
    <i name="e_wo_entrp">   -128.29739229 </i>
    <i name="e_0_energy">   -128.29739229 </i>
   </energy>
  </scstep>
  <scstep>
   <time name="dav">   66.20   66.22</time>
   <time name="total">   83.11   83.14</time>
   <energy>
    <i name="e_fr_energy">   -128.29730220 </i>
    <i name="e_wo_entrp">   -128.29730220 </i>
    <i name="e_0_energy">   -128.29730220 </i>
   </energy>
  </scstep>
  <scstep>
   <time name="dav">   63.05   63.07</time>
   <time name="total">   79.65   79.68</time>
   <energy>
    <i name="e_fr_energy">   -128.29729116 </i>
    <i name="e_wo_entrp">   -128.29729116 </i>
    <i name="e_0_energy">   -128.29729116 </i>
   </energy>
  </scstep>
  <scstep>
   <time name="dav">   63.88   63.89</time>
   <time name="total">   80.54   80.56</time>
   <energy>
    <i name="e_fr_energy">   -128.29725103 </i>
    <i name="e_wo_entrp">   -128.29725103 </i>
    <i name="e_0_energy">   -128.29725103 </i>
   </energy>
  </scstep>
  <scstep>
   <time name="dav">   58.75   58.77</time>
   <time name="total">   75.76   75.80</time>
   <energy>
    <i name="e_fr_energy">   -128.29724558 </i>
    <i name="e_wo_entrp">   -128.29724558 </i>
    <i name="e_0_energy">   -128.29724558 </i>
   </energy>
  </scstep>
  <scstep>
   <time name="dav">   61.36   61.38</time>
   <time name="total">   77.61   77.63</time>
   <energy>
    <i name="e_fr_energy">   -128.29723392 </i>
    <i name="e_wo_entrp">   -128.29723392 </i>
    <i name="e_0_energy">   -128.29723392 </i>
   </energy>
  </scstep>
  <scstep>
   <time name="dav">   56.87   56.89</time>
   <time name="total">   69.99   70.05</time>
   <energy>
    <i name="alphaZ">     36.80884744 </i>
    <i name="ewald">  11895.04182806 </i>
    <i name="hartreedc"> -15039.73801356 </i>
    <i name="XCdc">    -80.03365098 </i>
    <i name="pawpsdc">   1165.28404624 </i>
    <i name="pawaedc">   -844.26567692 </i>
    <i name="eentropy">     -0.00000000 </i>
    <i name="bandstr">   -615.43587381 </i>
    <i name="atom">   3354.04126044 </i>
    <i name="e_fr_energy">   -128.29723308 </i>
    <i name="e_wo_entrp">   -128.29723308 </i>
    <i name="e_0_energy">   -128.29723308 </i>
   </energy>
  </scstep>
  <structure>
   <crystal>
    <varray name="basis" >
     <v>       3.54040000       0.00000000       0.00000000 </v>
     <v>      -1.77020000      10.29434800       0.00000000 </v>
     <v>       0.00000000       0.00000000      27.50142900 </v>
    </varray>
    <i name="volume">   1002.32009712 </i>
    <varray name="rec_basis" >
     <v>       0.28245396       0.04857034       0.00000000 </v>
     <v>       0.00000000       0.09714068       0.00000000 </v>
     <v>       0.00000000       0.00000000       0.03636175 </v>
    </varray>
   </crystal>
   <varray name="positions" >
    <v>       0.11402300       0.22804500       0.23316207 </v>
    <v>       0.91402300       0.22804500       0.51499159 </v>
    <v>       0.45808900       0.91617900       0.20939482 </v>
    <v>       0.25808900       0.91617900       0.49122434 </v>
    <v>       0.31085400       0.62170900       0.08414979 </v>
    <v>       0.31085400       0.62170900       0.36597930 </v>
    <v>       0.99923000       0.99846000       0.08631254 </v>
    <v>       0.99923000       0.99846000       0.36814206 </v>
    <v>       0.65492700       0.30985400       0.06041748 </v>
    <v>       0.65492700       0.30985400       0.34224700 </v>
    <v>       0.76973800       0.53947500       0.20725292 </v>
    <v>       0.56973800       0.53947500       0.48908244 </v>
    <v>       0.93971600       0.87943300       0.15783749 </v>
    <v>       0.73971600       0.87943300       0.43966701 </v>
    <v>       0.20515200       0.41030300       0.18578822 </v>
    <v>       0.00515200       0.41030300       0.46761774 </v>
    <v>       0.20184900       0.40369900       0.09969156 </v>
    <v>       0.20184900       0.40369900       0.38152107 </v>
    <v>       0.56380500       0.12761000       0.10779021 </v>
    <v>       0.56380500       0.12761000       0.38961973 </v>
    <v>       0.56710600       0.13421200       0.19387616 </v>
    <v>       0.36710600       0.13421200       0.47570568 </v>
    <v>       0.82923400       0.65846800       0.13571444 </v>
    <v>       0.62923400       0.65846800       0.41754396 </v>
   </varray>
  </structure>
  <varray name="forces" >
   <v>      -0.03344240      -0.05936112      -0.03234928 </v>
   <v>       0.30093043       0.12040555       0.23689845 </v>
   <v>      -0.00333434      -0.01951559       0.07729525 </v>
   <v>       0.14646760       0.04340221       0.14535840 </v>
   <v>      -0.00052891      -0.01056405       0.01676436 </v>
   <v>      -7.06782498      -2.34388968      -8.47814315 </v>
   <v>      -0.00356189      -0.00299799      -0.00562019 </v>
   <v>      -1.32569844      -0.35841632      -0.09121521 </v>
   <v>       0.00077068       0.00313833       0.00519665 </v>
   <v>      -0.38387079      -0.01418133      -0.18320992 </v>
   <v>      -0.00030962       0.00598462       0.08659338 </v>
   <v>       0.57108084       0.18162915       0.27739988 </v>
   <v>       0.00335269       0.00877129       0.00692287 </v>
   <v>       1.09595245       0.14044547      -0.24781673 </v>
   <v>      -0.00332454      -0.00337199       0.04297189 </v>
   <v>       0.70398520       0.00503165      -0.52733230 </v>
   <v>      -0.00010607      -0.00332747      -0.02188255 </v>
   <v>      -0.85301781      -0.01828582       0.45251618 </v>
   <v>      -0.00736532      -0.02057545       0.00152817 </v>
   <v>      -0.56819122       0.06560950       0.36691031 </v>
   <v>       0.00751079      -0.01239216      -0.02395961 </v>
   <v>       0.77342813       0.01823984      -0.47807799 </v>
   <v>       0.00086650       0.02394073      -0.00259579 </v>
   <v>       6.64623102       2.25028062       8.37584693 </v>
  </varray>
  <varray name="stress" >
   <v>       7.62818554       6.19570270      30.71898719 </v>
   <v>       6.19570282       2.45119544       8.35278317 </v>
   <v>      30.71898720       8.35278302      15.53901121 </v>
  </varray>
  <energy>
   <i name="e_fr_energy">   -128.29723308 </i>
   <i name="e_wo_entrp">   -128.29723308 </i>
   <i name="e_0_energy">     -0.00000000 </i>
  </energy>
  <time name="totalsc"> 2639.51 2640.55</time>
  <eigenvalues>
   <array>
    <dimension dim="1">band</dimension>
    <dimension dim="2">kpoint</dimension>
    <dimension dim="3">spin</dimension>
    <field>eigene</field>
    <field>occ</field>
    <set>
     <set comment="spin 1">
      <set comment="kpoint 1">
       <r>  -13.6319    1.0000 </r>
       <r>  -13.4681    1.0000 </r>
       <r>  -12.9423    1.0000 </r>
       <r>  -12.7303    1.0000 </r>
       <r>  -12.4879    1.0000 </r>
       <r>  -12.3962    1.0000 </r>
       <r>  -12.2076    1.0000 </r>
       <r>  -12.0087    1.0000 </r>
       <r>  -11.4576    1.0000 </r>
       <r>  -11.3632    1.0000 </r>
       <r>  -11.1075    1.0000 </r>
       <r>  -10.9178    1.0000 </r>
       <r>   -8.0139    1.0000 </r>
       <r>   -7.9331    1.0000 </r>
       <r>   -7.7560    1.0000 </r>
       <r>   -7.7112    1.0000 </r>
       <r>   -6.8311    1.0000 </r>
       <r>   -6.6769    1.0000 </r>
       <r>   -6.5180    1.0000 </r>
       <r>   -6.4199    1.0000 </r>
       <r>   -5.7941    1.0000 </r>
       <r>   -5.7455    1.0000 </r>
       <r>   -4.8139    1.0000 </r>
       <r>   -4.6731    1.0000 </r>
       <r>   -3.9600    1.0000 </r>
       <r>   -3.7535    1.0000 </r>
       <r>   -3.6208    1.0000 </r>
       <r>   -3.4639    1.0000 </r>
       <r>   -3.1683    1.0000 </r>
       <r>   -2.9849    1.0000 </r>
       <r>   -2.8754    1.0000 </r>
       <r>   -2.8647    1.0000 </r>
       <r>   -2.7736    1.0000 </r>
       <r>   -2.6469    1.0000 </r>
       <r>   -2.5564    1.0000 </r>
       <r>   -2.4505    1.0000 </r>
       <r>   -2.3707    1.0000 </r>
       <r>   -2.3136    1.0000 </r>
       <r>   -2.1416    1.0000 </r>
       <r>   -2.1024    1.0000 </r>
       <r>   -1.9725    1.0000 </r>
       <r>   -1.8824    1.0000 </r>
       <r>   -1.7811    1.0000 </r>
       <r>   -1.7167    1.0000 </r>
       <r>   -1.6575    1.0000 </r>
       <r>   -1.5718    1.0000 </r>
       <r>   -1.5155    1.0000 </r>
       <r>   -1.4447    1.0000 </r>
       <r>   -1.3607    1.0000 </r>
       <r>   -1.1990    1.0000 </r>
       <r>   -1.0533    1.0000 </r>
       <r>   -0.8029    1.0000 </r>
       <r>   -0.6171    1.0000 </r>
       <r>   -0.3172    1.0000 </r>
       <r>    0.6344    0.0000 </r>
       <r>    1.2023    0.0000 </r>
       <r>    1.2963    0.0000 </r>
       <r>    1.3819    0.0000 </r>
       <r>    1.4127    0.0000 </r>
       <r>    1.7167    0.0000 </r>
       <r>    1.7706    0.0000 </r>
       <r>    1.7849    0.0000 </r>
       <r>    2.0131    0.0000 </r>
       <r>    2.0660    0.0000 </r>
       <r>    2.2465    0.0000 </r>
       <r>    2.3504    0.0000 </r>
       <r>    2.5046    0.0000 </r>
       <r>    2.7150    0.0000 </r>
      </set>
      <set comment="kpoint 2">
       <r>  -13.5748    1.0000 </r>
       <r>  -13.4068    1.0000 </r>
       <r>  -12.8956    1.0000 </r>
       <r>  -12.6782    1.0000 </r>
       <r>  -12.4319    1.0000 </r>
       <r>  -12.3405    1.0000 </r>
       <r>  -12.1480    1.0000 </r>
       <r>  -11.9465    1.0000 </r>
       <r>  -11.4085    1.0000 </r>
       <r>  -11.3143    1.0000 </r>
       <r>  -11.0591    1.0000 </r>
       <r>  -10.8695    1.0000 </r>
       <r>   -8.0501    1.0000 </r>
       <r>   -7.9816    1.0000 </r>
       <r>   -7.7221    1.0000 </r>
       <r>   -7.6422    1.0000 </r>
       <r>   -6.7946    1.0000 </r>
       <r>   -6.6482    1.0000 </r>
       <r>   -6.5072    1.0000 </r>
       <r>   -6.4139    1.0000 </r>
       <r>   -5.7608    1.0000 </r>
       <r>   -5.7107    1.0000 </r>
       <r>   -4.8313    1.0000 </r>
       <r>   -4.6766    1.0000 </r>
       <r>   -3.9573    1.0000 </r>
       <r>   -3.7854    1.0000 </r>
       <r>   -3.6607    1.0000 </r>
       <r>   -3.5728    1.0000 </r>
       <r>   -3.4247    1.0000 </r>
       <r>   -3.2984    1.0000 </r>
       <r>   -3.2075    1.0000 </r>
       <r>   -3.1507    1.0000 </r>
       <r>   -3.0958    1.0000 </r>
       <r>   -2.9278    1.0000 </r>
       <r>   -2.7843    1.0000 </r>
       <r>   -2.6618    1.0000 </r>
       <r>   -2.5065    1.0000 </r>
       <r>   -2.4064    1.0000 </r>
       <r>   -2.2635    1.0000 </r>
       <r>   -2.1698    1.0000 </r>
       <r>   -2.1119    1.0000 </r>
       <r>   -2.0403    1.0000 </r>
       <r>   -1.9550    1.0000 </r>
       <r>   -1.8967    1.0000 </r>
       <r>   -1.8495    1.0000 </r>
       <r>   -1.7704    1.0000 </r>
       <r>   -1.6706    1.0000 </r>
       <r>   -1.5034    1.0000 </r>
       <r>   -1.4379    1.0000 </r>
       <r>   -1.1569    1.0000 </r>
       <r>   -1.1086    1.0000 </r>
       <r>   -1.0056    1.0000 </r>
       <r>   -0.7982    1.0000 </r>
       <r>   -0.3149    1.0000 </r>
       <r>    1.1008    0.0000 </r>
       <r>    1.5963    0.0000 </r>
       <r>    1.6373    0.0000 </r>
       <r>    1.7569    0.0000 </r>
       <r>    1.8307    0.0000 </r>
       <r>    1.9596    0.0000 </r>
       <r>    2.0466    0.0000 </r>
       <r>    2.2079    0.0000 </r>
       <r>    2.2772    0.0000 </r>
       <r>    2.3129    0.0000 </r>
       <r>    2.4229    0.0000 </r>
       <r>    2.5553    0.0000 </r>
       <r>    2.6775    0.0000 </r>
       <r>    2.8370    0.0000 </r>
      </set>
      <set comment="kpoint 3">
       <r>  -13.4060    1.0000 </r>
       <r>  -13.2239    1.0000 </r>
       <r>  -12.7569    1.0000 </r>
       <r>  -12.5224    1.0000 </r>
       <r>  -12.2659    1.0000 </r>
       <r>  -12.1753    1.0000 </r>
       <r>  -11.9738    1.0000 </r>
       <r>  -11.7642    1.0000 </r>
       <r>  -11.2650    1.0000 </r>
       <r>  -11.1724    1.0000 </r>
       <r>  -10.9182    1.0000 </r>
       <r>  -10.7308    1.0000 </r>
       <r>   -8.1511    1.0000 </r>
       <r>   -8.0897    1.0000 </r>
       <r>   -7.6802    1.0000 </r>
       <r>   -7.5232    1.0000 </r>
       <r>   -6.7145    1.0000 </r>
       <r>   -6.6037    1.0000 </r>
       <r>   -6.4819    1.0000 </r>
       <r>   -6.4247    1.0000 </r>
       <r>   -5.6884    1.0000 </r>
       <r>   -5.6337    1.0000 </r>
       <r>   -5.0171    1.0000 </r>
       <r>   -4.7954    1.0000 </r>
       <r>   -4.3323    1.0000 </r>
       <r>   -4.1465    1.0000 </r>
       <r>   -4.0279    1.0000 </r>
       <r>   -3.9794    1.0000 </r>
       <r>   -3.9291    1.0000 </r>
       <r>   -3.8720    1.0000 </r>
       <r>   -3.6943    1.0000 </r>
       <r>   -3.6593    1.0000 </r>
       <r>   -3.5161    1.0000 </r>
       <r>   -3.2747    1.0000 </r>
       <r>   -3.1673    1.0000 </r>
       <r>   -3.0135    1.0000 </r>
       <r>   -2.9570    1.0000 </r>
       <r>   -2.8921    1.0000 </r>
       <r>   -2.8492    1.0000 </r>
       <r>   -2.6135    1.0000 </r>
       <r>   -2.3169    1.0000 </r>
       <r>   -2.2477    1.0000 </r>
       <r>   -2.1564    1.0000 </r>
       <r>   -2.0793    1.0000 </r>
       <r>   -1.9366    1.0000 </r>
       <r>   -1.8894    1.0000 </r>
       <r>   -1.7471    1.0000 </r>
       <r>   -1.7042    1.0000 </r>
       <r>   -1.5850    1.0000 </r>
       <r>   -1.5201    1.0000 </r>
       <r>   -1.1533    1.0000 </r>
       <r>   -1.0427    1.0000 </r>
       <r>   -0.9023    1.0000 </r>
       <r>   -0.3806    1.0000 </r>
       <r>    1.6064    0.0000 </r>
       <r>    1.7783    0.0000 </r>
       <r>    1.9942    0.0000 </r>
       <r>    2.0795    0.0000 </r>
       <r>    2.2328    0.0000 </r>
       <r>    2.3319    0.0000 </r>
       <r>    2.4518    0.0000 </r>
       <r>    2.4988    0.0000 </r>
       <r>    2.6626    0.0000 </r>
       <r>    2.7224    0.0000 </r>
       <r>    2.7964    0.0000 </r>
       <r>    2.9989    0.0000 </r>
       <r>    3.0671    0.0000 </r>
       <r>    3.1382    0.0000 </r>
      </set>
      <set comment="kpoint 4">
       <r>  -13.1362    1.0000 </r>
       <r>  -12.9230    1.0000 </r>
       <r>  -12.5297    1.0000 </r>
       <r>  -12.2661    1.0000 </r>
       <r>  -11.9964    1.0000 </r>
       <r>  -11.9083    1.0000 </r>
       <r>  -11.7015    1.0000 </r>
       <r>  -11.4766    1.0000 </r>
       <r>  -11.0411    1.0000 </r>
       <r>  -10.9557    1.0000 </r>
       <r>  -10.7027    1.0000 </r>
       <r>  -10.5279    1.0000 </r>
       <r>   -8.3562    1.0000 </r>
       <r>   -8.2859    1.0000 </r>
       <r>   -7.7521    1.0000 </r>
       <r>   -7.4744    1.0000 </r>
       <r>   -6.7686    1.0000 </r>
       <r>   -6.6297    1.0000 </r>
       <r>   -6.5627    1.0000 </r>
       <r>   -6.4966    1.0000 </r>
       <r>   -5.7149    1.0000 </r>
       <r>   -5.6569    1.0000 </r>
       <r>   -5.4862    1.0000 </r>
       <r>   -5.2679    1.0000 </r>
       <r>   -4.9015    1.0000 </r>
       <r>   -4.7380    1.0000 </r>
       <r>   -4.5495    1.0000 </r>
       <r>   -4.4862    1.0000 </r>
       <r>   -4.4450    1.0000 </r>
       <r>   -4.3723    1.0000 </r>
       <r>   -4.1383    1.0000 </r>
       <r>   -4.1097    1.0000 </r>
       <r>   -3.8349    1.0000 </r>
       <r>   -3.7187    1.0000 </r>
       <r>   -3.5389    1.0000 </r>
       <r>   -3.3977    1.0000 </r>
       <r>   -3.2489    1.0000 </r>
       <r>   -2.9920    1.0000 </r>
       <r>   -2.9130    1.0000 </r>
       <r>   -2.6928    1.0000 </r>
       <r>   -2.5853    1.0000 </r>
       <r>   -2.4807    1.0000 </r>
       <r>   -2.3856    1.0000 </r>
       <r>   -2.3281    1.0000 </r>
       <r>   -1.9987    1.0000 </r>
       <r>   -1.8640    1.0000 </r>
       <r>   -1.8101    1.0000 </r>
       <r>   -1.7602    1.0000 </r>
       <r>   -1.6581    1.0000 </r>
       <r>   -1.5687    1.0000 </r>
       <r>   -1.3905    1.0000 </r>
       <r>   -1.2632    1.0000 </r>
       <r>   -1.0644    1.0000 </r>
       <r>   -0.5698    1.0000 </r>
       <r>    1.2796    0.0000 </r>
       <r>    1.6073    0.0000 </r>
       <r>    1.8269    0.0000 </r>
       <r>    1.9774    0.0000 </r>
       <r>    2.0803    0.0000 </r>
       <r>    2.2244    0.0000 </r>
       <r>    2.3240    0.0000 </r>
       <r>    2.4215    0.0000 </r>
       <r>    2.4704    0.0000 </r>
       <r>    2.7429    0.0000 </r>
       <r>    2.8256    0.0000 </r>
       <r>    2.8685    0.0000 </r>
       <r>    2.9586    0.0000 </r>
       <r>    3.0535    0.0000 </r>
      </set>
      <set comment="kpoint 5">
       <r>  -12.7923    1.0000 </r>
       <r>  -12.5115    1.0000 </r>
       <r>  -12.2204    1.0000 </r>
       <r>  -11.9178    1.0000 </r>
       <r>  -11.6391    1.0000 </r>
       <r>  -11.5567    1.0000 </r>
       <r>  -11.3673    1.0000 </r>
       <r>  -11.1186    1.0000 </r>
       <r>  -10.7702    1.0000 </r>
       <r>  -10.7116    1.0000 </r>
       <r>  -10.4652    1.0000 </r>
       <r>  -10.3424    1.0000 </r>
       <r>   -8.6939    1.0000 </r>
       <r>   -8.5814    1.0000 </r>
       <r>   -8.0119    1.0000 </r>
       <r>   -7.6319    1.0000 </r>
       <r>   -7.1418    1.0000 </r>
       <r>   -6.9250    1.0000 </r>
       <r>   -6.8650    1.0000 </r>
       <r>   -6.8145    1.0000 </r>
       <r>   -6.1001    1.0000 </r>
       <r>   -6.0929    1.0000 </r>
       <r>   -5.8929    1.0000 </r>
       <r>   -5.7919    1.0000 </r>
       <r>   -5.2403    1.0000 </r>
       <r>   -5.1370    1.0000 </r>
       <r>   -4.7690    1.0000 </r>
       <r>   -4.7186    1.0000 </r>
       <r>   -4.6901    1.0000 </r>
       <r>   -4.6193    1.0000 </r>
       <r>   -4.3473    1.0000 </r>
       <r>   -4.2580    1.0000 </r>
       <r>   -4.1586    1.0000 </r>
       <r>   -4.1302    1.0000 </r>
       <r>   -3.5114    1.0000 </r>
       <r>   -3.3236    1.0000 </r>
       <r>   -3.1368    1.0000 </r>
       <r>   -3.0891    1.0000 </r>
       <r>   -2.9987    1.0000 </r>
       <r>   -2.8482    1.0000 </r>
       <r>   -2.7795    1.0000 </r>
       <r>   -2.6428    1.0000 </r>
       <r>   -2.5137    1.0000 </r>
       <r>   -2.3412    1.0000 </r>
       <r>   -2.1588    1.0000 </r>
       <r>   -1.9880    1.0000 </r>
       <r>   -1.8638    1.0000 </r>
       <r>   -1.8189    1.0000 </r>
       <r>   -1.7754    1.0000 </r>
       <r>   -1.7171    1.0000 </r>
       <r>   -1.6398    1.0000 </r>
       <r>   -1.5700    1.0000 </r>
       <r>   -1.2413    1.0000 </r>
       <r>   -0.8472    1.0000 </r>
       <r>    0.9345    0.0000 </r>
       <r>    1.2893    0.0000 </r>
       <r>    1.6115    0.0000 </r>
       <r>    1.6657    0.0000 </r>
       <r>    1.8636    0.0000 </r>
       <r>    1.9891    0.0000 </r>
       <r>    2.1030    0.0000 </r>
       <r>    2.2498    0.0000 </r>
       <r>    2.3641    0.0000 </r>
       <r>    2.4409    0.0000 </r>
       <r>    2.5655    0.0000 </r>
       <r>    2.7300    0.0000 </r>
       <r>    2.7682    0.0000 </r>
       <r>    2.9012    0.0000 </r>
      </set>
      <set comment="kpoint 6">
       <r>  -12.4411    1.0000 </r>
       <r>  -12.0035    1.0000 </r>
       <r>  -11.8314    1.0000 </r>
       <r>  -11.4987    1.0000 </r>
       <r>  -11.2309    1.0000 </r>
       <r>  -11.1607    1.0000 </r>
       <r>  -11.0505    1.0000 </r>
       <r>  -10.7759    1.0000 </r>
       <r>  -10.5582    1.0000 </r>
       <r>  -10.5338    1.0000 </r>
       <r>  -10.3835    1.0000 </r>
       <r>  -10.3583    1.0000 </r>
       <r>   -8.9687    1.0000 </r>
       <r>   -8.7583    1.0000 </r>
       <r>   -8.3045    1.0000 </r>
       <r>   -7.9884    1.0000 </r>
       <r>   -7.6318    1.0000 </r>
       <r>   -7.4023    1.0000 </r>
       <r>   -7.3739    1.0000 </r>
       <r>   -7.3388    1.0000 </r>
       <r>   -6.7326    1.0000 </r>
       <r>   -6.6896    1.0000 </r>
       <r>   -6.5883    1.0000 </r>
       <r>   -6.0942    1.0000 </r>
       <r>   -5.2627    1.0000 </r>
       <r>   -5.1395    1.0000 </r>
       <r>   -4.6877    1.0000 </r>
       <r>   -4.5859    1.0000 </r>
       <r>   -4.5328    1.0000 </r>
       <r>   -4.4514    1.0000 </r>
       <r>   -4.3185    1.0000 </r>
       <r>   -4.1586    1.0000 </r>
       <r>   -4.0663    1.0000 </r>
       <r>   -3.9972    1.0000 </r>
       <r>   -3.6749    1.0000 </r>
       <r>   -3.5845    1.0000 </r>
       <r>   -3.3488    1.0000 </r>
       <r>   -3.1977    1.0000 </r>
       <r>   -3.1021    1.0000 </r>
       <r>   -2.9500    1.0000 </r>
       <r>   -2.8641    1.0000 </r>
       <r>   -2.7203    1.0000 </r>
       <r>   -2.5641    1.0000 </r>
       <r>   -2.3779    1.0000 </r>
       <r>   -2.3547    1.0000 </r>
       <r>   -2.2017    1.0000 </r>
       <r>   -2.0437    1.0000 </r>
       <r>   -2.0083    1.0000 </r>
       <r>   -1.9592    1.0000 </r>
       <r>   -1.8273    1.0000 </r>
       <r>   -1.7390    1.0000 </r>
       <r>   -1.7150    1.0000 </r>
       <r>   -1.3209    1.0000 </r>
       <r>   -1.0759    1.0000 </r>
       <r>    0.7588    0.0000 </r>
       <r>    1.0793    0.0000 </r>
       <r>    1.3879    0.0000 </r>
       <r>    1.4726    0.0000 </r>
       <r>    1.7334    0.0000 </r>
       <r>    1.7851    0.0000 </r>
       <r>    1.9405    0.0000 </r>
       <r>    2.0949    0.0000 </r>
       <r>    2.1650    0.0000 </r>
       <r>    2.2623    0.0000 </r>
       <r>    2.3318    0.0000 </r>
       <r>    2.3983    0.0000 </r>
       <r>    2.6047    0.0000 </r>
       <r>    2.8248    0.0000 </r>
      </set>
      <set comment="kpoint 7">
       <r>  -12.2077    1.0000 </r>
       <r>  -11.4307    1.0000 </r>
       <r>  -11.3752    1.0000 </r>
       <r>  -11.0759    1.0000 </r>
       <r>  -10.9879    1.0000 </r>
       <r>  -10.8762    1.0000 </r>
       <r>  -10.8458    1.0000 </r>
       <r>  -10.7712    1.0000 </r>
       <r>  -10.6567    1.0000 </r>
       <r>  -10.5640    1.0000 </r>
       <r>  -10.5128    1.0000 </r>
       <r>  -10.4319    1.0000 </r>
       <r>   -8.8508    1.0000 </r>
       <r>   -8.6176    1.0000 </r>
       <r>   -8.4091    1.0000 </r>
       <r>   -8.3666    1.0000 </r>
       <r>   -8.0191    1.0000 </r>
       <r>   -8.0063    1.0000 </r>
       <r>   -7.6084    1.0000 </r>
       <r>   -7.4987    1.0000 </r>
       <r>   -7.2981    1.0000 </r>
       <r>   -7.2131    1.0000 </r>
       <r>   -7.1094    1.0000 </r>
       <r>   -6.3515    1.0000 </r>
       <r>   -5.0403    1.0000 </r>
       <r>   -4.8461    1.0000 </r>
       <r>   -4.5458    1.0000 </r>
       <r>   -4.4399    1.0000 </r>
       <r>   -4.3084    1.0000 </r>
       <r>   -4.1983    1.0000 </r>
       <r>   -4.1133    1.0000 </r>
       <r>   -4.0047    1.0000 </r>
       <r>   -3.9398    1.0000 </r>
       <r>   -3.8695    1.0000 </r>
       <r>   -3.8386    1.0000 </r>
       <r>   -3.7595    1.0000 </r>
       <r>   -3.5607    1.0000 </r>
       <r>   -3.4919    1.0000 </r>
       <r>   -3.1865    1.0000 </r>
       <r>   -3.1449    1.0000 </r>
       <r>   -3.0508    1.0000 </r>
       <r>   -2.9214    1.0000 </r>
       <r>   -2.6358    1.0000 </r>
       <r>   -2.6098    1.0000 </r>
       <r>   -2.5035    1.0000 </r>
       <r>   -2.2868    1.0000 </r>
       <r>   -2.1365    1.0000 </r>
       <r>   -2.0514    1.0000 </r>
       <r>   -2.0429    1.0000 </r>
       <r>   -1.8182    1.0000 </r>
       <r>   -1.7056    1.0000 </r>
       <r>   -1.6082    1.0000 </r>
       <r>   -1.4369    1.0000 </r>
       <r>   -1.1957    1.0000 </r>
       <r>    0.6675    0.0000 </r>
       <r>    0.9761    0.0000 </r>
       <r>    1.2673    0.0000 </r>
       <r>    1.4421    0.0000 </r>
       <r>    1.6052    0.0000 </r>
       <r>    1.7037    0.0000 </r>
       <r>    1.8252    0.0000 </r>
       <r>    1.8955    0.0000 </r>
       <r>    1.9987    0.0000 </r>
       <r>    2.1221    0.0000 </r>
       <r>    2.2073    0.0000 </r>
       <r>    2.3946    0.0000 </r>
       <r>    2.5023    0.0000 </r>
       <r>    2.6095    0.0000 </r>
      </set>
      <set comment="kpoint 8">
       <r>  -13.5774    1.0000 </r>
       <r>  -13.4126    1.0000 </r>
       <r>  -13.0996    1.0000 </r>
       <r>  -12.9038    1.0000 </r>
       <r>  -12.4892    1.0000 </r>
       <r>  -12.3908    1.0000 </r>
       <r>  -12.0350    1.0000 </r>
       <r>  -11.7982    1.0000 </r>
       <r>  -11.4912    1.0000 </r>
       <r>  -11.4082    1.0000 </r>
       <r>  -11.1071    1.0000 </r>
       <r>  -10.9270    1.0000 </r>
       <r>   -8.4541    1.0000 </r>
       <r>   -8.4228    1.0000 </r>
       <r>   -7.3578    1.0000 </r>
       <r>   -7.2071    1.0000 </r>
       <r>   -6.7129    1.0000 </r>
       <r>   -6.5994    1.0000 </r>
       <r>   -6.5715    1.0000 </r>
       <r>   -6.4924    1.0000 </r>
       <r>   -5.7329    1.0000 </r>
       <r>   -5.6598    1.0000 </r>
       <r>   -4.7286    1.0000 </r>
       <r>   -4.5675    1.0000 </r>
       <r>   -4.0993    1.0000 </r>
       <r>   -3.9520    1.0000 </r>
       <r>   -3.7604    1.0000 </r>
       <r>   -3.4586    1.0000 </r>
       <r>   -3.2884    1.0000 </r>
       <r>   -3.0571    1.0000 </r>
       <r>   -2.9997    1.0000 </r>
       <r>   -2.9293    1.0000 </r>
       <r>   -2.7383    1.0000 </r>
       <r>   -2.6377    1.0000 </r>
       <r>   -2.5012    1.0000 </r>
       <r>   -2.3697    1.0000 </r>
       <r>   -2.3207    1.0000 </r>
       <r>   -2.3040    1.0000 </r>
       <r>   -2.2666    1.0000 </r>
       <r>   -2.1223    1.0000 </r>
       <r>   -2.0194    1.0000 </r>
       <r>   -1.9061    1.0000 </r>
       <r>   -1.8477    1.0000 </r>
       <r>   -1.8092    1.0000 </r>
       <r>   -1.6229    1.0000 </r>
       <r>   -1.5574    1.0000 </r>
       <r>   -1.4216    1.0000 </r>
       <r>   -1.3473    1.0000 </r>
       <r>   -1.2914    1.0000 </r>
       <r>   -1.1301    1.0000 </r>
       <r>   -0.9931    1.0000 </r>
       <r>   -0.7985    1.0000 </r>
       <r>   -0.6197    1.0000 </r>
       <r>   -0.2714    1.0000 </r>
       <r>    0.6399    0.0000 </r>
       <r>    1.2430    0.0000 </r>
       <r>    1.2806    0.0000 </r>
       <r>    1.4228    0.0000 </r>
       <r>    1.4941    0.0000 </r>
       <r>    1.6309    0.0000 </r>
       <r>    1.7951    0.0000 </r>
       <r>    1.8241    0.0000 </r>
       <r>    1.9582    0.0000 </r>
       <r>    2.1716    0.0000 </r>
       <r>    2.3129    0.0000 </r>
       <r>    2.3956    0.0000 </r>
       <r>    2.6315    0.0000 </r>
       <r>    2.7125    0.0000 </r>
      </set>
      <set comment="kpoint 9">
       <r>  -13.5037    1.0000 </r>
       <r>  -13.3357    1.0000 </r>
       <r>  -13.0857    1.0000 </r>
       <r>  -12.8847    1.0000 </r>
       <r>  -12.4316    1.0000 </r>
       <r>  -12.3333    1.0000 </r>
       <r>  -11.9464    1.0000 </r>
       <r>  -11.6987    1.0000 </r>
       <r>  -11.4440    1.0000 </r>
       <r>  -11.3668    1.0000 </r>
       <r>  -11.0612    1.0000 </r>
       <r>  -10.8828    1.0000 </r>
       <r>   -8.5128    1.0000 </r>
       <r>   -8.4889    1.0000 </r>
       <r>   -7.3031    1.0000 </r>
       <r>   -7.1275    1.0000 </r>
       <r>   -6.7243    1.0000 </r>
       <r>   -6.6063    1.0000 </r>
       <r>   -6.4815    1.0000 </r>
       <r>   -6.4084    1.0000 </r>
       <r>   -5.6981    1.0000 </r>
       <r>   -5.6146    1.0000 </r>
       <r>   -4.8210    1.0000 </r>
       <r>   -4.6190    1.0000 </r>
       <r>   -4.1347    1.0000 </r>
       <r>   -4.0266    1.0000 </r>
       <r>   -3.7444    1.0000 </r>
       <r>   -3.6072    1.0000 </r>
       <r>   -3.5197    1.0000 </r>
       <r>   -3.3401    1.0000 </r>
       <r>   -3.2754    1.0000 </r>
       <r>   -3.0777    1.0000 </r>
       <r>   -2.9751    1.0000 </r>
       <r>   -2.9276    1.0000 </r>
       <r>   -2.7776    1.0000 </r>
       <r>   -2.6195    1.0000 </r>
       <r>   -2.4952    1.0000 </r>
       <r>   -2.4302    1.0000 </r>
       <r>   -2.4136    1.0000 </r>
       <r>   -2.2533    1.0000 </r>
       <r>   -2.2211    1.0000 </r>
       <r>   -2.1066    1.0000 </r>
       <r>   -2.0546    1.0000 </r>
       <r>   -1.9327    1.0000 </r>
       <r>   -1.7741    1.0000 </r>
       <r>   -1.7486    1.0000 </r>
       <r>   -1.6725    1.0000 </r>
       <r>   -1.3548    1.0000 </r>
       <r>   -1.2573    1.0000 </r>
       <r>   -1.1194    1.0000 </r>
       <r>   -1.0530    1.0000 </r>
       <r>   -0.9385    1.0000 </r>
       <r>   -0.8071    1.0000 </r>
       <r>   -0.2504    1.0000 </r>
       <r>    1.0540    0.0000 </r>
       <r>    1.5773    0.0000 </r>
       <r>    1.6635    0.0000 </r>
       <r>    1.7367    0.0000 </r>
       <r>    1.8440    0.0000 </r>
       <r>    1.9777    0.0000 </r>
       <r>    2.0235    0.0000 </r>
       <r>    2.1736    0.0000 </r>
       <r>    2.2924    0.0000 </r>
       <r>    2.4881    0.0000 </r>
       <r>    2.5781    0.0000 </r>
       <r>    2.6662    0.0000 </r>
       <r>    2.7347    0.0000 </r>
       <r>    2.8273    0.0000 </r>
      </set>
      <set comment="kpoint 10">
       <r>  -13.3231    1.0000 </r>
       <r>  -13.1393    1.0000 </r>
       <r>  -12.9601    1.0000 </r>
       <r>  -12.7482    1.0000 </r>
       <r>  -12.2638    1.0000 </r>
       <r>  -12.1670    1.0000 </r>
       <r>  -11.7715    1.0000 </r>
       <r>  -11.5010    1.0000 </r>
       <r>  -11.2940    1.0000 </r>
       <r>  -11.2274    1.0000 </r>
       <r>  -10.9193    1.0000 </r>
       <r>  -10.7417    1.0000 </r>
       <r>   -8.5715    1.0000 </r>
       <r>   -8.5476    1.0000 </r>
       <r>   -7.2571    1.0000 </r>
       <r>   -7.0676    1.0000 </r>
       <r>   -6.7178    1.0000 </r>
       <r>   -6.5842    1.0000 </r>
       <r>   -6.4368    1.0000 </r>
       <r>   -6.3514    1.0000 </r>
       <r>   -5.6644    1.0000 </r>
       <r>   -5.5717    1.0000 </r>
       <r>   -5.0311    1.0000 </r>
       <r>   -4.7724    1.0000 </r>
       <r>   -4.4317    1.0000 </r>
       <r>   -4.3114    1.0000 </r>
       <r>   -4.2396    1.0000 </r>
       <r>   -4.1861    1.0000 </r>
       <r>   -3.9203    1.0000 </r>
       <r>   -3.8906    1.0000 </r>
       <r>   -3.6471    1.0000 </r>
       <r>   -3.5194    1.0000 </r>
       <r>   -3.4261    1.0000 </r>
       <r>   -3.2265    1.0000 </r>
       <r>   -3.0738    1.0000 </r>
       <r>   -2.9283    1.0000 </r>
       <r>   -2.8941    1.0000 </r>
       <r>   -2.8499    1.0000 </r>
       <r>   -2.7353    1.0000 </r>
       <r>   -2.6081    1.0000 </r>
       <r>   -2.5580    1.0000 </r>
       <r>   -2.5080    1.0000 </r>
       <r>   -2.2995    1.0000 </r>
       <r>   -2.2449    1.0000 </r>
       <r>   -1.9426    1.0000 </r>
       <r>   -1.8616    1.0000 </r>
       <r>   -1.8244    1.0000 </r>
       <r>   -1.7126    1.0000 </r>
       <r>   -1.4235    1.0000 </r>
       <r>   -1.2966    1.0000 </r>
       <r>   -1.0961    1.0000 </r>
       <r>   -0.9979    1.0000 </r>
       <r>   -0.8874    1.0000 </r>
       <r>   -0.3314    1.0000 </r>
       <r>    1.4407    0.0000 </r>
       <r>    1.6879    0.0000 </r>
       <r>    1.8351    0.0000 </r>
       <r>    1.8868    0.0000 </r>
       <r>    2.1706    0.0000 </r>
       <r>    2.2867    0.0000 </r>
       <r>    2.4456    0.0000 </r>
       <r>    2.4920    0.0000 </r>
       <r>    2.7932    0.0000 </r>
       <r>    2.8440    0.0000 </r>
       <r>    2.9605    0.0000 </r>
       <r>    3.0848    0.0000 </r>
       <r>    3.1381    0.0000 </r>
       <r>    3.1852    0.0000 </r>
      </set>
      <set comment="kpoint 11">
       <r>  -13.0522    1.0000 </r>
       <r>  -12.8284    1.0000 </r>
       <r>  -12.7201    1.0000 </r>
       <r>  -12.4969    1.0000 </r>
       <r>  -11.9933    1.0000 </r>
       <r>  -11.9000    1.0000 </r>
       <r>  -11.5301    1.0000 </r>
       <r>  -11.2247    1.0000 </r>
       <r>  -11.0553    1.0000 </r>
       <r>  -11.0056    1.0000 </r>
       <r>  -10.6963    1.0000 </r>
       <r>  -10.5246    1.0000 </r>
       <r>   -8.6998    1.0000 </r>
       <r>   -8.6455    1.0000 </r>
       <r>   -7.3274    1.0000 </r>
       <r>   -7.1282    1.0000 </r>
       <r>   -6.7994    1.0000 </r>
       <r>   -6.6242    1.0000 </r>
       <r>   -6.5780    1.0000 </r>
       <r>   -6.5389    1.0000 </r>
       <r>   -5.7849    1.0000 </r>
       <r>   -5.7236    1.0000 </r>
       <r>   -5.3285    1.0000 </r>
       <r>   -5.1383    1.0000 </r>
       <r>   -4.9965    1.0000 </r>
       <r>   -4.9516    1.0000 </r>
       <r>   -4.6559    1.0000 </r>
       <r>   -4.5923    1.0000 </r>
       <r>   -4.4959    1.0000 </r>
       <r>   -4.4241    1.0000 </r>
       <r>   -4.0313    1.0000 </r>
       <r>   -3.9408    1.0000 </r>
       <r>   -3.8115    1.0000 </r>
       <r>   -3.6625    1.0000 </r>
       <r>   -3.3223    1.0000 </r>
       <r>   -3.2449    1.0000 </r>
       <r>   -3.1376    1.0000 </r>
       <r>   -3.0216    1.0000 </r>
       <r>   -2.9289    1.0000 </r>
       <r>   -2.7382    1.0000 </r>
       <r>   -2.6463    1.0000 </r>
       <r>   -2.5765    1.0000 </r>
       <r>   -2.4582    1.0000 </r>
       <r>   -2.3653    1.0000 </r>
       <r>   -2.0979    1.0000 </r>
       <r>   -1.9256    1.0000 </r>
       <r>   -1.8971    1.0000 </r>
       <r>   -1.7504    1.0000 </r>
       <r>   -1.6953    1.0000 </r>
       <r>   -1.5100    1.0000 </r>
       <r>   -1.3236    1.0000 </r>
       <r>   -1.2483    1.0000 </r>
       <r>   -1.0192    1.0000 </r>
       <r>   -0.5576    1.0000 </r>
       <r>    1.2294    0.0000 </r>
       <r>    1.3212    0.0000 </r>
       <r>    1.5309    0.0000 </r>
       <r>    1.6746    0.0000 </r>
       <r>    1.7353    0.0000 </r>
       <r>    2.1290    0.0000 </r>
       <r>    2.3185    0.0000 </r>
       <r>    2.3753    0.0000 </r>
       <r>    2.6240    0.0000 </r>
       <r>    2.7722    0.0000 </r>
       <r>    2.9227    0.0000 </r>
       <r>    3.0035    0.0000 </r>
       <r>    3.1129    0.0000 </r>
       <r>    3.2523    0.0000 </r>
      </set>
      <set comment="kpoint 12">
       <r>  -12.7286    1.0000 </r>
       <r>  -12.4132    1.0000 </r>
       <r>  -12.3614    1.0000 </r>
       <r>  -12.1380    1.0000 </r>
       <r>  -11.6364    1.0000 </r>
       <r>  -11.5502    1.0000 </r>
       <r>  -11.2566    1.0000 </r>
       <r>  -10.9109    1.0000 </r>
       <r>  -10.7672    1.0000 </r>
       <r>  -10.7420    1.0000 </r>
       <r>  -10.4487    1.0000 </r>
       <r>  -10.3194    1.0000 </r>
       <r>   -8.8989    1.0000 </r>
       <r>   -8.8201    1.0000 </r>
       <r>   -7.6346    1.0000 </r>
       <r>   -7.5351    1.0000 </r>
       <r>   -7.1213    1.0000 </r>
       <r>   -7.0411    1.0000 </r>
       <r>   -6.9533    1.0000 </r>
       <r>   -6.8870    1.0000 </r>
       <r>   -6.1249    1.0000 </r>
       <r>   -6.0384    1.0000 </r>
       <r>   -5.8467    1.0000 </r>
       <r>   -5.8148    1.0000 </r>
       <r>   -5.3176    1.0000 </r>
       <r>   -5.2825    1.0000 </r>
       <r>   -4.9473    1.0000 </r>
       <r>   -4.8627    1.0000 </r>
       <r>   -4.4738    1.0000 </r>
       <r>   -4.3685    1.0000 </r>
       <r>   -4.3314    1.0000 </r>
       <r>   -4.2353    1.0000 </r>
       <r>   -4.0815    1.0000 </r>
       <r>   -3.9403    1.0000 </r>
       <r>   -3.3877    1.0000 </r>
       <r>   -3.2713    1.0000 </r>
       <r>   -3.0878    1.0000 </r>
       <r>   -3.0270    1.0000 </r>
       <r>   -2.9294    1.0000 </r>
       <r>   -2.8668    1.0000 </r>
       <r>   -2.7920    1.0000 </r>
       <r>   -2.6223    1.0000 </r>
       <r>   -2.4891    1.0000 </r>
       <r>   -2.3871    1.0000 </r>
       <r>   -2.2361    1.0000 </r>
       <r>   -2.1673    1.0000 </r>
       <r>   -1.9601    1.0000 </r>
       <r>   -1.8782    1.0000 </r>
       <r>   -1.8354    1.0000 </r>
       <r>   -1.6999    1.0000 </r>
       <r>   -1.6677    1.0000 </r>
       <r>   -1.5767    1.0000 </r>
       <r>   -1.2354    1.0000 </r>
       <r>   -0.8786    1.0000 </r>
       <r>    0.8399    0.0000 </r>
       <r>    1.1038    0.0000 </r>
       <r>    1.2977    0.0000 </r>
       <r>    1.3431    0.0000 </r>
       <r>    1.4720    0.0000 </r>
       <r>    1.9757    0.0000 </r>
       <r>    2.1776    0.0000 </r>
       <r>    2.2388    0.0000 </r>
       <r>    2.3905    0.0000 </r>
       <r>    2.5175    0.0000 </r>
       <r>    2.6051    0.0000 </r>
       <r>    2.6805    0.0000 </r>
       <r>    2.8336    0.0000 </r>
       <r>    3.0358    0.0000 </r>
      </set>
      <set comment="kpoint 13">
       <r>  -12.4147    1.0000 </r>
       <r>  -11.9147    1.0000 </r>
       <r>  -11.8902    1.0000 </r>
       <r>  -11.6881    1.0000 </r>
       <r>  -11.2300    1.0000 </r>
       <r>  -11.1591    1.0000 </r>
       <r>  -11.0169    1.0000 </r>
       <r>  -10.6524    1.0000 </r>
       <r>  -10.5322    1.0000 </r>
       <r>  -10.5273    1.0000 </r>
       <r>  -10.3959    1.0000 </r>
       <r>  -10.3444    1.0000 </r>
       <r>   -8.8952    1.0000 </r>
       <r>   -8.8878    1.0000 </r>
       <r>   -8.1761    1.0000 </r>
       <r>   -8.0379    1.0000 </r>
       <r>   -7.7078    1.0000 </r>
       <r>   -7.5380    1.0000 </r>
       <r>   -7.4103    1.0000 </r>
       <r>   -7.2841    1.0000 </r>
       <r>   -6.7116    1.0000 </r>
       <r>   -6.6229    1.0000 </r>
       <r>   -6.5884    1.0000 </r>
       <r>   -6.1525    1.0000 </r>
       <r>   -5.3019    1.0000 </r>
       <r>   -5.2649    1.0000 </r>
       <r>   -4.8325    1.0000 </r>
       <r>   -4.7139    1.0000 </r>
       <r>   -4.5273    1.0000 </r>
       <r>   -4.3320    1.0000 </r>
       <r>   -4.1446    1.0000 </r>
       <r>   -4.0405    1.0000 </r>
       <r>   -3.9630    1.0000 </r>
       <r>   -3.7890    1.0000 </r>
       <r>   -3.5017    1.0000 </r>
       <r>   -3.2989    1.0000 </r>
       <r>   -3.2821    1.0000 </r>
       <r>   -3.2105    1.0000 </r>
       <r>   -3.0760    1.0000 </r>
       <r>   -3.0505    1.0000 </r>
       <r>   -2.9064    1.0000 </r>
       <r>   -2.8606    1.0000 </r>
       <r>   -2.6638    1.0000 </r>
       <r>   -2.4841    1.0000 </r>
       <r>   -2.4183    1.0000 </r>
       <r>   -2.2323    1.0000 </r>
       <r>   -2.0548    1.0000 </r>
       <r>   -2.0076    1.0000 </r>
       <r>   -1.9983    1.0000 </r>
       <r>   -1.8318    1.0000 </r>
       <r>   -1.7669    1.0000 </r>
       <r>   -1.7125    1.0000 </r>
       <r>   -1.3688    1.0000 </r>
       <r>   -1.1261    1.0000 </r>
       <r>    0.7030    0.0000 </r>
       <r>    0.9675    0.0000 </r>
       <r>    1.2107    0.0000 </r>
       <r>    1.2689    0.0000 </r>
       <r>    1.4268    0.0000 </r>
       <r>    1.7622    0.0000 </r>
       <r>    1.8945    0.0000 </r>
       <r>    1.9605    0.0000 </r>
       <r>    2.1137    0.0000 </r>
       <r>    2.2118    0.0000 </r>
       <r>    2.3755    0.0000 </r>
       <r>    2.6532    0.0000 </r>
       <r>    2.7160    0.0000 </r>
       <r>    2.8399    0.0000 </r>
      </set>
      <set comment="kpoint 14">
       <r>  -12.2047    1.0000 </r>
       <r>  -11.3835    1.0000 </r>
       <r>  -11.3543    1.0000 </r>
       <r>  -11.1929    1.0000 </r>
       <r>  -10.9976    1.0000 </r>
       <r>  -10.8867    1.0000 </r>
       <r>  -10.8589    1.0000 </r>
       <r>  -10.7887    1.0000 </r>
       <r>  -10.6278    1.0000 </r>
       <r>  -10.5176    1.0000 </r>
       <r>  -10.5077    1.0000 </r>
       <r>  -10.4091    1.0000 </r>
       <r>   -8.7677    1.0000 </r>
       <r>   -8.5600    1.0000 </r>
       <r>   -8.4835    1.0000 </r>
       <r>   -8.3283    1.0000 </r>
       <r>   -8.2539    1.0000 </r>
       <r>   -7.8918    1.0000 </r>
       <r>   -7.6516    1.0000 </r>
       <r>   -7.4448    1.0000 </r>
       <r>   -7.2916    1.0000 </r>
       <r>   -7.2412    1.0000 </r>
       <r>   -7.0697    1.0000 </r>
       <r>   -6.4241    1.0000 </r>
       <r>   -5.0550    1.0000 </r>
       <r>   -4.9473    1.0000 </r>
       <r>   -4.5333    1.0000 </r>
       <r>   -4.4066    1.0000 </r>
       <r>   -4.3084    1.0000 </r>
       <r>   -4.1518    1.0000 </r>
       <r>   -4.0806    1.0000 </r>
       <r>   -4.0595    1.0000 </r>
       <r>   -3.9349    1.0000 </r>
       <r>   -3.8593    1.0000 </r>
       <r>   -3.7384    1.0000 </r>
       <r>   -3.5893    1.0000 </r>
       <r>   -3.5414    1.0000 </r>
       <r>   -3.4154    1.0000 </r>
       <r>   -3.1964    1.0000 </r>
       <r>   -3.1721    1.0000 </r>
       <r>   -3.1113    1.0000 </r>
       <r>   -2.9196    1.0000 </r>
       <r>   -2.6346    1.0000 </r>
       <r>   -2.5764    1.0000 </r>
       <r>   -2.5340    1.0000 </r>
       <r>   -2.4646    1.0000 </r>
       <r>   -2.1330    1.0000 </r>
       <r>   -2.0556    1.0000 </r>
       <r>   -2.0494    1.0000 </r>
       <r>   -1.8233    1.0000 </r>
       <r>   -1.6813    1.0000 </r>
       <r>   -1.5672    1.0000 </r>
       <r>   -1.4687    1.0000 </r>
       <r>   -1.2086    1.0000 </r>
       <r>    0.7041    0.0000 </r>
       <r>    0.8758    0.0000 </r>
       <r>    1.2187    0.0000 </r>
       <r>    1.4856    0.0000 </r>
       <r>    1.5454    0.0000 </r>
       <r>    1.6116    0.0000 </r>
       <r>    1.7052    0.0000 </r>
       <r>    1.8297    0.0000 </r>
       <r>    1.9528    0.0000 </r>
       <r>    2.1145    0.0000 </r>
       <r>    2.2519    0.0000 </r>
       <r>    2.4494    0.0000 </r>
       <r>    2.5542    0.0000 </r>
       <r>    2.5991    0.0000 </r>
      </set>
      <set comment="kpoint 15">
       <r>  -12.2143    1.0000 </r>
       <r>  -11.4636    1.0000 </r>
       <r>  -11.3552    1.0000 </r>
       <r>  -10.9994    1.0000 </r>
       <r>  -10.9795    1.0000 </r>
       <r>  -10.8683    1.0000 </r>
       <r>  -10.8377    1.0000 </r>
       <r>  -10.7394    1.0000 </r>
       <r>  -10.6825    1.0000 </r>
       <r>  -10.6321    1.0000 </r>
       <r>  -10.5157    1.0000 </r>
       <r>  -10.4505    1.0000 </r>
       <r>   -8.9907    1.0000 </r>
       <r>   -8.6858    1.0000 </r>
       <r>   -8.3609    1.0000 </r>
       <r>   -8.2338    1.0000 </r>
       <r>   -8.0013    1.0000 </r>
       <r>   -7.8716    1.0000 </r>
       <r>   -7.5602    1.0000 </r>
       <r>   -7.5311    1.0000 </r>
       <r>   -7.3420    1.0000 </r>
       <r>   -7.2091    1.0000 </r>
       <r>   -7.1478    1.0000 </r>
       <r>   -6.4473    1.0000 </r>
       <r>   -4.8788    1.0000 </r>
       <r>   -4.6625    1.0000 </r>
       <r>   -4.6094    1.0000 </r>
       <r>   -4.5092    1.0000 </r>
       <r>   -4.3316    1.0000 </r>
       <r>   -4.2940    1.0000 </r>
       <r>   -4.1141    1.0000 </r>
       <r>   -4.0608    1.0000 </r>
       <r>   -3.9302    1.0000 </r>
       <r>   -3.9151    1.0000 </r>
       <r>   -3.8126    1.0000 </r>
       <r>   -3.7838    1.0000 </r>
       <r>   -3.6537    1.0000 </r>
       <r>   -3.5621    1.0000 </r>
       <r>   -3.3204    1.0000 </r>
       <r>   -3.2804    1.0000 </r>
       <r>   -2.9749    1.0000 </r>
       <r>   -2.7341    1.0000 </r>
       <r>   -2.6278    1.0000 </r>
       <r>   -2.5070    1.0000 </r>
       <r>   -2.4168    1.0000 </r>
       <r>   -2.3059    1.0000 </r>
       <r>   -2.1142    1.0000 </r>
       <r>   -2.0980    1.0000 </r>
       <r>   -2.0379    1.0000 </r>
       <r>   -1.8620    1.0000 </r>
       <r>   -1.6334    1.0000 </r>
       <r>   -1.5508    1.0000 </r>
       <r>   -1.4125    1.0000 </r>
       <r>   -1.1766    1.0000 </r>
       <r>    0.6681    0.0000 </r>
       <r>    0.9672    0.0000 </r>
       <r>    1.2839    0.0000 </r>
       <r>    1.4409    0.0000 </r>
       <r>    1.6442    0.0000 </r>
       <r>    1.7668    0.0000 </r>
       <r>    1.8108    0.0000 </r>
       <r>    1.9311    0.0000 </r>
       <r>    1.9748    0.0000 </r>
       <r>    2.1938    0.0000 </r>
       <r>    2.2847    0.0000 </r>
       <r>    2.4010    0.0000 </r>
       <r>    2.4792    0.0000 </r>
       <r>    2.5985    0.0000 </r>
      </set>
      <set comment="kpoint 16">
       <r>  -12.4602    1.0000 </r>
       <r>  -12.0299    1.0000 </r>
       <r>  -11.7665    1.0000 </r>
       <r>  -11.4142    1.0000 </r>
       <r>  -11.2274    1.0000 </r>
       <r>  -11.1632    1.0000 </r>
       <r>  -11.1032    1.0000 </r>
       <r>  -10.8556    1.0000 </r>
       <r>  -10.5611    1.0000 </r>
       <r>  -10.5337    1.0000 </r>
       <r>  -10.3904    1.0000 </r>
       <r>  -10.3787    1.0000 </r>
       <r>   -8.8220    1.0000 </r>
       <r>   -8.6703    1.0000 </r>
       <r>   -8.4176    1.0000 </r>
       <r>   -8.2365    1.0000 </r>
       <r>   -7.6045    1.0000 </r>
       <r>   -7.3685    1.0000 </r>
       <r>   -7.2569    1.0000 </r>
       <r>   -7.1469    1.0000 </r>
       <r>   -6.7968    1.0000 </r>
       <r>   -6.7389    1.0000 </r>
       <r>   -6.5929    1.0000 </r>
       <r>   -6.1872    1.0000 </r>
       <r>   -5.0642    1.0000 </r>
       <r>   -4.9733    1.0000 </r>
       <r>   -4.9133    1.0000 </r>
       <r>   -4.7750    1.0000 </r>
       <r>   -4.4978    1.0000 </r>
       <r>   -4.3362    1.0000 </r>
       <r>   -4.2202    1.0000 </r>
       <r>   -4.1792    1.0000 </r>
       <r>   -4.1239    1.0000 </r>
       <r>   -4.0160    1.0000 </r>
       <r>   -3.7098    1.0000 </r>
       <r>   -3.6507    1.0000 </r>
       <r>   -3.4922    1.0000 </r>
       <r>   -3.3343    1.0000 </r>
       <r>   -3.1187    1.0000 </r>
       <r>   -3.0209    1.0000 </r>
       <r>   -2.8710    1.0000 </r>
       <r>   -2.6930    1.0000 </r>
       <r>   -2.5341    1.0000 </r>
       <r>   -2.4117    1.0000 </r>
       <r>   -2.2789    1.0000 </r>
       <r>   -2.1661    1.0000 </r>
       <r>   -2.0107    1.0000 </r>
       <r>   -1.9088    1.0000 </r>
       <r>   -1.8736    1.0000 </r>
       <r>   -1.8328    1.0000 </r>
       <r>   -1.7304    1.0000 </r>
       <r>   -1.5745    1.0000 </r>
       <r>   -1.3134    1.0000 </r>
       <r>   -1.0828    1.0000 </r>
       <r>    0.7154    0.0000 </r>
       <r>    1.1436    0.0000 </r>
       <r>    1.4133    0.0000 </r>
       <r>    1.4790    0.0000 </r>
       <r>    1.7752    0.0000 </r>
       <r>    1.8918    0.0000 </r>
       <r>    1.9924    0.0000 </r>
       <r>    2.1117    0.0000 </r>
       <r>    2.2013    0.0000 </r>
       <r>    2.2958    0.0000 </r>
       <r>    2.3482    0.0000 </r>
       <r>    2.5036    0.0000 </r>
       <r>    2.5866    0.0000 </r>
       <r>    2.6951    0.0000 </r>
      </set>
      <set comment="kpoint 17">
       <r>  -12.8098    1.0000 </r>
       <r>  -12.5237    1.0000 </r>
       <r>  -12.1630    1.0000 </r>
       <r>  -11.8764    1.0000 </r>
       <r>  -11.6389    1.0000 </r>
       <r>  -11.5588    1.0000 </r>
       <r>  -11.4243    1.0000 </r>
       <r>  -11.1647    1.0000 </r>
       <r>  -10.7597    1.0000 </r>
       <r>  -10.7033    1.0000 </r>
       <r>  -10.4913    1.0000 </r>
       <r>  -10.3486    1.0000 </r>
       <r>   -8.4832    1.0000 </r>
       <r>   -8.3507    1.0000 </r>
       <r>   -8.1147    1.0000 </r>
       <r>   -8.1110    1.0000 </r>
       <r>   -7.1369    1.0000 </r>
       <r>   -6.9285    1.0000 </r>
       <r>   -6.8007    1.0000 </r>
       <r>   -6.6437    1.0000 </r>
       <r>   -6.1502    1.0000 </r>
       <r>   -6.0862    1.0000 </r>
       <r>   -5.9014    1.0000 </r>
       <r>   -5.7678    1.0000 </r>
       <r>   -5.0850    1.0000 </r>
       <r>   -5.0394    1.0000 </r>
       <r>   -4.9875    1.0000 </r>
       <r>   -4.8192    1.0000 </r>
       <r>   -4.6633    1.0000 </r>
       <r>   -4.5728    1.0000 </r>
       <r>   -4.3627    1.0000 </r>
       <r>   -4.2428    1.0000 </r>
       <r>   -4.1917    1.0000 </r>
       <r>   -4.1042    1.0000 </r>
       <r>   -3.4832    1.0000 </r>
       <r>   -3.3849    1.0000 </r>
       <r>   -3.1793    1.0000 </r>
       <r>   -3.1366    1.0000 </r>
       <r>   -3.0035    1.0000 </r>
       <r>   -2.8950    1.0000 </r>
       <r>   -2.7770    1.0000 </r>
       <r>   -2.6479    1.0000 </r>
       <r>   -2.5725    1.0000 </r>
       <r>   -2.3571    1.0000 </r>
       <r>   -2.0789    1.0000 </r>
       <r>   -1.9540    1.0000 </r>
       <r>   -1.8191    1.0000 </r>
       <r>   -1.8052    1.0000 </r>
       <r>   -1.7405    1.0000 </r>
       <r>   -1.6639    1.0000 </r>
       <r>   -1.5865    1.0000 </r>
       <r>   -1.5661    1.0000 </r>
       <r>   -1.2573    1.0000 </r>
       <r>   -0.8986    1.0000 </r>
       <r>    0.9236    0.0000 </r>
       <r>    1.4013    0.0000 </r>
       <r>    1.6530    0.0000 </r>
       <r>    1.7032    0.0000 </r>
       <r>    1.8707    0.0000 </r>
       <r>    2.0322    0.0000 </r>
       <r>    2.0770    0.0000 </r>
       <r>    2.3137    0.0000 </r>
       <r>    2.3403    0.0000 </r>
       <r>    2.4220    0.0000 </r>
       <r>    2.5595    0.0000 </r>
       <r>    2.7341    0.0000 </r>
       <r>    2.8201    0.0000 </r>
       <r>    2.8497    0.0000 </r>
      </set>
      <set comment="kpoint 18">
       <r>  -13.1388    1.0000 </r>
       <r>  -12.9188    1.0000 </r>
       <r>  -12.5191    1.0000 </r>
       <r>  -12.2808    1.0000 </r>
       <r>  -11.9982    1.0000 </r>
       <r>  -11.9089    1.0000 </r>
       <r>  -11.7116    1.0000 </r>
       <r>  -11.4596    1.0000 </r>
       <r>  -11.0386    1.0000 </r>
       <r>  -10.9594    1.0000 </r>
       <r>  -10.7096    1.0000 </r>
       <r>  -10.5266    1.0000 </r>
       <r>   -8.3279    1.0000 </r>
       <r>   -8.1107    1.0000 </r>
       <r>   -7.8248    1.0000 </r>
       <r>   -7.7077    1.0000 </r>
       <r>   -6.7742    1.0000 </r>
       <r>   -6.6276    1.0000 </r>
       <r>   -6.5645    1.0000 </r>
       <r>   -6.4650    1.0000 </r>
       <r>   -5.6866    1.0000 </r>
       <r>   -5.6453    1.0000 </r>
       <r>   -5.3397    1.0000 </r>
       <r>   -5.2631    1.0000 </r>
       <r>   -4.8438    1.0000 </r>
       <r>   -4.7647    1.0000 </r>
       <r>   -4.6033    1.0000 </r>
       <r>   -4.5295    1.0000 </r>
       <r>   -4.4612    1.0000 </r>
       <r>   -4.4216    1.0000 </r>
       <r>   -4.1701    1.0000 </r>
       <r>   -4.1047    1.0000 </r>
       <r>   -3.7619    1.0000 </r>
       <r>   -3.7071    1.0000 </r>
       <r>   -3.4364    1.0000 </r>
       <r>   -3.3771    1.0000 </r>
       <r>   -3.2616    1.0000 </r>
       <r>   -3.0948    1.0000 </r>
       <r>   -2.9209    1.0000 </r>
       <r>   -2.7638    1.0000 </r>
       <r>   -2.6517    1.0000 </r>
       <r>   -2.4895    1.0000 </r>
       <r>   -2.3916    1.0000 </r>
       <r>   -2.3184    1.0000 </r>
       <r>   -1.9411    1.0000 </r>
       <r>   -1.8206    1.0000 </r>
       <r>   -1.7700    1.0000 </r>
       <r>   -1.7451    1.0000 </r>
       <r>   -1.6614    1.0000 </r>
       <r>   -1.6134    1.0000 </r>
       <r>   -1.3888    1.0000 </r>
       <r>   -1.2152    1.0000 </r>
       <r>   -1.0735    1.0000 </r>
       <r>   -0.6321    1.0000 </r>
       <r>    1.2473    0.0000 </r>
       <r>    1.6059    0.0000 </r>
       <r>    1.8630    0.0000 </r>
       <r>    1.9652    0.0000 </r>
       <r>    2.0101    0.0000 </r>
       <r>    2.1480    0.0000 </r>
       <r>    2.3080    0.0000 </r>
       <r>    2.4296    0.0000 </r>
       <r>    2.6017    0.0000 </r>
       <r>    2.7156    0.0000 </r>
       <r>    2.8116    0.0000 </r>
       <r>    2.9784    0.0000 </r>
       <r>    3.0117    0.0000 </r>
       <r>    3.0460    0.0000 </r>
      </set>
      <set comment="kpoint 19">
       <r>  -13.3896    1.0000 </r>
       <r>  -13.2024    1.0000 </r>
       <r>  -12.8068    1.0000 </r>
       <r>  -12.5959    1.0000 </r>
       <r>  -12.2684    1.0000 </r>
       <r>  -12.1739    1.0000 </r>
       <r>  -11.9175    1.0000 </r>
       <r>  -11.6760    1.0000 </r>
       <r>  -11.2768    1.0000 </r>
       <r>  -11.1917    1.0000 </r>
       <r>  -10.9162    1.0000 </r>
       <r>  -10.7290    1.0000 </r>
       <r>   -8.3096    1.0000 </r>
[...]
       <r>    2.7536    0.0000 </r>
      </set>
      <set comment="kpoint 54">
       <r>  -12.2114    1.0000 </r>
       <r>  -11.4189    1.0000 </r>
       <r>  -11.3576    1.0000 </r>
       <r>  -11.0981    1.0000 </r>
       <r>  -10.9893    1.0000 </r>
       <r>  -10.8797    1.0000 </r>
       <r>  -10.8552    1.0000 </r>
       <r>  -10.7763    1.0000 </r>
       <r>  -10.6497    1.0000 </r>
       <r>  -10.5510    1.0000 </r>
       <r>  -10.5194    1.0000 </r>
       <r>  -10.4247    1.0000 </r>
       <r>   -8.9595    1.0000 </r>
       <r>   -8.5944    1.0000 </r>
       <r>   -8.3709    1.0000 </r>
       <r>   -8.3489    1.0000 </r>
       <r>   -8.0468    1.0000 </r>
       <r>   -7.8270    1.0000 </r>
       <r>   -7.6474    1.0000 </r>
       <r>   -7.4885    1.0000 </r>
       <r>   -7.3173    1.0000 </r>
       <r>   -7.2177    1.0000 </r>
       <r>   -7.0995    1.0000 </r>
       <r>   -6.5074    1.0000 </r>
       <r>   -4.9715    1.0000 </r>
       <r>   -4.8736    1.0000 </r>
       <r>   -4.5210    1.0000 </r>
       <r>   -4.4144    1.0000 </r>
       <r>   -4.3493    1.0000 </r>
       <r>   -4.2314    1.0000 </r>
       <r>   -4.1466    1.0000 </r>
       <r>   -3.9947    1.0000 </r>
       <r>   -3.9289    1.0000 </r>
       <r>   -3.8507    1.0000 </r>
       <r>   -3.7004    1.0000 </r>
       <r>   -3.6339    1.0000 </r>
       <r>   -3.5594    1.0000 </r>
       <r>   -3.4815    1.0000 </r>
       <r>   -3.3576    1.0000 </r>
       <r>   -3.2487    1.0000 </r>
       <r>   -3.1871    1.0000 </r>
       <r>   -2.9563    1.0000 </r>
       <r>   -2.6324    1.0000 </r>
       <r>   -2.4682    1.0000 </r>
       <r>   -2.4087    1.0000 </r>
       <r>   -2.3025    1.0000 </r>
       <r>   -2.1409    1.0000 </r>
       <r>   -2.0862    1.0000 </r>
       <r>   -2.0211    1.0000 </r>
       <r>   -1.8334    1.0000 </r>
       <r>   -1.6598    1.0000 </r>
       <r>   -1.5181    1.0000 </r>
       <r>   -1.4438    1.0000 </r>
       <r>   -1.1758    1.0000 </r>
       <r>    0.7229    0.0000 </r>
       <r>    0.8959    0.0000 </r>
       <r>    1.1645    0.0000 </r>
       <r>    1.4059    0.0000 </r>
       <r>    1.5653    0.0000 </r>
       <r>    1.6683    0.0000 </r>
       <r>    1.7509    0.0000 </r>
       <r>    1.8238    0.0000 </r>
       <r>    1.9611    0.0000 </r>
       <r>    2.1250    0.0000 </r>
       <r>    2.2269    0.0000 </r>
       <r>    2.4211    0.0000 </r>
       <r>    2.5084    0.0000 </r>
       <r>    2.6101    0.0000 </r>
      </set>
     </set>
    </set>
   </array>
  </eigenvalues>
  <separator name="orbital magnetization" >
   <v name="MAGDIPOLOUT">      0.00000000      0.00000000      0.00000000</v>
  </separator>
  <dos>
   <i name="efermi">      0.18132104 </i>
   <total>
    <array>
     <dimension dim="1">gridpoints</dimension>
     <dimension dim="2">spin</dimension>
     <field>energy</field>
     <field>total</field>
     <field>integrated</field>
     <set>
      <set comment="spin 1">
       <r>   -14.6319     0.0000     0.0000 </r>
       <r>   -14.5689     0.0000     0.0000 </r>
       <r>   -14.5059     0.0000     0.0000 </r>
       <r>   -14.4428     0.0000     0.0000 </r>
       <r>   -14.3798     0.0000     0.0000 </r>
       <r>   -14.3168     0.0000     0.0000 </r>
       <r>   -14.2538     0.0000     0.0000 </r>
       <r>   -14.1907     0.0000     0.0000 </r>
       <r>   -14.1277     0.0000     0.0000 </r>
       <r>   -14.0647     0.0000     0.0000 </r>
       <r>   -14.0016     0.0000     0.0000 </r>
       <r>   -13.9386     0.0000     0.0000 </r>
       <r>   -13.8756     0.0002     0.0000 </r>
       <r>   -13.8125     0.0041     0.0003 </r>
       <r>   -13.7495     0.0445     0.0031 </r>
       <r>   -13.6865     0.2606     0.0195 </r>
       <r>   -13.6234     0.8658     0.0741 </r>
       <r>   -13.5604     1.7482     0.1843 </r>
       <r>   -13.4974     2.5199     0.3431 </r>
       <r>   -13.4343     3.2569     0.5484 </r>
       <r>   -13.3713     3.8687     0.7922 </r>
       <r>   -13.3083     3.8861     1.0372 </r>
       <r>   -13.2453     3.6103     1.2647 </r>
       <r>   -13.1822     3.6369     1.4940 </r>
       <r>   -13.1192     4.1255     1.7540 </r>
       <r>   -13.0562     4.5457     2.0405 </r>
       <r>   -12.9931     4.4134     2.3187 </r>
       <r>   -12.9301     4.3039     2.5900 </r>
       <r>   -12.8671     4.7690     2.8906 </r>
       <r>   -12.8040     5.4979     3.2371 </r>
       <r>   -12.7410     5.5343     3.5860 </r>
       <r>   -12.6780     4.2732     3.8553 </r>
       <r>   -12.6149     3.0180     4.0455 </r>
       <r>   -12.5519     3.8052     4.2854 </r>
       <r>   -12.4889     6.3512     4.6857 </r>
       <r>   -12.4259     8.1622     5.2002 </r>
       <r>   -12.3628     8.0483     5.7075 </r>
       <r>   -12.2998     7.4351     6.1761 </r>
       <r>   -12.2368     7.5195     6.6501 </r>
       <r>   -12.1737     7.3549     7.1136 </r>
       <r>   -12.1107     6.1083     7.4987 </r>
       <r>   -12.0477     5.4582     7.8427 </r>
       <r>   -11.9846     6.7422     8.2677 </r>
       <r>   -11.9216     8.0850     8.7773 </r>
       <r>   -11.8586     7.7280     9.2644 </r>
       <r>   -11.7955     6.4067     9.6682 </r>
       <r>   -11.7325     5.7103    10.0281 </r>
       <r>   -11.6695     5.7761    10.3922 </r>
       <r>   -11.6065     6.1551    10.7801 </r>
       <r>   -11.5434     7.0694    11.2257 </r>
       <r>   -11.4804     8.7428    11.7768 </r>
       <r>   -11.4174    10.4365    12.4346 </r>
       <r>   -11.3543    10.6516    13.1060 </r>
       <r>   -11.2913     9.7371    13.7198 </r>
       <r>   -11.2283     9.5530    14.3219 </r>
       <r>   -11.1652     9.8694    14.9440 </r>
       <r>   -11.1022    10.2019    15.5870 </r>
       <r>   -11.0392    10.9694    16.2784 </r>
       <r>   -10.9761    11.5600    17.0070 </r>
       <r>   -10.9131    11.7207    17.7458 </r>
       <r>   -10.8501    11.4573    18.4680 </r>
       <r>   -10.7870    11.1747    19.1723 </r>
       <r>   -10.7240    11.3566    19.8881 </r>
       <r>   -10.6610    10.3787    20.5423 </r>
       <r>   -10.5980     9.1922    21.1217 </r>
       <r>   -10.5349    10.2455    21.7675 </r>
       <r>   -10.4719    11.0498    22.4640 </r>
       <r>   -10.4089     9.7388    23.0778 </r>
       <r>   -10.3458     7.6478    23.5599 </r>
       <r>   -10.2828     4.7157    23.8571 </r>
       <r>   -10.2198     1.8272    23.9723 </r>
       <r>   -10.1567     0.3931    23.9971 </r>
       <r>   -10.0937     0.0442    23.9998 </r>
       <r>   -10.0307     0.0025    24.0000 </r>
       <r>    -9.9676     0.0001    24.0000 </r>
       <r>    -9.9046     0.0000    24.0000 </r>
       <r>    -9.8416     0.0000    24.0000 </r>
       <r>    -9.7786     0.0000    24.0000 </r>
       <r>    -9.7155     0.0000    24.0000 </r>
       <r>    -9.6525     0.0000    24.0000 </r>
       <r>    -9.5895     0.0000    24.0000 </r>
       <r>    -9.5264     0.0000    24.0000 </r>
       <r>    -9.4634     0.0000    24.0000 </r>
       <r>    -9.4004     0.0000    24.0000 </r>
       <r>    -9.3373     0.0000    24.0000 </r>
       <r>    -9.2743     0.0001    24.0000 </r>
       <r>    -9.2113     0.0017    24.0001 </r>
       <r>    -9.1482     0.0261    24.0018 </r>
       <r>    -9.0852     0.2037    24.0146 </r>
       <r>    -9.0222     0.8304    24.0669 </r>
       <r>    -8.9592     1.9735    24.1913 </r>
       <r>    -8.8961     3.2090    24.3936 </r>
       <r>    -8.8331     4.0087    24.6463 </r>
       <r>    -8.7701     4.2766    24.9158 </r>
       <r>    -8.7070     5.0102    25.2316 </r>
       <r>    -8.6440     6.5401    25.6439 </r>
       <r>    -8.5810     7.4928    26.1161 </r>
       <r>    -8.5179     7.0488    26.5604 </r>
       <r>    -8.4549     6.1846    26.9503 </r>
       <r>    -8.3919     6.3307    27.3493 </r>
       <r>    -8.3288     6.9184    27.7854 </r>
       <r>    -8.2658     6.2772    28.1810 </r>
       <r>    -8.2028     5.0148    28.4971 </r>
       <r>    -8.1397     4.5649    28.7848 </r>
       <r>    -8.0767     4.9414    29.0963 </r>
       <r>    -8.0137     5.3473    29.4333 </r>
       <r>    -7.9507     4.7893    29.7352 </r>
       <r>    -7.8876     3.6041    29.9624 </r>
       <r>    -7.8246     2.9645    30.1492 </r>
       <r>    -7.7616     3.3409    30.3598 </r>
       <r>    -7.6985     4.7234    30.6575 </r>
       <r>    -7.6355     6.1325    31.0441 </r>
       <r>    -7.5725     6.7438    31.4691 </r>
       <r>    -7.5094     6.7870    31.8969 </r>
       <r>    -7.4464     6.5491    32.3097 </r>
       <r>    -7.3834     6.9250    32.7462 </r>
       <r>    -7.3203     8.2424    33.2658 </r>
       <r>    -7.2573     9.1439    33.8421 </r>
       <r>    -7.1943     8.9189    34.4043 </r>
       <r>    -7.1313     8.2200    34.9224 </r>
       <r>    -7.0682     7.1033    35.3701 </r>
       <r>    -7.0052     5.3679    35.7085 </r>
       <r>    -6.9422     4.1933    35.9728 </r>
       <r>    -6.8791     4.6606    36.2665 </r>
       <r>    -6.8161     6.7281    36.6906 </r>
       <r>    -6.7531     9.4606    37.2869 </r>
       <r>    -6.6900    11.6222    38.0195 </r>
       <r>    -6.6270    13.2090    38.8520 </r>
       <r>    -6.5640    13.8224    39.7233 </r>
       <r>    -6.5009    12.4392    40.5073 </r>
       <r>    -6.4379     9.8026    41.1252 </r>
       <r>    -6.3749     6.7831    41.5528 </r>
       <r>    -6.3119     4.2890    41.8231 </r>
       <r>    -6.2488     3.3197    42.0323 </r>
       <r>    -6.1858     3.8665    42.2760 </r>
       <r>    -6.1228     4.7021    42.5724 </r>
       <r>    -6.0597     4.3660    42.8476 </r>
       <r>    -5.9967     2.8076    43.0246 </r>
       <r>    -5.9337     1.8618    43.1419 </r>
       <r>    -5.8706     2.6814    43.3109 </r>
       <r>    -5.8076     4.7185    43.6084 </r>
       <r>    -5.7446     7.0371    44.0519 </r>
       <r>    -5.6815     8.6038    44.5942 </r>
       <r>    -5.6185     8.3672    45.1216 </r>
       <r>    -5.5555     6.3006    45.5187 </r>
       <r>    -5.4924     3.8372    45.7606 </r>
       <r>    -5.4294     2.2411    45.9019 </r>
       <r>    -5.3664     2.3223    46.0482 </r>
       <r>    -5.3034     4.1518    46.3099 </r>
       <r>    -5.2403     5.7495    46.6723 </r>
       <r>    -5.1773     5.6452    47.0281 </r>
       <r>    -5.1143     5.2758    47.3607 </r>
       <r>    -5.0512     6.2007    47.7515 </r>
       <r>    -4.9882     7.9985    48.2557 </r>
       <r>    -4.9252     9.3215    48.8432 </r>
       <r>    -4.8621     9.8648    49.4650 </r>
       <r>    -4.7991    10.1342    50.1038 </r>
       <r>    -4.7361    10.1060    50.7408 </r>
       <r>    -4.6730    10.0208    51.3724 </r>
       <r>    -4.6100    10.5460    52.0371 </r>
       <r>    -4.5470    11.4180    52.7568 </r>
       <r>    -4.4840    11.9116    53.5076 </r>
       <r>    -4.4209    12.2192    54.2778 </r>
       <r>    -4.3579    12.3477    55.0560 </r>
       <r>    -4.2949    11.9387    55.8086 </r>
       <r>    -4.2318    11.8468    56.5553 </r>
       <r>    -4.1688    13.3527    57.3969 </r>
       <r>    -4.1058    15.1539    58.3521 </r>
       <r>    -4.0427    15.4169    59.3238 </r>
       <r>    -3.9797    15.1042    60.2758 </r>
       <r>    -3.9167    14.6857    61.2015 </r>
       <r>    -3.8536    12.8660    62.0125 </r>
       <r>    -3.7906    10.8270    62.6949 </r>
       <r>    -3.7276    10.5592    63.3604 </r>
       <r>    -3.6646    11.5442    64.0881 </r>
       <r>    -3.6015    12.6487    64.8853 </r>
       <r>    -3.5385    13.7241    65.7504 </r>
       <r>    -3.4755    13.7892    66.6195 </r>
       <r>    -3.4124    12.4238    67.4026 </r>
       <r>    -3.3494    12.1415    68.1679 </r>
       <r>    -3.2864    13.8183    69.0389 </r>
       <r>    -3.2233    15.2013    69.9970 </r>
       <r>    -3.1603    15.8452    70.9958 </r>
       <r>    -3.0973    16.6487    72.0452 </r>
       <r>    -3.0342    17.5778    73.1531 </r>
       <r>    -2.9712    18.5271    74.3209 </r>
       <r>    -2.9082    18.8772    75.5107 </r>
       <r>    -2.8451    17.3102    76.6018 </r>
       <r>    -2.7821    14.6386    77.5245 </r>
       <r>    -2.7191    13.4851    78.3745 </r>
       <r>    -2.6561    14.9386    79.3161 </r>
       <r>    -2.5930    16.8906    80.3807 </r>
       <r>    -2.5300    17.5249    81.4853 </r>
       <r>    -2.4670    18.1665    82.6304 </r>
       <r>    -2.4039    18.4190    83.7913 </r>
       <r>    -2.3409    17.5142    84.8953 </r>
       <r>    -2.2779    15.9138    85.8983 </r>
       <r>    -2.2148    14.4034    86.8062 </r>
       <r>    -2.1518    14.4056    87.7142 </r>
       <r>    -2.0888    16.2132    88.7361 </r>
       <r>    -2.0257    18.0371    89.8730 </r>
       <r>    -1.9627    18.7705    91.0561 </r>
       <r>    -1.8997    19.8055    92.3045 </r>
       <r>    -1.8367    21.7975    93.6784 </r>
       <r>    -1.7736    22.8314    95.1175 </r>
       <r>    -1.7106    21.9655    96.5020 </r>
       <r>    -1.6476    19.7220    97.7451 </r>
       <r>    -1.5845    16.5987    98.7913 </r>
       <r>    -1.5215    13.2726    99.6279 </r>
       <r>    -1.4585    10.4012   100.2835 </r>
       <r>    -1.3954     9.2203   100.8647 </r>
       <r>    -1.3324     9.6754   101.4745 </r>
       <r>    -1.2694    10.4931   102.1359 </r>
       <r>    -1.2063    10.7730   102.8150 </r>
       <r>    -1.1433    10.6141   103.4840 </r>
       <r>    -1.0803    10.6400   104.1546 </r>
       <r>    -1.0173    10.2394   104.8000 </r>
       <r>    -0.9542     8.8829   105.3599 </r>
       <r>    -0.8912     7.6523   105.8423 </r>
       <r>    -0.8282     6.6550   106.2617 </r>
       <r>    -0.7651     4.8993   106.5705 </r>
       <r>    -0.7021     2.9216   106.7547 </r>
       <r>    -0.6391     2.2347   106.8955 </r>
       <r>    -0.5760     2.4476   107.0498 </r>
       <r>    -0.5130     2.0300   107.1778 </r>
       <r>    -0.4500     1.4774   107.2709 </r>
       <r>    -0.3869     1.9719   107.3952 </r>
       <r>    -0.3239     3.0359   107.5865 </r>
       <r>    -0.2609     3.2877   107.7938 </r>
       <r>    -0.1978     2.2189   107.9336 </r>
       <r>    -0.1348     0.8575   107.9877 </r>
       <r>    -0.0718     0.1764   107.9988 </r>
       <r>    -0.0088     0.0183   107.9999 </r>
       <r>     0.0543     0.0009   108.0000 </r>
       <r>     0.1173     0.0000   108.0000 </r>
       <r>     0.1803     0.0000   108.0000 </r>
       <r>     0.2434     0.0000   108.0000 </r>
       <r>     0.3064     0.0000   108.0000 </r>
       <r>     0.3694     0.0002   108.0000 </r>
       <r>     0.4325     0.0050   108.0003 </r>
       <r>     0.4955     0.0670   108.0045 </r>
       <r>     0.5585     0.4555   108.0333 </r>
       <r>     0.6216     1.6323   108.1361 </r>
       <r>     0.6846     3.2389   108.3403 </r>
       <r>     0.7476     3.8058   108.5802 </r>
       <r>     0.8106     3.1986   108.7818 </r>
       <r>     0.8737     3.0082   108.9714 </r>
       <r>     0.9367     3.4418   109.1883 </r>
       <r>     0.9997     3.6548   109.4187 </r>
       <r>     1.0628     3.9998   109.6708 </r>
       <r>     1.1258     4.9110   109.9803 </r>
       <r>     1.1888     6.2458   110.3740 </r>
       <r>     1.2519     7.8026   110.8658 </r>
       <r>     1.3149     8.6342   111.4101 </r>
       <r>     1.3779     9.0635   111.9813 </r>
       <r>     1.4410    10.1131   112.6188 </r>
       <r>     1.5040    10.8764   113.3043 </r>
       <r>     1.5670    11.3314   114.0186 </r>
       <r>     1.6300    12.6919   114.8185 </r>
       <r>     1.6931    14.2178   115.7147 </r>
       <r>     1.7561    14.8327   116.6496 </r>
       <r>     1.8191    14.5410   117.5661 </r>
       <r>     1.8822    14.0007   118.4486 </r>
       <r>     1.9452    14.2136   119.3445 </r>
       <r>     2.0082    14.5459   120.2614 </r>
       <r>     2.0713    14.0574   121.1474 </r>
       <r>     2.1343    14.3497   122.0519 </r>
       <r>     2.1973    15.4281   123.0243 </r>
       <r>     2.2604    16.3978   124.0579 </r>
       <r>     2.3234    17.1325   125.1378 </r>
       <r>     2.3864    16.9608   126.2068 </r>
       <r>     2.4495    16.2040   127.2282 </r>
       <r>     2.5125    15.5017   128.2053 </r>
       <r>     2.5755    15.2145   129.1643 </r>
       <r>     2.6385    14.9342   130.1056 </r>
       <r>     2.7016    14.0433   130.9908 </r>
       <r>     2.7646    13.5383   131.8441 </r>
       <r>     2.8276    13.3810   132.6875 </r>
       <r>     2.8907    12.0078   133.4444 </r>
       <r>     2.9537     9.7917   134.0616 </r>
       <r>     3.0167     8.3931   134.5906 </r>
       <r>     3.0798     7.3914   135.0565 </r>
       <r>     3.1428     6.0073   135.4351 </r>
       <r>     3.2058     4.3654   135.7103 </r>
       <r>     3.2689     2.7255   135.8821 </r>
       <r>     3.3319     1.3356   135.9662 </r>
       <r>     3.3949     0.4419   135.9941 </r>
       <r>     3.4579     0.0847   135.9994 </r>
       <r>     3.5210     0.0085   136.0000 </r>
       <r>     3.5840     0.0004   136.0000 </r>
       <r>     3.6470     0.0000   136.0000 </r>
       <r>     3.7101     0.0000   136.0000 </r>
       <r>     3.7731     0.0000   136.0000 </r>
       <r>     3.8361     0.0000   136.0000 </r>
       <r>     3.8992     0.0000   136.0000 </r>
       <r>     3.9622     0.0000   136.0000 </r>
       <r>     4.0252     0.0000   136.0000 </r>
       <r>     4.0883     0.0000   136.0000 </r>
       <r>     4.1513     0.0000   136.0000 </r>
       <r>     4.2143     0.0000   136.0000 </r>
       <r>     4.2773     0.0000   136.0000 </r>
      </set>
     </set>
    </array>
   </total>
  </dos>
 </calculation>
 <structure name="finalpos" >
  <crystal>
   <varray name="basis" >
    <v>       3.54040000       0.00000000       0.00000000 </v>
    <v>      -1.77020000      10.29434800       0.00000000 </v>
    <v>       0.00000000       0.00000000      27.50142900 </v>
   </varray>
   <i name="volume">   1002.32009712 </i>
   <varray name="rec_basis" >
    <v>       0.28245396       0.04857034       0.00000000 </v>
    <v>       0.00000000       0.09714068       0.00000000 </v>
    <v>       0.00000000       0.00000000       0.03636175 </v>
   </varray>
  </crystal>
  <varray name="positions" >
   <v>       0.11402300       0.22804500       0.23316207 </v>
   <v>       0.91402300       0.22804500       0.51499159 </v>
   <v>       0.45808900       0.91617900       0.20939482 </v>
   <v>       0.25808900       0.91617900       0.49122434 </v>
   <v>       0.31085400       0.62170900       0.08414979 </v>
   <v>       0.31085400       0.62170900       0.36597930 </v>
   <v>       0.99923000       0.99846000       0.08631254 </v>
   <v>       0.99923000       0.99846000       0.36814206 </v>
   <v>       0.65492700       0.30985400       0.06041748 </v>
   <v>       0.65492700       0.30985400       0.34224700 </v>
   <v>       0.76973800       0.53947500       0.20725292 </v>
   <v>       0.56973800       0.53947500       0.48908244 </v>
   <v>       0.93971600       0.87943300       0.15783749 </v>
   <v>       0.73971600       0.87943300       0.43966701 </v>
   <v>       0.20515200       0.41030300       0.18578822 </v>
   <v>       0.00515200       0.41030300       0.46761774 </v>
   <v>       0.20184900       0.40369900       0.09969156 </v>
   <v>       0.20184900       0.40369900       0.38152107 </v>
   <v>       0.56380500       0.12761000       0.10779021 </v>
   <v>       0.56380500       0.12761000       0.38961973 </v>
   <v>       0.56710600       0.13421200       0.19387616 </v>
   <v>       0.36710600       0.13421200       0.47570568 </v>
   <v>       0.82923400       0.65846800       0.13571444 </v>
   <v>       0.62923400       0.65846800       0.41754396 </v>
  </varray>
 </structure>
</modeling>
