<?xml version="1.0" encoding="ISO-8859-1"?>
<modeling>
 <generator>
  <i name="program" type="string">vasp </i>
  <i name="version" type="string">5.4.1  </i>
  <i name="subversion" type="string">24Jun15 (build May 10 2016 14:18:23) complex                          parallel </i>
  <i name="platform" type="string">IFC91_ompi </i>
  <i name="date" type="string">2016 12 09 </i>
  <i name="time" type="string">14:58:05 </i>
 </generator>
 <incar>
  <i type="string" name="PREC">accurate</i>
  <i type="string" name="ALGO"> Fast</i>
  <i type="int" name="ISPIN">     2</i>
  <i type="int" name="IBRION">     2</i>
  <i name="EDIFF">      0.00010000</i>
  <i type="int" name="NSW">     0</i>
  <i type="int" name="ISIF">     3</i>
  <i name="ENCUT">    500.00000000</i>
  <v name="MAGMOM">      6.00000000      0.50000000      0.50000000      6.00000000      0.50000000      0.50000000</v>
  <i type="string" name="LREAL"> Auto</i>
  <i type="int" name="ISMEAR">     1</i>
  <i name="SIGMA">      0.10000000</i>
  <i type="logical" name="LWAVE"> F  </i>
  <i type="logical" name="LCHARG"> F  </i>
  <i type="logical" name="LVTOT"> T  </i>
  <i type="logical" name="LVHAR"> T  </i>
  <i type="logical" name="LAECHG"> F  </i>
  <v type="int" name="KPOINT_BSE">    -1     0     0     0</v>
  <i type="string" name="GGA"> Bo</i>
  <i name="PARAM1">      0.18333333</i>
  <i name="PARAM2">      0.22000000</i>
  <i type="logical" name="LUSE_VDW"> T  </i>
  <i name="AGGAC">      0.00000000</i>
 </incar>
 <kpoints>
  <generation param="Gamma">
   <v type="int" name="divisions">      13       13        1 </v>
   <v name="usershift">      0.00000000       0.00000000       0.00000000 </v>
   <v name="genvec1">      0.07692308       0.00000000       0.00000000 </v>
   <v name="genvec2">      0.00000000       0.07692308       0.00000000 </v>
   <v name="genvec3">      0.00000000       0.00000000       1.00000000 </v>
   <v name="shift">      0.00000000       0.00000000       0.00000000 </v>
  </generation>
  <varray name="kpointlist" >
   <v>       0.00000000       0.00000000       0.00000000 </v>
   <v>       0.07692308      -0.00000000       0.00000000 </v>
   <v>       0.15384615       0.00000000       0.00000000 </v>
   <v>       0.23076923       0.00000000       0.00000000 </v>
   <v>       0.30769231      -0.00000000       0.00000000 </v>
   <v>       0.38461538       0.00000000       0.00000000 </v>
   <v>       0.46153846       0.00000000       0.00000000 </v>
   <v>       0.00000000       0.07692308       0.00000000 </v>
   <v>       0.07692308       0.07692308       0.00000000 </v>
   <v>       0.15384615       0.07692308       0.00000000 </v>
   <v>       0.23076923       0.07692308       0.00000000 </v>
   <v>       0.30769231       0.07692308       0.00000000 </v>
   <v>       0.38461538       0.07692308       0.00000000 </v>
   <v>       0.46153846       0.07692308       0.00000000 </v>
   <v>      -0.46153846       0.07692308       0.00000000 </v>
   <v>      -0.38461538       0.07692308       0.00000000 </v>
   <v>      -0.30769231       0.07692308       0.00000000 </v>
   <v>      -0.23076923       0.07692308       0.00000000 </v>
   <v>      -0.15384615       0.07692308       0.00000000 </v>
   <v>      -0.07692308       0.07692308       0.00000000 </v>
   <v>       0.00000000       0.15384615       0.00000000 </v>
   <v>       0.07692308       0.15384615       0.00000000 </v>
   <v>       0.15384615       0.15384615       0.00000000 </v>
   <v>       0.23076923       0.15384615       0.00000000 </v>
   <v>       0.30769231       0.15384615       0.00000000 </v>
   <v>       0.38461538       0.15384615       0.00000000 </v>
   <v>       0.46153846       0.15384615       0.00000000 </v>
   <v>      -0.46153846       0.15384615       0.00000000 </v>
   <v>      -0.38461538       0.15384615       0.00000000 </v>
   <v>      -0.30769231       0.15384615       0.00000000 </v>
   <v>      -0.23076923       0.15384615       0.00000000 </v>
   <v>      -0.15384615       0.15384615       0.00000000 </v>
   <v>      -0.07692308       0.15384615       0.00000000 </v>
   <v>       0.00000000       0.23076923       0.00000000 </v>
   <v>       0.07692308       0.23076923       0.00000000 </v>
   <v>       0.15384615       0.23076923       0.00000000 </v>
   <v>       0.23076923       0.23076923       0.00000000 </v>
   <v>       0.30769231       0.23076923       0.00000000 </v>
   <v>       0.38461538       0.23076923       0.00000000 </v>
   <v>       0.46153846       0.23076923       0.00000000 </v>
   <v>      -0.46153846       0.23076923       0.00000000 </v>
   <v>      -0.38461538       0.23076923       0.00000000 </v>
   <v>      -0.30769231       0.23076923       0.00000000 </v>
   <v>      -0.23076923       0.23076923       0.00000000 </v>
   <v>      -0.15384615       0.23076923       0.00000000 </v>
   <v>      -0.07692308       0.23076923       0.00000000 </v>
   <v>       0.00000000       0.30769231       0.00000000 </v>
   <v>       0.07692308       0.30769231       0.00000000 </v>
   <v>       0.15384615       0.30769231       0.00000000 </v>
   <v>       0.23076923       0.30769231       0.00000000 </v>
   <v>       0.30769231       0.30769231       0.00000000 </v>
   <v>       0.38461538       0.30769231       0.00000000 </v>
   <v>       0.46153846       0.30769231       0.00000000 </v>
   <v>      -0.46153846       0.30769231       0.00000000 </v>
   <v>      -0.38461538       0.30769231       0.00000000 </v>
   <v>      -0.30769231       0.30769231       0.00000000 </v>
   <v>      -0.23076923       0.30769231       0.00000000 </v>
   <v>      -0.15384615       0.30769231       0.00000000 </v>
   <v>      -0.07692308       0.30769231       0.00000000 </v>
   <v>       0.00000000       0.38461538       0.00000000 </v>
   <v>       0.07692308       0.38461538       0.00000000 </v>
   <v>       0.15384615       0.38461538       0.00000000 </v>
   <v>       0.23076923       0.38461538       0.00000000 </v>
   <v>       0.30769231       0.38461538       0.00000000 </v>
   <v>       0.38461538       0.38461538       0.00000000 </v>
   <v>       0.46153846       0.38461538       0.00000000 </v>
   <v>      -0.46153846       0.38461538       0.00000000 </v>
   <v>      -0.38461538       0.38461538       0.00000000 </v>
   <v>      -0.30769231       0.38461538       0.00000000 </v>
   <v>      -0.23076923       0.38461538       0.00000000 </v>
   <v>      -0.15384615       0.38461538       0.00000000 </v>
   <v>      -0.07692308       0.38461538       0.00000000 </v>
   <v>       0.00000000       0.46153846       0.00000000 </v>
   <v>       0.07692308       0.46153846       0.00000000 </v>
   <v>       0.15384615       0.46153846       0.00000000 </v>
   <v>       0.23076923       0.46153846       0.00000000 </v>
   <v>       0.30769231       0.46153846       0.00000000 </v>
   <v>       0.38461538       0.46153846       0.00000000 </v>
   <v>       0.46153846       0.46153846       0.00000000 </v>
   <v>      -0.46153846       0.46153846       0.00000000 </v>
   <v>      -0.38461538       0.46153846       0.00000000 </v>
   <v>      -0.30769231       0.46153846       0.00000000 </v>
   <v>      -0.23076923       0.46153846       0.00000000 </v>
   <v>      -0.15384615       0.46153846       0.00000000 </v>
   <v>      -0.07692308       0.46153846       0.00000000 </v>
  </varray>
  <varray name="weights" >
   <v>       0.00591716 </v>
   <v>       0.01183432 </v>
   <v>       0.01183432 </v>
   <v>       0.01183432 </v>
   <v>       0.01183432 </v>
   <v>       0.01183432 </v>
   <v>       0.01183432 </v>
   <v>       0.01183432 </v>
   <v>       0.01183432 </v>
   <v>       0.01183432 </v>
   <v>       0.01183432 </v>
   <v>       0.01183432 </v>
   <v>       0.01183432 </v>
   <v>       0.01183432 </v>
   <v>       0.01183432 </v>
   <v>       0.01183432 </v>
   <v>       0.01183432 </v>
   <v>       0.01183432 </v>
   <v>       0.01183432 </v>
   <v>       0.01183432 </v>
   <v>       0.01183432 </v>
   <v>       0.01183432 </v>
   <v>       0.01183432 </v>
   <v>       0.01183432 </v>
   <v>       0.01183432 </v>
   <v>       0.01183432 </v>
   <v>       0.01183432 </v>
   <v>       0.01183432 </v>
   <v>       0.01183432 </v>
   <v>       0.01183432 </v>
   <v>       0.01183432 </v>
   <v>       0.01183432 </v>
   <v>       0.01183432 </v>
   <v>       0.01183432 </v>
   <v>       0.01183432 </v>
   <v>       0.01183432 </v>
   <v>       0.01183432 </v>
   <v>       0.01183432 </v>
   <v>       0.01183432 </v>
   <v>       0.01183432 </v>
   <v>       0.01183432 </v>
   <v>       0.01183432 </v>
   <v>       0.01183432 </v>
   <v>       0.01183432 </v>
   <v>       0.01183432 </v>
   <v>       0.01183432 </v>
   <v>       0.01183432 </v>
   <v>       0.01183432 </v>
   <v>       0.01183432 </v>
   <v>       0.01183432 </v>
   <v>       0.01183432 </v>
   <v>       0.01183432 </v>
   <v>       0.01183432 </v>
   <v>       0.01183432 </v>
   <v>       0.01183432 </v>
   <v>       0.01183432 </v>
   <v>       0.01183432 </v>
   <v>       0.01183432 </v>
   <v>       0.01183432 </v>
   <v>       0.01183432 </v>
   <v>       0.01183432 </v>
   <v>       0.01183432 </v>
   <v>       0.01183432 </v>
   <v>       0.01183432 </v>
   <v>       0.01183432 </v>
   <v>       0.01183432 </v>
   <v>       0.01183432 </v>
   <v>       0.01183432 </v>
   <v>       0.01183432 </v>
   <v>       0.01183432 </v>
   <v>       0.01183432 </v>
   <v>       0.01183432 </v>
   <v>       0.01183432 </v>
   <v>       0.01183432 </v>
   <v>       0.01183432 </v>
   <v>       0.01183432 </v>
   <v>       0.01183432 </v>
   <v>       0.01183432 </v>
   <v>       0.01183432 </v>
   <v>       0.01183432 </v>
   <v>       0.01183432 </v>
   <v>       0.01183432 </v>
   <v>       0.01183432 </v>
   <v>       0.01183432 </v>
   <v>       0.01183432 </v>
  </varray>
 </kpoints>
 <parameters>
  <separator name="general" >
   <i type="string" name="SYSTEM">unknown system</i>
   <i type="logical" name="LCOMPAT"> F  </i>
  </separator>
  <separator name="electronic" >
   <i type="string" name="PREC">accura</i>
   <i name="ENMAX">    500.00000000</i>
   <i name="ENAUG">    392.42700000</i>
   <i name="EDIFF">      0.00010000</i>
   <i type="int" name="IALGO">    68</i>
   <i type="int" name="IWAVPR">    10</i>
   <i type="int" name="NBANDS">    36</i>
   <i name="NELECT">     48.00000000</i>
   <i type="int" name="TURBO">     0</i>
   <i type="int" name="IRESTART">     0</i>
   <i type="int" name="NREBOOT">     0</i>
   <i type="int" name="NMIN">     0</i>
   <i name="EREF">      0.00000000</i>
   <separator name="electronic smearing" >
    <i type="int" name="ISMEAR">     1</i>
    <i name="SIGMA">      0.10000000</i>
    <i name="KSPACING">      0.50000000</i>
    <i type="logical" name="KGAMMA"> T  </i>
   </separator>
   <separator name="electronic projectors" >
    <i type="logical" name="LREAL"> T  </i>
    <v name="ROPT">     -0.00025000     -0.00025000     -0.00025000     -0.00025000</v>
    <i type="int" name="LMAXPAW">  -100</i>
    <i type="int" name="LMAXMIX">     2</i>
    <i type="logical" name="NLSPLINE"> F  </i>
   </separator>
   <separator name="electronic startup" >
    <i type="int" name="ISTART">     0</i>
    <i type="int" name="ICHARG">     2</i>
    <i type="int" name="INIWAV">     1</i>
   </separator>
   <separator name="electronic spin" >
    <i type="int" name="ISPIN">     2</i>
    <i type="logical" name="LNONCOLLINEAR"> F  </i>
    <v name="MAGMOM">      6.00000000      0.50000000      0.50000000      6.00000000      0.50000000      0.50000000</v>
    <i name="NUPDOWN">     -1.00000000</i>
    <i type="logical" name="LSORBIT"> F  </i>
    <v name="SAXIS">      0.00000000      0.00000000      1.00000000</v>
    <i type="logical" name="LSPIRAL"> F  </i>
    <v name="QSPIRAL">      0.00000000      0.00000000      0.00000000</v>
    <i type="logical" name="LZEROZ"> F  </i>
   </separator>
   <separator name="electronic exchange-correlation" >
    <i type="logical" name="LASPH"> F  </i>
    <i type="logical" name="LMETAGGA"> F  </i>
   </separator>
   <separator name="electronic convergence" >
    <i type="int" name="NELM">    60</i>
    <i type="int" name="NELMDL">     0</i>
    <i type="int" name="NELMIN">     2</i>
    <i name="ENINI">    500.00000000</i>
    <separator name="electronic convergence detail" >
     <i type="logical" name="LDIAG"> T  </i>
     <i type="logical" name="LSUBROT"> F  </i>
     <i name="WEIMIN">      0.00000000</i>
     <i name="EBREAK">      0.00000069</i>
     <i name="DEPER">      0.30000000</i>
     <i type="int" name="NRMM">     4</i>
     <i name="TIME">      0.40000000</i>
    </separator>
   </separator>
   <separator name="electronic mixer" >
    <i name="AMIX">      0.40000000</i>
    <i name="BMIX">      1.00000000</i>
    <i name="AMIN">      0.10000000</i>
    <i name="AMIX_MAG">      1.60000000</i>
    <i name="BMIX_MAG">      1.00000000</i>
    <separator name="electronic mixer details" >
     <i type="int" name="IMIX">     4</i>
     <i type="logical" name="MIXFIRST"> F  </i>
     <i type="int" name="MAXMIX">   -45</i>
     <i name="WC">    100.00000000</i>
     <i type="int" name="INIMIX">     1</i>
     <i type="int" name="MIXPRE">     1</i>
     <i type="int" name="MREMOVE">     5</i>
    </separator>
   </separator>
   <separator name="electronic dipolcorrection" >
    <i type="logical" name="LDIPOL"> F  </i>
    <i type="logical" name="LMONO"> F  </i>
    <i type="int" name="IDIPOL">     0</i>
    <i name="EPSILON">      1.00000000</i>
    <v name="DIPOL">   -100.00000000   -100.00000000   -100.00000000</v>
    <i name="EFIELD">      0.00000000</i>
   </separator>
  </separator>
  <separator name="grids" >
   <i type="int" name="NGX">    24</i>
   <i type="int" name="NGY">    24</i>
   <i type="int" name="NGZ">   180</i>
   <i type="int" name="NGXF">    48</i>
   <i type="int" name="NGYF">    48</i>
   <i type="int" name="NGZF">   360</i>
   <i type="logical" name="ADDGRID"> F  </i>
  </separator>
  <separator name="ionic" >
   <i type="int" name="NSW">     0</i>
   <i type="int" name="IBRION">    -1</i>
   <i type="int" name="ISIF">     3</i>
   <i name="PSTRESS">      0.00000000</i>
   <i name="EDIFFG">      0.00100000</i>
   <i type="int" name="NFREE">     1</i>
   <i name="POTIM">      0.50000000</i>
   <i name="SMASS">     -3.00000000</i>
   <i name="SCALEE">      1.00000000</i>
  </separator>
  <separator name="ionic md" >
   <i name="TEBEG">      0.00010000</i>
   <i name="TEEND">      0.00010000</i>
   <i type="int" name="NBLOCK">     1</i>
   <i type="int" name="KBLOCK">     1</i>
   <i type="int" name="NPACO">   256</i>
   <i name="APACO">     16.00000000</i>
  </separator>
  <separator name="symmetry" >
   <i type="int" name="ISYM">     2</i>
   <i name="SYMPREC">      0.00001000</i>
  </separator>
  <separator name="dos" >
   <i type="logical" name="LORBIT"> F  </i>
   <v name="RWIGS">     -1.00000000     -1.00000000     -1.00000000     -1.00000000</v>
   <i type="int" name="NEDOS">   301</i>
   <i name="EMIN">     10.00000000</i>
   <i name="EMAX">    -10.00000000</i>
   <i name="EFERMI">      0.00000000</i>
  </separator>
  <separator name="writing" >
   <i type="int" name="NWRITE">     2</i>
   <i type="logical" name="LWAVE"> F  </i>
   <i type="logical" name="LCHARG"> F  </i>
   <i type="logical" name="LPARD"> F  </i>
   <i type="logical" name="LVTOT"> F  </i>
   <i type="logical" name="LVHAR"> T  </i>
   <i type="logical" name="LELF"> F  </i>
   <i type="logical" name="LOPTICS"> F  </i>
   <v name="STM">      0.00000000      0.00000000      0.00000000      0.00000000      0.00000000      0.00000000      0.00000000</v>
  </separator>
  <separator name="performance" >
   <i type="int" name="NPAR">     4</i>
   <i type="int" name="NSIM">     4</i>
   <i type="int" name="NBLK">    -1</i>
   <i type="logical" name="LPLANE"> T  </i>
   <i type="logical" name="LSCALAPACK"> T  </i>
   <i type="logical" name="LSCAAWARE"> F  </i>
   <i type="logical" name="LSCALU"> F  </i>
   <i type="logical" name="LASYNC"> F  </i>
   <i type="logical" name="LORBITALREAL"> F  </i>
  </separator>
  <separator name="miscellaneous" >
   <i type="int" name="IDIOT">     3</i>
   <i type="logical" name="LMUSIC"> F  </i>
   <v name="POMASS">     95.94000000     32.06600000     95.94000000     32.06600000</v>
   <v name="DARWINR">      0.00000000      0.00000000      0.00000000      0.00000000</v>
   <v name="DARWINV">      1.00000000      1.00000000      1.00000000      1.00000000</v>
   <i type="logical" name="LCORR"> T  </i>
  </separator>
  <i type="logical" name="GGA_COMPAT"> T  </i>
  <i type="logical" name="LBERRY"> F  </i>
  <i type="int" name="ICORELEVEL">     0</i>
  <i type="logical" name="LDAU"> F  </i>
  <i type="int" name="I_CONSTRAINED_M">     0</i>
  <separator name="electronic exchange-correlation" >
   <i type="string" name="GGA">BO</i>
   <i type="int" name="VOSKOWN">     0</i>
   <i type="logical" name="LHFCALC"> F  </i>
   <i type="string" name="PRECFOCK"></i>
   <i type="logical" name="LSYMGRAD"> F  </i>
   <i type="logical" name="LHFONE"> F  </i>
   <i type="logical" name="LRHFCALC"> F  </i>
   <i type="logical" name="LTHOMAS"> F  </i>
   <i type="logical" name="LMODELHF"> F  </i>
   <i name="ENCUT4O">     -1.00000000</i>
   <i type="int" name="EXXOEP">     0</i>
   <i type="int" name="FOURORBIT">     0</i>
   <i name="AEXX">      0.00000000</i>
   <i name="HFALPHA">      0.00000000</i>
   <i name="MCALPHA">      0.00000000</i>
   <i name="ALDAX">      1.00000000</i>
   <i name="AGGAX">      1.00000000</i>
   <i name="ALDAC">      1.00000000</i>
   <i name="AGGAC">      0.00000000</i>
   <i type="int" name="NKREDX">     1</i>
   <i type="int" name="NKREDY">     1</i>
   <i type="int" name="NKREDZ">     1</i>
   <i type="logical" name="SHIFTRED"> F  </i>
   <i type="logical" name="ODDONLY"> F  </i>
   <i type="logical" name="EVENONLY"> F  </i>
   <i type="int" name="LMAXFOCK">     0</i>
   <i type="int" name="NMAXFOCKAE">     0</i>
   <i type="logical" name="LFOCKAEDFT"> F  </i>
   <i name="HFSCREEN">      0.00000000</i>
   <i name="HFSCREENC">      0.00000000</i>
   <i type="int" name="NBANDSGWLOW">     0</i>
  </separator>
  <separator name="vdW DFT" >
   <i type="logical" name="LUSE_VDW"> T  </i>
   <i name="Zab_VDW">     -0.84910000</i>
   <i name="PARAM1">      0.18333333</i>
   <i name="PARAM2">      0.22000000</i>
   <i name="PARAM3">      0.00000000</i>
  </separator>
  <separator name="model GW" >
   <i type="int" name="MODEL_GW">     0</i>
   <i name="MODEL_EPS0">     20.39722663</i>
   <i name="MODEL_ALPHA">      1.00000000</i>
  </separator>
  <separator name="linear response parameters" >
   <i type="logical" name="LEPSILON"> F  </i>
   <i type="logical" name="LRPA"> F  </i>
   <i type="logical" name="LNABLA"> F  </i>
   <i type="logical" name="LVEL"> F  </i>
   <i type="int" name="KINTER">     0</i>
   <i name="CSHIFT">      0.10000000</i>
   <i name="OMEGAMAX">     -1.00000000</i>
   <i name="DEG_THRESHOLD">      0.00200000</i>
  </separator>
  <separator name="orbital magnetization" >
   <i type="logical" name="NUCIND"> F  </i>
   <v name="MAGPOS">      0.00000000      0.00000000      0.00000000</v>
   <i type="logical" name="LNICSALL"> T  </i>
   <i type="logical" name="ORBITALMAG"> F  </i>
   <i type="logical" name="LMAGBLOCH"> F  </i>
   <i type="logical" name="LCHIMAG"> F  </i>
   <i type="logical" name="LGAUGE"> T  </i>
   <i type="int" name="MAGATOM">     0</i>
   <v name="MAGDIPOL">      0.00000000      0.00000000      0.00000000</v>
   <v name="AVECCONST">      0.00000000      0.00000000      0.00000000</v>
  </separator>
  <separator name="response functions" >
   <i type="logical" name="LADDER"> F  </i>
   <i type="logical" name="LFXC"> F  </i>
   <i type="logical" name="LHARTREE"> T  </i>
   <i type="int" name="IBSE">     0</i>
   <v type="int" name="KPOINT">    -1     0     0     0</v>
   <i type="logical" name="LTCTE"> F  </i>
   <i type="logical" name="LTETE"> F  </i>
   <i type="logical" name="LTRIPLET"> F  </i>
   <i type="logical" name="LFXCEPS"> F  </i>
   <i type="logical" name="LFXHEG"> F  </i>
   <i type="int" name="NATURALO">     0</i>
   <i type="logical" name="L2ORDER"> F  </i>
   <i type="logical" name="LUSEW"> F  </i>
   <i name="ENCUTGW">     -2.00000000</i>
   <i name="ENCUTGWSOFT">     -2.00000000</i>
   <i name="ENCUTLF">     -1.00000000</i>
   <i type="int" name="LMAXMP2">    -1</i>
   <i name="SCISSOR">      0.00000000</i>
   <i type="int" name="NOMEGA">     0</i>
   <i type="int" name="NOMEGAR">     0</i>
   <i type="int" name="NBANDSGW">    -1</i>
   <i type="int" name="NBANDSO">    -1</i>
   <i type="int" name="NBANDSV">    -1</i>
   <i type="int" name="NELM">     1</i>
   <i type="int" name="NELMHF">     1</i>
   <i type="int" name="DIM">     3</i>
   <i type="int" name="ANTIRES">     0</i>
   <i name="OMEGAMAX">    -30.00000000</i>
   <i name="OMEGAMIN">    -30.00000000</i>
   <i name="OMEGATL">   -200.00000000</i>
   <i type="int" name="OMEGAGRID">     0</i>
   <i name="CSHIFT">     -0.10000000</i>
   <i type="logical" name="SELFENERGY"> F  </i>
   <i type="logical" name="LSPECTRAL"> F  </i>
   <i type="logical" name="LSPECTRALGW"> F  </i>
   <i type="logical" name="LSINGLES"> F  </i>
   <i type="logical" name="LFERMIGW"> F  </i>
   <i type="logical" name="ODDONLYGW"> F  </i>
   <i type="logical" name="EVENONLYGW"> F  </i>
   <i type="int" name="NKREDLFX">     1</i>
   <i type="int" name="NKREDLFY">     1</i>
   <i type="int" name="NKREDLFZ">     1</i>
   <i type="int" name="MAXMEM">  1800</i>
   <i type="int" name="TELESCOPE">     0</i>
   <i type="int" name="TAUPAR">     1</i>
   <i type="int" name="OMEGAPAR">    -1</i>
   <i name="LAMBDA">      1.00000000</i>
  </separator>
  <separator name="External order field" >
   <i name="OFIELD_KAPPA">      0.00000000</i>
   <v name="OFIELD_K">      0.00000000      0.00000000      0.00000000</v>
   <i name="OFIELD_Q6_NEAR">      0.00000000</i>
   <i name="OFIELD_Q6_FAR">      0.00000000</i>
   <i name="OFIELD_A">      0.00000000</i>
  </separator>
 </parameters>
 <atominfo>
  <atoms>       6 </atoms>
  <types>       4 </types>
  <array name="atoms" >
   <dimension dim="1">ion</dimension>
   <field type="string">element</field>
   <field type="int">atomtype</field>
   <set>
    <rc><c>Mo</c><c>   1</c></rc>
    <rc><c>S </c><c>   2</c></rc>
    <rc><c>S </c><c>   2</c></rc>
    <rc><c>Mo</c><c>   3</c></rc>
    <rc><c>S </c><c>   4</c></rc>
    <rc><c>S </c><c>   4</c></rc>
   </set>
  </array>
  <array name="atomtypes" >
   <dimension dim="1">type</dimension>
   <field type="int">atomspertype</field>
   <field type="string">element</field>
   <field>mass</field>
   <field>valence</field>
   <field type="string">pseudopotential</field>
   <set>
    <rc><c>   1</c><c>Mo</c><c>     95.94000000</c><c>     12.00000000</c><c> PAW_PBE Mo_pv 08Apr2002                </c></rc>
    <rc><c>   2</c><c>S </c><c>     32.06600000</c><c>      6.00000000</c><c>  PAW_PBE S 17Jan2003                   </c></rc>
    <rc><c>   1</c><c>Mo</c><c>     95.94000000</c><c>     12.00000000</c><c> PAW_PBE Mo_pv 08Apr2002                </c></rc>
    <rc><c>   2</c><c>S </c><c>     32.06600000</c><c>      6.00000000</c><c>  PAW_PBE S 17Jan2003                   </c></rc>
   </set>
  </array>
 </atominfo>
 <structure name="initialpos" >
  <crystal>
   <varray name="basis" >
    <v>       3.19031700       0.00000000       0.00000000 </v>
    <v>      -1.59515800       2.76289700       0.00000000 </v>
    <v>       0.00000000       0.00000000      23.14049200 </v>
   </varray>
   <i name="volume">    203.97226633 </i>
   <varray name="rec_basis" >
    <v>       0.31344848       0.18096941       0.00000000 </v>
    <v>       0.00000000       0.36193894       0.00000000 </v>
    <v>       0.00000000       0.00000000       0.04321429 </v>
   </varray>
  </crystal>
  <varray name="positions" >
   <v>       0.66666700       0.33333300       0.06785900 </v>
   <v>       0.33333300       0.66666700       0.00000000 </v>
   <v>       0.33333300       0.66666700       0.13571500 </v>
   <v>       0.80952414       0.04761871       0.35482300 </v>
   <v>       0.47619014       0.38095271       0.28696500 </v>
   <v>       0.47619014       0.38095271       0.42267900 </v>
  </varray>
 </structure>
 <calculation>
  <scstep>
   <time name="dav">  107.07  107.17</time>
   <time name="total">  126.68  126.82</time>
   <energy>
    <i name="alphaZ">    104.15310261 </i>
    <i name="ewald">   7699.04583489 </i>
    <i name="hartreedc"> -11109.09877709 </i>
    <i name="XCdc">    128.46410051 </i>
    <i name="pawpsdc">   2252.92270536 </i>
    <i name="pawaedc">  -2205.68654582 </i>
    <i name="eentropy">      0.00059562 </i>
    <i name="bandstr">   -159.16774384 </i>
    <i name="atom">   3688.31848598 </i>
    <i name="e_fr_energy">    398.95175822 </i>
    <i name="e_wo_entrp">    398.95116260 </i>
    <i name="e_0_energy">    398.95155968 </i>
   </energy>
  </scstep>
  <scstep>
   <time name="dav">  115.08  115.17</time>
   <time name="total">  115.09  115.30</time>
   <energy>
    <i name="e_fr_energy">     -1.63948513 </i>
    <i name="e_wo_entrp">     -1.63934468 </i>
    <i name="e_0_energy">     -1.63943831 </i>
   </energy>
  </scstep>
  <scstep>
   <time name="dav">  119.86  119.99</time>
   <time name="total">  119.87  120.00</time>
   <energy>
    <i name="e_fr_energy">    -32.96775447 </i>
    <i name="e_wo_entrp">    -32.96840088 </i>
    <i name="e_0_energy">    -32.96796994 </i>
   </energy>
  </scstep>
  <scstep>
   <time name="dav">  114.47  114.57</time>
   <time name="total">  114.48  114.58</time>
   <energy>
    <i name="e_fr_energy">    -33.84561854 </i>
    <i name="e_wo_entrp">    -33.84680569 </i>
    <i name="e_0_energy">    -33.84601426 </i>
   </energy>
  </scstep>
  <scstep>
   <time name="dav">  118.65  118.76</time>
   <time name="total">  127.94  128.05</time>
   <energy>
    <i name="e_fr_energy">    -33.87256068 </i>
    <i name="e_wo_entrp">    -33.87379116 </i>
    <i name="e_0_energy">    -33.87297084 </i>
   </energy>
  </scstep>
  <scstep>
   <time name="diag">   22.19   22.21</time>
   <time name="diis">   77.88   77.96</time>
   <time name="orth">    0.77    0.77</time>
   <time name="total">  129.66  129.79</time>
   <energy>
    <i name="e_fr_energy">    -30.04012837 </i>
    <i name="e_wo_entrp">    -30.03981042 </i>
    <i name="e_0_energy">    -30.04002239 </i>
   </energy>
  </scstep>
  <scstep>
   <time name="diag">   22.62   22.64</time>
   <time name="diis">   79.49   79.56</time>
   <time name="orth">    0.71    0.71</time>
   <time name="total">  131.68  131.80</time>
   <energy>
    <i name="e_fr_energy">    -33.12966375 </i>
    <i name="e_wo_entrp">    -33.13023504 </i>
    <i name="e_0_energy">    -33.12985418 </i>
   </energy>
  </scstep>
  <scstep>
   <time name="diag">   22.19   22.22</time>
   <time name="diis">   76.47   76.54</time>
   <time name="orth">    0.71    0.71</time>
   <time name="total">  127.80  127.91</time>
   <energy>
    <i name="e_fr_energy">    -34.39074792 </i>
    <i name="e_wo_entrp">    -34.39091349 </i>
    <i name="e_0_energy">    -34.39080311 </i>
   </energy>
  </scstep>
  <scstep>
   <time name="diag">   22.25   22.27</time>
   <time name="diis">   77.64   77.71</time>
   <time name="orth">    0.74    0.75</time>
   <time name="total">  129.09  129.21</time>
   <energy>
    <i name="e_fr_energy">    -36.83071513 </i>
    <i name="e_wo_entrp">    -36.83088289 </i>
    <i name="e_0_energy">    -36.83077105 </i>
   </energy>
  </scstep>
  <scstep>
   <time name="diag">   22.22   22.24</time>
   <time name="diis">   71.08   71.14</time>
   <time name="orth">    0.73    0.73</time>
   <time name="total">  122.39  122.50</time>
   <energy>
    <i name="e_fr_energy">    -38.99365362 </i>
    <i name="e_wo_entrp">    -38.99381978 </i>
    <i name="e_0_energy">    -38.99370901 </i>
   </energy>
  </scstep>
  <scstep>
   <time name="diag">   22.20   22.22</time>
   <time name="diis">   74.67   74.84</time>
   <time name="orth">    0.71    0.71</time>
   <time name="total">  126.09  126.31</time>
   <energy>
    <i name="e_fr_energy">    -39.38642152 </i>
    <i name="e_wo_entrp">    -39.38674669 </i>
    <i name="e_0_energy">    -39.38652991 </i>
   </energy>
  </scstep>
  <scstep>
   <time name="diag">   22.13   22.15</time>
   <time name="diis">   70.64   70.71</time>
   <time name="orth">    0.73    0.73</time>
   <time name="total">  122.03  122.16</time>
   <energy>
    <i name="e_fr_energy">    -39.39723283 </i>
    <i name="e_wo_entrp">    -39.39756435 </i>
    <i name="e_0_energy">    -39.39734334 </i>
   </energy>
  </scstep>
  <scstep>
   <time name="diag">   22.30   22.32</time>
   <time name="diis">   81.09   81.19</time>
   <time name="orth">    0.72    0.72</time>
   <time name="total">  132.82  132.96</time>
   <energy>
    <i name="e_fr_energy">    -39.41397448 </i>
    <i name="e_wo_entrp">    -39.41430816 </i>
    <i name="e_0_energy">    -39.41408571 </i>
   </energy>
  </scstep>
  <scstep>
   <time name="diag">   22.20   22.23</time>
   <time name="diis">   80.34   80.41</time>
   <time name="orth">    0.71    0.72</time>
   <time name="total">  131.96  132.07</time>
   <energy>
    <i name="e_fr_energy">    -39.42031239 </i>
    <i name="e_wo_entrp">    -39.42064651 </i>
    <i name="e_0_energy">    -39.42042377 </i>
   </energy>
  </scstep>
  <scstep>
   <time name="diag">   22.16   22.18</time>
   <time name="diis">   77.03   77.22</time>
   <time name="orth">    0.71    0.71</time>
   <time name="total">  118.60  118.83</time>
   <energy>
    <i name="alphaZ">    104.15310261 </i>
    <i name="ewald">   7699.04583489 </i>
    <i name="hartreedc"> -11093.69779118 </i>
    <i name="XCdc">    122.66837547 </i>
    <i name="pawpsdc">   2398.14023511 </i>
    <i name="pawaedc">  -2360.29588290 </i>
    <i name="eentropy">      0.00033412 </i>
    <i name="bandstr">   -597.75293140 </i>
    <i name="atom">   3688.31848598 </i>
    <i name="e_fr_energy">    -39.42023731 </i>
    <i name="e_wo_entrp">    -39.42057143 </i>
    <i name="e_0_energy">    -39.42034868 </i>
   </energy>
  </scstep>
  <structure>
   <crystal>
    <varray name="basis" >
     <v>       3.19031700       0.00000000       0.00000000 </v>
     <v>      -1.59515800       2.76289700       0.00000000 </v>
     <v>       0.00000000       0.00000000      23.14049200 </v>
    </varray>
    <i name="volume">    203.97226633 </i>
    <varray name="rec_basis" >
     <v>       0.31344848       0.18096941       0.00000000 </v>
     <v>       0.00000000       0.36193894       0.00000000 </v>
     <v>       0.00000000       0.00000000       0.04321429 </v>
    </varray>
   </crystal>
   <varray name="positions" >
    <v>       0.66666700       0.33333300       0.06785900 </v>
    <v>       0.33333300       0.66666700       0.00000000 </v>
    <v>       0.33333300       0.66666700       0.13571500 </v>
    <v>       0.80952414       0.04761871       0.35482300 </v>
    <v>       0.47619014       0.38095271       0.28696500 </v>
    <v>       0.47619014       0.38095271       0.42267900 </v>
   </varray>
  </structure>
  <varray name="forces" >
   <v>      -0.00575643       0.00249031      -0.00211486 </v>
   <v>      -0.00024150      -0.00070021      -0.05298165 </v>
   <v>      -0.02008952       0.01543270       0.10623711 </v>
   <v>       0.00119037      -0.00254007       0.00300455 </v>
   <v>       0.02406408      -0.01561476      -0.11453378 </v>
   <v>       0.00083299       0.00093202       0.06038863 </v>
  </varray>
  <varray name="stress" >
   <v>       3.72891854      -0.25903844       0.73313274 </v>
   <v>      -0.25903844       3.74474308      -0.57277806 </v>
   <v>       0.73313264      -0.57277818       0.39007324 </v>
  </varray>
  <energy>
   <i name="e_fr_energy">    -39.42023731 </i>
   <i name="e_wo_entrp">    -39.42034868 </i>
   <i name="e_0_energy">      0.00033412 </i>
  </energy>
  <time name="totalsc"> 2070.22 2072.56</time>
  <eigenvalues>
   <array>
    <dimension dim="1">band</dimension>
    <dimension dim="2">kpoint</dimension>
    <dimension dim="3">spin</dimension>
    <field>eigene</field>
    <field>occ</field>
    <set>
     <set comment="spin 1">
      <set comment="kpoint 1">
       <r>  -34.9761    1.0000 </r>
       <r>  -34.9714    1.0000 </r>
       <r>  -34.7846    1.0000 </r>
       <r>  -34.7844    1.0000 </r>
       <r>  -34.7801    1.0000 </r>
       <r>  -34.7801    1.0000 </r>
       <r>  -13.9539    1.0000 </r>
       <r>  -13.8980    1.0000 </r>
       <r>  -12.6878    1.0000 </r>
       <r>  -12.5945    1.0000 </r>
       <r>   -5.6673    1.0000 </r>
       <r>   -5.3784    1.0000 </r>
       <r>   -2.6033    1.0000 </r>
       <r>   -2.6030    1.0000 </r>
       <r>   -2.5978    1.0000 </r>
       <r>   -2.5974    1.0000 </r>
       <r>   -2.1573    1.0000 </r>
       <r>   -1.5106    1.0000 </r>
       <r>   -1.5093    1.0000 </r>
       <r>   -1.5035    1.0000 </r>
       <r>   -1.5028    1.0000 </r>
       <r>   -1.4526    1.0000 </r>
       <r>   -0.2041    1.0000 </r>
       <r>    0.2338    0.7963 </r>
       <r>    2.7124   -0.0000 </r>
       <r>    2.7188   -0.0000 </r>
       <r>    2.7310   -0.0000 </r>
       <r>    2.7362   -0.0000 </r>
       <r>    2.8933   -0.0000 </r>
       <r>    2.9006   -0.0000 </r>
       <r>    2.9155   -0.0000 </r>
       <r>    2.9241   -0.0000 </r>
       <r>    5.3254    0.0000 </r>
       <r>    5.7216    0.0000 </r>
       <r>    6.2485    0.0000 </r>
       <r>    6.5909    0.0000 </r>
      </set>
      <set comment="kpoint 2">
       <r>  -34.9720    1.0000 </r>
       <r>  -34.9673    1.0000 </r>
       <r>  -34.8057    1.0000 </r>
       <r>  -34.8014    1.0000 </r>
       <r>  -34.7894    1.0000 </r>
       <r>  -34.7850    1.0000 </r>
       <r>  -13.8672    1.0000 </r>
       <r>  -13.8114    1.0000 </r>
       <r>  -12.6512    1.0000 </r>
       <r>  -12.5601    1.0000 </r>
       <r>   -5.5682    1.0000 </r>
       <r>   -5.2795    1.0000 </r>
       <r>   -2.7904    1.0000 </r>
       <r>   -2.7840    1.0000 </r>
       <r>   -2.5127    1.0000 </r>
       <r>   -2.5066    1.0000 </r>
       <r>   -2.4419    1.0000 </r>
       <r>   -2.0524    1.0000 </r>
       <r>   -1.6480    1.0000 </r>
       <r>   -1.6397    1.0000 </r>
       <r>   -1.3457    1.0000 </r>
       <r>   -1.0463    1.0000 </r>
       <r>   -0.2258    1.0000 </r>
       <r>    0.1615    1.0327 </r>
       <r>    2.5930   -0.0000 </r>
       <r>    2.6271   -0.0000 </r>
       <r>    2.6557   -0.0000 </r>
       <r>    2.7415   -0.0000 </r>
       <r>    2.7962   -0.0000 </r>
       <r>    2.8270   -0.0000 </r>
       <r>    2.8639   -0.0000 </r>
       <r>    2.8858   -0.0000 </r>
       <r>    5.4523    0.0000 </r>
       <r>    5.8676    0.0000 </r>
       <r>    6.5834    0.0000 </r>
       <r>    6.9620    0.0000 </r>
      </set>
      <set comment="kpoint 3">
       <r>  -34.9606    1.0000 </r>
       <r>  -34.9559    1.0000 </r>
       <r>  -34.8642    1.0000 </r>
       <r>  -34.8598    1.0000 </r>
       <r>  -34.8028    1.0000 </r>
       <r>  -34.7983    1.0000 </r>
       <r>  -13.6188    1.0000 </r>
       <r>  -13.5635    1.0000 </r>
       <r>  -12.5464    1.0000 </r>
       <r>  -12.4615    1.0000 </r>
       <r>   -5.3082    1.0000 </r>
       <r>   -5.0252    1.0000 </r>
       <r>   -3.2442    1.0000 </r>
       <r>   -3.2283    1.0000 </r>
       <r>   -2.9412    1.0000 </r>
       <r>   -2.6682    1.0000 </r>
       <r>   -2.2573    1.0000 </r>
       <r>   -2.2504    1.0000 </r>
       <r>   -1.9833    1.0000 </r>
       <r>   -1.9744    1.0000 </r>
       <r>   -1.2677    1.0000 </r>
       <r>   -0.9109    1.0000 </r>
       <r>   -0.3585    1.0000 </r>
       <r>   -0.1070    1.0000 </r>
       <r>    2.1786   -0.0000 </r>
       <r>    2.3821   -0.0000 </r>
       <r>    2.5091   -0.0000 </r>
       <r>    2.5702   -0.0000 </r>
       <r>    2.5994   -0.0000 </r>
       <r>    2.6489   -0.0000 </r>
       <r>    3.2077    0.0000 </r>
       <r>    3.2350    0.0000 </r>
       <r>    5.8054    0.0000 </r>
       <r>    6.2181    0.0000 </r>
       <r>    6.9071    0.0000 </r>
       <r>    7.8073    0.0000 </r>
      </set>
      <set comment="kpoint 4">
       <r>  -34.9456    1.0000 </r>
       <r>  -34.9445    1.0000 </r>
       <r>  -34.9414    1.0000 </r>
       <r>  -34.9397    1.0000 </r>
       <r>  -34.8216    1.0000 </r>
       <r>  -34.8172    1.0000 </r>
       <r>  -13.2438    1.0000 </r>
       <r>  -13.1900    1.0000 </r>
       <r>  -12.3890    1.0000 </r>
       <r>  -12.3138    1.0000 </r>
       <r>   -5.0439    1.0000 </r>
       <r>   -4.8087    1.0000 </r>
       <r>   -3.7173    1.0000 </r>
       <r>   -3.6480    1.0000 </r>
       <r>   -3.4724    1.0000 </r>
       <r>   -3.2855    1.0000 </r>
       <r>   -2.3787    1.0000 </r>
       <r>   -2.3691    1.0000 </r>
       <r>   -1.8887    1.0000 </r>
       <r>   -1.8796    1.0000 </r>
       <r>   -1.4492    1.0000 </r>
       <r>   -1.0927    1.0000 </r>
       <r>   -0.6793    1.0000 </r>
       <r>   -0.5497    1.0000 </r>
       <r>    1.9522   -0.0000 </r>
       <r>    2.2559   -0.0000 </r>
       <r>    2.3203   -0.0000 </r>
       <r>    2.3497   -0.0000 </r>
       <r>    2.7056   -0.0000 </r>
       <r>    2.9240   -0.0000 </r>
       <r>    3.5873    0.0000 </r>
       <r>    3.6226    0.0000 </r>
       <r>    6.3516    0.0000 </r>
       <r>    6.7136    0.0000 </r>
       <r>    7.3484    0.0000 </r>
       <r>    8.1906    0.0000 </r>
      </set>
      <set comment="kpoint 5">
       <r>  -35.0309    1.0000 </r>
       <r>  -35.0265    1.0000 </r>
       <r>  -34.9274    1.0000 </r>
       <r>  -34.9227    1.0000 </r>
       <r>  -34.8415    1.0000 </r>
       <r>  -34.8371    1.0000 </r>
       <r>  -12.8039    1.0000 </r>
       <r>  -12.7532    1.0000 </r>
       <r>  -12.2073    1.0000 </r>
       <r>  -12.1437    1.0000 </r>
       <r>   -5.0972    1.0000 </r>
       <r>   -4.9773    1.0000 </r>
       <r>   -4.0492    1.0000 </r>
       <r>   -3.9037    1.0000 </r>
       <r>   -3.8648    1.0000 </r>
       <r>   -3.7107    1.0000 </r>
       <r>   -2.7341    1.0000 </r>
       <r>   -2.7240    1.0000 </r>
       <r>   -1.7294    1.0000 </r>
       <r>   -1.4939    1.0000 </r>
       <r>   -1.4820    1.0000 </r>
       <r>   -1.3814    1.0000 </r>
       <r>   -0.9719    1.0000 </r>
       <r>   -0.8751    1.0000 </r>
       <r>    2.0498   -0.0000 </r>
       <r>    2.1540   -0.0000 </r>
       <r>    2.1768   -0.0000 </r>
       <r>    2.3350   -0.0000 </r>
       <r>    3.1093    0.0000 </r>
       <r>    3.3746    0.0000 </r>
       <r>    3.8875    0.0000 </r>
       <r>    3.9327    0.0000 </r>
       <r>    7.0365    0.0000 </r>
       <r>    7.2768    0.0000 </r>
       <r>    7.8118    0.0000 </r>
       <r>    8.0373    0.0000 </r>
      </set>
      <set comment="kpoint 6">
       <r>  -35.1006    1.0000 </r>
       <r>  -35.0963    1.0000 </r>
       <r>  -34.9131    1.0000 </r>
       <r>  -34.9085    1.0000 </r>
       <r>  -34.8580    1.0000 </r>
       <r>  -34.8535    1.0000 </r>
       <r>  -12.3936    1.0000 </r>
       <r>  -12.3474    1.0000 </r>
       <r>  -12.0422    1.0000 </r>
       <r>  -11.9899    1.0000 </r>
       <r>   -5.4156    1.0000 </r>
       <r>   -5.3462    1.0000 </r>
       <r>   -4.4670    1.0000 </r>
       <r>   -4.3585    1.0000 </r>
       <r>   -3.9629    1.0000 </r>
       <r>   -3.7796    1.0000 </r>
       <r>   -2.9941    1.0000 </r>
       <r>   -2.9837    1.0000 </r>
       <r>   -1.9447    1.0000 </r>
       <r>   -1.6076    1.0000 </r>
       <r>   -1.1788    1.0000 </r>
       <r>   -1.1596    1.0000 </r>
       <r>   -0.9298    1.0000 </r>
       <r>   -0.8105    1.0000 </r>
       <r>    2.1116   -0.0000 </r>
       <r>    2.1266   -0.0000 </r>
       <r>    2.3165   -0.0000 </r>
       <r>    2.5087   -0.0000 </r>
       <r>    3.4900    0.0000 </r>
       <r>    3.7722    0.0000 </r>
       <r>    4.0736    0.0000 </r>
       <r>    4.1279    0.0000 </r>
       <r>    6.7830    0.0000 </r>
       <r>    7.2223    0.0000 </r>
       <r>    7.6982    0.0000 </r>
       <r>    7.9524    0.0000 </r>
      </set>
      <set comment="kpoint 7">
       <r>  -35.1397    1.0000 </r>
       <r>  -35.1353    1.0000 </r>
       <r>  -34.9051    1.0000 </r>
       <r>  -34.9004    1.0000 </r>
       <r>  -34.8672    1.0000 </r>
       <r>  -34.8628    1.0000 </r>
       <r>  -12.1369    1.0000 </r>
       <r>  -12.0945    1.0000 </r>
       <r>  -11.9413    1.0000 </r>
       <r>  -11.8968    1.0000 </r>
       <r>   -5.6569    1.0000 </r>
       <r>   -5.5969    1.0000 </r>
       <r>   -4.7187    1.0000 </r>
       <r>   -4.6240    1.0000 </r>
       <r>   -4.0654    1.0000 </r>
       <r>   -3.8919    1.0000 </r>
       <r>   -3.1301    1.0000 </r>
       <r>   -3.1195    1.0000 </r>
       <r>   -2.0499    1.0000 </r>
       <r>   -1.7196    1.0000 </r>
       <r>   -1.0133    1.0000 </r>
       <r>   -0.9894    1.0000 </r>
       <r>   -0.7148    1.0000 </r>
       <r>   -0.5757    1.0000 </r>
       <r>    2.1399   -0.0000 </r>
       <r>    2.1484   -0.0000 </r>
       <r>    2.5680   -0.0000 </r>
       <r>    2.6614   -0.0000 </r>
       <r>    3.6879    0.0000 </r>
       <r>    3.9802    0.0000 </r>
       <r>    4.1577    0.0000 </r>
       <r>    4.2172    0.0000 </r>
       <r>    5.9937    0.0000 </r>
       <r>    6.5701    0.0000 </r>
       <r>    7.9730    0.0000 </r>
       <r>    8.0585    0.0000 </r>
      </set>
      <set comment="kpoint 8">
       <r>  -34.9720    1.0000 </r>
       <r>  -34.9673    1.0000 </r>
       <r>  -34.8057    1.0000 </r>
       <r>  -34.8014    1.0000 </r>
       <r>  -34.7894    1.0000 </r>
       <r>  -34.7849    1.0000 </r>
       <r>  -13.8672    1.0000 </r>
       <r>  -13.8115    1.0000 </r>
       <r>  -12.6511    1.0000 </r>
       <r>  -12.5602    1.0000 </r>
       <r>   -5.5681    1.0000 </r>
       <r>   -5.2796    1.0000 </r>
       <r>   -2.7904    1.0000 </r>
       <r>   -2.7840    1.0000 </r>
       <r>   -2.5121    1.0000 </r>
       <r>   -2.5072    1.0000 </r>
       <r>   -2.4425    1.0000 </r>
       <r>   -2.0524    1.0000 </r>
       <r>   -1.6466    1.0000 </r>
       <r>   -1.6411    1.0000 </r>
       <r>   -1.3403    1.0000 </r>
       <r>   -1.0506    1.0000 </r>
       <r>   -0.2251    1.0000 </r>
       <r>    0.1579    1.0342 </r>
       <r>    2.6049   -0.0000 </r>
       <r>    2.6246   -0.0000 </r>
       <r>    2.6607   -0.0000 </r>
       <r>    2.7267   -0.0000 </r>
       <r>    2.8100   -0.0000 </r>
       <r>    2.8198   -0.0000 </r>
       <r>    2.8694   -0.0000 </r>
       <r>    2.8768   -0.0000 </r>
       <r>    5.4523    0.0000 </r>
       <r>    5.8675    0.0000 </r>
       <r>    6.5946    0.0000 </r>
       <r>    6.9629    0.0000 </r>
      </set>
      <set comment="kpoint 9">
       <r>  -34.9642    1.0000 </r>
       <r>  -34.9596    1.0000 </r>
       <r>  -34.8446    1.0000 </r>
       <r>  -34.8403    1.0000 </r>
       <r>  -34.7995    1.0000 </r>
       <r>  -34.7950    1.0000 </r>
       <r>  -13.6996    1.0000 </r>
       <r>  -13.6441    1.0000 </r>
       <r>  -12.5804    1.0000 </r>
       <r>  -12.4935    1.0000 </r>
       <r>   -5.3867    1.0000 </r>
       <r>   -5.1004    1.0000 </r>
       <r>   -3.1045    1.0000 </r>
       <r>   -3.0966    1.0000 </r>
       <r>   -2.7793    1.0000 </r>
       <r>   -2.4670    1.0000 </r>
       <r>   -2.3440    1.0000 </r>
       <r>   -2.3386    1.0000 </r>
       <r>   -1.9602    1.0000 </r>
       <r>   -1.9537    1.0000 </r>
       <r>   -1.1891    1.0000 </r>
       <r>   -0.8623    1.0000 </r>
       <r>   -0.3017    1.0000 </r>
       <r>   -0.0113    1.0002 </r>
       <r>    2.2993   -0.0000 </r>
       <r>    2.4387   -0.0000 </r>
       <r>    2.4725   -0.0000 </r>
       <r>    2.5721   -0.0000 </r>
       <r>    2.6455   -0.0000 </r>
       <r>    2.6560   -0.0000 </r>
       <r>    3.1474    0.0000 </r>
       <r>    3.1579    0.0000 </r>
       <r>    5.6918    0.0000 </r>
       <r>    6.1121    0.0000 </r>
       <r>    6.9386    0.0000 </r>
       <r>    7.6123    0.0000 </r>
      </set>
      <set comment="kpoint 10">
       <r>  -34.9505    1.0000 </r>
       <r>  -34.9458    1.0000 </r>
       <r>  -34.9122    1.0000 </r>
       <r>  -34.9079    1.0000 </r>
       <r>  -34.8180    1.0000 </r>
       <r>  -34.8135    1.0000 </r>
       <r>  -13.3873    1.0000 </r>
       <r>  -13.3328    1.0000 </r>
       <r>  -12.4487    1.0000 </r>
       <r>  -12.3697    1.0000 </r>
       <r>   -5.1074    1.0000 </r>
       <r>   -4.8418    1.0000 </r>
       <r>   -3.5534    1.0000 </r>
       <r>   -3.5210    1.0000 </r>
       <r>   -3.2142    1.0000 </r>
       <r>   -2.9870    1.0000 </r>
       <r>   -2.4495    1.0000 </r>
       <r>   -2.4244    1.0000 </r>
       <r>   -2.0602    1.0000 </r>
       <r>   -2.0533    1.0000 </r>
       <r>   -1.1766    1.0000 </r>
       <r>   -0.8629    1.0000 </r>
       <r>   -0.5349    1.0000 </r>
       <r>   -0.3752    1.0000 </r>
       <r>    1.9615   -0.0000 </r>
       <r>    2.2021   -0.0000 </r>
       <r>    2.4128   -0.0000 </r>
       <r>    2.4320   -0.0000 </r>
       <r>    2.4823   -0.0000 </r>
       <r>    2.6510   -0.0000 </r>
       <r>    3.5598    0.0000 </r>
       <r>    3.5676    0.0000 </r>
       <r>    6.1428    0.0000 </r>
       <r>    6.5370    0.0000 </r>
       <r>    7.1953    0.0000 </r>
       <r>    8.2231    0.0000 </r>
      </set>
      <set comment="kpoint 11">
       <r>  -34.9925    1.0000 </r>
       <r>  -34.9882    1.0000 </r>
       <r>  -34.9339    1.0000 </r>
       <r>  -34.9292    1.0000 </r>
       <r>  -34.8404    1.0000 </r>
       <r>  -34.8359    1.0000 </r>
       <r>  -12.9778    1.0000 </r>
       <r>  -12.9255    1.0000 </r>
       <r>  -12.2773    1.0000 </r>
       <r>  -12.2089    1.0000 </r>
       <r>   -4.9820    1.0000 </r>
       <r>   -4.8122    1.0000 </r>
       <r>   -3.8694    1.0000 </r>
       <r>   -3.7391    1.0000 </r>
       <r>   -3.7067    1.0000 </r>
       <r>   -3.5762    1.0000 </r>
       <r>   -2.8450    1.0000 </r>
       <r>   -2.7865    1.0000 </r>
       <r>   -1.7780    1.0000 </r>
       <r>   -1.7684    1.0000 </r>
       <r>   -1.3948    1.0000 </r>
       <r>   -1.1039    1.0000 </r>
       <r>   -0.8384    1.0000 </r>
       <r>   -0.7561    1.0000 </r>
       <r>    1.8625   -0.0000 </r>
       <r>    2.0769   -0.0000 </r>
       <r>    2.2962   -0.0000 </r>
       <r>    2.3844   -0.0000 </r>
       <r>    2.7592   -0.0000 </r>
       <r>    2.9693   -0.0000 </r>
       <r>    3.9102    0.0000 </r>
       <r>    3.9339    0.0000 </r>
       <r>    6.7751    0.0000 </r>
       <r>    7.0885    0.0000 </r>
       <r>    7.7278    0.0000 </r>
       <r>    8.3267    0.0000 </r>
      </set>
      <set comment="kpoint 12">
       <r>  -35.0671    1.0000 </r>
       <r>  -35.0628    1.0000 </r>
       <r>  -34.9182    1.0000 </r>
       <r>  -34.9135    1.0000 </r>
       <r>  -34.8614    1.0000 </r>
       <r>  -34.8569    1.0000 </r>
       <r>  -12.5475    1.0000 </r>
       <r>  -12.4993    1.0000 </r>
       <r>  -12.1001    1.0000 </r>
       <r>  -12.0433    1.0000 </r>
       <r>   -5.2041    1.0000 </r>
       <r>   -5.1194    1.0000 </r>
       <r>   -4.2810    1.0000 </r>
       <r>   -4.1814    1.0000 </r>
       <r>   -3.8840    1.0000 </r>
       <r>   -3.6998    1.0000 </r>
       <r>   -3.0579    1.0000 </r>
       <r>   -2.9997    1.0000 </r>
       <r>   -1.7137    1.0000 </r>
       <r>   -1.6127    1.0000 </r>
       <r>   -1.5976    1.0000 </r>
       <r>   -1.4038    1.0000 </r>
       <r>   -0.8596    1.0000 </r>
       <r>   -0.7983    1.0000 </r>
       <r>    1.9745   -0.0000 </r>
       <r>    2.1095   -0.0000 </r>
       <r>    2.3323   -0.0000 </r>
       <r>    2.4491   -0.0000 </r>
       <r>    3.1821    0.0000 </r>
       <r>    3.3897    0.0000 </r>
       <r>    4.1066    0.0000 </r>
       <r>    4.1558    0.0000 </r>
       <r>    7.3482    0.0000 </r>
       <r>    7.5594    0.0000 </r>
       <r>    7.6036    0.0000 </r>
       <r>    8.0888    0.0000 </r>
      </set>
      <set comment="kpoint 13">
       <r>  -35.1195    1.0000 </r>
       <r>  -35.1151    1.0000 </r>
       <r>  -34.9071    1.0000 </r>
       <r>  -34.9024    1.0000 </r>
       <r>  -34.8762    1.0000 </r>
       <r>  -34.8717    1.0000 </r>
       <r>  -12.2060    1.0000 </r>
       <r>  -12.1625    1.0000 </r>
       <r>  -11.9625    1.0000 </r>
       <r>  -11.9157    1.0000 </r>
       <r>   -5.4873    1.0000 </r>
       <r>   -5.4252    1.0000 </r>
       <r>   -4.6677    1.0000 </r>
       <r>   -4.5877    1.0000 </r>
       <r>   -3.9884    1.0000 </r>
       <r>   -3.8081    1.0000 </r>
       <r>   -3.1445    1.0000 </r>
       <r>   -3.1064    1.0000 </r>
       <r>   -1.9432    1.0000 </r>
       <r>   -1.6519    1.0000 </r>
       <r>   -1.4840    1.0000 </r>
       <r>   -1.4336    1.0000 </r>
       <r>   -0.6489    1.0000 </r>
       <r>   -0.5686    1.0000 </r>
       <r>    2.1214   -0.0000 </r>
       <r>    2.1760   -0.0000 </r>
       <r>    2.5060   -0.0000 </r>
       <r>    2.6093   -0.0000 </r>
       <r>    3.5764    0.0000 </r>
       <r>    3.7487    0.0000 </r>
       <r>    4.1053    0.0000 </r>
       <r>    4.1986    0.0000 </r>
       <r>    6.4045    0.0000 </r>
       <r>    6.9659    0.0000 </r>
       <r>    8.0844    0.0000 </r>
       <r>    8.2421    0.0000 </r>
      </set>
      <set comment="kpoint 14">
       <r>  -35.1383    1.0000 </r>
       <r>  -35.1339    1.0000 </r>
       <r>  -34.9030    1.0000 </r>
       <r>  -34.8984    1.0000 </r>
       <r>  -34.8816    1.0000 </r>
       <r>  -34.8771    1.0000 </r>
       <r>  -12.0733    1.0000 </r>
       <r>  -12.0321    1.0000 </r>
       <r>  -11.9094    1.0000 </r>
       <r>  -11.8672    1.0000 </r>
       <r>   -5.6052    1.0000 </r>
       <r>   -5.5465    1.0000 </r>
       <r>   -4.8102    1.0000 </r>
       <r>   -4.7350    1.0000 </r>
       <r>   -4.0568    1.0000 </r>
       <r>   -3.8833    1.0000 </r>
       <r>   -3.1642    1.0000 </r>
       <r>   -3.1374    1.0000 </r>
       <r>   -2.0319    1.0000 </r>
       <r>   -1.7332    1.0000 </r>
       <r>   -1.4154    1.0000 </r>
       <r>   -1.3709    1.0000 </r>
       <r>   -0.5194    1.0000 </r>
       <r>   -0.4216    1.0000 </r>
       <r>    2.1554   -0.0000 </r>
       <r>    2.1775   -0.0000 </r>
       <r>    2.6527   -0.0000 </r>
       <r>    2.7290   -0.0000 </r>
       <r>    3.8216    0.0000 </r>
       <r>    3.9188    0.0000 </r>
       <r>    3.9940    0.0000 </r>
       <r>    4.1380    0.0000 </r>
       <r>    5.9659    0.0000 </r>
       <r>    6.5848    0.0000 </r>
       <r>    8.3624    0.0000 </r>
       <r>    8.4389    0.0000 </r>
      </set>
      <set comment="kpoint 15">
       <r>  -35.1195    1.0000 </r>
       <r>  -35.1151    1.0000 </r>
       <r>  -34.9071    1.0000 </r>
       <r>  -34.9024    1.0000 </r>
       <r>  -34.8762    1.0000 </r>
       <r>  -34.8718    1.0000 </r>
       <r>  -12.2057    1.0000 </r>
       <r>  -12.1628    1.0000 </r>
       <r>  -11.9622    1.0000 </r>
       <r>  -11.9161    1.0000 </r>
       <r>   -5.4872    1.0000 </r>
       <r>   -5.4254    1.0000 </r>
       <r>   -4.6673    1.0000 </r>
       <r>   -4.5881    1.0000 </r>
       <r>   -3.9883    1.0000 </r>
       <r>   -3.8084    1.0000 </r>
       <r>   -3.1449    1.0000 </r>
       <r>   -3.1055    1.0000 </r>
       <r>   -1.9409    1.0000 </r>
       <r>   -1.6513    1.0000 </r>
       <r>   -1.4748    1.0000 </r>
       <r>   -1.4472    1.0000 </r>
       <r>   -0.6496    1.0000 </r>
       <r>   -0.5678    1.0000 </r>
       <r>    2.1193   -0.0000 </r>
       <r>    2.1788   -0.0000 </r>
       <r>    2.5069   -0.0000 </r>
       <r>    2.6083   -0.0000 </r>
       <r>    3.5880    0.0000 </r>
       <r>    3.7377    0.0000 </r>
       <r>    4.0996    0.0000 </r>
       <r>    4.2025    0.0000 </r>
       <r>    6.4049    0.0000 </r>
       <r>    6.9653    0.0000 </r>
       <r>    8.1582    0.0000 </r>
       <r>    8.2814    0.0000 </r>
      </set>
      <set comment="kpoint 16">
       <r>  -35.0672    1.0000 </r>
       <r>  -35.0628    1.0000 </r>
       <r>  -34.9182    1.0000 </r>
       <r>  -34.9135    1.0000 </r>
       <r>  -34.8613    1.0000 </r>
       <r>  -34.8569    1.0000 </r>
       <r>  -12.5471    1.0000 </r>
       <r>  -12.4996    1.0000 </r>
       <r>  -12.0997    1.0000 </r>
       <r>  -12.0439    1.0000 </r>
       <r>   -5.2041    1.0000 </r>
       <r>   -5.1196    1.0000 </r>
       <r>   -4.2802    1.0000 </r>
       <r>   -4.1819    1.0000 </r>
       <r>   -3.8834    1.0000 </r>
       <r>   -3.7009    1.0000 </r>
       <r>   -3.0574    1.0000 </r>
       <r>   -2.9993    1.0000 </r>
       <r>   -1.7055    1.0000 </r>
       <r>   -1.6151    1.0000 </r>
       <r>   -1.5986    1.0000 </r>
       <r>   -1.4102    1.0000 </r>
       <r>   -0.8596    1.0000 </r>
       <r>   -0.7987    1.0000 </r>
       <r>    1.9757   -0.0000 </r>
       <r>    2.1099   -0.0000 </r>
       <r>    2.3324   -0.0000 </r>
       <r>    2.4481   -0.0000 </r>
       <r>    3.1919    0.0000 </r>
       <r>    3.3790    0.0000 </r>
       <r>    4.1048    0.0000 </r>
       <r>    4.1580    0.0000 </r>
       <r>    7.3479    0.0000 </r>
       <r>    7.5548    0.0000 </r>
       <r>    7.6142    0.0000 </r>
       <r>    8.1298    0.0000 </r>
      </set>
      <set comment="kpoint 17">
       <r>  -34.9925    1.0000 </r>
       <r>  -34.9882    1.0000 </r>
       <r>  -34.9339    1.0000 </r>
       <r>  -34.9292    1.0000 </r>
       <r>  -34.8403    1.0000 </r>
       <r>  -34.8359    1.0000 </r>
       <r>  -12.9774    1.0000 </r>
       <r>  -12.9258    1.0000 </r>
       <r>  -12.2768    1.0000 </r>
       <r>  -12.2094    1.0000 </r>
       <r>   -4.9819    1.0000 </r>
       <r>   -4.8122    1.0000 </r>
       <r>   -3.8677    1.0000 </r>
       <r>   -3.7409    1.0000 </r>
       <r>   -3.7059    1.0000 </r>
       <r>   -3.5773    1.0000 </r>
       <r>   -2.8436    1.0000 </r>
       <r>   -2.7870    1.0000 </r>
       <r>   -1.7785    1.0000 </r>
       <r>   -1.7671    1.0000 </r>
       <r>   -1.3918    1.0000 </r>
       <r>   -1.1078    1.0000 </r>
       <r>   -0.8382    1.0000 </r>
       <r>   -0.7589    1.0000 </r>
       <r>    1.8651   -0.0000 </r>
       <r>    2.0752   -0.0000 </r>
       <r>    2.2964   -0.0000 </r>
       <r>    2.3836   -0.0000 </r>
       <r>    2.7660   -0.0000 </r>
       <r>    2.9629   -0.0000 </r>
       <r>    3.9090    0.0000 </r>
       <r>    3.9362    0.0000 </r>
       <r>    6.7748    0.0000 </r>
       <r>    7.0886    0.0000 </r>
       <r>    7.7603    0.0000 </r>
       <r>    8.3640    0.0000 </r>
      </set>
      <set comment="kpoint 18">
       <r>  -34.9505    1.0000 </r>
       <r>  -34.9458    1.0000 </r>
       <r>  -34.9123    1.0000 </r>
       <r>  -34.9078    1.0000 </r>
       <r>  -34.8179    1.0000 </r>
       <r>  -34.8135    1.0000 </r>
       <r>  -13.3871    1.0000 </r>
       <r>  -13.3330    1.0000 </r>
       <r>  -12.4484    1.0000 </r>
       <r>  -12.3701    1.0000 </r>
       <r>   -5.1070    1.0000 </r>
       <r>   -4.8420    1.0000 </r>
       <r>   -3.5530    1.0000 </r>
       <r>   -3.5212    1.0000 </r>
       <r>   -3.2149    1.0000 </r>
       <r>   -2.9864    1.0000 </r>
       <r>   -2.4481    1.0000 </r>
       <r>   -2.4254    1.0000 </r>
       <r>   -2.0603    1.0000 </r>
       <r>   -2.0533    1.0000 </r>
       <r>   -1.1713    1.0000 </r>
       <r>   -0.8670    1.0000 </r>
       <r>   -0.5334    1.0000 </r>
       <r>   -0.3818    1.0000 </r>
       <r>    1.9648   -0.0000 </r>
       <r>    2.2026   -0.0000 </r>
       <r>    2.4123   -0.0000 </r>
       <r>    2.4296   -0.0000 </r>
       <r>    2.4869   -0.0000 </r>
       <r>    2.6483   -0.0000 </r>
       <r>    3.5565    0.0000 </r>
       <r>    3.5716    0.0000 </r>
       <r>    6.1428    0.0000 </r>
       <r>    6.5368    0.0000 </r>
       <r>    7.2089    0.0000 </r>
       <r>    8.3523    0.0000 </r>
      </set>
      <set comment="kpoint 19">
       <r>  -34.9642    1.0000 </r>
       <r>  -34.9596    1.0000 </r>
       <r>  -34.8447    1.0000 </r>
       <r>  -34.8403    1.0000 </r>
       <r>  -34.7994    1.0000 </r>
       <r>  -34.7950    1.0000 </r>
       <r>  -13.6995    1.0000 </r>
       <r>  -13.6443    1.0000 </r>
       <r>  -12.5802    1.0000 </r>
       <r>  -12.4938    1.0000 </r>
       <r>   -5.3863    1.0000 </r>
       <r>   -5.1007    1.0000 </r>
       <r>   -3.1050    1.0000 </r>
       <r>   -3.0959    1.0000 </r>
       <r>   -2.7801    1.0000 </r>
       <r>   -2.4662    1.0000 </r>
       <r>   -2.3442    1.0000 </r>
       <r>   -2.3385    1.0000 </r>
       <r>   -1.9608    1.0000 </r>
       <r>   -1.9529    1.0000 </r>
       <r>   -1.1833    1.0000 </r>
       <r>   -0.8670    1.0000 </r>
       <r>   -0.3002    1.0000 </r>
       <r>   -0.0183    1.0002 </r>
       <r>    2.3090   -0.0000 </r>
       <r>    2.4395   -0.0000 </r>
       <r>    2.4752   -0.0000 </r>
       <r>    2.5640   -0.0000 </r>
       <r>    2.6418   -0.0000 </r>
       <r>    2.6590   -0.0000 </r>
       <r>    3.1475    0.0000 </r>
       <r>    3.1580    0.0000 </r>
       <r>    5.6920    0.0000 </r>
       <r>    6.1119    0.0000 </r>
       <r>    6.9228    0.0000 </r>
       <r>    7.6141    0.0000 </r>
      </set>
      <set comment="kpoint 20">
       <r>  -34.9720    1.0000 </r>
       <r>  -34.9673    1.0000 </r>
       <r>  -34.8058    1.0000 </r>
       <r>  -34.8013    1.0000 </r>
       <r>  -34.7893    1.0000 </r>
       <r>  -34.7850    1.0000 </r>
       <r>  -13.8671    1.0000 </r>
       <r>  -13.8115    1.0000 </r>
       <r>  -12.6511    1.0000 </r>
       <r>  -12.5602    1.0000 </r>
       <r>   -5.5679    1.0000 </r>
       <r>   -5.2798    1.0000 </r>
       <r>   -2.7906    1.0000 </r>
       <r>   -2.7837    1.0000 </r>
       <r>   -2.5124    1.0000 </r>
       <r>   -2.5069    1.0000 </r>
       <r>   -2.4431    1.0000 </r>
       <r>   -2.0523    1.0000 </r>
       <r>   -1.6473    1.0000 </r>
       <r>   -1.6404    1.0000 </r>
       <r>   -1.3360    1.0000 </r>
       <r>   -1.0540    1.0000 </r>
       <r>   -0.2246    1.0000 </r>
       <r>    0.1550    1.0349 </r>
       <r>    2.6129   -0.0000 </r>
       <r>    2.6245   -0.0000 </r>
       <r>    2.6688   -0.0000 </r>
       <r>    2.7161   -0.0000 </r>
       <r>    2.8015   -0.0000 </r>
       <r>    2.8236   -0.0000 </r>
       <r>    2.8678   -0.0000 </r>
       <r>    2.8796   -0.0000 </r>
       <r>    5.4524    0.0000 </r>
       <r>    5.8674    0.0000 </r>
       <r>    6.5862    0.0000 </r>
       <r>    6.9636    0.0000 </r>
      </set>
      <set comment="kpoint 21">
       <r>  -34.9606    1.0000 </r>
       <r>  -34.9559    1.0000 </r>
       <r>  -34.8642    1.0000 </r>
       <r>  -34.8599    1.0000 </r>
       <r>  -34.8028    1.0000 </r>
       <r>  -34.7983    1.0000 </r>
       <r>  -13.6186    1.0000 </r>
       <r>  -13.5637    1.0000 </r>
       <r>  -12.5460    1.0000 </r>
       <r>  -12.4619    1.0000 </r>
       <r>   -5.3076    1.0000 </r>
       <r>   -5.0257    1.0000 </r>
       <r>   -3.2426    1.0000 </r>
       <r>   -3.2298    1.0000 </r>
       <r>   -2.9418    1.0000 </r>
       <r>   -2.6684    1.0000 </r>
       <r>   -2.2564    1.0000 </r>
       <r>   -2.2512    1.0000 </r>
       <r>   -1.9817    1.0000 </r>
       <r>   -1.9760    1.0000 </r>
       <r>   -1.2536    1.0000 </r>
       <r>   -0.9218    1.0000 </r>
       <r>   -0.3552    1.0000 </r>
       <r>   -0.1205    1.0000 </r>
       <r>    2.1939   -0.0000 </r>
       <r>    2.3803   -0.0000 </r>
       <r>    2.5131   -0.0000 </r>
       <r>    2.5802   -0.0000 </r>
       <r>    2.5899   -0.0000 </r>
       <r>    2.6396   -0.0000 </r>
       <r>    3.2165    0.0000 </r>
       <r>    3.2259    0.0000 </r>
       <r>    5.8054    0.0000 </r>
       <r>    6.2186    0.0000 </r>
       <r>    6.8840    0.0000 </r>
       <r>    7.7447    0.0000 </r>
      </set>
      <set comment="kpoint 22">
       <r>  -34.9505    1.0000 </r>
       <r>  -34.9458    1.0000 </r>
       <r>  -34.9122    1.0000 </r>
       <r>  -34.9079    1.0000 </r>
       <r>  -34.8180    1.0000 </r>
       <r>  -34.8135    1.0000 </r>
       <r>  -13.3871    1.0000 </r>
       <r>  -13.3330    1.0000 </r>
       <r>  -12.4484    1.0000 </r>
       <r>  -12.3701    1.0000 </r>
       <r>   -5.1071    1.0000 </r>
       <r>   -4.8420    1.0000 </r>
       <r>   -3.5506    1.0000 </r>
       <r>   -3.5238    1.0000 </r>
       <r>   -3.2139    1.0000 </r>
       <r>   -2.9877    1.0000 </r>
       <r>   -2.4499    1.0000 </r>
       <r>   -2.4235    1.0000 </r>
       <r>   -2.0595    1.0000 </r>
       <r>   -2.0541    1.0000 </r>
       <r>   -1.1669    1.0000 </r>
       <r>   -0.8699    1.0000 </r>
       <r>   -0.5325    1.0000 </r>
       <r>   -0.3849    1.0000 </r>
       <r>    1.9671   -0.0000 </r>
       <r>    2.2023   -0.0000 </r>
       <r>    2.4112   -0.0000 </r>
       <r>    2.4393   -0.0000 </r>
       <r>    2.4785   -0.0000 </r>
       <r>    2.6490   -0.0000 </r>
       <r>    3.5565    0.0000 </r>
       <r>    3.5700    0.0000 </r>
       <r>    6.1431    0.0000 </r>
       <r>    6.5359    0.0000 </r>
       <r>    7.1970    0.0000 </r>
       <r>    8.2144    0.0000 </r>
      </set>
      <set comment="kpoint 23">
       <r>  -34.9743    1.0000 </r>
       <r>  -34.9700    1.0000 </r>
       <r>  -34.9362    1.0000 </r>
       <r>  -34.9316    1.0000 </r>
       <r>  -34.8443    1.0000 </r>
       <r>  -34.8398    1.0000 </r>
       <r>  -13.0387    1.0000 </r>
       <r>  -12.9865    1.0000 </r>
       <r>  -12.3011    1.0000 </r>
       <r>  -12.2317    1.0000 </r>
       <r>   -4.9338    1.0000 </r>
       <r>   -4.7367    1.0000 </r>
       <r>   -3.8029    1.0000 </r>
       <r>   -3.7095    1.0000 </r>
       <r>   -3.5062    1.0000 </r>
       <r>   -3.3813    1.0000 </r>
       <r>   -3.0817    1.0000 </r>
       <r>   -2.9760    1.0000 </r>
       <r>   -1.9278    1.0000 </r>
       <r>   -1.9225    1.0000 </r>
       <r>   -1.1478    1.0000 </r>
       <r>   -0.9055    1.0000 </r>
       <r>   -0.7688    1.0000 </r>
       <r>   -0.6985    1.0000 </r>
       <r>    1.7711   -0.0000 </r>
       <r>    2.0057   -0.0000 </r>
       <r>    2.3353   -0.0000 </r>
       <r>    2.4209   -0.0000 </r>
       <r>    2.5293   -0.0000 </r>
       <r>    2.7301   -0.0000 </r>
       <r>    3.9443    0.0000 </r>
       <r>    3.9978    0.0000 </r>
       <r>    6.6873    0.0000 </r>
       <r>    7.0291    0.0000 </r>
       <r>    7.6947    0.0000 </r>
       <r>    8.5481    0.0000 </r>
      </set>
      <set comment="kpoint 24">
       <r>  -35.0371    1.0000 </r>
       <r>  -35.0328    1.0000 </r>
       <r>  -34.9211    1.0000 </r>
       <r>  -34.9164    1.0000 </r>
       <r>  -34.8747    1.0000 </r>
       <r>  -34.8701    1.0000 </r>
       <r>  -12.6330    1.0000 </r>
       <r>  -12.5842    1.0000 </r>
       <r>  -12.1296    1.0000 </r>
       <r>  -12.0710    1.0000 </r>
       <r>   -5.0089    1.0000 </r>
       <r>   -4.9044    1.0000 </r>
       <r>   -4.0846    1.0000 </r>
       <r>   -4.0307    1.0000 </r>
       <r>   -3.7946    1.0000 </r>
       <r>   -3.6212    1.0000 </r>
       <r>   -3.2970    1.0000 </r>
       <r>   -3.1445    1.0000 </r>
       <r>   -2.0573    1.0000 </r>
       <r>   -2.0406    1.0000 </r>
       <r>   -1.3639    1.0000 </r>
       <r>   -1.1472    1.0000 </r>
       <r>   -0.8212    1.0000 </r>
       <r>   -0.7972    1.0000 </r>
       <r>    1.8015   -0.0000 </r>
       <r>    2.0581   -0.0000 </r>
       <r>    2.4030   -0.0000 </r>
       <r>    2.4620   -0.0000 </r>
       <r>    2.7924   -0.0000 </r>
       <r>    2.9843   -0.0000 </r>
       <r>    4.1928    0.0000 </r>
       <r>    4.2866    0.0000 </r>
       <r>    7.3823    0.0000 </r>
       <r>    7.6152    0.0000 </r>
       <r>    8.1238    0.0000 </r>
       <r>    8.4665    0.0000 </r>
      </set>
      <set comment="kpoint 25">
       <r>  -35.0877    1.0000 </r>
       <r>  -35.0834    1.0000 </r>
       <r>  -34.9085    1.0000 </r>
       <r>  -34.9038    1.0000 </r>
       <r>  -34.9006    1.0000 </r>
       <r>  -34.8961    1.0000 </r>
       <r>  -12.2594    1.0000 </r>
       <r>  -12.2155    1.0000 </r>
       <r>  -11.9724    1.0000 </r>
       <r>  -11.9245    1.0000 </r>
       <r>   -5.2097    1.0000 </r>
       <r>   -5.1413    1.0000 </r>
       <r>   -4.6268    1.0000 </r>
       <r>   -4.5838    1.0000 </r>
       <r>   -3.8250    1.0000 </r>
       <r>   -3.6370    1.0000 </r>
       <r>   -3.2677    1.0000 </r>
       <r>   -3.1418    1.0000 </r>
       <r>   -2.2033    1.0000 </r>
       <r>   -2.1506    1.0000 </r>
       <r>   -1.7005    1.0000 </r>
       <r>   -1.4859    1.0000 </r>
       <r>   -0.6519    1.0000 </r>
       <r>   -0.6190    1.0000 </r>
       <r>    2.0257   -0.0000 </r>
       <r>    2.2298   -0.0000 </r>
       <r>    2.5215   -0.0000 </r>
       <r>    2.5685   -0.0000 </r>
       <r>    3.1465    0.0000 </r>
       <r>    3.2989    0.0000 </r>
       <r>    4.2510    0.0000 </r>
       <r>    4.4024    0.0000 </r>
       <r>    7.0494    0.0000 </r>
       <r>    7.5564    0.0000 </r>
       <r>    8.2016    0.0000 </r>
       <r>    8.6180    0.0000 </r>
      </set>
      <set comment="kpoint 26">
       <r>  -35.1159    1.0000 </r>
       <r>  -35.1115    1.0000 </r>
       <r>  -34.9155    1.0000 </r>
       <r>  -34.9110    1.0000 </r>
       <r>  -34.9013    1.0000 </r>
       <r>  -34.8966    1.0000 </r>
       <r>  -12.0290    1.0000 </r>
       <r>  -11.9893    1.0000 </r>
       <r>  -11.8753    1.0000 </r>
       <r>  -11.8352    1.0000 </r>
       <r>   -5.3415    1.0000 </r>
       <r>   -5.2834    1.0000 </r>
       <r>   -4.9346    1.0000 </r>
       <r>   -4.8925    1.0000 </r>
       <r>   -3.9621    1.0000 </r>
       <r>   -3.7852    1.0000 </r>
       <r>   -3.1787    1.0000 </r>
       <r>   -3.0887    1.0000 </r>
       <r>   -2.2080    1.0000 </r>
       <r>   -2.1366    1.0000 </r>
       <r>   -1.9612    1.0000 </r>
       <r>   -1.7312    1.0000 </r>
       <r>   -0.4307    1.0000 </r>
       <r>   -0.3706    1.0000 </r>
       <r>    2.0737   -0.0000 </r>
       <r>    2.1272   -0.0000 </r>
       <r>    2.7676   -0.0000 </r>
       <r>    2.8831   -0.0000 </r>
       <r>    3.4161    0.0000 </r>
       <r>    3.5165    0.0000 </r>
       <r>    4.1761    0.0000 </r>
       <r>    4.4036    0.0000 </r>
       <r>    6.3039    0.0000 </r>
       <r>    6.9490    0.0000 </r>
       <r>    8.7568    0.0000 </r>
       <r>    8.9316    0.0000 </r>
      </set>
      <set comment="kpoint 27">
       <r>  -35.1159    1.0000 </r>
       <r>  -35.1115    1.0000 </r>
       <r>  -34.9155    1.0000 </r>
       <r>  -34.9110    1.0000 </r>
       <r>  -34.9013    1.0000 </r>
       <r>  -34.8966    1.0000 </r>
       <r>  -12.0285    1.0000 </r>
       <r>  -11.9897    1.0000 </r>
       <r>  -11.8750    1.0000 </r>
       <r>  -11.8357    1.0000 </r>
       <r>   -5.3414    1.0000 </r>
       <r>   -5.2837    1.0000 </r>
       <r>   -4.9344    1.0000 </r>
       <r>   -4.8927    1.0000 </r>
       <r>   -3.9620    1.0000 </r>
       <r>   -3.7852    1.0000 </r>
       <r>   -3.1791    1.0000 </r>
       <r>   -3.0879    1.0000 </r>
       <r>   -2.1997    1.0000 </r>
       <r>   -2.1418    1.0000 </r>
       <r>   -1.9639    1.0000 </r>
       <r>   -1.7327    1.0000 </r>
       <r>   -0.4306    1.0000 </r>
       <r>   -0.3705    1.0000 </r>
       <r>    2.0727   -0.0000 </r>
       <r>    2.1282   -0.0000 </r>
       <r>    2.7675   -0.0000 </r>
       <r>    2.8834   -0.0000 </r>
       <r>    3.4407    0.0000 </r>
       <r>    3.4907    0.0000 </r>
       <r>    4.1755    0.0000 </r>
       <r>    4.4040    0.0000 </r>
       <r>    6.3048    0.0000 </r>
       <r>    6.9489    0.0000 </r>
       <r>    8.7920    0.0000 </r>
       <r>    9.0186    0.0000 </r>
      </set>
      <set comment="kpoint 28">
       <r>  -35.0878    1.0000 </r>
       <r>  -35.0834    1.0000 </r>
       <r>  -34.9085    1.0000 </r>
       <r>  -34.9038    1.0000 </r>
       <r>  -34.9005    1.0000 </r>
       <r>  -34.8961    1.0000 </r>
       <r>  -12.2584    1.0000 </r>
       <r>  -12.2162    1.0000 </r>
       <r>  -11.9716    1.0000 </r>
       <r>  -11.9256    1.0000 </r>
       <r>   -5.2096    1.0000 </r>
       <r>   -5.1417    1.0000 </r>
       <r>   -4.6262    1.0000 </r>
       <r>   -4.5844    1.0000 </r>
       <r>   -3.8236    1.0000 </r>
       <r>   -3.6378    1.0000 </r>
       <r>   -3.2669    1.0000 </r>
       <r>   -3.1414    1.0000 </r>
       <r>   -2.1928    1.0000 </r>
       <r>   -2.1589    1.0000 </r>
       <r>   -1.7022    1.0000 </r>
       <r>   -1.4901    1.0000 </r>
       <r>   -0.6522    1.0000 </r>
       <r>   -0.6180    1.0000 </r>
       <r>    2.0240   -0.0000 </r>
       <r>    2.2329   -0.0000 </r>
       <r>    2.5226   -0.0000 </r>
       <r>    2.5664   -0.0000 </r>
       <r>    3.1668    0.0000 </r>
       <r>    3.2765    0.0000 </r>
       <r>    4.2503    0.0000 </r>
       <r>    4.4037    0.0000 </r>
       <r>    7.0495    0.0000 </r>
       <r>    7.5565    0.0000 </r>
       <r>    8.2049    0.0000 </r>
       <r>    8.5651    0.0000 </r>
      </set>
      <set comment="kpoint 29">
       <r>  -35.0372    1.0000 </r>
       <r>  -35.0327    1.0000 </r>
       <r>  -34.9211    1.0000 </r>
       <r>  -34.9164    1.0000 </r>
       <r>  -34.8746    1.0000 </r>
       <r>  -34.8702    1.0000 </r>
       <r>  -12.6320    1.0000 </r>
       <r>  -12.5850    1.0000 </r>
       <r>  -12.1286    1.0000 </r>
       <r>  -12.0722    1.0000 </r>
       <r>   -5.0092    1.0000 </r>
       <r>   -4.9042    1.0000 </r>
       <r>   -4.0839    1.0000 </r>
       <r>   -4.0329    1.0000 </r>
       <r>   -3.7887    1.0000 </r>
       <r>   -3.6246    1.0000 </r>
       <r>   -3.2956    1.0000 </r>
       <r>   -3.1455    1.0000 </r>
       <r>   -2.0596    1.0000 </r>
       <r>   -2.0379    1.0000 </r>
       <r>   -1.3597    1.0000 </r>
       <r>   -1.1553    1.0000 </r>
       <r>   -0.8251    1.0000 </r>
       <r>   -0.7940    1.0000 </r>
       <r>    1.8025   -0.0000 </r>
       <r>    2.0582   -0.0000 </r>
       <r>    2.4034   -0.0000 </r>
       <r>    2.4601   -0.0000 </r>
       <r>    2.8018   -0.0000 </r>
       <r>    2.9755   -0.0000 </r>
       <r>    4.1931    0.0000 </r>
       <r>    4.2873    0.0000 </r>
       <r>    7.3826    0.0000 </r>
       <r>    7.6149    0.0000 </r>
       <r>    8.1271    0.0000 </r>
       <r>    8.5733    0.0000 </r>
      </set>
      <set comment="kpoint 30">
       <r>  -34.9744    1.0000 </r>
       <r>  -34.9699    1.0000 </r>
       <r>  -34.9362    1.0000 </r>
       <r>  -34.9315    1.0000 </r>
       <r>  -34.8442    1.0000 </r>
       <r>  -34.8399    1.0000 </r>
       <r>  -13.0380    1.0000 </r>
       <r>  -12.9870    1.0000 </r>
       <r>  -12.3002    1.0000 </r>
       <r>  -12.2327    1.0000 </r>
       <r>   -4.9339    1.0000 </r>
       <r>   -4.7363    1.0000 </r>
       <r>   -3.7984    1.0000 </r>
       <r>   -3.7150    1.0000 </r>
       <r>   -3.5053    1.0000 </r>
       <r>   -3.3809    1.0000 </r>
       <r>   -3.0792    1.0000 </r>
       <r>   -2.9782    1.0000 </r>
       <r>   -1.9314    1.0000 </r>
       <r>   -1.9188    1.0000 </r>
       <r>   -1.1364    1.0000 </r>
       <r>   -0.9136    1.0000 </r>
       <r>   -0.7687    1.0000 </r>
       <r>   -0.7076    1.0000 </r>
       <r>    1.7738   -0.0000 </r>
       <r>    2.0051   -0.0000 </r>
       <r>    2.3360   -0.0000 </r>
       <r>    2.4196   -0.0000 </r>
       <r>    2.5338   -0.0000 </r>
       <r>    2.7281   -0.0000 </r>
       <r>    3.9413    0.0000 </r>
       <r>    4.0013    0.0000 </r>
       <r>    6.6875    0.0000 </r>
       <r>    7.0280    0.0000 </r>
       <r>    7.6948    0.0000 </r>
       <r>    8.5964    0.0000 </r>
      </set>
      <set comment="kpoint 31">
       <r>  -34.9505    1.0000 </r>
       <r>  -34.9458    1.0000 </r>
       <r>  -34.9123    1.0000 </r>
       <r>  -34.9078    1.0000 </r>
       <r>  -34.8178    1.0000 </r>
       <r>  -34.8135    1.0000 </r>
       <r>  -13.3867    1.0000 </r>
       <r>  -13.3334    1.0000 </r>
       <r>  -12.4478    1.0000 </r>
       <r>  -12.3708    1.0000 </r>
       <r>   -5.1065    1.0000 </r>
       <r>   -4.8424    1.0000 </r>
       <r>   -3.5476    1.0000 </r>
       <r>   -3.5267    1.0000 </r>
       <r>   -3.2144    1.0000 </r>
       <r>   -2.9876    1.0000 </r>
       <r>   -2.4498    1.0000 </r>
       <r>   -2.4228    1.0000 </r>
       <r>   -2.0608    1.0000 </r>
       <r>   -2.0528    1.0000 </r>
       <r>   -1.1529    1.0000 </r>
       <r>   -0.8806    1.0000 </r>
       <r>   -0.5287    1.0000 </r>
       <r>   -0.3995    1.0000 </r>
       <r>    1.9749   -0.0000 </r>
       <r>    2.2028   -0.0000 </r>
       <r>    2.4060   -0.0000 </r>
       <r>    2.4451   -0.0000 </r>
       <r>    2.4813   -0.0000 </r>
       <r>    2.6446   -0.0000 </r>
       <r>    3.5459    0.0000 </r>
       <r>    3.5810    0.0000 </r>
       <r>    6.1433    0.0000 </r>
       <r>    6.5349    0.0000 </r>
       <r>    7.2042    0.0000 </r>
       <r>    8.2770    0.0000 </r>
      </set>
      <set comment="kpoint 32">
       <r>  -34.9606    1.0000 </r>
       <r>  -34.9559    1.0000 </r>
       <r>  -34.8643    1.0000 </r>
       <r>  -34.8598    1.0000 </r>
       <r>  -34.8027    1.0000 </r>
       <r>  -34.7984    1.0000 </r>
       <r>  -13.6184    1.0000 </r>
       <r>  -13.5639    1.0000 </r>
       <r>  -12.5457    1.0000 </r>
       <r>  -12.4623    1.0000 </r>
       <r>   -5.3071    1.0000 </r>
       <r>   -5.0261    1.0000 </r>
       <r>   -3.2413    1.0000 </r>
       <r>   -3.2308    1.0000 </r>
       <r>   -2.9421    1.0000 </r>
       <r>   -2.6686    1.0000 </r>
       <r>   -2.2573    1.0000 </r>
       <r>   -2.2504    1.0000 </r>
       <r>   -1.9835    1.0000 </r>
       <r>   -1.9742    1.0000 </r>
       <r>   -1.2419    1.0000 </r>
       <r>   -0.9311    1.0000 </r>
       <r>   -0.3525    1.0000 </r>
       <r>   -0.1311    1.0000 </r>
       <r>    2.2068   -0.0000 </r>
       <r>    2.3787   -0.0000 </r>
       <r>    2.5187   -0.0000 </r>
       <r>    2.5682   -0.0000 </r>
       <r>    2.6010   -0.0000 </r>
       <r>    2.6300   -0.0000 </r>
       <r>    3.2095    0.0000 </r>
       <r>    3.2331    0.0000 </r>
       <r>    5.8056    0.0000 </r>
       <r>    6.2175    0.0000 </r>
       <r>    6.8896    0.0000 </r>
       <r>    7.7296    0.0000 </r>
      </set>
      <set comment="kpoint 33">
       <r>  -34.9642    1.0000 </r>
       <r>  -34.9596    1.0000 </r>
       <r>  -34.8448    1.0000 </r>
       <r>  -34.8403    1.0000 </r>
       <r>  -34.7993    1.0000 </r>
       <r>  -34.7950    1.0000 </r>
       <r>  -13.6993    1.0000 </r>
       <r>  -13.6444    1.0000 </r>
       <r>  -12.5799    1.0000 </r>
       <r>  -12.4940    1.0000 </r>
       <r>   -5.3858    1.0000 </r>
       <r>   -5.1011    1.0000 </r>
       <r>   -3.1056    1.0000 </r>
       <r>   -3.0953    1.0000 </r>
       <r>   -2.7812    1.0000 </r>
       <r>   -2.4653    1.0000 </r>
       <r>   -2.3441    1.0000 </r>
       <r>   -2.3386    1.0000 </r>
       <r>   -1.9609    1.0000 </r>
       <r>   -1.9525    1.0000 </r>
       <r>   -1.1754    1.0000 </r>
       <r>   -0.8734    1.0000 </r>
       <r>   -0.2980    1.0000 </r>
       <r>   -0.0274    1.0001 </r>
       <r>    2.3211   -0.0000 </r>
       <r>    2.4404   -0.0000 </r>
       <r>    2.4797   -0.0000 </r>
       <r>    2.5559   -0.0000 </r>
       <r>    2.6375   -0.0000 </r>
       <r>    2.6596   -0.0000 </r>
       <r>    3.1428    0.0000 </r>
       <r>    3.1629    0.0000 </r>
       <r>    5.6920    0.0000 </r>
       <r>    6.1116    0.0000 </r>
       <r>    6.9583    0.0000 </r>
       <r>    7.5969    0.0000 </r>
      </set>
      <set comment="kpoint 34">
       <r>  -34.9458    1.0000 </r>
       <r>  -34.9444    1.0000 </r>
       <r>  -34.9414    1.0000 </r>
       <r>  -34.9398    1.0000 </r>
       <r>  -34.8216    1.0000 </r>
       <r>  -34.8171    1.0000 </r>
       <r>  -13.2431    1.0000 </r>
       <r>  -13.1906    1.0000 </r>
       <r>  -12.3881    1.0000 </r>
       <r>  -12.3149    1.0000 </r>
       <r>   -5.0435    1.0000 </r>
       <r>   -4.8090    1.0000 </r>
       <r>   -3.7090    1.0000 </r>
       <r>   -3.6563    1.0000 </r>
       <r>   -3.4712    1.0000 </r>
       <r>   -3.2877    1.0000 </r>
       <r>   -2.3768    1.0000 </r>
       <r>   -2.3709    1.0000 </r>
       <r>   -1.8870    1.0000 </r>
       <r>   -1.8814    1.0000 </r>
       <r>   -1.4244    1.0000 </r>
       <r>   -1.1127    1.0000 </r>
       <r>   -0.6730    1.0000 </r>
       <r>   -0.5695    1.0000 </r>
       <r>    1.9626   -0.0000 </r>
       <r>    2.2552   -0.0000 </r>
       <r>    2.3296   -0.0000 </r>
       <r>    2.3407   -0.0000 </r>
       <r>    2.7111   -0.0000 </r>
       <r>    2.9184   -0.0000 </r>
       <r>    3.5987    0.0000 </r>
       <r>    3.6110    0.0000 </r>
       <r>    6.3524    0.0000 </r>
       <r>    6.7103    0.0000 </r>
       <r>    7.3497    0.0000 </r>
       <r>    8.2043    0.0000 </r>
      </set>
      <set comment="kpoint 35">
       <r>  -34.9925    1.0000 </r>
       <r>  -34.9882    1.0000 </r>
       <r>  -34.9339    1.0000 </r>
       <r>  -34.9292    1.0000 </r>
       <r>  -34.8403    1.0000 </r>
       <r>  -34.8358    1.0000 </r>
       <r>  -12.9770    1.0000 </r>
       <r>  -12.9262    1.0000 </r>
       <r>  -12.2762    1.0000 </r>
       <r>  -12.2100    1.0000 </r>
       <r>   -4.9823    1.0000 </r>
       <r>   -4.8122    1.0000 </r>
       <r>   -3.8604    1.0000 </r>
       <r>   -3.7517    1.0000 </r>
       <r>   -3.7004    1.0000 </r>
       <r>   -3.5785    1.0000 </r>
       <r>   -2.8456    1.0000 </r>
       <r>   -2.7859    1.0000 </r>
       <r>   -1.7771    1.0000 </r>
       <r>   -1.7700    1.0000 </r>
       <r>   -1.3744    1.0000 </r>
       <r>   -1.1201    1.0000 </r>
       <r>   -0.8348    1.0000 </r>
       <r>   -0.7693    1.0000 </r>
       <r>    1.8626   -0.0000 </r>
       <r>    2.0814   -0.0000 </r>
       <r>    2.2946   -0.0000 </r>
       <r>    2.3886   -0.0000 </r>
       <r>    2.7552   -0.0000 </r>
       <r>    2.9744   -0.0000 </r>
       <r>    3.9051    0.0000 </r>
       <r>    3.9364    0.0000 </r>
       <r>    6.7755    0.0000 </r>
       <r>    7.0840    0.0000 </r>
       <r>    7.7728    0.0000 </r>
       <r>    8.4484    0.0000 </r>
      </set>
      <set comment="kpoint 36">
       <r>  -35.0371    1.0000 </r>
       <r>  -35.0328    1.0000 </r>
       <r>  -34.9211    1.0000 </r>
       <r>  -34.9164    1.0000 </r>
       <r>  -34.8746    1.0000 </r>
       <r>  -34.8701    1.0000 </r>
       <r>  -12.6323    1.0000 </r>
       <r>  -12.5848    1.0000 </r>
       <r>  -12.1289    1.0000 </r>
       <r>  -12.0719    1.0000 </r>
       <r>   -5.0090    1.0000 </r>
       <r>   -4.9048    1.0000 </r>
       <r>   -4.0851    1.0000 </r>
       <r>   -4.0349    1.0000 </r>
       <r>   -3.7791    1.0000 </r>
       <r>   -3.6278    1.0000 </r>
[...]
       <r>    -2.1161     2.2049    18.6153 </r>
       <r>    -1.9537     3.8873    19.2465 </r>
       <r>    -1.7913     3.2256    19.7703 </r>
       <r>    -1.6290     3.5493    20.3466 </r>
       <r>    -1.4666     2.7126    20.7871 </r>
       <r>    -1.3042     2.9567    21.2673 </r>
       <r>    -1.1418     1.7554    21.5523 </r>
       <r>    -0.9794     1.6157    21.8147 </r>
       <r>    -0.8170     3.1352    22.3238 </r>
       <r>    -0.6546     3.0778    22.8236 </r>
       <r>    -0.4922     2.4659    23.2240 </r>
       <r>    -0.3299     2.5886    23.6444 </r>
       <r>    -0.1675     1.1072    23.8242 </r>
       <r>    -0.0051     0.7643    23.9483 </r>
       <r>     0.1573     0.1756    23.9768 </r>
       <r>     0.3197     0.1479    24.0008 </r>
       <r>     0.4821    -0.0050    24.0000 </r>
       <r>     0.6445    -0.0001    24.0000 </r>
       <r>     0.8069    -0.0000    24.0000 </r>
       <r>     0.9692    -0.0000    24.0000 </r>
       <r>     1.1316    -0.0000    24.0000 </r>
       <r>     1.2940    -0.0000    24.0000 </r>
       <r>     1.4564    -0.0007    23.9999 </r>
       <r>     1.6188    -0.0097    23.9983 </r>
       <r>     1.7812     0.7077    24.1132 </r>
       <r>     1.9436     1.7571    24.3986 </r>
       <r>     2.1060     4.4191    25.1162 </r>
       <r>     2.2683     4.5145    25.8493 </r>
       <r>     2.4307     4.0716    26.5104 </r>
       <r>     2.5931     5.2451    27.3622 </r>
       <r>     2.7555     3.9740    28.0075 </r>
       <r>     2.9179     3.1303    28.5158 </r>
       <r>     3.0803     2.5484    28.9296 </r>
       <r>     3.2427     2.9938    29.4158 </r>
       <r>     3.4051     1.7799    29.7048 </r>
       <r>     3.5674     1.8691    30.0084 </r>
       <r>     3.7298     1.4611    30.2456 </r>
       <r>     3.8922     1.2581    30.4499 </r>
       <r>     4.0546     2.0749    30.7869 </r>
       <r>     4.2170     2.9903    31.2724 </r>
       <r>     4.3794     2.0166    31.5999 </r>
       <r>     4.5418     1.2767    31.8072 </r>
       <r>     4.7042     0.9079    31.9547 </r>
       <r>     4.8665     0.2846    32.0009 </r>
       <r>     5.0289    -0.0051    32.0000 </r>
       <r>     5.1913    -0.0016    31.9998 </r>
       <r>     5.3537     0.0228    32.0035 </r>
       <r>     5.5161     0.2163    32.0386 </r>
       <r>     5.6785     0.0988    32.0546 </r>
       <r>     5.8409     0.4085    32.1210 </r>
       <r>     6.0033     0.2953    32.1689 </r>
       <r>     6.1656     0.7549    32.2915 </r>
       <r>     6.3280     0.7006    32.4053 </r>
       <r>     6.4904     0.8509    32.5435 </r>
       <r>     6.6528     1.3329    32.7599 </r>
       <r>     6.8152     1.1261    32.9428 </r>
       <r>     6.9776     1.7429    33.2258 </r>
       <r>     7.1400     1.7823    33.5152 </r>
       <r>     7.3024     1.3079    33.7276 </r>
       <r>     7.4647     1.6085    33.9888 </r>
       <r>     7.6271     1.5833    34.2459 </r>
       <r>     7.7895     1.6386    34.5120 </r>
       <r>     7.9519     0.9325    34.6634 </r>
       <r>     8.1143     1.2904    34.8730 </r>
       <r>     8.2767     2.4259    35.2669 </r>
       <r>     8.4391     1.7046    35.5437 </r>
       <r>     8.6015     1.1557    35.7314 </r>
       <r>     8.7638     0.8923    35.8763 </r>
       <r>     8.9262     0.5760    35.9698 </r>
       <r>     9.0886     0.1399    35.9925 </r>
       <r>     9.2510     0.0482    36.0004 </r>
       <r>     9.4134    -0.0023    36.0000 </r>
       <r>     9.5758    -0.0000    36.0000 </r>
       <r>     9.7382    -0.0000    36.0000 </r>
       <r>     9.9006     0.0000    36.0000 </r>
       <r>    10.0629     0.0000    36.0000 </r>
       <r>    10.2253     0.0000    36.0000 </r>
       <r>    10.3877     0.0000    36.0000 </r>
       <r>    10.5501     0.0000    36.0000 </r>
       <r>    10.7125     0.0000    36.0000 </r>
       <r>    10.8749     0.0000    36.0000 </r>
       <r>    11.0373     0.0000    36.0000 </r>
       <r>    11.1997     0.0000    36.0000 </r>
       <r>    11.3620     0.0000    36.0000 </r>
      </set>
      <set comment="spin 2">
       <r>   -37.3542     0.0000     0.0000 </r>
       <r>   -37.1918     0.0000     0.0000 </r>
       <r>   -37.0294     0.0000     0.0000 </r>
       <r>   -36.8670     0.0000     0.0000 </r>
       <r>   -36.7046     0.0000     0.0000 </r>
       <r>   -36.5423     0.0000     0.0000 </r>
       <r>   -36.3799     0.0000     0.0000 </r>
       <r>   -36.2175     0.0000     0.0000 </r>
       <r>   -36.0551    -0.0000    -0.0000 </r>
       <r>   -35.8927    -0.0000    -0.0000 </r>
       <r>   -35.7303    -0.0000    -0.0000 </r>
       <r>   -35.5679    -0.0000    -0.0000 </r>
       <r>   -35.4055    -0.0008    -0.0001 </r>
       <r>   -35.2432    -0.1890    -0.0308 </r>
       <r>   -35.0808     4.1759     0.6473 </r>
       <r>   -34.9184    15.3672     3.1427 </r>
       <r>   -34.7560    17.6339     6.0063 </r>
       <r>   -34.5936    -0.0137     6.0040 </r>
       <r>   -34.4312    -0.0248     6.0000 </r>
       <r>   -34.2688    -0.0000     6.0000 </r>
       <r>   -34.1064    -0.0000     6.0000 </r>
       <r>   -33.9441     0.0000     6.0000 </r>
       <r>   -33.7817     0.0000     6.0000 </r>
       <r>   -33.6193     0.0000     6.0000 </r>
       <r>   -33.4569     0.0000     6.0000 </r>
       <r>   -33.2945     0.0000     6.0000 </r>
       <r>   -33.1321     0.0000     6.0000 </r>
       <r>   -32.9697     0.0000     6.0000 </r>
       <r>   -32.8073     0.0000     6.0000 </r>
       <r>   -32.6450     0.0000     6.0000 </r>
       <r>   -32.4826     0.0000     6.0000 </r>
       <r>   -32.3202     0.0000     6.0000 </r>
       <r>   -32.1578     0.0000     6.0000 </r>
       <r>   -31.9954     0.0000     6.0000 </r>
       <r>   -31.8330     0.0000     6.0000 </r>
       <r>   -31.6706     0.0000     6.0000 </r>
       <r>   -31.5082     0.0000     6.0000 </r>
       <r>   -31.3459     0.0000     6.0000 </r>
       <r>   -31.1835     0.0000     6.0000 </r>
       <r>   -31.0211     0.0000     6.0000 </r>
       <r>   -30.8587     0.0000     6.0000 </r>
       <r>   -30.6963     0.0000     6.0000 </r>
       <r>   -30.5339     0.0000     6.0000 </r>
       <r>   -30.3715     0.0000     6.0000 </r>
       <r>   -30.2092     0.0000     6.0000 </r>
       <r>   -30.0468     0.0000     6.0000 </r>
       <r>   -29.8844     0.0000     6.0000 </r>
       <r>   -29.7220     0.0000     6.0000 </r>
       <r>   -29.5596     0.0000     6.0000 </r>
       <r>   -29.3972     0.0000     6.0000 </r>
       <r>   -29.2348     0.0000     6.0000 </r>
       <r>   -29.0724     0.0000     6.0000 </r>
       <r>   -28.9101     0.0000     6.0000 </r>
       <r>   -28.7477     0.0000     6.0000 </r>
       <r>   -28.5853     0.0000     6.0000 </r>
       <r>   -28.4229     0.0000     6.0000 </r>
       <r>   -28.2605     0.0000     6.0000 </r>
       <r>   -28.0981     0.0000     6.0000 </r>
       <r>   -27.9357     0.0000     6.0000 </r>
       <r>   -27.7733     0.0000     6.0000 </r>
       <r>   -27.6110     0.0000     6.0000 </r>
       <r>   -27.4486     0.0000     6.0000 </r>
       <r>   -27.2862     0.0000     6.0000 </r>
       <r>   -27.1238     0.0000     6.0000 </r>
       <r>   -26.9614     0.0000     6.0000 </r>
       <r>   -26.7990     0.0000     6.0000 </r>
       <r>   -26.6366     0.0000     6.0000 </r>
       <r>   -26.4742     0.0000     6.0000 </r>
       <r>   -26.3119     0.0000     6.0000 </r>
       <r>   -26.1495     0.0000     6.0000 </r>
       <r>   -25.9871     0.0000     6.0000 </r>
       <r>   -25.8247     0.0000     6.0000 </r>
       <r>   -25.6623     0.0000     6.0000 </r>
       <r>   -25.4999     0.0000     6.0000 </r>
       <r>   -25.3375     0.0000     6.0000 </r>
       <r>   -25.1751     0.0000     6.0000 </r>
       <r>   -25.0128     0.0000     6.0000 </r>
       <r>   -24.8504     0.0000     6.0000 </r>
       <r>   -24.6880     0.0000     6.0000 </r>
       <r>   -24.5256     0.0000     6.0000 </r>
       <r>   -24.3632     0.0000     6.0000 </r>
       <r>   -24.2008     0.0000     6.0000 </r>
       <r>   -24.0384     0.0000     6.0000 </r>
       <r>   -23.8760     0.0000     6.0000 </r>
       <r>   -23.7137     0.0000     6.0000 </r>
       <r>   -23.5513     0.0000     6.0000 </r>
       <r>   -23.3889     0.0000     6.0000 </r>
       <r>   -23.2265     0.0000     6.0000 </r>
       <r>   -23.0641     0.0000     6.0000 </r>
       <r>   -22.9017     0.0000     6.0000 </r>
       <r>   -22.7393     0.0000     6.0000 </r>
       <r>   -22.5769     0.0000     6.0000 </r>
       <r>   -22.4146     0.0000     6.0000 </r>
       <r>   -22.2522     0.0000     6.0000 </r>
       <r>   -22.0898     0.0000     6.0000 </r>
       <r>   -21.9274     0.0000     6.0000 </r>
       <r>   -21.7650     0.0000     6.0000 </r>
       <r>   -21.6026     0.0000     6.0000 </r>
       <r>   -21.4402     0.0000     6.0000 </r>
       <r>   -21.2778     0.0000     6.0000 </r>
       <r>   -21.1155     0.0000     6.0000 </r>
       <r>   -20.9531     0.0000     6.0000 </r>
       <r>   -20.7907     0.0000     6.0000 </r>
       <r>   -20.6283     0.0000     6.0000 </r>
       <r>   -20.4659     0.0000     6.0000 </r>
       <r>   -20.3035     0.0000     6.0000 </r>
       <r>   -20.1411     0.0000     6.0000 </r>
       <r>   -19.9787     0.0000     6.0000 </r>
       <r>   -19.8164     0.0000     6.0000 </r>
       <r>   -19.6540     0.0000     6.0000 </r>
       <r>   -19.4916     0.0000     6.0000 </r>
       <r>   -19.3292     0.0000     6.0000 </r>
       <r>   -19.1668     0.0000     6.0000 </r>
       <r>   -19.0044     0.0000     6.0000 </r>
       <r>   -18.8420     0.0000     6.0000 </r>
       <r>   -18.6796     0.0000     6.0000 </r>
       <r>   -18.5173     0.0000     6.0000 </r>
       <r>   -18.3549     0.0000     6.0000 </r>
       <r>   -18.1925     0.0000     6.0000 </r>
       <r>   -18.0301     0.0000     6.0000 </r>
       <r>   -17.8677     0.0000     6.0000 </r>
       <r>   -17.7053     0.0000     6.0000 </r>
       <r>   -17.5429     0.0000     6.0000 </r>
       <r>   -17.3805     0.0000     6.0000 </r>
       <r>   -17.2182     0.0000     6.0000 </r>
       <r>   -17.0558     0.0000     6.0000 </r>
       <r>   -16.8934     0.0000     6.0000 </r>
       <r>   -16.7310     0.0000     6.0000 </r>
       <r>   -16.5686     0.0000     6.0000 </r>
       <r>   -16.4062     0.0000     6.0000 </r>
       <r>   -16.2438     0.0000     6.0000 </r>
       <r>   -16.0814     0.0000     6.0000 </r>
       <r>   -15.9191     0.0000     6.0000 </r>
       <r>   -15.7567     0.0000     6.0000 </r>
       <r>   -15.5943     0.0000     6.0000 </r>
       <r>   -15.4319     0.0000     6.0000 </r>
       <r>   -15.2695     0.0000     6.0000 </r>
       <r>   -15.1071     0.0000     6.0000 </r>
       <r>   -14.9447     0.0000     6.0000 </r>
       <r>   -14.7823    -0.0000     6.0000 </r>
       <r>   -14.6200    -0.0000     6.0000 </r>
       <r>   -14.4576    -0.0000     6.0000 </r>
       <r>   -14.2952    -0.0000     6.0000 </r>
       <r>   -14.1328    -0.0008     5.9999 </r>
       <r>   -13.9704     0.0039     6.0005 </r>
       <r>   -13.8080     0.3747     6.0614 </r>
       <r>   -13.6456     0.5041     6.1432 </r>
       <r>   -13.4832     0.4928     6.2232 </r>
       <r>   -13.3209     0.6873     6.3348 </r>
       <r>   -13.1585     0.5723     6.4278 </r>
       <r>   -12.9961     0.5055     6.5099 </r>
       <r>   -12.8337     0.9461     6.6635 </r>
       <r>   -12.6713     0.5016     6.7450 </r>
       <r>   -12.5089     2.2660     7.1129 </r>
       <r>   -12.3465     2.0297     7.4425 </r>
       <r>   -12.1841     3.4377     8.0008 </r>
       <r>   -12.0218     4.1046     8.6673 </r>
       <r>   -11.8594     5.7856     9.6068 </r>
       <r>   -11.6970     2.4739    10.0085 </r>
       <r>   -11.5346    -0.0505    10.0003 </r>
       <r>   -11.3722    -0.0020    10.0000 </r>
       <r>   -11.2098    -0.0000    10.0000 </r>
       <r>   -11.0474    -0.0000    10.0000 </r>
       <r>   -10.8850     0.0000    10.0000 </r>
       <r>   -10.7227     0.0000    10.0000 </r>
       <r>   -10.5603     0.0000    10.0000 </r>
       <r>   -10.3979     0.0000    10.0000 </r>
       <r>   -10.2355     0.0000    10.0000 </r>
       <r>   -10.0731     0.0000    10.0000 </r>
       <r>    -9.9107     0.0000    10.0000 </r>
       <r>    -9.7483     0.0000    10.0000 </r>
       <r>    -9.5859     0.0000    10.0000 </r>
       <r>    -9.4236     0.0000    10.0000 </r>
       <r>    -9.2612     0.0000    10.0000 </r>
       <r>    -9.0988     0.0000    10.0000 </r>
       <r>    -8.9364     0.0000    10.0000 </r>
       <r>    -8.7740     0.0000    10.0000 </r>
       <r>    -8.6116     0.0000    10.0000 </r>
       <r>    -8.4492     0.0000    10.0000 </r>
       <r>    -8.2868     0.0000    10.0000 </r>
       <r>    -8.1245     0.0000    10.0000 </r>
       <r>    -7.9621     0.0000    10.0000 </r>
       <r>    -7.7997     0.0000    10.0000 </r>
       <r>    -7.6373     0.0000    10.0000 </r>
       <r>    -7.4749     0.0000    10.0000 </r>
       <r>    -7.3125     0.0000    10.0000 </r>
       <r>    -7.1501     0.0000    10.0000 </r>
       <r>    -6.9877     0.0000    10.0000 </r>
       <r>    -6.8254     0.0000    10.0000 </r>
       <r>    -6.6630     0.0000    10.0000 </r>
       <r>    -6.5006    -0.0000    10.0000 </r>
       <r>    -6.3382    -0.0000    10.0000 </r>
       <r>    -6.1758    -0.0000    10.0000 </r>
       <r>    -6.0134    -0.0000    10.0000 </r>
       <r>    -5.8510    -0.0028     9.9995 </r>
       <r>    -5.6886     0.0378    10.0057 </r>
       <r>    -5.5263     1.0354    10.1738 </r>
       <r>    -5.3639     1.5011    10.4176 </r>
       <r>    -5.2015     2.4515    10.8157 </r>
       <r>    -5.0391     3.5125    11.3861 </r>
       <r>    -4.8767     4.5485    12.1247 </r>
       <r>    -4.7143     1.9515    12.4416 </r>
       <r>    -4.5519     2.7557    12.8891 </r>
       <r>    -4.3895     0.4838    12.9676 </r>
       <r>    -4.2272     0.6122    13.0670 </r>
       <r>    -4.0648     0.9810    13.2263 </r>
       <r>    -3.9024     2.4571    13.6253 </r>
       <r>    -3.7400     5.0201    14.4405 </r>
       <r>    -3.5776     3.8575    15.0670 </r>
       <r>    -3.4152     1.9692    15.3867 </r>
       <r>    -3.2528     1.5421    15.6372 </r>
       <r>    -3.0904     5.1138    16.4676 </r>
       <r>    -2.9281     4.3921    17.1808 </r>
       <r>    -2.7657     2.3936    17.5695 </r>
       <r>    -2.6033     1.0806    17.7449 </r>
       <r>    -2.4409     1.5212    17.9920 </r>
       <r>    -2.2785     1.6336    18.2573 </r>
       <r>    -2.1161     2.2127    18.6166 </r>
       <r>    -1.9537     3.8885    19.2480 </r>
       <r>    -1.7913     3.2246    19.7717 </r>
       <r>    -1.6290     3.5532    20.3487 </r>
       <r>    -1.4666     2.7118    20.7890 </r>
       <r>    -1.3042     2.9466    21.2675 </r>
       <r>    -1.1418     1.7656    21.5542 </r>
       <r>    -0.9794     1.6122    21.8160 </r>
       <r>    -0.8170     3.1323    22.3247 </r>
       <r>    -0.6546     3.0718    22.8235 </r>
       <r>    -0.4922     2.4674    23.2242 </r>
       <r>    -0.3299     2.5886    23.6445 </r>
       <r>    -0.1675     1.1065    23.8242 </r>
       <r>    -0.0051     0.7632    23.9481 </r>
       <r>     0.1573     0.1760    23.9767 </r>
       <r>     0.3197     0.1484    24.0008 </r>
       <r>     0.4821    -0.0050    24.0000 </r>
       <r>     0.6445    -0.0001    24.0000 </r>
       <r>     0.8069    -0.0000    24.0000 </r>
       <r>     0.9692    -0.0000    24.0000 </r>
       <r>     1.1316    -0.0000    24.0000 </r>
       <r>     1.2940    -0.0000    24.0000 </r>
       <r>     1.4564    -0.0007    23.9999 </r>
       <r>     1.6188    -0.0101    23.9982 </r>
       <r>     1.7812     0.7044    24.1126 </r>
       <r>     1.9436     1.7551    24.3976 </r>
       <r>     2.1060     4.4259    25.1164 </r>
       <r>     2.2683     4.5205    25.8504 </r>
       <r>     2.4307     4.0844    26.5137 </r>
       <r>     2.5931     5.2256    27.3623 </r>
       <r>     2.7555     3.9791    28.0084 </r>
       <r>     2.9179     3.1288    28.5165 </r>
       <r>     3.0803     2.5508    28.9307 </r>
       <r>     3.2427     2.9936    29.4168 </r>
       <r>     3.4051     1.7780    29.7056 </r>
       <r>     3.5674     1.8711    30.0094 </r>
       <r>     3.7298     1.4582    30.2462 </r>
       <r>     3.8922     1.2606    30.4509 </r>
       <r>     4.0546     2.0738    30.7877 </r>
       <r>     4.2170     2.9942    31.2739 </r>
       <r>     4.3794     2.0148    31.6011 </r>
       <r>     4.5418     1.2724    31.8077 </r>
       <r>     4.7042     0.9072    31.9550 </r>
       <r>     4.8665     0.2825    32.0009 </r>
       <r>     5.0289    -0.0053    32.0000 </r>
       <r>     5.1913    -0.0003    32.0000 </r>
       <r>     5.3537    -0.0004    31.9999 </r>
       <r>     5.5161     0.0696    32.0112 </r>
       <r>     5.6785     0.1883    32.0418 </r>
       <r>     5.8409     0.2612    32.0842 </r>
       <r>     6.0033     0.5350    32.1711 </r>
       <r>     6.1656     0.4307    32.2410 </r>
       <r>     6.3280     0.9235    32.3910 </r>
       <r>     6.4904     0.9403    32.5437 </r>
       <r>     6.6528     1.2870    32.7527 </r>
       <r>     6.8152     0.8937    32.8978 </r>
       <r>     6.9776     1.9333    33.2118 </r>
       <r>     7.1400     1.7830    33.5013 </r>
       <r>     7.3024     1.1425    33.6868 </r>
       <r>     7.4647     1.6453    33.9540 </r>
       <r>     7.6271     1.7940    34.2453 </r>
       <r>     7.7895     1.2363    34.4461 </r>
       <r>     7.9519     1.2784    34.6537 </r>
       <r>     8.1143     1.0556    34.8251 </r>
       <r>     8.2767     2.6380    35.2534 </r>
       <r>     8.4391     2.0785    35.5910 </r>
       <r>     8.6015     0.9213    35.7406 </r>
       <r>     8.7638     0.6296    35.8428 </r>
       <r>     8.9262     0.6706    35.9517 </r>
       <r>     9.0886     0.2272    35.9886 </r>
       <r>     9.2510     0.0727    36.0004 </r>
       <r>     9.4134    -0.0025    36.0000 </r>
       <r>     9.5758    -0.0000    36.0000 </r>
       <r>     9.7382    -0.0000    36.0000 </r>
       <r>     9.9006    -0.0000    36.0000 </r>
       <r>    10.0629     0.0000    36.0000 </r>
       <r>    10.2253     0.0000    36.0000 </r>
       <r>    10.3877     0.0000    36.0000 </r>
       <r>    10.5501     0.0000    36.0000 </r>
       <r>    10.7125     0.0000    36.0000 </r>
       <r>    10.8749     0.0000    36.0000 </r>
       <r>    11.0373     0.0000    36.0000 </r>
       <r>    11.1997     0.0000    36.0000 </r>
       <r>    11.3620     0.0000    36.0000 </r>
      </set>
     </set>
    </array>
   </total>
  </dos>
 </calculation>
 <structure name="finalpos" >
  <crystal>
   <varray name="basis" >
    <v>       3.19031700       0.00000000       0.00000000 </v>
    <v>      -1.59515800       2.76289700       0.00000000 </v>
    <v>       0.00000000       0.00000000      23.14049200 </v>
   </varray>
   <i name="volume">    203.97226633 </i>
   <varray name="rec_basis" >
    <v>       0.31344848       0.18096941       0.00000000 </v>
    <v>       0.00000000       0.36193894       0.00000000 </v>
    <v>       0.00000000       0.00000000       0.04321429 </v>
   </varray>
  </crystal>
  <varray name="positions" >
   <v>       0.66666700       0.33333300       0.06785900 </v>
   <v>       0.33333300       0.66666700       0.00000000 </v>
   <v>       0.33333300       0.66666700       0.13571500 </v>
   <v>       0.80952414       0.04761871       0.35482300 </v>
   <v>       0.47619014       0.38095271       0.28696500 </v>
   <v>       0.47619014       0.38095271       0.42267900 </v>
  </varray>
 </structure>
</modeling>
