  24  24   0   0
  0.4176334E+02  0.3540400E-09  0.1044544E-08  0.2750143E-08  0.5000000E-15
  1.000000000000000E-004
  CAR 
 unknown system                          
      4.21704397    -14.72841243  301     -0.20074493      1.00000000
    -14.728  0.0000E+00  0.0000E+00
    -14.665  0.0000E+00  0.0000E+00
    -14.602  0.0000E+00  0.0000E+00
    -14.539  0.0000E+00  0.0000E+00
    -14.476  0.0000E+00  0.0000E+00
    -14.413  0.0000E+00  0.0000E+00
    -14.350  0.0000E+00  0.0000E+00
    -14.286  0.1048E-14  0.6619E-16
    -14.223  0.9475E-12  0.5991E-13
    -14.160  0.3992E-09  0.2527E-10
    -14.097  0.7880E-07  0.5001E-08
    -14.034  0.7376E-05  0.4708E-06
    -13.971  0.3329E-03  0.2150E-04
    -13.907  0.7419E-02  0.4900E-03
    -13.844  0.8434E-01  0.5816E-02
    -13.781  0.5104E+00  0.3805E-01
    -13.718  0.1721E+01  0.1467E+00
    -13.655  0.3367E+01  0.3594E+00
    -13.592  0.4060E+01  0.6158E+00
    -13.529  0.3691E+01  0.8489E+00
    -13.465  0.3575E+01  0.1075E+01
    -13.402  0.3423E+01  0.1291E+01
    -13.339  0.2592E+01  0.1454E+01
    -13.276  0.1918E+01  0.1576E+01
    -13.213  0.2234E+01  0.1717E+01
    -13.150  0.3496E+01  0.1937E+01
    -13.086  0.4327E+01  0.2211E+01
    -13.023  0.3814E+01  0.2452E+01
    -12.960  0.2809E+01  0.2629E+01
    -12.897  0.2402E+01  0.2781E+01
    -12.834  0.3121E+01  0.2978E+01
    -12.771  0.5010E+01  0.3294E+01
    -12.708  0.6995E+01  0.3736E+01
    -12.644  0.7390E+01  0.4203E+01
    -12.581  0.6170E+01  0.4592E+01
    -12.518  0.4822E+01  0.4897E+01
    -12.455  0.4601E+01  0.5187E+01
    -12.392  0.5258E+01  0.5519E+01
    -12.329  0.5928E+01  0.5894E+01
    -12.266  0.6641E+01  0.6313E+01
    -12.202  0.7795E+01  0.6805E+01
    -12.139  0.8578E+01  0.7347E+01
    -12.076  0.7129E+01  0.7797E+01
    -12.013  0.4998E+01  0.8113E+01
    -11.950  0.4869E+01  0.8420E+01
    -11.887  0.6232E+01  0.8814E+01
    -11.823  0.7701E+01  0.9300E+01
    -11.760  0.8948E+01  0.9865E+01
    -11.697  0.9976E+01  0.1050E+02
    -11.634  0.1022E+02  0.1114E+02
    -11.571  0.9547E+01  0.1174E+02
    -11.508  0.8849E+01  0.1230E+02
    -11.445  0.8675E+01  0.1285E+02
    -11.381  0.8421E+01  0.1338E+02
    -11.318  0.7262E+01  0.1384E+02
    -11.255  0.6951E+01  0.1428E+02
    -11.192  0.9182E+01  0.1486E+02
    -11.129  0.1183E+02  0.1561E+02
    -11.066  0.1225E+02  0.1638E+02
    -11.002  0.1198E+02  0.1714E+02
    -10.939  0.1217E+02  0.1791E+02
    -10.876  0.1125E+02  0.1862E+02
    -10.813  0.1026E+02  0.1926E+02
    -10.750  0.9759E+01  0.1988E+02
    -10.687  0.7919E+01  0.2038E+02
    -10.624  0.6580E+01  0.2080E+02
    -10.560  0.7102E+01  0.2124E+02
    -10.497  0.6589E+01  0.2166E+02
    -10.434  0.4554E+01  0.2195E+02
    -10.371  0.3433E+01  0.2216E+02
    -10.308  0.4164E+01  0.2243E+02
    -10.245  0.4823E+01  0.2273E+02
    -10.182  0.3800E+01  0.2297E+02
    -10.118  0.2581E+01  0.2313E+02
    -10.055  0.2946E+01  0.2332E+02
     -9.992  0.4159E+01  0.2358E+02
     -9.929  0.3928E+01  0.2383E+02
     -9.866  0.2238E+01  0.2397E+02
     -9.803  0.1387E+01  0.2406E+02
     -9.739  0.1668E+01  0.2417E+02
     -9.676  0.1466E+01  0.2426E+02
     -9.613  0.6643E+00  0.2430E+02
     -9.550  0.3309E+00  0.2432E+02
     -9.487  0.7483E+00  0.2437E+02
     -9.424  0.1414E+01  0.2446E+02
     -9.361  0.1446E+01  0.2455E+02
     -9.297  0.8052E+00  0.2460E+02
     -9.234  0.3661E+00  0.2462E+02
     -9.171  0.6462E+00  0.2466E+02
     -9.108  0.1411E+01  0.2475E+02
     -9.045  0.1943E+01  0.2488E+02
     -8.982  0.2343E+01  0.2502E+02
     -8.918  0.3343E+01  0.2523E+02
     -8.855  0.4387E+01  0.2551E+02
     -8.792  0.4749E+01  0.2581E+02
     -8.729  0.5080E+01  0.2613E+02
     -8.666  0.5889E+01  0.2650E+02
     -8.603  0.6664E+01  0.2693E+02
     -8.540  0.6693E+01  0.2735E+02
     -8.476  0.5622E+01  0.2770E+02
     -8.413  0.4439E+01  0.2798E+02
     -8.350  0.4248E+01  0.2825E+02
     -8.287  0.4733E+01  0.2855E+02
     -8.224  0.5244E+01  0.2888E+02
     -8.161  0.5229E+01  0.2921E+02
     -8.098  0.4531E+01  0.2950E+02
     -8.034  0.3761E+01  0.2974E+02
     -7.971  0.3666E+01  0.2997E+02
     -7.908  0.3726E+01  0.3020E+02
     -7.845  0.3321E+01  0.3041E+02
     -7.782  0.3894E+01  0.3066E+02
     -7.719  0.6131E+01  0.3105E+02
     -7.655  0.7916E+01  0.3154E+02
     -7.592  0.7815E+01  0.3204E+02
     -7.529  0.7404E+01  0.3251E+02
     -7.466  0.7649E+01  0.3299E+02
     -7.403  0.7772E+01  0.3348E+02
     -7.340  0.7315E+01  0.3394E+02
     -7.277  0.6222E+01  0.3433E+02
     -7.213  0.4973E+01  0.3465E+02
     -7.150  0.4772E+01  0.3495E+02
     -7.087  0.5680E+01  0.3531E+02
     -7.024  0.7211E+01  0.3576E+02
     -6.961  0.9304E+01  0.3635E+02
     -6.898  0.1156E+02  0.3708E+02
     -6.834  0.1360E+02  0.3794E+02
     -6.771  0.1311E+02  0.3877E+02
     -6.708  0.9846E+01  0.3939E+02
     -6.645  0.7328E+01  0.3985E+02
     -6.582  0.6193E+01  0.4024E+02
     -6.519  0.5176E+01  0.4057E+02
     -6.456  0.4084E+01  0.4083E+02
     -6.392  0.4148E+01  0.4109E+02
     -6.329  0.5330E+01  0.4143E+02
     -6.266  0.5354E+01  0.4177E+02
     -6.203  0.4227E+01  0.4203E+02
     -6.140  0.4397E+01  0.4231E+02
     -6.077  0.5537E+01  0.4266E+02
     -6.014  0.5437E+01  0.4300E+02
     -5.950  0.4780E+01  0.4331E+02
     -5.887  0.5136E+01  0.4363E+02
     -5.824  0.5631E+01  0.4399E+02
     -5.761  0.5553E+01  0.4434E+02
     -5.698  0.5522E+01  0.4469E+02
     -5.635  0.5356E+01  0.4502E+02
     -5.571  0.4593E+01  0.4531E+02
     -5.508  0.4199E+01  0.4558E+02
     -5.445  0.4512E+01  0.4586E+02
     -5.382  0.4714E+01  0.4616E+02
     -5.319  0.4495E+01  0.4645E+02
     -5.256  0.3752E+01  0.4668E+02
     -5.193  0.3589E+01  0.4691E+02
     -5.129  0.4602E+01  0.4720E+02
     -5.066  0.6463E+01  0.4761E+02
     -5.003  0.8493E+01  0.4814E+02
     -4.940  0.9645E+01  0.4875E+02
     -4.877  0.1021E+02  0.4940E+02
     -4.814  0.1104E+02  0.5010E+02
     -4.750  0.1155E+02  0.5082E+02
     -4.687  0.1129E+02  0.5154E+02
     -4.624  0.1140E+02  0.5226E+02
     -4.561  0.1265E+02  0.5306E+02
     -4.498  0.1409E+02  0.5395E+02
     -4.435  0.1476E+02  0.5488E+02
     -4.372  0.1427E+02  0.5578E+02
     -4.308  0.1341E+02  0.5663E+02
     -4.245  0.1346E+02  0.5748E+02
     -4.182  0.1434E+02  0.5838E+02
     -4.119  0.1425E+02  0.5928E+02
     -4.056  0.1186E+02  0.6003E+02
     -3.993  0.9489E+01  0.6063E+02
     -3.930  0.9886E+01  0.6125E+02
     -3.866  0.1166E+02  0.6199E+02
     -3.803  0.1214E+02  0.6276E+02
     -3.740  0.1249E+02  0.6355E+02
     -3.677  0.1386E+02  0.6442E+02
     -3.614  0.1472E+02  0.6535E+02
     -3.551  0.1472E+02  0.6628E+02
     -3.487  0.1437E+02  0.6719E+02
     -3.424  0.1348E+02  0.6804E+02
     -3.361  0.1336E+02  0.6888E+02
     -3.298  0.1490E+02  0.6982E+02
     -3.235  0.1685E+02  0.7089E+02
     -3.172  0.1773E+02  0.7201E+02
     -3.109  0.1653E+02  0.7305E+02
     -3.045  0.1417E+02  0.7395E+02
     -2.982  0.1269E+02  0.7475E+02
     -2.919  0.1313E+02  0.7558E+02
     -2.856  0.1518E+02  0.7654E+02
     -2.793  0.1679E+02  0.7760E+02
     -2.730  0.1731E+02  0.7869E+02
     -2.666  0.1732E+02  0.7978E+02
     -2.603  0.1601E+02  0.8079E+02
     -2.540  0.1449E+02  0.8171E+02
     -2.477  0.1413E+02  0.8260E+02
     -2.414  0.1444E+02  0.8351E+02
     -2.351  0.1502E+02  0.8446E+02
     -2.288  0.1581E+02  0.8546E+02
     -2.224  0.1682E+02  0.8652E+02
     -2.161  0.1813E+02  0.8767E+02
     -2.098  0.1839E+02  0.8883E+02
     -2.035  0.1715E+02  0.8991E+02
     -1.972  0.1622E+02  0.9094E+02
     -1.909  0.1613E+02  0.9196E+02
     -1.846  0.1542E+02  0.9293E+02
     -1.782  0.1367E+02  0.9379E+02
     -1.719  0.1185E+02  0.9454E+02
     -1.656  0.1061E+02  0.9521E+02
     -1.593  0.1111E+02  0.9591E+02
     -1.530  0.1246E+02  0.9670E+02
     -1.467  0.1240E+02  0.9748E+02
     -1.403  0.1143E+02  0.9820E+02
     -1.340  0.1049E+02  0.9887E+02
     -1.277  0.9990E+01  0.9950E+02
     -1.214  0.1028E+02  0.1001E+03
     -1.151  0.1049E+02  0.1008E+03
     -1.088  0.9922E+01  0.1014E+03
     -1.025  0.8658E+01  0.1020E+03
     -0.961  0.7130E+01  0.1024E+03
     -0.898  0.5968E+01  0.1028E+03
     -0.835  0.6255E+01  0.1032E+03
     -0.772  0.8267E+01  0.1037E+03
     -0.709  0.9066E+01  0.1043E+03
     -0.646  0.7210E+01  0.1048E+03
     -0.582  0.6143E+01  0.1051E+03
     -0.519  0.7023E+01  0.1056E+03
     -0.456  0.7670E+01  0.1061E+03
     -0.393  0.7505E+01  0.1065E+03
     -0.330  0.7068E+01  0.1070E+03
     -0.267  0.7393E+01  0.1075E+03
     -0.204  0.8227E+01  0.1080E+03
     -0.140  0.7764E+01  0.1085E+03
     -0.077  0.6227E+01  0.1089E+03
     -0.014  0.5166E+01  0.1092E+03
      0.049  0.5003E+01  0.1095E+03
      0.112  0.5029E+01  0.1098E+03
      0.175  0.4339E+01  0.1101E+03
      0.238  0.3065E+01  0.1103E+03
      0.302  0.2324E+01  0.1104E+03
      0.365  0.2007E+01  0.1106E+03
      0.428  0.1487E+01  0.1107E+03
      0.491  0.1292E+01  0.1107E+03
      0.554  0.1750E+01  0.1108E+03
      0.617  0.2329E+01  0.1110E+03
      0.681  0.2668E+01  0.1112E+03
      0.744  0.2865E+01  0.1113E+03
      0.807  0.2946E+01  0.1115E+03
      0.870  0.3193E+01  0.1117E+03
      0.933  0.3910E+01  0.1120E+03
      0.996  0.5354E+01  0.1123E+03
      1.059  0.7119E+01  0.1128E+03
      1.123  0.8114E+01  0.1133E+03
      1.186  0.8726E+01  0.1138E+03
      1.249  0.9363E+01  0.1144E+03
      1.312  0.9289E+01  0.1150E+03
      1.375  0.9087E+01  0.1156E+03
      1.438  0.9946E+01  0.1162E+03
      1.502  0.1071E+02  0.1169E+03
      1.565  0.1090E+02  0.1176E+03
      1.628  0.1171E+02  0.1183E+03
      1.691  0.1218E+02  0.1191E+03
      1.754  0.1124E+02  0.1198E+03
      1.817  0.9827E+01  0.1204E+03
      1.880  0.9490E+01  0.1210E+03
      1.944  0.1056E+02  0.1217E+03
      2.007  0.1195E+02  0.1224E+03
      2.070  0.1292E+02  0.1233E+03
      2.133  0.1307E+02  0.1241E+03
      2.196  0.1290E+02  0.1249E+03
      2.259  0.1344E+02  0.1257E+03
      2.322  0.1393E+02  0.1266E+03
      2.386  0.1326E+02  0.1275E+03
      2.449  0.1305E+02  0.1283E+03
      2.512  0.1415E+02  0.1292E+03
      2.575  0.1461E+02  0.1301E+03
      2.638  0.1363E+02  0.1310E+03
      2.701  0.1207E+02  0.1317E+03
      2.765  0.1134E+02  0.1324E+03
      2.828  0.1123E+02  0.1331E+03
      2.891  0.1010E+02  0.1338E+03
      2.954  0.8267E+01  0.1343E+03
      3.017  0.7293E+01  0.1348E+03
      3.080  0.6896E+01  0.1352E+03
      3.143  0.5920E+01  0.1356E+03
      3.207  0.4063E+01  0.1358E+03
      3.270  0.1957E+01  0.1360E+03
      3.333  0.5984E+00  0.1360E+03
      3.396  0.1071E+00  0.1360E+03
      3.459  0.1036E-01  0.1360E+03
      3.522  0.5073E-03  0.1360E+03
      3.586  0.1207E-04  0.1360E+03
      3.649  0.1361E-06  0.1360E+03
      3.712  0.7167E-09  0.1360E+03
      3.775  0.1748E-11  0.1360E+03
      3.838  0.2028E-14  0.1360E+03
      3.901  0.0000E+00  0.1360E+03
      3.964  0.0000E+00  0.1360E+03
      4.028  0.0000E+00  0.1360E+03
      4.091  0.0000E+00  0.1360E+03
      4.154  0.0000E+00  0.1360E+03
      4.217  0.0000E+00  0.1360E+03
