       N       E                     dE             d eps       ncg     rms          rms(c)
DAV:   1     0.485192825440E+03    0.48519E+03   -0.28635E+04  7368   0.790E+02
DAV:   2    -0.694887673032E+02   -0.55468E+03   -0.54060E+03  9736   0.188E+02
DAV:   3    -0.124766916183E+03   -0.55278E+02   -0.54499E+02  8844   0.615E+01
DAV:   4    -0.127178279819E+03   -0.24114E+01   -0.23983E+01 10816   0.139E+01
DAV:   5    -0.127238660985E+03   -0.60381E-01   -0.60329E-01 10072   0.215E+00    0.997E+00
DAV:   6    -0.125345940944E+03    0.18927E+01   -0.74246E+00  8680   0.586E+00    0.573E+00
DAV:   7    -0.125198293444E+03    0.14765E+00   -0.54963E+00  9072   0.542E+00    0.299E+00
DAV:   8    -0.125047662386E+03    0.15063E+00   -0.19337E+00  8752   0.347E+00    0.101E+00
DAV:   9    -0.125035787988E+03    0.11874E-01   -0.29804E-01  9128   0.148E+00    0.533E-01
DAV:  10    -0.125012815654E+03    0.22972E-01   -0.47689E-02  8952   0.613E-01    0.220E-01
DAV:  11    -0.125002055400E+03    0.10760E-01   -0.14563E-02  8944   0.336E-01    0.112E-01
DAV:  12    -0.124997873760E+03    0.41816E-02   -0.46630E-03  8952   0.170E-01    0.526E-02
DAV:  13    -0.124995099031E+03    0.27747E-02   -0.64989E-04  8896   0.718E-02    0.275E-02
DAV:  14    -0.124992785676E+03    0.23134E-02   -0.20171E-04  9232   0.432E-02    0.138E-02
DAV:  15    -0.124992012222E+03    0.77345E-03   -0.69197E-05  9008   0.231E-02    0.912E-03
DAV:  16    -0.124991873331E+03    0.13889E-03   -0.57680E-05  8128   0.194E-02    0.537E-03
DAV:  17    -0.124992456623E+03   -0.58329E-03   -0.13441E-04  8200   0.225E-02    0.308E-03
DAV:  18    -0.124992667644E+03   -0.21102E-03   -0.11928E-04  7600   0.181E-02    0.180E-03
DAV:  19    -0.124992666608E+03    0.10362E-05   -0.29612E-05  6976   0.121E-02    0.106E-03
DAV:  20    -0.124992725359E+03   -0.58752E-04   -0.94095E-06  6200   0.776E-03    0.695E-04
DAV:  21    -0.124992699662E+03    0.25698E-04   -0.37089E-05  7032   0.109E-02    0.492E-04
DAV:  22    -0.124992687351E+03    0.12311E-04   -0.21247E-05  6512   0.114E-02    0.286E-04
DAV:  23    -0.124992624494E+03    0.62857E-04   -0.14619E-05  6640   0.932E-03    0.149E-04
DAV:  24    -0.124992617459E+03    0.70345E-05   -0.10804E-05  6688   0.914E-03    0.785E-05
DAV:  25    -0.124992595213E+03    0.22247E-04   -0.57054E-06  6548   0.739E-03    0.404E-05
DAV:  26    -0.124992596381E+03   -0.11682E-05   -0.28679E-06  5776   0.629E-03    0.216E-05
DAV:  27    -0.124992595492E+03    0.88904E-06   -0.22371E-06  6036   0.563E-03
   1 F= -.12499260E+03 E0= -.12497192E+03  d E =-.413414E-01
