<?xml version="1.0" encoding="ISO-8859-1"?>
<modeling>
 <generator>
  <i name="program" type="string">vasp </i>
  <i name="version" type="string">5.3.5  </i>
  <i name="subversion" type="string">31Mar14 (build Oct 29 2014 16:16:03) complex                          parallel </i>
  <i name="platform" type="string">Linux-UFHPC </i>
  <i name="date" type="string">2016 02 09 </i>
  <i name="time" type="string">18:03:35 </i>
 </generator>
 <incar>
  <i type="string" name="PREC">accurate</i>
  <i type="int" name="IBRION">     2</i>
  <i name="EDIFF">      0.00000100</i>
  <i type="int" name="NSW">     0</i>
  <i type="int" name="ISIF">     3</i>
  <i name="ENCUT">    300.00000000</i>
  <i type="string" name="LREAL"> Auto</i>
  <i type="int" name="ISMEAR">     0</i>
  <i name="SIGMA">      0.10000000</i>
  <i type="logical" name="LWAVE"> F  </i>
  <i type="logical" name="LCHARG"> F  </i>
  <i type="logical" name="LAECHG"> F  </i>
  <i type="string" name="GGA"> Bo</i>
  <i name="PARAM1">      0.18333333</i>
  <i name="PARAM2">      0.22000000</i>
  <i type="logical" name="LUSE_VDW"> T  </i>
  <i name="AGGAC">      0.00000000</i>
 </incar>
 <kpoints>
  <generation param="Gamma">
   <v type="int" name="divisions">      13        4        2 </v>
   <v name="usershift">      0.00000000       0.00000000       0.00000000 </v>
   <v name="genvec1">      0.07692308      -0.00000000       0.00000000 </v>
   <v name="genvec2">      0.00000000       0.25000000       0.00000000 </v>
   <v name="genvec3">      0.00000000       0.00000000       0.50000000 </v>
   <v name="shift">      0.00000000       0.00000000       0.00000000 </v>
  </generation>
  <varray name="kpointlist" >
   <v>       0.00000000       0.00000000       0.00000000 </v>
   <v>       0.07692308      -0.00000000       0.00000000 </v>
   <v>       0.15384615      -0.00000000       0.00000000 </v>
   <v>       0.23076923      -0.00000000       0.00000000 </v>
   <v>       0.30769231      -0.00000000       0.00000000 </v>
   <v>       0.38461538      -0.00000000       0.00000000 </v>
   <v>       0.46153846      -0.00000000       0.00000000 </v>
   <v>       0.00000000       0.25000000       0.00000000 </v>
   <v>       0.07692308       0.25000000       0.00000000 </v>
   <v>       0.15384615       0.25000000       0.00000000 </v>
   <v>       0.23076923       0.25000000       0.00000000 </v>
   <v>       0.30769231       0.25000000       0.00000000 </v>
   <v>       0.38461538       0.25000000       0.00000000 </v>
   <v>       0.46153846       0.25000000       0.00000000 </v>
   <v>      -0.46153846       0.25000000       0.00000000 </v>
   <v>      -0.38461538       0.25000000       0.00000000 </v>
   <v>      -0.30769231       0.25000000       0.00000000 </v>
   <v>      -0.23076923       0.25000000       0.00000000 </v>
   <v>      -0.15384615       0.25000000       0.00000000 </v>
   <v>      -0.07692308       0.25000000       0.00000000 </v>
   <v>       0.00000000       0.50000000       0.00000000 </v>
   <v>       0.07692308       0.50000000       0.00000000 </v>
   <v>       0.15384615       0.50000000       0.00000000 </v>
   <v>       0.23076923       0.50000000       0.00000000 </v>
   <v>       0.30769231       0.50000000       0.00000000 </v>
   <v>       0.38461538       0.50000000       0.00000000 </v>
   <v>       0.46153846       0.50000000       0.00000000 </v>
   <v>       0.00000000       0.00000000       0.50000000 </v>
   <v>       0.07692308      -0.00000000       0.50000000 </v>
   <v>       0.15384615      -0.00000000       0.50000000 </v>
   <v>       0.23076923      -0.00000000       0.50000000 </v>
   <v>       0.30769231      -0.00000000       0.50000000 </v>
   <v>       0.38461538      -0.00000000       0.50000000 </v>
   <v>       0.46153846      -0.00000000       0.50000000 </v>
   <v>       0.00000000       0.25000000       0.50000000 </v>
   <v>       0.07692308       0.25000000       0.50000000 </v>
   <v>       0.15384615       0.25000000       0.50000000 </v>
   <v>       0.23076923       0.25000000       0.50000000 </v>
   <v>       0.30769231       0.25000000       0.50000000 </v>
   <v>       0.38461538       0.25000000       0.50000000 </v>
   <v>       0.46153846       0.25000000       0.50000000 </v>
   <v>      -0.46153846       0.25000000       0.50000000 </v>
   <v>      -0.38461538       0.25000000       0.50000000 </v>
   <v>      -0.30769231       0.25000000       0.50000000 </v>
   <v>      -0.23076923       0.25000000       0.50000000 </v>
   <v>      -0.15384615       0.25000000       0.50000000 </v>
   <v>      -0.07692308       0.25000000       0.50000000 </v>
   <v>       0.00000000       0.50000000       0.50000000 </v>
   <v>       0.07692308       0.50000000       0.50000000 </v>
   <v>       0.15384615       0.50000000       0.50000000 </v>
   <v>       0.23076923       0.50000000       0.50000000 </v>
   <v>       0.30769231       0.50000000       0.50000000 </v>
   <v>       0.38461538       0.50000000       0.50000000 </v>
   <v>       0.46153846       0.50000000       0.50000000 </v>
  </varray>
  <varray name="weights" >
   <v>       0.00961538 </v>
   <v>       0.01923077 </v>
   <v>       0.01923077 </v>
   <v>       0.01923077 </v>
   <v>       0.01923077 </v>
   <v>       0.01923077 </v>
   <v>       0.01923077 </v>
   <v>       0.01923077 </v>
   <v>       0.01923077 </v>
   <v>       0.01923077 </v>
   <v>       0.01923077 </v>
   <v>       0.01923077 </v>
   <v>       0.01923077 </v>
   <v>       0.01923077 </v>
   <v>       0.01923077 </v>
   <v>       0.01923077 </v>
   <v>       0.01923077 </v>
   <v>       0.01923077 </v>
   <v>       0.01923077 </v>
   <v>       0.01923077 </v>
   <v>       0.00961538 </v>
   <v>       0.01923077 </v>
   <v>       0.01923077 </v>
   <v>       0.01923077 </v>
   <v>       0.01923077 </v>
   <v>       0.01923077 </v>
   <v>       0.01923077 </v>
   <v>       0.00961538 </v>
   <v>       0.01923077 </v>
   <v>       0.01923077 </v>
   <v>       0.01923077 </v>
   <v>       0.01923077 </v>
   <v>       0.01923077 </v>
   <v>       0.01923077 </v>
   <v>       0.01923077 </v>
   <v>       0.01923077 </v>
   <v>       0.01923077 </v>
   <v>       0.01923077 </v>
   <v>       0.01923077 </v>
   <v>       0.01923077 </v>
   <v>       0.01923077 </v>
   <v>       0.01923077 </v>
   <v>       0.01923077 </v>
   <v>       0.01923077 </v>
   <v>       0.01923077 </v>
   <v>       0.01923077 </v>
   <v>       0.01923077 </v>
   <v>       0.00961538 </v>
   <v>       0.01923077 </v>
   <v>       0.01923077 </v>
   <v>       0.01923077 </v>
   <v>       0.01923077 </v>
   <v>       0.01923077 </v>
   <v>       0.01923077 </v>
  </varray>
 </kpoints>
 <parameters>
  <separator name="general" >
   <i type="string" name="SYSTEM">unknown system</i>
   <i type="logical" name="LCOMPAT"> F  </i>
  </separator>
  <separator name="electronic" >
   <i type="string" name="PREC">accura</i>
   <i name="ENMAX">    300.00000000</i>
   <i name="ENAUG">    342.92400000</i>
   <i name="EDIFF">      0.00000100</i>
   <i type="int" name="IALGO">    38</i>
   <i type="int" name="IWAVPR">    10</i>
   <i type="int" name="NBANDS">    68</i>
   <i name="NELECT">    108.00000000</i>
   <i type="int" name="TURBO">     0</i>
   <i type="int" name="IRESTART">     0</i>
   <i type="int" name="NREBOOT">     0</i>
   <i type="int" name="NMIN">     0</i>
   <i name="EREF">      0.00000000</i>
   <separator name="electronic smearing" >
    <i type="int" name="ISMEAR">     0</i>
    <i name="SIGMA">      0.10000000</i>
    <i name="KSPACING">      0.50000000</i>
    <i type="logical" name="KGAMMA"> T  </i>
   </separator>
   <separator name="electronic projectors" >
    <i type="logical" name="LREAL"> T  </i>
    <v name="ROPT">     -0.00025000     -0.00025000</v>
    <i type="int" name="LMAXPAW">  -100</i>
    <i type="int" name="LMAXMIX">     2</i>
    <i type="logical" name="NLSPLINE"> F  </i>
   </separator>
   <separator name="electronic startup" >
    <i type="int" name="ISTART">     0</i>
    <i type="int" name="ICHARG">     2</i>
    <i type="int" name="INIWAV">     1</i>
   </separator>
   <separator name="electronic spin" >
    <i type="int" name="ISPIN">     1</i>
    <i type="logical" name="LNONCOLLINEAR"> F  </i>
    <v name="MAGMOM">      1.00000000      1.00000000      1.00000000      1.00000000      1.00000000      1.00000000      1.00000000      1.00000000      1.00000000      1.00000000      1.00000000      1.00000000      1.00000000      1.00000000      1.00000000      1.00000000      1.00000000      1.00000000      1.00000000      1.00000000
      1.00000000      1.00000000      1.00000000      1.00000000</v>
    <i name="NUPDOWN">     -1.00000000</i>
    <i type="logical" name="LSORBIT"> F  </i>
    <v name="SAXIS">      0.00000000      0.00000000      1.00000000</v>
    <i type="logical" name="LSPIRAL"> F  </i>
    <v name="QSPIRAL">      0.00000000      0.00000000      0.00000000</v>
    <i type="logical" name="LZEROZ"> F  </i>
   </separator>
   <separator name="electronic exchange-correlation" >
    <i type="logical" name="LASPH"> F  </i>
    <i type="logical" name="LMETAGGA"> F  </i>
   </separator>
   <separator name="electronic convergence" >
    <i type="int" name="NELM">    60</i>
    <i type="int" name="NELMDL">    -5</i>
    <i type="int" name="NELMIN">     2</i>
    <i name="ENINI">    300.00000000</i>
    <separator name="electronic convergence detail" >
     <i type="logical" name="LDIAG"> T  </i>
     <i type="logical" name="LSUBROT"> F  </i>
     <i name="WEIMIN">      0.00000000</i>
     <i name="EBREAK">      0.00000000</i>
     <i name="DEPER">      0.30000000</i>
     <i type="int" name="NRMM">     4</i>
     <i name="TIME">      0.40000000</i>
    </separator>
   </separator>
   <separator name="electronic mixer" >
    <i name="AMIX">      0.40000000</i>
    <i name="BMIX">      1.00000000</i>
    <i name="AMIN">      0.10000000</i>
    <i name="AMIX_MAG">      1.60000000</i>
    <i name="BMIX_MAG">      1.00000000</i>
    <separator name="electronic mixer details" >
     <i type="int" name="IMIX">     4</i>
     <i type="int" name="MAXMIX">   -45</i>
     <i name="WC">    100.00000000</i>
     <i type="int" name="INIMIX">     1</i>
     <i type="int" name="MIXPRE">     1</i>
     <i type="int" name="MREMOVE">     5</i>
    </separator>
   </separator>
   <separator name="electronic dipolcorrection" >
    <i type="logical" name="LDIPOL"> F  </i>
    <i type="logical" name="LMONO"> F  </i>
    <i type="int" name="IDIPOL">     0</i>
    <i name="EPSILON">      1.00000000</i>
    <v name="DIPOL">   -100.00000000   -100.00000000   -100.00000000</v>
    <i name="EFIELD">      0.00000000</i>
   </separator>
  </separator>
  <separator name="grids" >
   <i type="int" name="NGX">    20</i>
   <i type="int" name="NGY">    60</i>
   <i type="int" name="NGZ">   160</i>
   <i type="int" name="NGXF">    40</i>
   <i type="int" name="NGYF">   120</i>
   <i type="int" name="NGZF">   320</i>
   <i type="logical" name="ADDGRID"> F  </i>
  </separator>
  <separator name="ionic" >
   <i type="int" name="NSW">     0</i>
   <i type="int" name="IBRION">    -1</i>
   <i type="int" name="ISIF">     3</i>
   <i name="PSTRESS">      0.00000000</i>
   <i name="EDIFFG">      0.00001000</i>
   <i type="int" name="NFREE">     1</i>
   <i name="POTIM">      0.50000000</i>
   <i name="SMASS">     -3.00000000</i>
   <i name="SCALEE">      1.00000000</i>
  </separator>
  <separator name="ionic md" >
   <i name="TEBEG">      0.00010000</i>
   <i name="TEEND">      0.00010000</i>
   <i type="int" name="NBLOCK">     1</i>
   <i type="int" name="KBLOCK">     1</i>
   <i type="int" name="NPACO">   256</i>
   <i name="APACO">     16.00000000</i>
  </separator>
  <separator name="symmetry" >
   <i type="int" name="ISYM">     2</i>
   <i name="SYMPREC">      0.00001000</i>
  </separator>
  <separator name="dos" >
   <i type="logical" name="LORBIT"> F  </i>
   <v name="RWIGS">     -1.00000000     -1.00000000</v>
   <i type="int" name="NEDOS">   301</i>
   <i name="EMIN">     10.00000000</i>
   <i name="EMAX">    -10.00000000</i>
   <i name="EFERMI">      0.00000000</i>
  </separator>
  <separator name="writing" >
   <i type="int" name="NWRITE">     2</i>
   <i type="logical" name="LWAVE"> F  </i>
   <i type="logical" name="LCHARG"> F  </i>
   <i type="logical" name="LPARD"> F  </i>
   <i type="logical" name="LVTOT"> F  </i>
   <i type="logical" name="LVHAR"> F  </i>
   <i type="logical" name="LELF"> F  </i>
   <i type="logical" name="LOPTICS"> F  </i>
   <v name="STM">      0.00000000      0.00000000      0.00000000      0.00000000      0.00000000      0.00000000      0.00000000</v>
  </separator>
  <separator name="performance" >
   <i type="int" name="NPAR">     4</i>
   <i type="int" name="NSIM">     4</i>
   <i type="int" name="NBLK">    -1</i>
   <i type="logical" name="LPLANE"> T  </i>
   <i type="logical" name="LSCALAPACK"> T  </i>
   <i type="logical" name="LSCAAWARE"> F  </i>
   <i type="logical" name="LSCALU"> F  </i>
   <i type="logical" name="LASYNC"> F  </i>
   <i type="logical" name="LORBITALREAL"> F  </i>
  </separator>
  <separator name="miscellaneous" >
   <i type="int" name="IDIOT">     3</i>
   <i type="logical" name="LMUSIC"> F  </i>
   <v name="POMASS">     30.97400000     28.08500000</v>
   <v name="DARWINR">      0.00000000      0.00000000</v>
   <v name="DARWINV">      1.00000000      1.00000000</v>
   <i type="logical" name="LCORR"> T  </i>
  </separator>
  <i type="logical" name="GGA_COMPAT"> T  </i>
  <i type="logical" name="LBERRY"> F  </i>
  <i type="int" name="ICORELEVEL">     0</i>
  <i type="logical" name="LDAU"> F  </i>
  <i type="int" name="I_CONSTRAINED_M">     0</i>
  <separator name="electronic exchange-correlation" >
   <i type="string" name="GGA">BO</i>
   <i type="int" name="VOSKOWN">     0</i>
   <i type="logical" name="LHFCALC"> F  </i>
   <i type="string" name="PRECFOCK"></i>
   <i type="logical" name="LSYMGRAD"> F  </i>
   <i type="logical" name="LHFONE"> F  </i>
   <i type="logical" name="LRHFCALC"> F  </i>
   <i type="logical" name="LTHOMAS"> F  </i>
   <i type="logical" name="LMODELHF"> F  </i>
   <i name="ENCUT4O">     -1.00000000</i>
   <i type="int" name="EXXOEP">     0</i>
   <i type="int" name="FOURORBIT">     0</i>
   <i name="AEXX">      0.00000000</i>
   <i name="HFALPHA">      0.00000000</i>
   <i name="MCALPHA">      0.00000000</i>
   <i name="ALDAX">      1.00000000</i>
   <i name="AGGAX">      1.00000000</i>
   <i name="ALDAC">      1.00000000</i>
   <i name="AGGAC">      0.00000000</i>
   <i type="int" name="NKREDX">     1</i>
   <i type="int" name="NKREDY">     1</i>
   <i type="int" name="NKREDZ">     1</i>
   <i type="logical" name="SHIFTRED"> F  </i>
   <i type="logical" name="ODDONLY"> F  </i>
   <i type="logical" name="EVENONLY"> F  </i>
   <i type="int" name="LMAXFOCK">     0</i>
   <i type="int" name="NMAXFOCKAE">     0</i>
   <i type="logical" name="LFOCKAEDFT"> F  </i>
   <i name="HFSCREEN">      0.00000000</i>
   <i name="HFSCREENC">      0.00000000</i>
   <i type="int" name="NBANDSGWLOW">     0</i>
  </separator>
  <separator name="vdW DFT" >
   <i type="logical" name="LUSE_VDW"> T  </i>
   <i name="Zab_VDW">     -0.84910000</i>
   <i name="PARAM1">      0.18333333</i>
   <i name="PARAM2">      0.22000000</i>
   <i name="PARAM3">      0.00000000</i>
  </separator>
  <separator name="model GW" >
   <i type="int" name="MODEL_GW">     0</i>
   <i name="MODEL_EPS0">     25.05800243</i>
   <i name="MODEL_ALPHA">      1.00000000</i>
  </separator>
  <separator name="linear response parameters" >
   <i type="logical" name="LEPSILON"> F  </i>
   <i type="logical" name="LRPA"> F  </i>
   <i type="logical" name="LNABLA"> F  </i>
   <i type="logical" name="LVEL"> F  </i>
   <i type="int" name="KINTER">     0</i>
   <i name="CSHIFT">      0.10000000</i>
   <i name="OMEGAMAX">     -1.00000000</i>
   <i name="DEG_THRESHOLD">      0.00200000</i>
  </separator>
  <separator name="orbital magnetization" >
   <i type="logical" name="NUCIND"> F  </i>
   <v name="MAGPOS">      0.00000000      0.00000000      0.00000000</v>
   <i type="logical" name="LNICSALL"> T  </i>
   <i type="logical" name="ORBITALMAG"> F  </i>
   <i type="logical" name="LMAGBLOCH"> F  </i>
   <i type="logical" name="LCHIMAG"> F  </i>
   <i type="logical" name="LGAUGE"> T  </i>
   <i type="int" name="MAGATOM">     0</i>
   <v name="MAGDIPOL">      0.00000000      0.00000000      0.00000000</v>
   <v name="AVECCONST">      0.00000000      0.00000000      0.00000000</v>
  </separator>
  <separator name="response functions" >
   <i type="logical" name="LADDER"> F  </i>
   <i type="logical" name="LFXC"> F  </i>
   <i type="logical" name="LHARTREE"> T  </i>
   <i type="int" name="IBSE">     0</i>
   <i type="logical" name="LTCTE"> F  </i>
   <i type="logical" name="LTETE"> F  </i>
   <i type="logical" name="LTRIPLET"> F  </i>
   <i type="logical" name="LFXCEPS"> F  </i>
   <i type="logical" name="LFXHEG"> F  </i>
   <i type="logical" name="L2ORDER"> F  </i>
   <i type="logical" name="LUSEW"> F  </i>
   <i name="ENCUTGW">     -2.00000000</i>
   <i name="ENCUTGWSOFT">     -2.00000000</i>
   <i name="ENCUTLF">     -1.00000000</i>
   <i type="int" name="LMAXMP2">    -1</i>
   <i name="SCISSOR">      0.00000000</i>
   <i type="int" name="NOMEGA">     0</i>
   <i type="int" name="NOMEGAR">     0</i>
   <i type="int" name="NBANDSGW">    -1</i>
   <i type="int" name="NBANDSO">    -1</i>
   <i type="int" name="NBANDSV">    -1</i>
   <i type="int" name="NELM">     1</i>
   <i type="int" name="DIM">     3</i>
   <i type="int" name="ANTIRES">     0</i>
   <i name="OMEGAMAX">    -30.00000000</i>
   <i name="OMEGAMIN">    -30.00000000</i>
   <i name="OMEGATL">   -200.00000000</i>
   <i type="int" name="OMEGAGRID">     0</i>
   <i name="CSHIFT">     -0.10000000</i>
   <i type="logical" name="SELFENERGY"> F  </i>
   <i type="logical" name="LSPECTRAL"> F  </i>
   <i type="logical" name="ODDONLYGW"> F  </i>
   <i type="logical" name="EVENONLYGW"> F  </i>
   <i type="int" name="NKREDLFX">     1</i>
   <i type="int" name="NKREDLFY">     1</i>
   <i type="int" name="NKREDLFZ">     1</i>
   <i type="int" name="MAXMEM">  1800</i>
   <i type="int" name="TELESCOPE">     0</i>
   <i type="int" name="TAUPAR">     1</i>
  </separator>
  <separator name="External order field" >
   <i name="OFIELD_KAPPA">      0.00000000</i>
   <v name="OFIELD_K">      0.00000000      0.00000000      0.00000000</v>
   <i name="OFIELD_Q6_NEAR">      0.00000000</i>
   <i name="OFIELD_Q6_FAR">      0.00000000</i>
   <i name="OFIELD_A">      0.00000000</i>
  </separator>
 </parameters>
 <atominfo>
  <atoms>      24 </atoms>
  <types>       2 </types>
  <array name="atoms" >
   <dimension dim="1">ion</dimension>
   <field type="string">element</field>
   <field type="int">atomtype</field>
   <set>
    <rc><c>P </c><c>   1</c></rc>
    <rc><c>P </c><c>   1</c></rc>
    <rc><c>P </c><c>   1</c></rc>
    <rc><c>P </c><c>   1</c></rc>
    <rc><c>P </c><c>   1</c></rc>
    <rc><c>P </c><c>   1</c></rc>
    <rc><c>P </c><c>   1</c></rc>
    <rc><c>P </c><c>   1</c></rc>
    <rc><c>P </c><c>   1</c></rc>
    <rc><c>P </c><c>   1</c></rc>
    <rc><c>P </c><c>   1</c></rc>
    <rc><c>P </c><c>   1</c></rc>
    <rc><c>Si</c><c>   2</c></rc>
    <rc><c>Si</c><c>   2</c></rc>
    <rc><c>Si</c><c>   2</c></rc>
    <rc><c>Si</c><c>   2</c></rc>
    <rc><c>Si</c><c>   2</c></rc>
    <rc><c>Si</c><c>   2</c></rc>
    <rc><c>Si</c><c>   2</c></rc>
    <rc><c>Si</c><c>   2</c></rc>
    <rc><c>Si</c><c>   2</c></rc>
    <rc><c>Si</c><c>   2</c></rc>
    <rc><c>Si</c><c>   2</c></rc>
    <rc><c>Si</c><c>   2</c></rc>
   </set>
  </array>
  <array name="atomtypes" >
   <dimension dim="1">type</dimension>
   <field type="int">atomspertype</field>
   <field type="string">element</field>
   <field>mass</field>
   <field>valence</field>
   <field type="string">pseudopotential</field>
   <set>
    <rc><c>  12</c><c>P </c><c>     30.97400000</c><c>      5.00000000</c><c>  PAW_PBE P 17Jan2003                   </c></rc>
    <rc><c>  12</c><c>Si</c><c>     28.08500000</c><c>      4.00000000</c><c> PAW_PBE Si 05Jan2001                   </c></rc>
   </set>
  </array>
 </atominfo>
 <structure name="initialpos" >
  <crystal>
   <varray name="basis" >
    <v>       3.54040000       0.00000000       0.00000000 </v>
    <v>      -1.77020000      10.29434800       0.00000000 </v>
    <v>       0.00000000       0.00000000      27.50142900 </v>
   </varray>
   <i name="volume">   1002.32009712 </i>
   <varray name="rec_basis" >
    <v>       0.28245396       0.04857034       0.00000000 </v>
    <v>       0.00000000       0.09714068       0.00000000 </v>
    <v>       0.00000000       0.00000000       0.03636175 </v>
   </varray>
  </crystal>
  <varray name="positions" >
   <v>       0.11402300       0.22804500       0.23316207 </v>
   <v>       0.51402300       0.62804500       0.51499159 </v>
   <v>       0.45808900       0.91617900       0.20939482 </v>
   <v>       0.85808900       0.31617900       0.49122434 </v>
   <v>       0.31085400       0.62170900       0.08414979 </v>
   <v>       0.31085400       0.62170900       0.36597930 </v>
   <v>       0.99923000       0.99846000       0.08631254 </v>
   <v>       0.99923000       0.99846000       0.36814206 </v>
   <v>       0.65492700       0.30985400       0.06041748 </v>
   <v>       0.65492700       0.30985400       0.34224700 </v>
   <v>       0.76973800       0.53947500       0.20725292 </v>
   <v>       0.16973800       0.93947500       0.48908244 </v>
   <v>       0.93971600       0.87943300       0.15783749 </v>
   <v>       0.33971600       0.27943300       0.43966701 </v>
   <v>       0.20515200       0.41030300       0.18578822 </v>
   <v>       0.60515200       0.81030300       0.46761774 </v>
   <v>       0.20184900       0.40369900       0.09969156 </v>
   <v>       0.20184900       0.40369900       0.38152107 </v>
   <v>       0.56380500       0.12761000       0.10779021 </v>
   <v>       0.56380500       0.12761000       0.38961973 </v>
   <v>       0.56710600       0.13421200       0.19387616 </v>
   <v>       0.96710600       0.53421200       0.47570568 </v>
   <v>       0.82923400       0.65846800       0.13571444 </v>
   <v>       0.22923400       0.05846800       0.41754396 </v>
  </varray>
 </structure>
 <calculation>
  <scstep>
   <time name="dav">   56.09   56.14</time>
   <time name="total">   69.44   69.54</time>
   <energy>
    <i name="alphaZ">     36.80884744 </i>
    <i name="ewald">  12036.16786099 </i>
    <i name="hartreedc"> -15047.70679839 </i>
    <i name="XCdc">    -86.91541141 </i>
    <i name="pawpsdc">   1056.43050070 </i>
    <i name="pawaedc">   -732.41190547 </i>
    <i name="eentropy">     -0.04217045 </i>
    <i name="bandstr">   -100.41964122 </i>
    <i name="atom">   3354.04126044 </i>
    <i name="e_fr_energy">    515.95254263 </i>
    <i name="e_wo_entrp">    515.99471309 </i>
    <i name="e_0_energy">    515.97362786 </i>
   </energy>
  </scstep>
  <scstep>
   <time name="dav">   69.63   69.67</time>
   <time name="total">   69.65   69.69</time>
   <energy>
    <i name="e_fr_energy">    -53.84654747 </i>
    <i name="e_wo_entrp">    -53.82792637 </i>
    <i name="e_0_energy">    -53.83723692 </i>
   </energy>
  </scstep>
  <scstep>
   <time name="dav">   64.64   64.68</time>
   <time name="total">   64.66   64.69</time>
   <energy>
    <i name="e_fr_energy">   -112.91388187 </i>
    <i name="e_wo_entrp">   -112.88951806 </i>
    <i name="e_0_energy">   -112.90169997 </i>
   </energy>
  </scstep>
  <scstep>
   <time name="dav">   78.73   78.78</time>
   <time name="total">   78.74   78.79</time>
   <energy>
    <i name="e_fr_energy">   -115.74551016 </i>
    <i name="e_wo_entrp">   -115.71971068 </i>
    <i name="e_0_energy">   -115.73261042 </i>
   </energy>
  </scstep>
  <scstep>
   <time name="dav">   69.34   69.39</time>
   <time name="total">   72.96   73.04</time>
   <energy>
    <i name="e_fr_energy">   -115.79777311 </i>
    <i name="e_wo_entrp">   -115.77203052 </i>
    <i name="e_0_energy">   -115.78490181 </i>
   </energy>
  </scstep>
  <scstep>
   <time name="dav">   63.54   63.57</time>
   <time name="total">   78.91   78.96</time>
   <energy>
    <i name="e_fr_energy">   -109.94451229 </i>
    <i name="e_wo_entrp">   -109.91135999 </i>
    <i name="e_0_energy">   -109.92793614 </i>
   </energy>
  </scstep>
  <scstep>
   <time name="dav">   61.65   61.68</time>
   <time name="total">   77.03   77.07</time>
   <energy>
    <i name="e_fr_energy">   -110.19529165 </i>
    <i name="e_wo_entrp">   -110.17360869 </i>
    <i name="e_0_energy">   -110.18445017 </i>
   </energy>
  </scstep>
  <scstep>
   <time name="dav">   62.66   62.70</time>
   <time name="total">   78.05   78.09</time>
   <energy>
    <i name="e_fr_energy">   -110.10333771 </i>
    <i name="e_wo_entrp">   -110.07615528 </i>
    <i name="e_0_energy">   -110.08974650 </i>
   </energy>
  </scstep>
  <scstep>
   <time name="dav">   64.90   64.94</time>
   <time name="total">   80.29   80.34</time>
   <energy>
    <i name="e_fr_energy">   -110.13005594 </i>
    <i name="e_wo_entrp">   -110.09926904 </i>
    <i name="e_0_energy">   -110.11466249 </i>
   </energy>
  </scstep>
  <scstep>
   <time name="dav">   65.27   65.31</time>
   <time name="total">   80.64   80.69</time>
   <energy>
    <i name="e_fr_energy">   -110.12624959 </i>
    <i name="e_wo_entrp">   -110.09699966 </i>
    <i name="e_0_energy">   -110.11162463 </i>
   </energy>
  </scstep>
  <scstep>
   <time name="dav">   63.52   63.55</time>
   <time name="total">   78.98   79.03</time>
   <energy>
    <i name="e_fr_energy">   -110.12156946 </i>
    <i name="e_wo_entrp">   -110.09423418 </i>
    <i name="e_0_energy">   -110.10790182 </i>
   </energy>
  </scstep>
  <scstep>
   <time name="dav">   64.67   64.69</time>
   <time name="total">   80.06   80.10</time>
   <energy>
    <i name="e_fr_energy">   -110.11210995 </i>
    <i name="e_wo_entrp">   -110.08231379 </i>
    <i name="e_0_energy">   -110.09721187 </i>
   </energy>
  </scstep>
  <scstep>
   <time name="dav">   63.74   63.78</time>
   <time name="total">   79.19   79.41</time>
   <energy>
    <i name="e_fr_energy">   -110.10507510 </i>
    <i name="e_wo_entrp">   -110.07645627 </i>
    <i name="e_0_energy">   -110.09076569 </i>
   </energy>
  </scstep>
  <scstep>
   <time name="dav">   65.34   65.39</time>
   <time name="total">   80.83   80.88</time>
   <energy>
    <i name="e_fr_energy">   -110.10251132 </i>
    <i name="e_wo_entrp">   -110.07371696 </i>
    <i name="e_0_energy">   -110.08811414 </i>
   </energy>
  </scstep>
  <scstep>
   <time name="dav">   65.70   65.74</time>
   <time name="total">   81.27   81.32</time>
   <energy>
    <i name="e_fr_energy">   -110.10096668 </i>
    <i name="e_wo_entrp">   -110.07219978 </i>
    <i name="e_0_energy">   -110.08658323 </i>
   </energy>
  </scstep>
  <scstep>
   <time name="dav">   64.55   64.62</time>
   <time name="total">   80.11   80.20</time>
   <energy>
    <i name="e_fr_energy">   -110.10015801 </i>
    <i name="e_wo_entrp">   -110.07137273 </i>
    <i name="e_0_energy">   -110.08576537 </i>
   </energy>
  </scstep>
  <scstep>
   <time name="dav">   59.02   59.05</time>
   <time name="total">   74.45   74.50</time>
   <energy>
    <i name="e_fr_energy">   -110.10045912 </i>
    <i name="e_wo_entrp">   -110.07174868 </i>
    <i name="e_0_energy">   -110.08610390 </i>
   </energy>
  </scstep>
  <scstep>
   <time name="dav">   60.97   61.00</time>
   <time name="total">   76.33   76.37</time>
   <energy>
    <i name="e_fr_energy">   -110.10079475 </i>
    <i name="e_wo_entrp">   -110.07203807 </i>
    <i name="e_0_energy">   -110.08641641 </i>
   </energy>
  </scstep>
  <scstep>
   <time name="dav">   61.62   61.64</time>
   <time name="total">   77.00   77.05</time>
   <energy>
    <i name="e_fr_energy">   -110.10103003 </i>
    <i name="e_wo_entrp">   -110.07228171 </i>
    <i name="e_0_energy">   -110.08665587 </i>
   </energy>
  </scstep>
  <scstep>
   <time name="dav">   53.87   53.90</time>
   <time name="total">   69.24   69.30</time>
   <energy>
    <i name="e_fr_energy">   -110.10108500 </i>
    <i name="e_wo_entrp">   -110.07233169 </i>
    <i name="e_0_energy">   -110.08670834 </i>
   </energy>
  </scstep>
  <scstep>
   <time name="dav">   52.67   52.70</time>
   <time name="total">   68.07   68.11</time>
   <energy>
    <i name="e_fr_energy">   -110.10111767 </i>
    <i name="e_wo_entrp">   -110.07236677 </i>
    <i name="e_0_energy">   -110.08674222 </i>
   </energy>
  </scstep>
  <scstep>
   <time name="dav">   49.73   49.75</time>
   <time name="total">   65.19   65.23</time>
   <energy>
    <i name="e_fr_energy">   -110.10112173 </i>
    <i name="e_wo_entrp">   -110.07237156 </i>
    <i name="e_0_energy">   -110.08674664 </i>
   </energy>
  </scstep>
  <scstep>
   <time name="dav">   54.71   54.73</time>
   <time name="total">   70.11   70.14</time>
   <energy>
    <i name="e_fr_energy">   -110.10101586 </i>
    <i name="e_wo_entrp">   -110.07226508 </i>
    <i name="e_0_energy">   -110.08664047 </i>
   </energy>
  </scstep>
  <scstep>
   <time name="dav">   49.01   49.03</time>
   <time name="total">   64.49   64.53</time>
   <energy>
    <i name="e_fr_energy">   -110.10099114 </i>
    <i name="e_wo_entrp">   -110.07224032 </i>
    <i name="e_0_energy">   -110.08661573 </i>
   </energy>
  </scstep>
  <scstep>
   <time name="dav">   52.01   52.03</time>
   <time name="total">   67.49   67.53</time>
   <energy>
    <i name="e_fr_energy">   -110.10096397 </i>
    <i name="e_wo_entrp">   -110.07221315 </i>
    <i name="e_0_energy">   -110.08658856 </i>
   </energy>
  </scstep>
  <scstep>
   <time name="dav">   49.12   49.14</time>
   <time name="total">   64.65   64.68</time>
   <energy>
    <i name="e_fr_energy">   -110.10096499 </i>
    <i name="e_wo_entrp">   -110.07221429 </i>
    <i name="e_0_energy">   -110.08658964 </i>
   </energy>
  </scstep>
  <scstep>
   <time name="dav">   50.86   50.89</time>
   <time name="total">   66.48   66.53</time>
   <energy>
    <i name="e_fr_energy">   -110.10096109 </i>
    <i name="e_wo_entrp">   -110.07221040 </i>
    <i name="e_0_energy">   -110.08658574 </i>
   </energy>
  </scstep>
  <scstep>
   <time name="dav">   43.35   43.40</time>
   <time name="total">   55.21   55.26</time>
   <energy>
    <i name="alphaZ">     36.80884744 </i>
    <i name="ewald">  12036.16786099 </i>
    <i name="hartreedc"> -15156.06520661 </i>
    <i name="XCdc">    -78.52490170 </i>
    <i name="pawpsdc">   1201.48508450 </i>
    <i name="pawaedc">   -881.78831664 </i>
    <i name="eentropy">     -0.02875078 </i>
    <i name="bandstr">   -622.19683962 </i>
    <i name="atom">   3354.04126044 </i>
    <i name="e_fr_energy">   -110.10096198 </i>
    <i name="e_wo_entrp">   -110.07221120 </i>
    <i name="e_0_energy">   -110.08658659 </i>
   </energy>
  </scstep>
  <structure>
   <crystal>
    <varray name="basis" >
     <v>       3.54040000       0.00000000       0.00000000 </v>
     <v>      -1.77020000      10.29434800       0.00000000 </v>
     <v>       0.00000000       0.00000000      27.50142900 </v>
    </varray>
    <i name="volume">   1002.32009712 </i>
    <varray name="rec_basis" >
     <v>       0.28245396       0.04857034       0.00000000 </v>
     <v>       0.00000000       0.09714068       0.00000000 </v>
     <v>       0.00000000       0.00000000       0.03636175 </v>
    </varray>
   </crystal>
   <varray name="positions" >
    <v>       0.11402300       0.22804500       0.23316207 </v>
    <v>       0.51402300       0.62804500       0.51499159 </v>
    <v>       0.45808900       0.91617900       0.20939482 </v>
    <v>       0.85808900       0.31617900       0.49122434 </v>
    <v>       0.31085400       0.62170900       0.08414979 </v>
    <v>       0.31085400       0.62170900       0.36597930 </v>
    <v>       0.99923000       0.99846000       0.08631254 </v>
    <v>       0.99923000       0.99846000       0.36814206 </v>
    <v>       0.65492700       0.30985400       0.06041748 </v>
    <v>       0.65492700       0.30985400       0.34224700 </v>
    <v>       0.76973800       0.53947500       0.20725292 </v>
    <v>       0.16973800       0.93947500       0.48908244 </v>
    <v>       0.93971600       0.87943300       0.15783749 </v>
    <v>       0.33971600       0.27943300       0.43966701 </v>
    <v>       0.20515200       0.41030300       0.18578822 </v>
    <v>       0.60515200       0.81030300       0.46761774 </v>
    <v>       0.20184900       0.40369900       0.09969156 </v>
    <v>       0.20184900       0.40369900       0.38152107 </v>
    <v>       0.56380500       0.12761000       0.10779021 </v>
    <v>       0.56380500       0.12761000       0.38961973 </v>
    <v>       0.56710600       0.13421200       0.19387616 </v>
    <v>       0.96710600       0.53421200       0.47570568 </v>
    <v>       0.82923400       0.65846800       0.13571444 </v>
    <v>       0.22923400       0.05846800       0.41754396 </v>
   </varray>
  </structure>
  <varray name="forces" >
   <v>       0.02976726      -0.03455809      -0.00443469 </v>
   <v>      -0.00976694      -0.06354233       0.10635623 </v>
   <v>       0.00142290      -0.01560277       0.07951421 </v>
   <v>      -0.62982745       0.04573254       0.54147521 </v>
   <v>      -0.00110144      -0.00464071       0.00998456 </v>
   <v>      -0.33145721      -0.44357218       1.20977696 </v>
   <v>       0.00480736       0.00139116       0.00082263 </v>
   <v>      -8.80492032      -8.00451552     -19.57756656 </v>
   <v>       0.00070990       0.00063008       0.01236423 </v>
   <v>       0.89831444      -0.26011124      -0.72368158 </v>
   <v>      -0.00171767       0.00384109       0.09029571 </v>
   <v>       0.02250767      -0.27175923       0.24619020 </v>
   <v>       0.00260311       0.00138806       0.00953032 </v>
   <v>      -0.76667988       0.65244710       3.19274004 </v>
   <v>      -0.00043127       0.00178882       0.04507247 </v>
   <v>      -0.10304606       0.13601354      -0.22459344 </v>
   <v>      -0.00184244       0.00238680      -0.02162042 </v>
   <v>      -0.23563824       2.16261647      -2.07595030 </v>
   <v>       0.00313342      -0.01673780      -0.01741397 </v>
   <v>      31.30797943      19.65565509     -24.61630655 </v>
   <v>      -0.00407253      -0.01289872       0.00625829 </v>
   <v>       0.17425203       0.29997831      -0.33372572 </v>
   <v>       0.00145631       0.01493337      -0.00403381 </v>
   <v>     -21.55645238     -13.85086383      42.04894601 </v>
  </varray>
  <varray name="stress" >
   <v>      69.75018473      38.45570746     -24.03713570 </v>
   <v>      38.45570744      32.04967247      -7.04127727 </v>
   <v>     -24.03713561      -7.04127724      76.68995794 </v>
  </varray>
  <energy>
   <i name="e_fr_energy">   -110.10096198 </i>
   <i name="e_wo_entrp">   -110.08658659 </i>
   <i name="e_0_energy">     -0.02875078 </i>
  </energy>
  <time name="totalsc"> 2142.63 2144.24</time>
  <eigenvalues>
   <array>
    <dimension dim="1">band</dimension>
    <dimension dim="2">kpoint</dimension>
    <dimension dim="3">spin</dimension>
    <field>eigene</field>
    <field>occ</field>
    <set>
     <set comment="spin 1">
      <set comment="kpoint 1">
       <r>  -15.3598    1.0000 </r>
       <r>  -13.5683    1.0000 </r>
       <r>  -13.2023    1.0000 </r>
       <r>  -12.8287    1.0000 </r>
       <r>  -12.6866    1.0000 </r>
       <r>  -12.5069    1.0000 </r>
       <r>  -12.1149    1.0000 </r>
       <r>  -11.8394    1.0000 </r>
       <r>  -11.4671    1.0000 </r>
       <r>  -11.4557    1.0000 </r>
       <r>  -11.0184    1.0000 </r>
       <r>  -10.0777    1.0000 </r>
       <r>   -9.1944    1.0000 </r>
       <r>   -8.0617    1.0000 </r>
       <r>   -7.8573    1.0000 </r>
       <r>   -7.1763    1.0000 </r>
       <r>   -7.1359    1.0000 </r>
       <r>   -6.8345    1.0000 </r>
       <r>   -6.5232    1.0000 </r>
       <r>   -6.3183    1.0000 </r>
       <r>   -5.8542    1.0000 </r>
       <r>   -5.3617    1.0000 </r>
       <r>   -5.0285    1.0000 </r>
       <r>   -4.7678    1.0000 </r>
       <r>   -4.2629    1.0000 </r>
       <r>   -4.0161    1.0000 </r>
       <r>   -3.7542    1.0000 </r>
       <r>   -3.6448    1.0000 </r>
       <r>   -3.4348    1.0000 </r>
       <r>   -3.2982    1.0000 </r>
       <r>   -3.1748    1.0000 </r>
       <r>   -3.0831    1.0000 </r>
       <r>   -2.8719    1.0000 </r>
       <r>   -2.8485    1.0000 </r>
       <r>   -2.7341    1.0000 </r>
       <r>   -2.5021    1.0000 </r>
       <r>   -2.4479    1.0000 </r>
       <r>   -2.4221    1.0000 </r>
       <r>   -2.3606    1.0000 </r>
       <r>   -2.2018    1.0000 </r>
       <r>   -2.0737    1.0000 </r>
       <r>   -1.9428    1.0000 </r>
       <r>   -1.8824    1.0000 </r>
       <r>   -1.7571    1.0000 </r>
       <r>   -1.7235    1.0000 </r>
       <r>   -1.6705    1.0000 </r>
       <r>   -1.6040    1.0000 </r>
       <r>   -1.4967    1.0000 </r>
       <r>   -1.4598    1.0000 </r>
       <r>   -1.2781    1.0000 </r>
       <r>   -1.1302    1.0000 </r>
       <r>   -1.0550    1.0000 </r>
       <r>   -0.1025    0.8741 </r>
       <r>    0.2222    0.0003 </r>
       <r>    0.9109    0.0000 </r>
       <r>    1.1086    0.0000 </r>
       <r>    1.1799    0.0000 </r>
       <r>    1.2535    0.0000 </r>
       <r>    1.3161    0.0000 </r>
       <r>    1.3966    0.0000 </r>
       <r>    1.6827    0.0000 </r>
       <r>    1.8280    0.0000 </r>
       <r>    1.9264    0.0000 </r>
       <r>    2.0305    0.0000 </r>
       <r>    2.1331    0.0000 </r>
       <r>    2.4073    0.0000 </r>
       <r>    2.4489    0.0000 </r>
       <r>    2.6232    0.0000 </r>
      </set>
      <set comment="kpoint 2">
       <r>  -15.3067    1.0000 </r>
       <r>  -13.5069    1.0000 </r>
       <r>  -13.1472    1.0000 </r>
       <r>  -12.7765    1.0000 </r>
       <r>  -12.6280    1.0000 </r>
       <r>  -12.4512    1.0000 </r>
       <r>  -12.0527    1.0000 </r>
       <r>  -11.7911    1.0000 </r>
       <r>  -11.4160    1.0000 </r>
       <r>  -11.4031    1.0000 </r>
       <r>  -10.9700    1.0000 </r>
       <r>  -10.0526    1.0000 </r>
       <r>   -9.1857    1.0000 </r>
       <r>   -8.0983    1.0000 </r>
       <r>   -7.8204    1.0000 </r>
       <r>   -7.1993    1.0000 </r>
       <r>   -7.1067    1.0000 </r>
       <r>   -6.8080    1.0000 </r>
       <r>   -6.5177    1.0000 </r>
       <r>   -6.3180    1.0000 </r>
       <r>   -5.8211    1.0000 </r>
       <r>   -5.4853    1.0000 </r>
       <r>   -5.1789    1.0000 </r>
       <r>   -4.7752    1.0000 </r>
       <r>   -4.6183    1.0000 </r>
       <r>   -4.0105    1.0000 </r>
       <r>   -3.7890    1.0000 </r>
       <r>   -3.6756    1.0000 </r>
       <r>   -3.5269    1.0000 </r>
       <r>   -3.4595    1.0000 </r>
       <r>   -3.3060    1.0000 </r>
       <r>   -3.2220    1.0000 </r>
       <r>   -3.1597    1.0000 </r>
       <r>   -2.9492    1.0000 </r>
       <r>   -2.8888    1.0000 </r>
       <r>   -2.7670    1.0000 </r>
       <r>   -2.6322    1.0000 </r>
       <r>   -2.5049    1.0000 </r>
       <r>   -2.4497    1.0000 </r>
       <r>   -2.3131    1.0000 </r>
       <r>   -2.2228    1.0000 </r>
       <r>   -2.0662    1.0000 </r>
       <r>   -2.0194    1.0000 </r>
       <r>   -1.9912    1.0000 </r>
       <r>   -1.8663    1.0000 </r>
       <r>   -1.7809    1.0000 </r>
       <r>   -1.6464    1.0000 </r>
       <r>   -1.5525    1.0000 </r>
       <r>   -1.5348    1.0000 </r>
       <r>   -1.2848    1.0000 </r>
       <r>   -1.1102    1.0000 </r>
       <r>   -0.9940    1.0000 </r>
       <r>   -0.0793    0.7931 </r>
       <r>    0.2344    0.0001 </r>
       <r>    0.8434    0.0000 </r>
       <r>    1.1173    0.0000 </r>
       <r>    1.2954    0.0000 </r>
       <r>    1.5233    0.0000 </r>
       <r>    1.6275    0.0000 </r>
       <r>    1.7395    0.0000 </r>
       <r>    1.9406    0.0000 </r>
       <r>    2.1050    0.0000 </r>
       <r>    2.1682    0.0000 </r>
       <r>    2.2473    0.0000 </r>
       <r>    2.2911    0.0000 </r>
       <r>    2.5845    0.0000 </r>
       <r>    2.5982    0.0000 </r>
       <r>    2.7472    0.0000 </r>
      </set>
      <set comment="kpoint 3">
       <r>  -15.1505    1.0000 </r>
       <r>  -13.3239    1.0000 </r>
       <r>  -12.9839    1.0000 </r>
       <r>  -12.6208    1.0000 </r>
       <r>  -12.4545    1.0000 </r>
       <r>  -12.2863    1.0000 </r>
       <r>  -11.8704    1.0000 </r>
       <r>  -11.6489    1.0000 </r>
       <r>  -11.2719    1.0000 </r>
       <r>  -11.2458    1.0000 </r>
       <r>  -10.8312    1.0000 </r>
       <r>   -9.9917    1.0000 </r>
       <r>   -9.1783    1.0000 </r>
       <r>   -8.1945    1.0000 </r>
       <r>   -7.7784    1.0000 </r>
       <r>   -7.3979    1.0000 </r>
       <r>   -7.0309    1.0000 </r>
       <r>   -6.7472    1.0000 </r>
       <r>   -6.5313    1.0000 </r>
       <r>   -6.4052    1.0000 </r>
       <r>   -5.9375    1.0000 </r>
       <r>   -5.7435    1.0000 </r>
       <r>   -5.2968    1.0000 </r>
       <r>   -4.9039    1.0000 </r>
       <r>   -4.8392    1.0000 </r>
       <r>   -4.2525    1.0000 </r>
       <r>   -4.1633    1.0000 </r>
       <r>   -4.0990    1.0000 </r>
       <r>   -3.9974    1.0000 </r>
       <r>   -3.9369    1.0000 </r>
       <r>   -3.7295    1.0000 </r>
       <r>   -3.7022    1.0000 </r>
       <r>   -3.4429    1.0000 </r>
       <r>   -3.2953    1.0000 </r>
       <r>   -3.1952    1.0000 </r>
       <r>   -3.1513    1.0000 </r>
       <r>   -2.9961    1.0000 </r>
       <r>   -2.9527    1.0000 </r>
       <r>   -2.7232    1.0000 </r>
       <r>   -2.5586    1.0000 </r>
       <r>   -2.4769    1.0000 </r>
       <r>   -2.3832    1.0000 </r>
       <r>   -2.2325    1.0000 </r>
       <r>   -2.1641    1.0000 </r>
       <r>   -1.9685    1.0000 </r>
       <r>   -1.8102    1.0000 </r>
       <r>   -1.6860    1.0000 </r>
       <r>   -1.6321    1.0000 </r>
       <r>   -1.3259    1.0000 </r>
       <r>   -1.1870    1.0000 </r>
       <r>   -1.0117    1.0000 </r>
       <r>   -0.8293    1.0000 </r>
       <r>   -0.2403    0.9990 </r>
       <r>    0.0259    0.2516 </r>
       <r>    0.5774    0.0000 </r>
       <r>    0.9669    0.0000 </r>
       <r>    1.1641    0.0000 </r>
       <r>    1.8020    0.0000 </r>
       <r>    1.9166    0.0000 </r>
       <r>    2.2190    0.0000 </r>
       <r>    2.3288    0.0000 </r>
       <r>    2.4100    0.0000 </r>
       <r>    2.4494    0.0000 </r>
       <r>    2.5994    0.0000 </r>
       <r>    2.6600    0.0000 </r>
       <r>    2.8734    0.0000 </r>
       <r>    2.9539    0.0000 </r>
       <r>    3.0507    0.0000 </r>
      </set>
      <set comment="kpoint 4">
       <r>  -14.9012    1.0000 </r>
       <r>  -13.0229    1.0000 </r>
       <r>  -12.7204    1.0000 </r>
       <r>  -12.3645    1.0000 </r>
       <r>  -12.1750    1.0000 </r>
       <r>  -12.0194    1.0000 </r>
       <r>  -11.5829    1.0000 </r>
       <r>  -11.4236    1.0000 </r>
       <r>  -11.0545    1.0000 </r>
       <r>  -11.0008    1.0000 </r>
       <r>  -10.6282    1.0000 </r>
       <r>   -9.9550    1.0000 </r>
       <r>   -9.2213    1.0000 </r>
       <r>   -8.3860    1.0000 </r>
       <r>   -7.9227    1.0000 </r>
       <r>   -7.8473    1.0000 </r>
       <r>   -7.0079    1.0000 </r>
       <r>   -6.7330    1.0000 </r>
       <r>   -6.6683    1.0000 </r>
       <r>   -6.6419    1.0000 </r>
       <r>   -6.0871    1.0000 </r>
       <r>   -5.7661    1.0000 </r>
       <r>   -5.5390    1.0000 </r>
       <r>   -5.3655    1.0000 </r>
       <r>   -5.2410    1.0000 </r>
       <r>   -4.8426    1.0000 </r>
       <r>   -4.6349    1.0000 </r>
       <r>   -4.6083    1.0000 </r>
       <r>   -4.5266    1.0000 </r>
       <r>   -4.3203    1.0000 </r>
       <r>   -4.2083    1.0000 </r>
       <r>   -3.9250    1.0000 </r>
       <r>   -3.8088    1.0000 </r>
       <r>   -3.6796    1.0000 </r>
       <r>   -3.5013    1.0000 </r>
       <r>   -3.3767    1.0000 </r>
       <r>   -3.1516    1.0000 </r>
       <r>   -3.0390    1.0000 </r>
       <r>   -2.9987    1.0000 </r>
       <r>   -2.7174    1.0000 </r>
       <r>   -2.6522    1.0000 </r>
       <r>   -2.5028    1.0000 </r>
       <r>   -2.4044    1.0000 </r>
       <r>   -2.1899    1.0000 </r>
       <r>   -1.9353    1.0000 </r>
       <r>   -1.8658    1.0000 </r>
       <r>   -1.7639    1.0000 </r>
       <r>   -1.6945    1.0000 </r>
       <r>   -1.5008    1.0000 </r>
       <r>   -1.2621    1.0000 </r>
       <r>   -1.0745    1.0000 </r>
       <r>   -0.6782    1.0000 </r>
       <r>   -0.5140    1.0000 </r>
       <r>   -0.3819    1.0000 </r>
       <r>    0.4124    0.0000 </r>
       <r>    0.9186    0.0000 </r>
       <r>    1.1641    0.0000 </r>
       <r>    1.7719    0.0000 </r>
       <r>    1.8358    0.0000 </r>
       <r>    2.0135    0.0000 </r>
       <r>    2.1857    0.0000 </r>
       <r>    2.2546    0.0000 </r>
       <r>    2.3273    0.0000 </r>
       <r>    2.5134    0.0000 </r>
       <r>    2.6482    0.0000 </r>
       <r>    2.7898    0.0000 </r>
       <r>    2.8763    0.0000 </r>
       <r>    2.9525    0.0000 </r>
      </set>
      <set comment="kpoint 5">
       <r>  -14.5821    1.0000 </r>
       <r>  -12.6112    1.0000 </r>
       <r>  -12.3777    1.0000 </r>
       <r>  -12.0162    1.0000 </r>
       <r>  -11.8102    1.0000 </r>
       <r>  -11.6677    1.0000 </r>
       <r>  -11.2257    1.0000 </r>
       <r>  -11.1473    1.0000 </r>
       <r>  -10.8101    1.0000 </r>
       <r>  -10.7170    1.0000 </r>
       <r>  -10.4425    1.0000 </r>
       <r>  -10.0720    1.0000 </r>
       <r>   -9.3086    1.0000 </r>
       <r>   -8.6810    1.0000 </r>
       <r>   -8.4924    1.0000 </r>
       <r>   -8.1108    1.0000 </r>
       <r>   -7.2408    1.0000 </r>
       <r>   -7.0240    1.0000 </r>
       <r>   -6.9318    1.0000 </r>
       <r>   -6.9198    1.0000 </r>
       <r>   -6.3331    1.0000 </r>
       <r>   -6.1912    1.0000 </r>
       <r>   -5.9919    1.0000 </r>
       <r>   -5.8318    1.0000 </r>
       <r>   -5.5931    1.0000 </r>
       <r>   -5.2426    1.0000 </r>
       <r>   -4.9834    1.0000 </r>
       <r>   -4.7981    1.0000 </r>
       <r>   -4.7258    1.0000 </r>
       <r>   -4.4405    1.0000 </r>
       <r>   -4.3349    1.0000 </r>
       <r>   -4.2467    1.0000 </r>
       <r>   -3.9201    1.0000 </r>
       <r>   -3.8166    1.0000 </r>
       <r>   -3.4419    1.0000 </r>
       <r>   -3.4123    1.0000 </r>
       <r>   -3.1775    1.0000 </r>
       <r>   -3.1087    1.0000 </r>
       <r>   -2.9853    1.0000 </r>
       <r>   -2.9422    1.0000 </r>
       <r>   -2.7960    1.0000 </r>
       <r>   -2.6337    1.0000 </r>
       <r>   -2.4451    1.0000 </r>
       <r>   -2.3291    1.0000 </r>
       <r>   -2.0932    1.0000 </r>
       <r>   -1.9277    1.0000 </r>
       <r>   -1.9027    1.0000 </r>
       <r>   -1.7429    1.0000 </r>
       <r>   -1.6867    1.0000 </r>
       <r>   -1.4319    1.0000 </r>
       <r>   -1.2723    1.0000 </r>
       <r>   -1.0498    1.0000 </r>
       <r>   -0.8041    1.0000 </r>
       <r>   -0.5727    1.0000 </r>
       <r>    0.1412    0.0107 </r>
       <r>    0.8448    0.0000 </r>
       <r>    1.2916    0.0000 </r>
       <r>    1.5451    0.0000 </r>
       <r>    1.6639    0.0000 </r>
       <r>    1.7781    0.0000 </r>
       <r>    1.9204    0.0000 </r>
       <r>    2.0070    0.0000 </r>
       <r>    2.1822    0.0000 </r>
       <r>    2.3012    0.0000 </r>
       <r>    2.4020    0.0000 </r>
       <r>    2.6815    0.0000 </r>
       <r>    2.7071    0.0000 </r>
       <r>    2.8131    0.0000 </r>
      </set>
      <set comment="kpoint 6">
       <r>  -14.2452    1.0000 </r>
       <r>  -12.1039    1.0000 </r>
       <r>  -12.0178    1.0000 </r>
       <r>  -11.5971    1.0000 </r>
       <r>  -11.4117    1.0000 </r>
       <r>  -11.2707    1.0000 </r>
       <r>  -10.9368    1.0000 </r>
       <r>  -10.8760    1.0000 </r>
       <r>  -10.6555    1.0000 </r>
       <r>  -10.5253    1.0000 </r>
       <r>  -10.4829    1.0000 </r>
       <r>  -10.2322    1.0000 </r>
       <r>   -9.4213    1.0000 </r>
       <r>   -8.9483    1.0000 </r>
       <r>   -8.8571    1.0000 </r>
       <r>   -8.4032    1.0000 </r>
       <r>   -7.6384    1.0000 </r>
       <r>   -7.4862    1.0000 </r>
       <r>   -7.4419    1.0000 </r>
       <r>   -7.1627    1.0000 </r>
       <r>   -6.8001    1.0000 </r>
       <r>   -6.7871    1.0000 </r>
       <r>   -6.6874    1.0000 </r>
       <r>   -6.2705    1.0000 </r>
       <r>   -5.4269    1.0000 </r>
       <r>   -5.2453    1.0000 </r>
       <r>   -4.9659    1.0000 </r>
       <r>   -4.6417    1.0000 </r>
       <r>   -4.5539    1.0000 </r>
       <r>   -4.3794    1.0000 </r>
       <r>   -4.2544    1.0000 </r>
       <r>   -4.1056    1.0000 </r>
       <r>   -4.0850    1.0000 </r>
       <r>   -3.8013    1.0000 </r>
       <r>   -3.6828    1.0000 </r>
       <r>   -3.3894    1.0000 </r>
       <r>   -3.2955    1.0000 </r>
       <r>   -3.2181    1.0000 </r>
       <r>   -3.0949    1.0000 </r>
       <r>   -3.0493    1.0000 </r>
       <r>   -2.7868    1.0000 </r>
       <r>   -2.6767    1.0000 </r>
       <r>   -2.6108    1.0000 </r>
       <r>   -2.4816    1.0000 </r>
       <r>   -2.3086    1.0000 </r>
       <r>   -2.1575    1.0000 </r>
       <r>   -2.0552    1.0000 </r>
       <r>   -1.8818    1.0000 </r>
       <r>   -1.6993    1.0000 </r>
       <r>   -1.4989    1.0000 </r>
       <r>   -1.4772    1.0000 </r>
       <r>   -1.3066    1.0000 </r>
       <r>   -0.8905    1.0000 </r>
       <r>   -0.7433    1.0000 </r>
       <r>   -0.1304    0.9383 </r>
       <r>    0.5841    0.0000 </r>
       <r>    1.3132    0.0000 </r>
       <r>    1.4067    0.0000 </r>
       <r>    1.5752    0.0000 </r>
       <r>    1.6533    0.0000 </r>
       <r>    1.6874    0.0000 </r>
       <r>    1.8547    0.0000 </r>
       <r>    2.0328    0.0000 </r>
       <r>    2.0658    0.0000 </r>
       <r>    2.2414    0.0000 </r>
       <r>    2.4074    0.0000 </r>
       <r>    2.5747    0.0000 </r>
       <r>    2.7307    0.0000 </r>
      </set>
      <set comment="kpoint 7">
       <r>  -14.0021    1.0000 </r>
       <r>  -11.8108    1.0000 </r>
       <r>  -11.5278    1.0000 </r>
       <r>  -11.1745    1.0000 </r>
       <r>  -11.0989    1.0000 </r>
       <r>  -10.9716    1.0000 </r>
       <r>  -10.8732    1.0000 </r>
       <r>  -10.8642    1.0000 </r>
       <r>  -10.7558    1.0000 </r>
       <r>  -10.6634    1.0000 </r>
       <r>  -10.5204    1.0000 </r>
       <r>  -10.1180    1.0000 </r>
       <r>   -9.7012    1.0000 </r>
       <r>   -9.1267    1.0000 </r>
       <r>   -8.7157    1.0000 </r>
       <r>   -8.4659    1.0000 </r>
       <r>   -8.1061    1.0000 </r>
       <r>   -7.8013    1.0000 </r>
       <r>   -7.5975    1.0000 </r>
       <r>   -7.4953    1.0000 </r>
       <r>   -7.3129    1.0000 </r>
       <r>   -7.2101    1.0000 </r>
       <r>   -7.1402    1.0000 </r>
       <r>   -6.3977    1.0000 </r>
       <r>   -5.1508    1.0000 </r>
       <r>   -4.9935    1.0000 </r>
       <r>   -4.9307    1.0000 </r>
       <r>   -4.5330    1.0000 </r>
       <r>   -4.4121    1.0000 </r>
       <r>   -4.2635    1.0000 </r>
       <r>   -4.1096    1.0000 </r>
       <r>   -4.0155    1.0000 </r>
       <r>   -3.9668    1.0000 </r>
       <r>   -3.8629    1.0000 </r>
       <r>   -3.7661    1.0000 </r>
       <r>   -3.6032    1.0000 </r>
       <r>   -3.4829    1.0000 </r>
       <r>   -3.2823    1.0000 </r>
       <r>   -3.2122    1.0000 </r>
       <r>   -3.0457    1.0000 </r>
       <r>   -2.9549    1.0000 </r>
       <r>   -2.7885    1.0000 </r>
       <r>   -2.7245    1.0000 </r>
       <r>   -2.6815    1.0000 </r>
       <r>   -2.3827    1.0000 </r>
       <r>   -2.2201    1.0000 </r>
       <r>   -2.1490    1.0000 </r>
       <r>   -1.8653    1.0000 </r>
       <r>   -1.7609    1.0000 </r>
       <r>   -1.5868    1.0000 </r>
       <r>   -1.4649    1.0000 </r>
       <r>   -1.3831    1.0000 </r>
       <r>   -0.9173    1.0000 </r>
       <r>   -0.8357    1.0000 </r>
       <r>   -0.2955    0.9999 </r>
       <r>    0.4205    0.0000 </r>
       <r>    1.2127    0.0000 </r>
       <r>    1.3320    0.0000 </r>
       <r>    1.4988    0.0000 </r>
       <r>    1.5334    0.0000 </r>
       <r>    1.6282    0.0000 </r>
       <r>    1.8043    0.0000 </r>
       <r>    1.9078    0.0000 </r>
       <r>    1.9973    0.0000 </r>
       <r>    2.1651    0.0000 </r>
       <r>    2.3906    0.0000 </r>
       <r>    2.4673    0.0000 </r>
       <r>    2.5730    0.0000 </r>
      </set>
      <set comment="kpoint 8">
       <r>  -15.3587    1.0000 </r>
       <r>  -13.5129    1.0000 </r>
       <r>  -13.2378    1.0000 </r>
       <r>  -13.0023    1.0000 </r>
       <r>  -12.6051    1.0000 </r>
       <r>  -12.5028    1.0000 </r>
       <r>  -11.9823    1.0000 </r>
       <r>  -11.8924    1.0000 </r>
       <r>  -11.5069    1.0000 </r>
       <r>  -11.3527    1.0000 </r>
       <r>  -11.0272    1.0000 </r>
       <r>  -10.0481    1.0000 </r>
       <r>   -9.2883    1.0000 </r>
       <r>   -8.5435    1.0000 </r>
       <r>   -7.4346    1.0000 </r>
       <r>   -7.1598    1.0000 </r>
       <r>   -7.1269    1.0000 </r>
       <r>   -6.6988    1.0000 </r>
       <r>   -6.6281    1.0000 </r>
       <r>   -6.2333    1.0000 </r>
       <r>   -5.7759    1.0000 </r>
       <r>   -5.4535    1.0000 </r>
       <r>   -4.8616    1.0000 </r>
       <r>   -4.6643    1.0000 </r>
       <r>   -4.1977    1.0000 </r>
       <r>   -4.0737    1.0000 </r>
       <r>   -3.9681    1.0000 </r>
       <r>   -3.6249    1.0000 </r>
       <r>   -3.5028    1.0000 </r>
       <r>   -3.3743    1.0000 </r>
       <r>   -3.3192    1.0000 </r>
       <r>   -3.1551    1.0000 </r>
       <r>   -2.8318    1.0000 </r>
       <r>   -2.7409    1.0000 </r>
       <r>   -2.7358    1.0000 </r>
       <r>   -2.5319    1.0000 </r>
       <r>   -2.4313    1.0000 </r>
       <r>   -2.3911    1.0000 </r>
       <r>   -2.3538    1.0000 </r>
       <r>   -2.2164    1.0000 </r>
       <r>   -2.1307    1.0000 </r>
       <r>   -2.0379    1.0000 </r>
       <r>   -1.9854    1.0000 </r>
       <r>   -1.9091    1.0000 </r>
       <r>   -1.7028    1.0000 </r>
       <r>   -1.6561    1.0000 </r>
       <r>   -1.5257    1.0000 </r>
       <r>   -1.4120    1.0000 </r>
       <r>   -1.3902    1.0000 </r>
       <r>   -1.2631    1.0000 </r>
       <r>   -1.1138    1.0000 </r>
       <r>   -0.9963    1.0000 </r>
       <r>   -0.0949    0.8506 </r>
       <r>    0.0489    0.1597 </r>
       <r>    1.0374    0.0000 </r>
       <r>    1.1366    0.0000 </r>
       <r>    1.1734    0.0000 </r>
       <r>    1.3018    0.0000 </r>
       <r>    1.3500    0.0000 </r>
       <r>    1.4526    0.0000 </r>
       <r>    1.6977    0.0000 </r>
       <r>    1.8170    0.0000 </r>
       <r>    1.9248    0.0000 </r>
       <r>    2.1065    0.0000 </r>
       <r>    2.2428    0.0000 </r>
       <r>    2.4377    0.0000 </r>
       <r>    2.5668    0.0000 </r>
       <r>    2.6225    0.0000 </r>
      </set>
      <set comment="kpoint 9">
       <r>  -15.3055    1.0000 </r>
       <r>  -13.4361    1.0000 </r>
       <r>  -13.1887    1.0000 </r>
       <r>  -12.9832    1.0000 </r>
       <r>  -12.5294    1.0000 </r>
       <r>  -12.4445    1.0000 </r>
       <r>  -11.9548    1.0000 </r>
       <r>  -11.7958    1.0000 </r>
       <r>  -11.4656    1.0000 </r>
       <r>  -11.2795    1.0000 </r>
       <r>  -10.9829    1.0000 </r>
       <r>  -10.0176    1.0000 </r>
       <r>   -9.2997    1.0000 </r>
       <r>   -8.6020    1.0000 </r>
       <r>   -7.3937    1.0000 </r>
       <r>   -7.1837    1.0000 </r>
       <r>   -7.0855    1.0000 </r>
       <r>   -6.7075    1.0000 </r>
       <r>   -6.5574    1.0000 </r>
       <r>   -6.2278    1.0000 </r>
       <r>   -5.7274    1.0000 </r>
       <r>   -5.5237    1.0000 </r>
       <r>   -5.1555    1.0000 </r>
       <r>   -4.7140    1.0000 </r>
       <r>   -4.4770    1.0000 </r>
       <r>   -4.1331    1.0000 </r>
       <r>   -3.9661    1.0000 </r>
       <r>   -3.6875    1.0000 </r>
       <r>   -3.6017    1.0000 </r>
       <r>   -3.4822    1.0000 </r>
       <r>   -3.4122    1.0000 </r>
       <r>   -3.1499    1.0000 </r>
       <r>   -3.0517    1.0000 </r>
       <r>   -3.0092    1.0000 </r>
       <r>   -2.9376    1.0000 </r>
       <r>   -2.7608    1.0000 </r>
       <r>   -2.6669    1.0000 </r>
       <r>   -2.5500    1.0000 </r>
       <r>   -2.4797    1.0000 </r>
       <r>   -2.3114    1.0000 </r>
       <r>   -2.1964    1.0000 </r>
       <r>   -2.1230    1.0000 </r>
       <r>   -2.0764    1.0000 </r>
       <r>   -2.0150    1.0000 </r>
       <r>   -1.8661    1.0000 </r>
       <r>   -1.7879    1.0000 </r>
       <r>   -1.7559    1.0000 </r>
       <r>   -1.5521    1.0000 </r>
       <r>   -1.3956    1.0000 </r>
       <r>   -1.2134    1.0000 </r>
       <r>   -1.0744    1.0000 </r>
       <r>   -0.9391    1.0000 </r>
       <r>   -0.0839    0.8113 </r>
       <r>    0.0675    0.1042 </r>
       <r>    0.9197    0.0000 </r>
       <r>    1.1984    0.0000 </r>
       <r>    1.3508    0.0000 </r>
       <r>    1.5548    0.0000 </r>
       <r>    1.5888    0.0000 </r>
       <r>    1.7606    0.0000 </r>
       <r>    1.9352    0.0000 </r>
       <r>    2.0011    0.0000 </r>
       <r>    2.2010    0.0000 </r>
       <r>    2.4233    0.0000 </r>
       <r>    2.4992    0.0000 </r>
       <r>    2.5665    0.0000 </r>
       <r>    2.6424    0.0000 </r>
       <r>    2.9065    0.0000 </r>
      </set>
      <set comment="kpoint 10">
       <r>  -15.1492    1.0000 </r>
       <r>  -13.2396    1.0000 </r>
       <r>  -13.0270    1.0000 </r>
       <r>  -12.8468    1.0000 </r>
       <r>  -12.3467    1.0000 </r>
       <r>  -12.2766    1.0000 </r>
       <r>  -11.8243    1.0000 </r>
       <r>  -11.5988    1.0000 </r>
       <r>  -11.3262    1.0000 </r>
       <r>  -11.1109    1.0000 </r>
       <r>  -10.8417    1.0000 </r>
       <r>   -9.9598    1.0000 </r>
       <r>   -9.2906    1.0000 </r>
       <r>   -8.6677    1.0000 </r>
       <r>   -7.4366    1.0000 </r>
       <r>   -7.3048    1.0000 </r>
       <r>   -7.0226    1.0000 </r>
       <r>   -6.6853    1.0000 </r>
       <r>   -6.5268    1.0000 </r>
       <r>   -6.3615    1.0000 </r>
       <r>   -5.8733    1.0000 </r>
       <r>   -5.6785    1.0000 </r>
       <r>   -5.4099    1.0000 </r>
       <r>   -4.8719    1.0000 </r>
       <r>   -4.7084    1.0000 </r>
       <r>   -4.4094    1.0000 </r>
       <r>   -4.3217    1.0000 </r>
       <r>   -4.1320    1.0000 </r>
       <r>   -3.9997    1.0000 </r>
       <r>   -3.9205    1.0000 </r>
       <r>   -3.7111    1.0000 </r>
       <r>   -3.6596    1.0000 </r>
       <r>   -3.4416    1.0000 </r>
       <r>   -3.2830    1.0000 </r>
       <r>   -3.1031    1.0000 </r>
       <r>   -3.0577    1.0000 </r>
       <r>   -2.9909    1.0000 </r>
       <r>   -2.8560    1.0000 </r>
       <r>   -2.8026    1.0000 </r>
       <r>   -2.6487    1.0000 </r>
       <r>   -2.6245    1.0000 </r>
       <r>   -2.4206    1.0000 </r>
       <r>   -2.3476    1.0000 </r>
       <r>   -2.1623    1.0000 </r>
       <r>   -1.9785    1.0000 </r>
       <r>   -1.9098    1.0000 </r>
       <r>   -1.6194    1.0000 </r>
       <r>   -1.5156    1.0000 </r>
       <r>   -1.3033    1.0000 </r>
       <r>   -1.1398    1.0000 </r>
       <r>   -0.9878    1.0000 </r>
       <r>   -0.8470    1.0000 </r>
       <r>   -0.2323    0.9986 </r>
       <r>   -0.0472    0.6420 </r>
       <r>    0.5256    0.0000 </r>
       <r>    0.9807    0.0000 </r>
       <r>    1.2191    0.0000 </r>
       <r>    1.6230    0.0000 </r>
       <r>    1.7943    0.0000 </r>
       <r>    2.0915    0.0000 </r>
       <r>    2.3189    0.0000 </r>
       <r>    2.3516    0.0000 </r>
       <r>    2.5994    0.0000 </r>
       <r>    2.7341    0.0000 </r>
       <r>    2.7549    0.0000 </r>
       <r>    2.9079    0.0000 </r>
       <r>    3.0443    0.0000 </r>
       <r>    3.0901    0.0000 </r>
      </set>
      <set comment="kpoint 11">
       <r>  -14.9000    1.0000 </r>
       <r>  -12.9284    1.0000 </r>
       <r>  -12.7598    1.0000 </r>
       <r>  -12.5954    1.0000 </r>
       <r>  -12.0684    1.0000 </r>
       <r>  -12.0080    1.0000 </r>
       <r>  -11.5980    1.0000 </r>
       <r>  -11.3224    1.0000 </r>
       <r>  -11.1044    1.0000 </r>
       <r>  -10.8653    1.0000 </r>
       <r>  -10.6245    1.0000 </r>
       <r>   -9.9426    1.0000 </r>
       <r>   -9.2977    1.0000 </r>
       <r>   -8.7988    1.0000 </r>
       <r>   -7.9164    1.0000 </r>
       <r>   -7.4185    1.0000 </r>
       <r>   -7.0741    1.0000 </r>
       <r>   -6.7245    1.0000 </r>
       <r>   -6.6717    1.0000 </r>
       <r>   -6.6005    1.0000 </r>
       <r>   -6.0340    1.0000 </r>
       <r>   -5.8505    1.0000 </r>
       <r>   -5.5748    1.0000 </r>
       <r>   -5.2520    1.0000 </r>
       <r>   -5.2159    1.0000 </r>
       <r>   -5.0535    1.0000 </r>
       <r>   -4.7046    1.0000 </r>
       <r>   -4.6380    1.0000 </r>
       <r>   -4.5779    1.0000 </r>
       <r>   -4.2793    1.0000 </r>
       <r>   -4.0516    1.0000 </r>
       <r>   -3.9106    1.0000 </r>
       <r>   -3.7683    1.0000 </r>
       <r>   -3.6600    1.0000 </r>
       <r>   -3.2979    1.0000 </r>
       <r>   -3.2331    1.0000 </r>
       <r>   -3.1443    1.0000 </r>
       <r>   -3.1121    1.0000 </r>
       <r>   -2.9448    1.0000 </r>
       <r>   -2.7807    1.0000 </r>
       <r>   -2.6673    1.0000 </r>
       <r>   -2.5574    1.0000 </r>
       <r>   -2.4621    1.0000 </r>
       <r>   -2.2634    1.0000 </r>
       <r>   -2.0201    1.0000 </r>
       <r>   -1.9257    1.0000 </r>
       <r>   -1.8024    1.0000 </r>
       <r>   -1.6455    1.0000 </r>
       <r>   -1.4316    1.0000 </r>
       <r>   -1.2515    1.0000 </r>
       <r>   -1.0417    1.0000 </r>
       <r>   -0.7034    1.0000 </r>
       <r>   -0.5672    1.0000 </r>
       <r>   -0.3042    1.0000 </r>
       <r>    0.2544    0.0000 </r>
       <r>    0.9466    0.0000 </r>
       <r>    1.1141    0.0000 </r>
       <r>    1.4233    0.0000 </r>
       <r>    1.5654    0.0000 </r>
       <r>    1.7143    0.0000 </r>
       <r>    2.1743    0.0000 </r>
       <r>    2.2087    0.0000 </r>
       <r>    2.4107    0.0000 </r>
       <r>    2.5941    0.0000 </r>
       <r>    2.6821    0.0000 </r>
       <r>    2.8506    0.0000 </r>
       <r>    3.0073    0.0000 </r>
       <r>    3.0624    0.0000 </r>
      </set>
      <set comment="kpoint 12">
       <r>  -14.5811    1.0000 </r>
       <r>  -12.5122    1.0000 </r>
       <r>  -12.4064    1.0000 </r>
       <r>  -12.2365    1.0000 </r>
       <r>  -11.7200    1.0000 </r>
       <r>  -11.6589    1.0000 </r>
       <r>  -11.2995    1.0000 </r>
       <r>  -11.0090    1.0000 </r>
       <r>  -10.8408    1.0000 </r>
       <r>  -10.5955    1.0000 </r>
       <r>  -10.4191    1.0000 </r>
       <r>  -10.0895    1.0000 </r>
       <r>   -9.3261    1.0000 </r>
       <r>   -8.9979    1.0000 </r>
       <r>   -8.4802    1.0000 </r>
       <r>   -7.7332    1.0000 </r>
       <r>   -7.3764    1.0000 </r>
       <r>   -7.1397    1.0000 </r>
       <r>   -6.9889    1.0000 </r>
       <r>   -6.8302    1.0000 </r>
       <r>   -6.2863    1.0000 </r>
       <r>   -6.2199    1.0000 </r>
       <r>   -5.9480    1.0000 </r>
       <r>   -5.8571    1.0000 </r>
       <r>   -5.6302    1.0000 </r>
       <r>   -5.4082    1.0000 </r>
       <r>   -5.0105    1.0000 </r>
       <r>   -4.9646    1.0000 </r>
       <r>   -4.4613    1.0000 </r>
       <r>   -4.4047    1.0000 </r>
       <r>   -4.3472    1.0000 </r>
       <r>   -4.0445    1.0000 </r>
       <r>   -3.9698    1.0000 </r>
       <r>   -3.7121    1.0000 </r>
       <r>   -3.4224    1.0000 </r>
       <r>   -3.3673    1.0000 </r>
       <r>   -3.0941    1.0000 </r>
       <r>   -3.0264    1.0000 </r>
       <r>   -2.9031    1.0000 </r>
       <r>   -2.8646    1.0000 </r>
       <r>   -2.7688    1.0000 </r>
       <r>   -2.5960    1.0000 </r>
       <r>   -2.4943    1.0000 </r>
       <r>   -2.4103    1.0000 </r>
       <r>   -2.3236    1.0000 </r>
       <r>   -1.9930    1.0000 </r>
       <r>   -1.9135    1.0000 </r>
       <r>   -1.7782    1.0000 </r>
       <r>   -1.7075    1.0000 </r>
       <r>   -1.4277    1.0000 </r>
       <r>   -1.2627    1.0000 </r>
       <r>   -1.0461    1.0000 </r>
       <r>   -0.8389    1.0000 </r>
       <r>   -0.5779    1.0000 </r>
       <r>    0.0277    0.2435 </r>
       <r>    0.7717    0.0000 </r>
       <r>    1.1936    0.0000 </r>
       <r>    1.2318    0.0000 </r>
       <r>    1.3841    0.0000 </r>
       <r>    1.6003    0.0000 </r>
       <r>    1.8036    0.0000 </r>
       <r>    2.1328    0.0000 </r>
       <r>    2.1549    0.0000 </r>
       <r>    2.3702    0.0000 </r>
       <r>    2.4862    0.0000 </r>
       <r>    2.5893    0.0000 </r>
       <r>    2.6692    0.0000 </r>
       <r>    2.9348    0.0000 </r>
      </set>
      <set comment="kpoint 13">
       <r>  -14.2447    1.0000 </r>
       <r>  -12.0373    1.0000 </r>
       <r>  -12.0004    1.0000 </r>
       <r>  -11.7866    1.0000 </r>
       <r>  -11.3736    1.0000 </r>
       <r>  -11.2695    1.0000 </r>
       <r>  -10.9973    1.0000 </r>
       <r>  -10.7517    1.0000 </r>
       <r>  -10.6300    1.0000 </r>
       <r>  -10.5035    1.0000 </r>
       <r>  -10.4946    1.0000 </r>
       <r>  -10.2111    1.0000 </r>
       <r>   -9.4156    1.0000 </r>
       <r>   -8.9882    1.0000 </r>
       <r>   -8.9306    1.0000 </r>
       <r>   -8.1379    1.0000 </r>
       <r>   -7.8069    1.0000 </r>
       <r>   -7.7266    1.0000 </r>
       <r>   -7.3845    1.0000 </r>
       <r>   -7.0733    1.0000 </r>
       <r>   -6.8645    1.0000 </r>
       <r>   -6.7227    1.0000 </r>
       <r>   -6.6867    1.0000 </r>
       <r>   -6.2546    1.0000 </r>
       <r>   -5.4645    1.0000 </r>
       <r>   -5.3719    1.0000 </r>
       <r>   -4.9722    1.0000 </r>
       <r>   -4.8102    1.0000 </r>
       <r>   -4.5032    1.0000 </r>
       <r>   -4.3893    1.0000 </r>
       <r>   -4.1445    1.0000 </r>
       <r>   -4.0268    1.0000 </r>
       <r>   -3.8907    1.0000 </r>
       <r>   -3.6596    1.0000 </r>
       <r>   -3.4452    1.0000 </r>
       <r>   -3.3803    1.0000 </r>
       <r>   -3.3104    1.0000 </r>
       <r>   -3.1656    1.0000 </r>
       <r>   -3.1423    1.0000 </r>
       <r>   -2.9877    1.0000 </r>
       <r>   -2.8818    1.0000 </r>
       <r>   -2.7365    1.0000 </r>
       <r>   -2.6048    1.0000 </r>
       <r>   -2.5148    1.0000 </r>
       <r>   -2.3310    1.0000 </r>
       <r>   -2.1936    1.0000 </r>
       <r>   -2.1017    1.0000 </r>
       <r>   -1.8914    1.0000 </r>
       <r>   -1.7268    1.0000 </r>
       <r>   -1.5615    1.0000 </r>
       <r>   -1.4669    1.0000 </r>
       <r>   -1.3416    1.0000 </r>
       <r>   -0.9867    1.0000 </r>
       <r>   -0.7440    1.0000 </r>
       <r>   -0.1647    0.9786 </r>
       <r>    0.5684    0.0000 </r>
       <r>    1.1629    0.0000 </r>
       <r>    1.2731    0.0000 </r>
       <r>    1.3216    0.0000 </r>
       <r>    1.5702    0.0000 </r>
       <r>    1.6700    0.0000 </r>
       <r>    1.8067    0.0000 </r>
       <r>    1.9734    0.0000 </r>
       <r>    2.0631    0.0000 </r>
       <r>    2.3059    0.0000 </r>
       <r>    2.4664    0.0000 </r>
       <r>    2.5994    0.0000 </r>
       <r>    2.6458    0.0000 </r>
      </set>
      <set comment="kpoint 14">
       <r>  -14.0019    1.0000 </r>
       <r>  -11.8083    1.0000 </r>
       <r>  -11.4566    1.0000 </r>
       <r>  -11.2914    1.0000 </r>
       <r>  -11.1193    1.0000 </r>
       <r>  -10.9845    1.0000 </r>
       <r>  -10.8920    1.0000 </r>
       <r>  -10.8480    1.0000 </r>
       <r>  -10.7268    1.0000 </r>
       <r>  -10.6088    1.0000 </r>
       <r>  -10.5302    1.0000 </r>
       <r>  -10.1041    1.0000 </r>
       <r>   -9.7075    1.0000 </r>
       <r>   -9.1025    1.0000 </r>
       <r>   -8.5821    1.0000 </r>
       <r>   -8.4267    1.0000 </r>
       <r>   -8.3544    1.0000 </r>
       <r>   -7.8388    1.0000 </r>
       <r>   -7.5432    1.0000 </r>
       <r>   -7.4777    1.0000 </r>
       <r>   -7.3425    1.0000 </r>
       <r>   -7.1786    1.0000 </r>
       <r>   -7.1564    1.0000 </r>
       <r>   -6.3794    1.0000 </r>
       <r>   -5.2216    1.0000 </r>
       <r>   -5.0497    1.0000 </r>
       <r>   -4.9310    1.0000 </r>
       <r>   -4.5010    1.0000 </r>
       <r>   -4.4110    1.0000 </r>
       <r>   -4.2116    1.0000 </r>
       <r>   -4.1697    1.0000 </r>
       <r>   -4.0084    1.0000 </r>
       <r>   -3.9478    1.0000 </r>
       <r>   -3.7503    1.0000 </r>
       <r>   -3.6867    1.0000 </r>
       <r>   -3.5169    1.0000 </r>
       <r>   -3.4251    1.0000 </r>
       <r>   -3.2890    1.0000 </r>
       <r>   -3.2502    1.0000 </r>
       <r>   -3.0888    1.0000 </r>
       <r>   -3.0009    1.0000 </r>
       <r>   -2.7499    1.0000 </r>
       <r>   -2.6487    1.0000 </r>
       <r>   -2.6092    1.0000 </r>
       <r>   -2.5826    1.0000 </r>
       <r>   -2.1989    1.0000 </r>
       <r>   -2.1509    1.0000 </r>
       <r>   -1.8822    1.0000 </r>
       <r>   -1.7483    1.0000 </r>
       <r>   -1.6093    1.0000 </r>
       <r>   -1.5245    1.0000 </r>
       <r>   -1.4198    1.0000 </r>
       <r>   -1.0287    1.0000 </r>
       <r>   -0.8245    1.0000 </r>
       <r>   -0.2565    0.9996 </r>
       <r>    0.4653    0.0000 </r>
       <r>    1.2431    0.0000 </r>
       <r>    1.3852    0.0000 </r>
       <r>    1.4551    0.0000 </r>
       <r>    1.5277    0.0000 </r>
       <r>    1.5594    0.0000 </r>
       <r>    1.6471    0.0000 </r>
       <r>    1.8051    0.0000 </r>
       <r>    2.0089    0.0000 </r>
       <r>    2.2676    0.0000 </r>
       <r>    2.3797    0.0000 </r>
       <r>    2.4188    0.0000 </r>
       <r>    2.4757    0.0000 </r>
      </set>
      <set comment="kpoint 15">
       <r>  -14.0022    1.0000 </r>
       <r>  -11.8080    1.0000 </r>
       <r>  -11.5616    1.0000 </r>
       <r>  -11.1071    1.0000 </r>
       <r>  -11.0974    1.0000 </r>
       <r>  -10.9576    1.0000 </r>
       <r>  -10.8535    1.0000 </r>
       <r>  -10.8367    1.0000 </r>
       <r>  -10.7826    1.0000 </r>
       <r>  -10.7322    1.0000 </r>
       <r>  -10.5345    1.0000 </r>
       <r>  -10.1139    1.0000 </r>
       <r>   -9.7070    1.0000 </r>
       <r>   -9.1094    1.0000 </r>
       <r>   -8.7842    1.0000 </r>
       <r>   -8.4598    1.0000 </r>
       <r>   -7.9710    1.0000 </r>
       <r>   -7.7889    1.0000 </r>
       <r>   -7.6308    1.0000 </r>
       <r>   -7.5527    1.0000 </r>
       <r>   -7.3076    1.0000 </r>
       <r>   -7.2484    1.0000 </r>
       <r>   -7.1180    1.0000 </r>
       <r>   -6.3688    1.0000 </r>
       <r>   -5.2320    1.0000 </r>
       <r>   -4.9242    1.0000 </r>
       <r>   -4.7583    1.0000 </r>
       <r>   -4.6074    1.0000 </r>
       <r>   -4.4024    1.0000 </r>
       <r>   -4.2786    1.0000 </r>
       <r>   -4.0938    1.0000 </r>
       <r>   -4.0320    1.0000 </r>
       <r>   -3.9901    1.0000 </r>
       <r>   -3.9104    1.0000 </r>
       <r>   -3.8343    1.0000 </r>
       <r>   -3.6913    1.0000 </r>
       <r>   -3.5649    1.0000 </r>
       <r>   -3.3735    1.0000 </r>
       <r>   -3.0991    1.0000 </r>
       <r>   -2.9594    1.0000 </r>
       <r>   -2.8456    1.0000 </r>
       <r>   -2.8019    1.0000 </r>
       <r>   -2.7082    1.0000 </r>
       <r>   -2.6346    1.0000 </r>
       <r>   -2.4080    1.0000 </r>
       <r>   -2.2007    1.0000 </r>
       <r>   -2.1621    1.0000 </r>
       <r>   -1.9417    1.0000 </r>
       <r>   -1.7635    1.0000 </r>
       <r>   -1.5583    1.0000 </r>
       <r>   -1.4569    1.0000 </r>
       <r>   -1.3969    1.0000 </r>
       <r>   -1.0120    1.0000 </r>
       <r>   -0.8421    1.0000 </r>
       <r>   -0.2334    0.9986 </r>
       <r>    0.5110    0.0000 </r>
       <r>    1.2799    0.0000 </r>
       <r>    1.3645    0.0000 </r>
       <r>    1.4991    0.0000 </r>
       <r>    1.6265    0.0000 </r>
       <r>    1.6669    0.0000 </r>
       <r>    1.7441    0.0000 </r>
       <r>    1.8803    0.0000 </r>
       <r>    2.0785    0.0000 </r>
       <r>    2.2787    0.0000 </r>
       <r>    2.3425    0.0000 </r>
       <r>    2.4915    0.0000 </r>
       <r>    2.5775    0.0000 </r>
      </set>
      <set comment="kpoint 16">
       <r>  -14.2455    1.0000 </r>
       <r>  -12.1300    1.0000 </r>
       <r>  -12.0066    1.0000 </r>
       <r>  -11.5125    1.0000 </r>
       <r>  -11.4415    1.0000 </r>
       <r>  -11.2689    1.0000 </r>
       <r>  -10.9589    1.0000 </r>
       <r>  -10.8962    1.0000 </r>
       <r>  -10.6583    1.0000 </r>
       <r>  -10.5610    1.0000 </r>
       <r>  -10.4783    1.0000 </r>
       <r>  -10.2191    1.0000 </r>
       <r>   -9.4150    1.0000 </r>
       <r>   -8.9497    1.0000 </r>
       <r>   -8.7690    1.0000 </r>
       <r>   -8.5172    1.0000 </r>
       <r>   -7.6229    1.0000 </r>
       <r>   -7.4672    1.0000 </r>
       <r>   -7.3568    1.0000 </r>
       <r>   -7.2007    1.0000 </r>
       <r>   -6.8373    1.0000 </r>
       <r>   -6.8121    1.0000 </r>
       <r>   -6.6912    1.0000 </r>
       <r>   -6.2179    1.0000 </r>
       <r>   -5.4227    1.0000 </r>
       <r>   -5.1078    1.0000 </r>
       <r>   -4.9652    1.0000 </r>
       <r>   -4.8464    1.0000 </r>
       <r>   -4.4330    1.0000 </r>
       <r>   -4.3501    1.0000 </r>
       <r>   -4.2720    1.0000 </r>
       <r>   -4.1392    1.0000 </r>
       <r>   -4.1076    1.0000 </r>
       <r>   -3.8215    1.0000 </r>
       <r>   -3.7496    1.0000 </r>
       <r>   -3.4378    1.0000 </r>
       <r>   -3.3332    1.0000 </r>
       <r>   -3.2239    1.0000 </r>
       <r>   -3.1660    1.0000 </r>
       <r>   -3.0233    1.0000 </r>
       <r>   -2.7661    1.0000 </r>
       <r>   -2.7197    1.0000 </r>
       <r>   -2.5357    1.0000 </r>
       <r>   -2.4595    1.0000 </r>
       <r>   -2.2718    1.0000 </r>
       <r>   -2.1570    1.0000 </r>
       <r>   -1.9738    1.0000 </r>
       <r>   -1.8671    1.0000 </r>
       <r>   -1.7707    1.0000 </r>
       <r>   -1.5343    1.0000 </r>
       <r>   -1.4018    1.0000 </r>
       <r>   -1.3053    1.0000 </r>
       <r>   -0.8992    1.0000 </r>
       <r>   -0.8285    1.0000 </r>
       <r>   -0.0731    0.7673 </r>
       <r>    0.6632    0.0000 </r>
       <r>    1.2730    0.0000 </r>
       <r>    1.3887    0.0000 </r>
       <r>    1.6169    0.0000 </r>
       <r>    1.7378    0.0000 </r>
       <r>    1.8374    0.0000 </r>
       <r>    1.9282    0.0000 </r>
       <r>    2.0595    0.0000 </r>
       <r>    2.2300    0.0000 </r>
       <r>    2.2946    0.0000 </r>
       <r>    2.4044    0.0000 </r>
       <r>    2.5675    0.0000 </r>
       <r>    2.6999    0.0000 </r>
      </set>
      <set comment="kpoint 17">
       <r>  -14.5823    1.0000 </r>
       <r>  -12.6235    1.0000 </r>
       <r>  -12.3683    1.0000 </r>
       <r>  -11.9747    1.0000 </r>
       <r>  -11.8281    1.0000 </r>
       <r>  -11.6677    1.0000 </r>
       <r>  -11.2700    1.0000 </r>
       <r>  -11.1268    1.0000 </r>
       <r>  -10.8019    1.0000 </r>
       <r>  -10.7463    1.0000 </r>
       <r>  -10.4486    1.0000 </r>
       <r>  -10.0631    1.0000 </r>
       <r>   -9.2796    1.0000 </r>
       <r>   -8.5822    1.0000 </r>
       <r>   -8.5061    1.0000 </r>
       <r>   -8.2137    1.0000 </r>
       <r>   -7.3213    1.0000 </r>
       <r>   -7.0278    1.0000 </r>
       <r>   -6.8974    1.0000 </r>
       <r>   -6.8295    1.0000 </r>
       <r>   -6.3804    1.0000 </r>
       <r>   -6.1836    1.0000 </r>
       <r>   -6.0002    1.0000 </r>
       <r>   -5.8166    1.0000 </r>
       <r>   -5.5725    1.0000 </r>
       <r>   -5.1800    1.0000 </r>
       <r>   -4.9846    1.0000 </r>
       <r>   -4.8723    1.0000 </r>
       <r>   -4.6696    1.0000 </r>
       <r>   -4.5203    1.0000 </r>
       <r>   -4.3359    1.0000 </r>
       <r>   -4.2658    1.0000 </r>
       <r>   -3.9035    1.0000 </r>
       <r>   -3.7564    1.0000 </r>
       <r>   -3.4928    1.0000 </r>
       <r>   -3.4352    1.0000 </r>
       <r>   -3.1918    1.0000 </r>
       <r>   -3.1068    1.0000 </r>
       <r>   -2.9849    1.0000 </r>
       <r>   -2.8770    1.0000 </r>
       <r>   -2.7951    1.0000 </r>
       <r>   -2.6410    1.0000 </r>
       <r>   -2.5289    1.0000 </r>
       <r>   -2.3097    1.0000 </r>
       <r>   -2.0496    1.0000 </r>
       <r>   -1.9159    1.0000 </r>
       <r>   -1.8943    1.0000 </r>
       <r>   -1.7501    1.0000 </r>
       <r>   -1.6946    1.0000 </r>
       <r>   -1.4411    1.0000 </r>
       <r>   -1.2475    1.0000 </r>
       <r>   -1.0911    1.0000 </r>
       <r>   -0.7734    1.0000 </r>
       <r>   -0.6447    1.0000 </r>
       <r>    0.1619    0.0048 </r>
       <r>    0.8403    0.0000 </r>
       <r>    1.3427    0.0000 </r>
       <r>    1.5687    0.0000 </r>
       <r>    1.6975    0.0000 </r>
       <r>    1.8485    0.0000 </r>
       <r>    1.9627    0.0000 </r>
       <r>    2.0655    0.0000 </r>
       <r>    2.2152    0.0000 </r>
       <r>    2.3066    0.0000 </r>
       <r>    2.4492    0.0000 </r>
       <r>    2.6478    0.0000 </r>
       <r>    2.6998    0.0000 </r>
       <r>    2.8140    0.0000 </r>
      </set>
      <set comment="kpoint 18">
       <r>  -14.9011    1.0000 </r>
       <r>  -13.0187    1.0000 </r>
       <r>  -12.7215    1.0000 </r>
       <r>  -12.3791    1.0000 </r>
       <r>  -12.1692    1.0000 </r>
       <r>  -12.0195    1.0000 </r>
       <r>  -11.5664    1.0000 </r>
       <r>  -11.4379    1.0000 </r>
       <r>  -11.0581    1.0000 </r>
       <r>  -10.9933    1.0000 </r>
       <r>  -10.6268    1.0000 </r>
       <r>   -9.9555    1.0000 </r>
       <r>   -9.1965    1.0000 </r>
       <r>   -8.4263    1.0000 </r>
       <r>   -7.9370    1.0000 </r>
       <r>   -7.8077    1.0000 </r>
       <r>   -7.1479    1.0000 </r>
       <r>   -6.7195    1.0000 </r>
       <r>   -6.6650    1.0000 </r>
       <r>   -6.4518    1.0000 </r>
       <r>   -6.1469    1.0000 </r>
       <r>   -5.7684    1.0000 </r>
       <r>   -5.5688    1.0000 </r>
       <r>   -5.3626    1.0000 </r>
       <r>   -5.2390    1.0000 </r>
       <r>   -4.8592    1.0000 </r>
       <r>   -4.6418    1.0000 </r>
       <r>   -4.5882    1.0000 </r>
       <r>   -4.5191    1.0000 </r>
       <r>   -4.3874    1.0000 </r>
       <r>   -4.1997    1.0000 </r>
       <r>   -3.8692    1.0000 </r>
       <r>   -3.8033    1.0000 </r>
       <r>   -3.6366    1.0000 </r>
       <r>   -3.4794    1.0000 </r>
       <r>   -3.3655    1.0000 </r>
       <r>   -3.1181    1.0000 </r>
       <r>   -3.0356    1.0000 </r>
       <r>   -3.0067    1.0000 </r>
       <r>   -2.7050    1.0000 </r>
       <r>   -2.6476    1.0000 </r>
       <r>   -2.5005    1.0000 </r>
       <r>   -2.4529    1.0000 </r>
       <r>   -2.2747    1.0000 </r>
       <r>   -1.9275    1.0000 </r>
       <r>   -1.8648    1.0000 </r>
       <r>   -1.7774    1.0000 </r>
       <r>   -1.6959    1.0000 </r>
       <r>   -1.4912    1.0000 </r>
       <r>   -1.2663    1.0000 </r>
       <r>   -1.0819    1.0000 </r>
       <r>   -0.6690    1.0000 </r>
       <r>   -0.5084    1.0000 </r>
       <r>   -0.4115    1.0000 </r>
       <r>    0.3769    0.0000 </r>
       <r>    0.9235    0.0000 </r>
       <r>    1.2615    0.0000 </r>
       <r>    1.7490    0.0000 </r>
       <r>    1.7966    0.0000 </r>
[...]
       <r>    2.7100    0.0000 </r>
      </set>
      <set comment="kpoint 54">
       <r>  -14.0021    1.0000 </r>
       <r>  -11.8054    1.0000 </r>
       <r>  -11.5164    1.0000 </r>
       <r>  -11.1965    1.0000 </r>
       <r>  -11.1259    1.0000 </r>
       <r>  -10.9745    1.0000 </r>
       <r>  -10.8772    1.0000 </r>
       <r>  -10.8369    1.0000 </r>
       <r>  -10.7493    1.0000 </r>
       <r>  -10.6499    1.0000 </r>
       <r>  -10.5438    1.0000 </r>
       <r>  -10.1005    1.0000 </r>
       <r>   -9.7134    1.0000 </r>
       <r>   -9.0841    1.0000 </r>
       <r>   -8.6928    1.0000 </r>
       <r>   -8.4666    1.0000 </r>
       <r>   -8.1460    1.0000 </r>
       <r>   -7.8347    1.0000 </r>
       <r>   -7.5871    1.0000 </r>
       <r>   -7.5329    1.0000 </r>
       <r>   -7.3175    1.0000 </r>
       <r>   -7.1997    1.0000 </r>
       <r>   -7.1344    1.0000 </r>
       <r>   -6.3527    1.0000 </r>
       <r>   -5.2837    1.0000 </r>
       <r>   -4.9773    1.0000 </r>
       <r>   -4.8984    1.0000 </r>
       <r>   -4.5098    1.0000 </r>
       <r>   -4.3446    1.0000 </r>
       <r>   -4.2355    1.0000 </r>
       <r>   -4.1140    1.0000 </r>
       <r>   -4.0420    1.0000 </r>
       <r>   -3.9689    1.0000 </r>
       <r>   -3.7982    1.0000 </r>
       <r>   -3.7383    1.0000 </r>
       <r>   -3.6420    1.0000 </r>
       <r>   -3.5420    1.0000 </r>
       <r>   -3.2850    1.0000 </r>
       <r>   -3.1527    1.0000 </r>
       <r>   -3.0413    1.0000 </r>
       <r>   -3.0107    1.0000 </r>
       <r>   -2.7757    1.0000 </r>
       <r>   -2.7045    1.0000 </r>
       <r>   -2.5329    1.0000 </r>
       <r>   -2.3988    1.0000 </r>
       <r>   -2.2320    1.0000 </r>
       <r>   -2.1327    1.0000 </r>
       <r>   -1.9559    1.0000 </r>
       <r>   -1.7732    1.0000 </r>
       <r>   -1.5733    1.0000 </r>
       <r>   -1.5327    1.0000 </r>
       <r>   -1.4252    1.0000 </r>
       <r>   -1.0905    1.0000 </r>
       <r>   -0.8402    1.0000 </r>
       <r>   -0.2099    0.9961 </r>
       <r>    0.5599    0.0000 </r>
       <r>    1.2695    0.0000 </r>
       <r>    1.3208    0.0000 </r>
       <r>    1.4484    0.0000 </r>
       <r>    1.5454    0.0000 </r>
       <r>    1.5938    0.0000 </r>
       <r>    1.7912    0.0000 </r>
       <r>    1.8667    0.0000 </r>
       <r>    2.0137    0.0000 </r>
       <r>    2.1129    0.0000 </r>
       <r>    2.3462    0.0000 </r>
       <r>    2.4547    0.0000 </r>
       <r>    2.6183    0.0000 </r>
      </set>
     </set>
    </set>
   </array>
  </eigenvalues>
  <separator name="orbital magnetization" >
   <v name="MAGDIPOLOUT">      0.00000000      0.00000000      0.00000000</v>
  </separator>
  <dos>
   <i name="efermi">     -0.02146991 </i>
   <total>
    <array>
     <dimension dim="1">gridpoints</dimension>
     <dimension dim="2">spin</dimension>
     <field>energy</field>
     <field>total</field>
     <field>integrated</field>
     <set>
      <set comment="spin 1">
       <r>   -16.3598     0.0000     0.0000 </r>
       <r>   -16.2915     0.0000     0.0000 </r>
       <r>   -16.2232     0.0000     0.0000 </r>
       <r>   -16.1550     0.0000     0.0000 </r>
       <r>   -16.0867     0.0000     0.0000 </r>
       <r>   -16.0185     0.0000     0.0000 </r>
       <r>   -15.9502     0.0000     0.0000 </r>
       <r>   -15.8819     0.0000     0.0000 </r>
       <r>   -15.8137     0.0000     0.0000 </r>
       <r>   -15.7454     0.0000     0.0000 </r>
       <r>   -15.6771     0.0000     0.0000 </r>
       <r>   -15.6089     0.0005     0.0000 </r>
       <r>   -15.5406     0.0129     0.0009 </r>
       <r>   -15.4723     0.1502     0.0112 </r>
       <r>   -15.4041     0.7955     0.0655 </r>
       <r>   -15.3358     1.9858     0.2010 </r>
       <r>   -15.2675     2.4825     0.3705 </r>
       <r>   -15.1993     2.0976     0.5137 </r>
       <r>   -15.1310     1.9297     0.6454 </r>
       <r>   -15.0627     1.3680     0.7388 </r>
       <r>   -14.9945     0.7971     0.7932 </r>
       <r>   -14.9262     1.2606     0.8793 </r>
       <r>   -14.8579     1.6633     0.9928 </r>
       <r>   -14.7897     0.9758     1.0595 </r>
       <r>   -14.7214     0.3390     1.0826 </r>
       <r>   -14.6531     0.6196     1.1249 </r>
       <r>   -14.5849     1.4700     1.2252 </r>
       <r>   -14.5166     1.5295     1.3297 </r>
       <r>   -14.4483     0.6805     1.3761 </r>
       <r>   -14.3801     0.2416     1.3926 </r>
       <r>   -14.3118     0.6612     1.4377 </r>
       <r>   -14.2435     1.5163     1.5412 </r>
       <r>   -14.1753     1.5160     1.6447 </r>
       <r>   -14.1070     0.8927     1.7057 </r>
       <r>   -14.0387     1.1573     1.7847 </r>
       <r>   -13.9705     1.6775     1.8992 </r>
       <r>   -13.9022     1.1207     1.9757 </r>
       <r>   -13.8340     0.3167     1.9973 </r>
       <r>   -13.7657     0.0392     2.0000 </r>
       <r>   -13.6974     0.0290     2.0020 </r>
       <r>   -13.6292     0.2017     2.0157 </r>
       <r>   -13.5609     0.7715     2.0684 </r>
       <r>   -13.4926     1.6057     2.1780 </r>
       <r>   -13.4244     2.0287     2.3165 </r>
       <r>   -13.3561     2.0924     2.4594 </r>
       <r>   -13.2878     2.5700     2.6348 </r>
       <r>   -13.2196     3.5127     2.8746 </r>
       <r>   -13.1513     3.8811     3.1395 </r>
       <r>   -13.0830     3.5368     3.3810 </r>
       <r>   -13.0148     3.9888     3.6533 </r>
       <r>   -12.9465     4.4547     3.9574 </r>
       <r>   -12.8782     3.6972     4.2098 </r>
       <r>   -12.8100     2.9265     4.4096 </r>
       <r>   -12.7417     3.1752     4.6263 </r>
       <r>   -12.6734     3.9626     4.8968 </r>
       <r>   -12.6052     4.9223     5.2329 </r>
       <r>   -12.5369     5.6984     5.6219 </r>
       <r>   -12.4686     6.3462     6.0551 </r>
       <r>   -12.4004     6.7519     6.5160 </r>
       <r>   -12.3321     6.0731     6.9306 </r>
       <r>   -12.2638     4.8194     7.2596 </r>
       <r>   -12.1956     4.0123     7.5335 </r>
       <r>   -12.1273     4.4761     7.8391 </r>
       <r>   -12.0590     6.5682     8.2874 </r>
       <r>   -11.9908     8.1133     8.8413 </r>
       <r>   -11.9225     7.1484     9.3293 </r>
       <r>   -11.8542     6.5578     9.7770 </r>
       <r>   -11.7860     7.2690    10.2732 </r>
       <r>   -11.7177     7.1224    10.7594 </r>
       <r>   -11.6495     6.8686    11.2283 </r>
       <r>   -11.5812     7.0389    11.7088 </r>
       <r>   -11.5129     7.3433    12.2101 </r>
       <r>   -11.4447     7.8206    12.7440 </r>
       <r>   -11.3764     8.1835    13.3026 </r>
       <r>   -11.3081     9.0338    13.9193 </r>
       <r>   -11.2399     9.4866    14.5669 </r>
       <r>   -11.1716     8.4004    15.1404 </r>
       <r>   -11.1033     8.3059    15.7074 </r>
       <r>   -11.0351     9.4786    16.3545 </r>
       <r>   -10.9668    10.3476    17.0609 </r>
       <r>   -10.8985    10.7716    17.7962 </r>
       <r>   -10.8303    11.1838    18.5597 </r>
       <r>   -10.7620    10.0132    19.2432 </r>
       <r>   -10.6937     8.2003    19.8030 </r>
       <r>   -10.6255     7.9846    20.3481 </r>
       <r>   -10.5572     8.0937    20.9006 </r>
       <r>   -10.4889     7.3813    21.4045 </r>
       <r>   -10.4207     5.3870    21.7722 </r>
       <r>   -10.3524     2.6798    21.9552 </r>
       <r>   -10.2841     1.3643    22.0483 </r>
       <r>   -10.2159     1.9943    22.1845 </r>
       <r>   -10.1476     3.5222    22.4249 </r>
       <r>   -10.0793     5.5524    22.8039 </r>
       <r>   -10.0111     6.8762    23.2734 </r>
       <r>    -9.9428     6.0489    23.6863 </r>
       <r>    -9.8745     3.4441    23.9214 </r>
       <r>    -9.8063     1.3586    24.0141 </r>
       <r>    -9.7380     1.2801    24.1015 </r>
       <r>    -9.6698     1.6764    24.2160 </r>
       <r>    -9.6015     1.0586    24.2882 </r>
       <r>    -9.5332     0.4900    24.3217 </r>
       <r>    -9.4650     1.1271    24.3986 </r>
       <r>    -9.3967     2.9042    24.5969 </r>
       <r>    -9.3284     5.0036    24.9385 </r>
       <r>    -9.2602     6.2656    25.3662 </r>
       <r>    -9.1919     5.7271    25.7571 </r>
       <r>    -9.1236     4.3380    26.0533 </r>
       <r>    -9.0554     3.2548    26.2755 </r>
       <r>    -8.9871     3.2357    26.4964 </r>
       <r>    -8.9188     3.7756    26.7541 </r>
       <r>    -8.8506     3.6294    27.0019 </r>
       <r>    -8.7823     3.7313    27.2566 </r>
       <r>    -8.7140     3.9659    27.5273 </r>
       <r>    -8.6458     3.5514    27.7697 </r>
       <r>    -8.5775     3.5850    28.0145 </r>
       <r>    -8.5092     4.8229    28.3437 </r>
       <r>    -8.4410     5.8209    28.7411 </r>
       <r>    -8.3727     4.7959    29.0685 </r>
       <r>    -8.3044     2.7930    29.2591 </r>
       <r>    -8.2362     1.9085    29.3894 </r>
       <r>    -8.1679     2.3349    29.5488 </r>
       <r>    -8.0996     2.7839    29.7389 </r>
       <r>    -8.0314     2.4175    29.9039 </r>
       <r>    -7.9631     2.4098    30.0684 </r>
       <r>    -7.8948     3.5611    30.3115 </r>
       <r>    -7.8266     5.0090    30.6535 </r>
       <r>    -7.7583     5.3868    31.0212 </r>
       <r>    -7.6900     4.4615    31.3258 </r>
       <r>    -7.6218     4.2093    31.6131 </r>
       <r>    -7.5535     5.0166    31.9556 </r>
       <r>    -7.4853     6.4335    32.3948 </r>
       <r>    -7.4170     8.3066    32.9618 </r>
       <r>    -7.3487     8.8878    33.5685 </r>
       <r>    -7.2805     8.1069    34.1220 </r>
       <r>    -7.2122     8.9413    34.7324 </r>
       <r>    -7.1439    11.6030    35.5244 </r>
       <r>    -7.0757    11.6687    36.3210 </r>
       <r>    -7.0074     8.4500    36.8979 </r>
       <r>    -6.9391     5.5644    37.2777 </r>
       <r>    -6.8709     5.2850    37.6385 </r>
       <r>    -6.8026     7.3249    38.1385 </r>
       <r>    -6.7343    10.0104    38.8219 </r>
       <r>    -6.6661    11.0583    39.5768 </r>
       <r>    -6.5978     8.6213    40.1653 </r>
       <r>    -6.5295     5.5169    40.5420 </r>
       <r>    -6.4613     4.4485    40.8456 </r>
       <r>    -6.3930     5.2570    41.2045 </r>
       <r>    -6.3247     6.7455    41.6650 </r>
       <r>    -6.2565     7.5734    42.1820 </r>
       <r>    -6.1882     7.0861    42.6657 </r>
       <r>    -6.1199     5.1679    43.0185 </r>
       <r>    -6.0517     3.9527    43.2884 </r>
       <r>    -5.9834     4.0132    43.5623 </r>
       <r>    -5.9151     4.3231    43.8574 </r>
       <r>    -5.8469     5.2944    44.2189 </r>
       <r>    -5.7786     6.1672    44.6399 </r>
       <r>    -5.7103     5.7889    45.0351 </r>
       <r>    -5.6421     5.5522    45.4141 </r>
       <r>    -5.5738     6.3113    45.8449 </r>
       <r>    -5.5055     6.5050    46.2890 </r>
       <r>    -5.4373     6.1366    46.7079 </r>
       <r>    -5.3690     6.1774    47.1296 </r>
       <r>    -5.3008     6.4666    47.5711 </r>
       <r>    -5.2325     7.3449    48.0725 </r>
       <r>    -5.1642     7.1351    48.5596 </r>
       <r>    -5.0960     5.6517    48.9454 </r>
       <r>    -5.0277     6.3403    49.3782 </r>
       <r>    -4.9594     8.8420    49.9818 </r>
       <r>    -4.8912     9.6098    50.6378 </r>
       <r>    -4.8229     8.3680    51.2091 </r>
       <r>    -4.7546     7.4236    51.7158 </r>
       <r>    -4.6864     8.0287    52.2639 </r>
       <r>    -4.6181     9.0352    52.8807 </r>
       <r>    -4.5498     9.4255    53.5241 </r>
       <r>    -4.4816     9.6785    54.1849 </r>
       <r>    -4.4133    10.4076    54.8953 </r>
       <r>    -4.3450    11.3056    55.6671 </r>
       <r>    -4.2768    11.4064    56.4458 </r>
       <r>    -4.2085    11.3423    57.2201 </r>
       <r>    -4.1402    12.2995    58.0597 </r>
       <r>    -4.0720    13.8338    59.0041 </r>
       <r>    -4.0037    14.8661    60.0189 </r>
       <r>    -3.9354    14.2262    60.9901 </r>
       <r>    -3.8672    11.9771    61.8077 </r>
       <r>    -3.7989    10.8504    62.5484 </r>
       <r>    -3.7306    12.2390    63.3839 </r>
       <r>    -3.6624    13.6619    64.3166 </r>
       <r>    -3.5941    12.6264    65.1785 </r>
       <r>    -3.5258    11.3833    65.9556 </r>
       <r>    -3.4576    12.7664    66.8271 </r>
       <r>    -3.3893    14.3441    67.8063 </r>
       <r>    -3.3210    14.3068    68.7830 </r>
       <r>    -3.2528    14.7872    69.7924 </r>
       <r>    -3.1845    16.6293    70.9276 </r>
       <r>    -3.1163    18.6189    72.1987 </r>
       <r>    -3.0480    18.7284    73.4772 </r>
       <r>    -2.9797    17.1764    74.6497 </r>
       <r>    -2.9115    15.3426    75.6971 </r>
       <r>    -2.8432    14.8545    76.7111 </r>
       <r>    -2.7749    16.6224    77.8459 </r>
       <r>    -2.7067    18.1390    79.0842 </r>
       <r>    -2.6384    18.0333    80.3152 </r>
       <r>    -2.5701    17.4110    81.5038 </r>
       <r>    -2.5019    16.9547    82.6612 </r>
       <r>    -2.4336    16.8562    83.8119 </r>
       <r>    -2.3653    16.0959    84.9107 </r>
       <r>    -2.2971    14.6950    85.9139 </r>
       <r>    -2.2288    13.9315    86.8649 </r>
       <r>    -2.1605    14.0937    87.8270 </r>
       <r>    -2.0923    13.6373    88.7580 </r>
       <r>    -2.0240    13.5868    89.6855 </r>
       <r>    -1.9557    15.3297    90.7320 </r>
       <r>    -1.8875    16.3899    91.8508 </r>
       <r>    -1.8192    15.7718    92.9275 </r>
       <r>    -1.7509    15.7225    94.0008 </r>
       <r>    -1.6827    15.3920    95.0516 </r>
       <r>    -1.6144    13.9154    96.0015 </r>
       <r>    -1.5461    13.3671    96.9140 </r>
       <r>    -1.4779    13.8317    97.8582 </r>
       <r>    -1.4096    13.6258    98.7884 </r>
       <r>    -1.3413    12.2170    99.6224 </r>
       <r>    -1.2731    10.9748   100.3716 </r>
       <r>    -1.2048     9.4050   101.0137 </r>
       <r>    -1.1365     8.3101   101.5809 </r>
       <r>    -1.0683     9.6263   102.2381 </r>
       <r>    -1.0000    10.7236   102.9701 </r>
       <r>    -0.9318     9.6609   103.6297 </r>
       <r>    -0.8635     8.5633   104.2142 </r>
       <r>    -0.7952     7.9346   104.7559 </r>
       <r>    -0.7270     6.2324   105.1814 </r>
       <r>    -0.6587     4.6969   105.5020 </r>
       <r>    -0.5904     3.9697   105.7730 </r>
       <r>    -0.5222     3.2242   105.9931 </r>
       <r>    -0.4539     2.2403   106.1460 </r>
       <r>    -0.3856     1.8945   106.2753 </r>
       <r>    -0.3174     2.6495   106.4562 </r>
       <r>    -0.2491     3.9631   106.7268 </r>
       <r>    -0.1808     4.8247   107.0561 </r>
       <r>    -0.1126     5.5705   107.4364 </r>
       <r>    -0.0443     6.2659   107.8641 </r>
       <r>     0.0240     5.5030   108.2398 </r>
       <r>     0.0922     4.1311   108.5218 </r>
       <r>     0.1605     3.1181   108.7347 </r>
       <r>     0.2288     2.5361   108.9078 </r>
       <r>     0.2970     1.9313   109.0397 </r>
       <r>     0.3653     1.6166   109.1500 </r>
       <r>     0.4336     2.2523   109.3038 </r>
       <r>     0.5018     3.2985   109.5290 </r>
       <r>     0.5701     3.8290   109.7903 </r>
       <r>     0.6384     3.1445   110.0050 </r>
       <r>     0.7066     2.0216   110.1430 </r>
       <r>     0.7749     1.9563   110.2766 </r>
       <r>     0.8432     3.2126   110.4959 </r>
       <r>     0.9114     4.8093   110.8242 </r>
       <r>     0.9797     5.2620   111.1834 </r>
       <r>     1.0480     4.5362   111.4930 </r>
       <r>     1.1162     5.2479   111.8513 </r>
       <r>     1.1845     8.1939   112.4107 </r>
       <r>     1.2527    11.4081   113.1894 </r>
       <r>     1.3210    12.9178   114.0713 </r>
       <r>     1.3893    11.9123   114.8845 </r>
       <r>     1.4575    10.5364   115.6038 </r>
       <r>     1.5258    11.3903   116.3813 </r>
       <r>     1.5941    13.4608   117.3002 </r>
       <r>     1.6623    14.1333   118.2650 </r>
       <r>     1.7306    13.8601   119.2112 </r>
       <r>     1.7989    13.6285   120.1416 </r>
       <r>     1.8671    12.6756   121.0069 </r>
       <r>     1.9354    11.7380   121.8082 </r>
       <r>     2.0037    11.9699   122.6253 </r>
       <r>     2.0719    12.5648   123.4831 </r>
       <r>     2.1402    12.6632   124.3475 </r>
       <r>     2.2085    13.4342   125.2646 </r>
       <r>     2.2767    14.6092   126.2619 </r>
       <r>     2.3450    14.9056   127.2795 </r>
       <r>     2.4133    15.3993   128.3307 </r>
       <r>     2.4815    15.5830   129.3945 </r>
       <r>     2.5498    14.8039   130.4051 </r>
       <r>     2.6181    14.8732   131.4204 </r>
       <r>     2.6863    14.4354   132.4059 </r>
       <r>     2.7546    11.8994   133.2182 </r>
       <r>     2.8229     9.1365   133.8419 </r>
       <r>     2.8911     8.0891   134.3941 </r>
       <r>     2.9594     7.5746   134.9112 </r>
       <r>     3.0277     6.4583   135.3520 </r>
       <r>     3.0959     5.0719   135.6983 </r>
       <r>     3.1642     3.0929   135.9094 </r>
       <r>     3.2325     1.1110   135.9853 </r>
       <r>     3.3007     0.1989   135.9988 </r>
       <r>     3.3690     0.0163   136.0000 </r>
       <r>     3.4372     0.0006   136.0000 </r>
       <r>     3.5055     0.0000   136.0000 </r>
       <r>     3.5738     0.0000   136.0000 </r>
       <r>     3.6420     0.0000   136.0000 </r>
       <r>     3.7103     0.0000   136.0000 </r>
       <r>     3.7786     0.0000   136.0000 </r>
       <r>     3.8468     0.0000   136.0000 </r>
       <r>     3.9151     0.0000   136.0000 </r>
       <r>     3.9834     0.0000   136.0000 </r>
       <r>     4.0516     0.0000   136.0000 </r>
       <r>     4.1199     0.0000   136.0000 </r>
      </set>
     </set>
    </array>
   </total>
  </dos>
 </calculation>
 <structure name="finalpos" >
  <crystal>
   <varray name="basis" >
    <v>       3.54040000       0.00000000       0.00000000 </v>
    <v>      -1.77020000      10.29434800       0.00000000 </v>
    <v>       0.00000000       0.00000000      27.50142900 </v>
   </varray>
   <i name="volume">   1002.32009712 </i>
   <varray name="rec_basis" >
    <v>       0.28245396       0.04857034       0.00000000 </v>
    <v>       0.00000000       0.09714068       0.00000000 </v>
    <v>       0.00000000       0.00000000       0.03636175 </v>
   </varray>
  </crystal>
  <varray name="positions" >
   <v>       0.11402300       0.22804500       0.23316207 </v>
   <v>       0.51402300       0.62804500       0.51499159 </v>
   <v>       0.45808900       0.91617900       0.20939482 </v>
   <v>       0.85808900       0.31617900       0.49122434 </v>
   <v>       0.31085400       0.62170900       0.08414979 </v>
   <v>       0.31085400       0.62170900       0.36597930 </v>
   <v>       0.99923000       0.99846000       0.08631254 </v>
   <v>       0.99923000       0.99846000       0.36814206 </v>
   <v>       0.65492700       0.30985400       0.06041748 </v>
   <v>       0.65492700       0.30985400       0.34224700 </v>
   <v>       0.76973800       0.53947500       0.20725292 </v>
   <v>       0.16973800       0.93947500       0.48908244 </v>
   <v>       0.93971600       0.87943300       0.15783749 </v>
   <v>       0.33971600       0.27943300       0.43966701 </v>
   <v>       0.20515200       0.41030300       0.18578822 </v>
   <v>       0.60515200       0.81030300       0.46761774 </v>
   <v>       0.20184900       0.40369900       0.09969156 </v>
   <v>       0.20184900       0.40369900       0.38152107 </v>
   <v>       0.56380500       0.12761000       0.10779021 </v>
   <v>       0.56380500       0.12761000       0.38961973 </v>
   <v>       0.56710600       0.13421200       0.19387616 </v>
   <v>       0.96710600       0.53421200       0.47570568 </v>
   <v>       0.82923400       0.65846800       0.13571444 </v>
   <v>       0.22923400       0.05846800       0.41754396 </v>
  </varray>
 </structure>
</modeling>
