<?xml version="1.0" encoding="ISO-8859-1"?>
<modeling>
 <generator>
  <i name="program" type="string">vasp </i>
  <i name="version" type="string">5.3.5  </i>
  <i name="subversion" type="string">31Mar14 (build Oct 29 2014 16:16:03) complex                          parallel </i>
  <i name="platform" type="string">Linux-UFHPC </i>
  <i name="date" type="string">2016 02 09 </i>
  <i name="time" type="string">17:25:17 </i>
 </generator>
 <incar>
  <i type="string" name="PREC">accurate</i>
  <i type="int" name="IBRION">     2</i>
  <i name="EDIFF">      0.00000100</i>
  <i type="int" name="NSW">     0</i>
  <i type="int" name="ISIF">     3</i>
  <i name="ENCUT">    300.00000000</i>
  <i type="string" name="LREAL"> Auto</i>
  <i type="int" name="ISMEAR">     0</i>
  <i name="SIGMA">      0.10000000</i>
  <i type="logical" name="LWAVE"> F  </i>
  <i type="logical" name="LCHARG"> F  </i>
  <i type="logical" name="LAECHG"> F  </i>
  <i type="string" name="GGA"> Bo</i>
  <i name="PARAM1">      0.18333333</i>
  <i name="PARAM2">      0.22000000</i>
  <i type="logical" name="LUSE_VDW"> T  </i>
  <i name="AGGAC">      0.00000000</i>
 </incar>
 <kpoints>
  <generation param="Gamma">
   <v type="int" name="divisions">      13        4        2 </v>
   <v name="usershift">      0.00000000       0.00000000       0.00000000 </v>
   <v name="genvec1">      0.07692308      -0.00000000       0.00000000 </v>
   <v name="genvec2">      0.00000000       0.25000000       0.00000000 </v>
   <v name="genvec3">      0.00000000       0.00000000       0.50000000 </v>
   <v name="shift">      0.00000000       0.00000000       0.00000000 </v>
  </generation>
  <varray name="kpointlist" >
   <v>       0.00000000       0.00000000       0.00000000 </v>
   <v>       0.07692308      -0.00000000       0.00000000 </v>
   <v>       0.15384615      -0.00000000       0.00000000 </v>
   <v>       0.23076923      -0.00000000       0.00000000 </v>
   <v>       0.30769231      -0.00000000       0.00000000 </v>
   <v>       0.38461538      -0.00000000       0.00000000 </v>
   <v>       0.46153846      -0.00000000       0.00000000 </v>
   <v>       0.00000000       0.25000000       0.00000000 </v>
   <v>       0.07692308       0.25000000       0.00000000 </v>
   <v>       0.15384615       0.25000000       0.00000000 </v>
   <v>       0.23076923       0.25000000       0.00000000 </v>
   <v>       0.30769231       0.25000000       0.00000000 </v>
   <v>       0.38461538       0.25000000       0.00000000 </v>
   <v>       0.46153846       0.25000000       0.00000000 </v>
   <v>      -0.46153846       0.25000000       0.00000000 </v>
   <v>      -0.38461538       0.25000000       0.00000000 </v>
   <v>      -0.30769231       0.25000000       0.00000000 </v>
   <v>      -0.23076923       0.25000000       0.00000000 </v>
   <v>      -0.15384615       0.25000000       0.00000000 </v>
   <v>      -0.07692308       0.25000000       0.00000000 </v>
   <v>       0.00000000       0.50000000       0.00000000 </v>
   <v>       0.07692308       0.50000000       0.00000000 </v>
   <v>       0.15384615       0.50000000       0.00000000 </v>
   <v>       0.23076923       0.50000000       0.00000000 </v>
   <v>       0.30769231       0.50000000       0.00000000 </v>
   <v>       0.38461538       0.50000000       0.00000000 </v>
   <v>       0.46153846       0.50000000       0.00000000 </v>
   <v>       0.00000000       0.00000000       0.50000000 </v>
   <v>       0.07692308      -0.00000000       0.50000000 </v>
   <v>       0.15384615      -0.00000000       0.50000000 </v>
   <v>       0.23076923      -0.00000000       0.50000000 </v>
   <v>       0.30769231      -0.00000000       0.50000000 </v>
   <v>       0.38461538      -0.00000000       0.50000000 </v>
   <v>       0.46153846      -0.00000000       0.50000000 </v>
   <v>       0.00000000       0.25000000       0.50000000 </v>
   <v>       0.07692308       0.25000000       0.50000000 </v>
   <v>       0.15384615       0.25000000       0.50000000 </v>
   <v>       0.23076923       0.25000000       0.50000000 </v>
   <v>       0.30769231       0.25000000       0.50000000 </v>
   <v>       0.38461538       0.25000000       0.50000000 </v>
   <v>       0.46153846       0.25000000       0.50000000 </v>
   <v>      -0.46153846       0.25000000       0.50000000 </v>
   <v>      -0.38461538       0.25000000       0.50000000 </v>
   <v>      -0.30769231       0.25000000       0.50000000 </v>
   <v>      -0.23076923       0.25000000       0.50000000 </v>
   <v>      -0.15384615       0.25000000       0.50000000 </v>
   <v>      -0.07692308       0.25000000       0.50000000 </v>
   <v>       0.00000000       0.50000000       0.50000000 </v>
   <v>       0.07692308       0.50000000       0.50000000 </v>
   <v>       0.15384615       0.50000000       0.50000000 </v>
   <v>       0.23076923       0.50000000       0.50000000 </v>
   <v>       0.30769231       0.50000000       0.50000000 </v>
   <v>       0.38461538       0.50000000       0.50000000 </v>
   <v>       0.46153846       0.50000000       0.50000000 </v>
  </varray>
  <varray name="weights" >
   <v>       0.00961538 </v>
   <v>       0.01923077 </v>
   <v>       0.01923077 </v>
   <v>       0.01923077 </v>
   <v>       0.01923077 </v>
   <v>       0.01923077 </v>
   <v>       0.01923077 </v>
   <v>       0.01923077 </v>
   <v>       0.01923077 </v>
   <v>       0.01923077 </v>
   <v>       0.01923077 </v>
   <v>       0.01923077 </v>
   <v>       0.01923077 </v>
   <v>       0.01923077 </v>
   <v>       0.01923077 </v>
   <v>       0.01923077 </v>
   <v>       0.01923077 </v>
   <v>       0.01923077 </v>
   <v>       0.01923077 </v>
   <v>       0.01923077 </v>
   <v>       0.00961538 </v>
   <v>       0.01923077 </v>
   <v>       0.01923077 </v>
   <v>       0.01923077 </v>
   <v>       0.01923077 </v>
   <v>       0.01923077 </v>
   <v>       0.01923077 </v>
   <v>       0.00961538 </v>
   <v>       0.01923077 </v>
   <v>       0.01923077 </v>
   <v>       0.01923077 </v>
   <v>       0.01923077 </v>
   <v>       0.01923077 </v>
   <v>       0.01923077 </v>
   <v>       0.01923077 </v>
   <v>       0.01923077 </v>
   <v>       0.01923077 </v>
   <v>       0.01923077 </v>
   <v>       0.01923077 </v>
   <v>       0.01923077 </v>
   <v>       0.01923077 </v>
   <v>       0.01923077 </v>
   <v>       0.01923077 </v>
   <v>       0.01923077 </v>
   <v>       0.01923077 </v>
   <v>       0.01923077 </v>
   <v>       0.01923077 </v>
   <v>       0.00961538 </v>
   <v>       0.01923077 </v>
   <v>       0.01923077 </v>
   <v>       0.01923077 </v>
   <v>       0.01923077 </v>
   <v>       0.01923077 </v>
   <v>       0.01923077 </v>
  </varray>
 </kpoints>
 <parameters>
  <separator name="general" >
   <i type="string" name="SYSTEM">unknown system</i>
   <i type="logical" name="LCOMPAT"> F  </i>
  </separator>
  <separator name="electronic" >
   <i type="string" name="PREC">accura</i>
   <i name="ENMAX">    300.00000000</i>
   <i name="ENAUG">    342.92400000</i>
   <i name="EDIFF">      0.00000100</i>
   <i type="int" name="IALGO">    38</i>
   <i type="int" name="IWAVPR">    10</i>
   <i type="int" name="NBANDS">    68</i>
   <i name="NELECT">    108.00000000</i>
   <i type="int" name="TURBO">     0</i>
   <i type="int" name="IRESTART">     0</i>
   <i type="int" name="NREBOOT">     0</i>
   <i type="int" name="NMIN">     0</i>
   <i name="EREF">      0.00000000</i>
   <separator name="electronic smearing" >
    <i type="int" name="ISMEAR">     0</i>
    <i name="SIGMA">      0.10000000</i>
    <i name="KSPACING">      0.50000000</i>
    <i type="logical" name="KGAMMA"> T  </i>
   </separator>
   <separator name="electronic projectors" >
    <i type="logical" name="LREAL"> T  </i>
    <v name="ROPT">     -0.00025000     -0.00025000</v>
    <i type="int" name="LMAXPAW">  -100</i>
    <i type="int" name="LMAXMIX">     2</i>
    <i type="logical" name="NLSPLINE"> F  </i>
   </separator>
   <separator name="electronic startup" >
    <i type="int" name="ISTART">     0</i>
    <i type="int" name="ICHARG">     2</i>
    <i type="int" name="INIWAV">     1</i>
   </separator>
   <separator name="electronic spin" >
    <i type="int" name="ISPIN">     1</i>
    <i type="logical" name="LNONCOLLINEAR"> F  </i>
    <v name="MAGMOM">      1.00000000      1.00000000      1.00000000      1.00000000      1.00000000      1.00000000      1.00000000      1.00000000      1.00000000      1.00000000      1.00000000      1.00000000      1.00000000      1.00000000      1.00000000      1.00000000      1.00000000      1.00000000      1.00000000      1.00000000
      1.00000000      1.00000000      1.00000000      1.00000000</v>
    <i name="NUPDOWN">     -1.00000000</i>
    <i type="logical" name="LSORBIT"> F  </i>
    <v name="SAXIS">      0.00000000      0.00000000      1.00000000</v>
    <i type="logical" name="LSPIRAL"> F  </i>
    <v name="QSPIRAL">      0.00000000      0.00000000      0.00000000</v>
    <i type="logical" name="LZEROZ"> F  </i>
   </separator>
   <separator name="electronic exchange-correlation" >
    <i type="logical" name="LASPH"> F  </i>
    <i type="logical" name="LMETAGGA"> F  </i>
   </separator>
   <separator name="electronic convergence" >
    <i type="int" name="NELM">    60</i>
    <i type="int" name="NELMDL">    -5</i>
    <i type="int" name="NELMIN">     2</i>
    <i name="ENINI">    300.00000000</i>
    <separator name="electronic convergence detail" >
     <i type="logical" name="LDIAG"> T  </i>
     <i type="logical" name="LSUBROT"> F  </i>
     <i name="WEIMIN">      0.00000000</i>
     <i name="EBREAK">      0.00000000</i>
     <i name="DEPER">      0.30000000</i>
     <i type="int" name="NRMM">     4</i>
     <i name="TIME">      0.40000000</i>
    </separator>
   </separator>
   <separator name="electronic mixer" >
    <i name="AMIX">      0.40000000</i>
    <i name="BMIX">      1.00000000</i>
    <i name="AMIN">      0.10000000</i>
    <i name="AMIX_MAG">      1.60000000</i>
    <i name="BMIX_MAG">      1.00000000</i>
    <separator name="electronic mixer details" >
     <i type="int" name="IMIX">     4</i>
     <i type="int" name="MAXMIX">   -45</i>
     <i name="WC">    100.00000000</i>
     <i type="int" name="INIMIX">     1</i>
     <i type="int" name="MIXPRE">     1</i>
     <i type="int" name="MREMOVE">     5</i>
    </separator>
   </separator>
   <separator name="electronic dipolcorrection" >
    <i type="logical" name="LDIPOL"> F  </i>
    <i type="logical" name="LMONO"> F  </i>
    <i type="int" name="IDIPOL">     0</i>
    <i name="EPSILON">      1.00000000</i>
    <v name="DIPOL">   -100.00000000   -100.00000000   -100.00000000</v>
    <i name="EFIELD">      0.00000000</i>
   </separator>
  </separator>
  <separator name="grids" >
   <i type="int" name="NGX">    20</i>
   <i type="int" name="NGY">    60</i>
   <i type="int" name="NGZ">   160</i>
   <i type="int" name="NGXF">    40</i>
   <i type="int" name="NGYF">   120</i>
   <i type="int" name="NGZF">   320</i>
   <i type="logical" name="ADDGRID"> F  </i>
  </separator>
  <separator name="ionic" >
   <i type="int" name="NSW">     0</i>
   <i type="int" name="IBRION">    -1</i>
   <i type="int" name="ISIF">     3</i>
   <i name="PSTRESS">      0.00000000</i>
   <i name="EDIFFG">      0.00001000</i>
   <i type="int" name="NFREE">     1</i>
   <i name="POTIM">      0.50000000</i>
   <i name="SMASS">     -3.00000000</i>
   <i name="SCALEE">      1.00000000</i>
  </separator>
  <separator name="ionic md" >
   <i name="TEBEG">      0.00010000</i>
   <i name="TEEND">      0.00010000</i>
   <i type="int" name="NBLOCK">     1</i>
   <i type="int" name="KBLOCK">     1</i>
   <i type="int" name="NPACO">   256</i>
   <i name="APACO">     16.00000000</i>
  </separator>
  <separator name="symmetry" >
   <i type="int" name="ISYM">     2</i>
   <i name="SYMPREC">      0.00001000</i>
  </separator>
  <separator name="dos" >
   <i type="logical" name="LORBIT"> F  </i>
   <v name="RWIGS">     -1.00000000     -1.00000000</v>
   <i type="int" name="NEDOS">   301</i>
   <i name="EMIN">     10.00000000</i>
   <i name="EMAX">    -10.00000000</i>
   <i name="EFERMI">      0.00000000</i>
  </separator>
  <separator name="writing" >
   <i type="int" name="NWRITE">     2</i>
   <i type="logical" name="LWAVE"> F  </i>
   <i type="logical" name="LCHARG"> F  </i>
   <i type="logical" name="LPARD"> F  </i>
   <i type="logical" name="LVTOT"> F  </i>
   <i type="logical" name="LVHAR"> F  </i>
   <i type="logical" name="LELF"> F  </i>
   <i type="logical" name="LOPTICS"> F  </i>
   <v name="STM">      0.00000000      0.00000000      0.00000000      0.00000000      0.00000000      0.00000000      0.00000000</v>
  </separator>
  <separator name="performance" >
   <i type="int" name="NPAR">     4</i>
   <i type="int" name="NSIM">     4</i>
   <i type="int" name="NBLK">    -1</i>
   <i type="logical" name="LPLANE"> T  </i>
   <i type="logical" name="LSCALAPACK"> T  </i>
   <i type="logical" name="LSCAAWARE"> F  </i>
   <i type="logical" name="LSCALU"> F  </i>
   <i type="logical" name="LASYNC"> F  </i>
   <i type="logical" name="LORBITALREAL"> F  </i>
  </separator>
  <separator name="miscellaneous" >
   <i type="int" name="IDIOT">     3</i>
   <i type="logical" name="LMUSIC"> F  </i>
   <v name="POMASS">     30.97400000     28.08500000</v>
   <v name="DARWINR">      0.00000000      0.00000000</v>
   <v name="DARWINV">      1.00000000      1.00000000</v>
   <i type="logical" name="LCORR"> T  </i>
  </separator>
  <i type="logical" name="GGA_COMPAT"> T  </i>
  <i type="logical" name="LBERRY"> F  </i>
  <i type="int" name="ICORELEVEL">     0</i>
  <i type="logical" name="LDAU"> F  </i>
  <i type="int" name="I_CONSTRAINED_M">     0</i>
  <separator name="electronic exchange-correlation" >
   <i type="string" name="GGA">BO</i>
   <i type="int" name="VOSKOWN">     0</i>
   <i type="logical" name="LHFCALC"> F  </i>
   <i type="string" name="PRECFOCK"></i>
   <i type="logical" name="LSYMGRAD"> F  </i>
   <i type="logical" name="LHFONE"> F  </i>
   <i type="logical" name="LRHFCALC"> F  </i>
   <i type="logical" name="LTHOMAS"> F  </i>
   <i type="logical" name="LMODELHF"> F  </i>
   <i name="ENCUT4O">     -1.00000000</i>
   <i type="int" name="EXXOEP">     0</i>
   <i type="int" name="FOURORBIT">     0</i>
   <i name="AEXX">      0.00000000</i>
   <i name="HFALPHA">      0.00000000</i>
   <i name="MCALPHA">      0.00000000</i>
   <i name="ALDAX">      1.00000000</i>
   <i name="AGGAX">      1.00000000</i>
   <i name="ALDAC">      1.00000000</i>
   <i name="AGGAC">      0.00000000</i>
   <i type="int" name="NKREDX">     1</i>
   <i type="int" name="NKREDY">     1</i>
   <i type="int" name="NKREDZ">     1</i>
   <i type="logical" name="SHIFTRED"> F  </i>
   <i type="logical" name="ODDONLY"> F  </i>
   <i type="logical" name="EVENONLY"> F  </i>
   <i type="int" name="LMAXFOCK">     0</i>
   <i type="int" name="NMAXFOCKAE">     0</i>
   <i type="logical" name="LFOCKAEDFT"> F  </i>
   <i name="HFSCREEN">      0.00000000</i>
   <i name="HFSCREENC">      0.00000000</i>
   <i type="int" name="NBANDSGWLOW">     0</i>
  </separator>
  <separator name="vdW DFT" >
   <i type="logical" name="LUSE_VDW"> T  </i>
   <i name="Zab_VDW">     -0.84910000</i>
   <i name="PARAM1">      0.18333333</i>
   <i name="PARAM2">      0.22000000</i>
   <i name="PARAM3">      0.00000000</i>
  </separator>
  <separator name="model GW" >
   <i type="int" name="MODEL_GW">     0</i>
   <i name="MODEL_EPS0">     25.05800243</i>
   <i name="MODEL_ALPHA">      1.00000000</i>
  </separator>
  <separator name="linear response parameters" >
   <i type="logical" name="LEPSILON"> F  </i>
   <i type="logical" name="LRPA"> F  </i>
   <i type="logical" name="LNABLA"> F  </i>
   <i type="logical" name="LVEL"> F  </i>
   <i type="int" name="KINTER">     0</i>
   <i name="CSHIFT">      0.10000000</i>
   <i name="OMEGAMAX">     -1.00000000</i>
   <i name="DEG_THRESHOLD">      0.00200000</i>
  </separator>
  <separator name="orbital magnetization" >
   <i type="logical" name="NUCIND"> F  </i>
   <v name="MAGPOS">      0.00000000      0.00000000      0.00000000</v>
   <i type="logical" name="LNICSALL"> T  </i>
   <i type="logical" name="ORBITALMAG"> F  </i>
   <i type="logical" name="LMAGBLOCH"> F  </i>
   <i type="logical" name="LCHIMAG"> F  </i>
   <i type="logical" name="LGAUGE"> T  </i>
   <i type="int" name="MAGATOM">     0</i>
   <v name="MAGDIPOL">      0.00000000      0.00000000      0.00000000</v>
   <v name="AVECCONST">      0.00000000      0.00000000      0.00000000</v>
  </separator>
  <separator name="response functions" >
   <i type="logical" name="LADDER"> F  </i>
   <i type="logical" name="LFXC"> F  </i>
   <i type="logical" name="LHARTREE"> T  </i>
   <i type="int" name="IBSE">     0</i>
   <i type="logical" name="LTCTE"> F  </i>
   <i type="logical" name="LTETE"> F  </i>
   <i type="logical" name="LTRIPLET"> F  </i>
   <i type="logical" name="LFXCEPS"> F  </i>
   <i type="logical" name="LFXHEG"> F  </i>
   <i type="logical" name="L2ORDER"> F  </i>
   <i type="logical" name="LUSEW"> F  </i>
   <i name="ENCUTGW">     -2.00000000</i>
   <i name="ENCUTGWSOFT">     -2.00000000</i>
   <i name="ENCUTLF">     -1.00000000</i>
   <i type="int" name="LMAXMP2">    -1</i>
   <i name="SCISSOR">      0.00000000</i>
   <i type="int" name="NOMEGA">     0</i>
   <i type="int" name="NOMEGAR">     0</i>
   <i type="int" name="NBANDSGW">    -1</i>
   <i type="int" name="NBANDSO">    -1</i>
   <i type="int" name="NBANDSV">    -1</i>
   <i type="int" name="NELM">     1</i>
   <i type="int" name="DIM">     3</i>
   <i type="int" name="ANTIRES">     0</i>
   <i name="OMEGAMAX">    -30.00000000</i>
   <i name="OMEGAMIN">    -30.00000000</i>
   <i name="OMEGATL">   -200.00000000</i>
   <i type="int" name="OMEGAGRID">     0</i>
   <i name="CSHIFT">     -0.10000000</i>
   <i type="logical" name="SELFENERGY"> F  </i>
   <i type="logical" name="LSPECTRAL"> F  </i>
   <i type="logical" name="ODDONLYGW"> F  </i>
   <i type="logical" name="EVENONLYGW"> F  </i>
   <i type="int" name="NKREDLFX">     1</i>
   <i type="int" name="NKREDLFY">     1</i>
   <i type="int" name="NKREDLFZ">     1</i>
   <i type="int" name="MAXMEM">  1800</i>
   <i type="int" name="TELESCOPE">     0</i>
   <i type="int" name="TAUPAR">     1</i>
  </separator>
  <separator name="External order field" >
   <i name="OFIELD_KAPPA">      0.00000000</i>
   <v name="OFIELD_K">      0.00000000      0.00000000      0.00000000</v>
   <i name="OFIELD_Q6_NEAR">      0.00000000</i>
   <i name="OFIELD_Q6_FAR">      0.00000000</i>
   <i name="OFIELD_A">      0.00000000</i>
  </separator>
 </parameters>
 <atominfo>
  <atoms>      24 </atoms>
  <types>       2 </types>
  <array name="atoms" >
   <dimension dim="1">ion</dimension>
   <field type="string">element</field>
   <field type="int">atomtype</field>
   <set>
    <rc><c>P </c><c>   1</c></rc>
    <rc><c>P </c><c>   1</c></rc>
    <rc><c>P </c><c>   1</c></rc>
    <rc><c>P </c><c>   1</c></rc>
    <rc><c>P </c><c>   1</c></rc>
    <rc><c>P </c><c>   1</c></rc>
    <rc><c>P </c><c>   1</c></rc>
    <rc><c>P </c><c>   1</c></rc>
    <rc><c>P </c><c>   1</c></rc>
    <rc><c>P </c><c>   1</c></rc>
    <rc><c>P </c><c>   1</c></rc>
    <rc><c>P </c><c>   1</c></rc>
    <rc><c>Si</c><c>   2</c></rc>
    <rc><c>Si</c><c>   2</c></rc>
    <rc><c>Si</c><c>   2</c></rc>
    <rc><c>Si</c><c>   2</c></rc>
    <rc><c>Si</c><c>   2</c></rc>
    <rc><c>Si</c><c>   2</c></rc>
    <rc><c>Si</c><c>   2</c></rc>
    <rc><c>Si</c><c>   2</c></rc>
    <rc><c>Si</c><c>   2</c></rc>
    <rc><c>Si</c><c>   2</c></rc>
    <rc><c>Si</c><c>   2</c></rc>
    <rc><c>Si</c><c>   2</c></rc>
   </set>
  </array>
  <array name="atomtypes" >
   <dimension dim="1">type</dimension>
   <field type="int">atomspertype</field>
   <field type="string">element</field>
   <field>mass</field>
   <field>valence</field>
   <field type="string">pseudopotential</field>
   <set>
    <rc><c>  12</c><c>P </c><c>     30.97400000</c><c>      5.00000000</c><c>  PAW_PBE P 17Jan2003                   </c></rc>
    <rc><c>  12</c><c>Si</c><c>     28.08500000</c><c>      4.00000000</c><c> PAW_PBE Si 05Jan2001                   </c></rc>
   </set>
  </array>
 </atominfo>
 <structure name="initialpos" >
  <crystal>
   <varray name="basis" >
    <v>       3.54040000       0.00000000       0.00000000 </v>
    <v>      -1.77020000      10.29434800       0.00000000 </v>
    <v>       0.00000000       0.00000000      27.50142900 </v>
   </varray>
   <i name="volume">   1002.32009712 </i>
   <varray name="rec_basis" >
    <v>       0.28245396       0.04857034       0.00000000 </v>
    <v>       0.00000000       0.09714068       0.00000000 </v>
    <v>       0.00000000       0.00000000       0.03636175 </v>
   </varray>
  </crystal>
  <varray name="positions" >
   <v>       0.11402300       0.22804500       0.23316207 </v>
   <v>       0.11402300       0.32804500       0.51499159 </v>
   <v>       0.45808900       0.91617900       0.20939482 </v>
   <v>       0.45808900       0.01617900       0.49122434 </v>
   <v>       0.31085400       0.62170900       0.08414979 </v>
   <v>       0.31085400       0.62170900       0.36597930 </v>
   <v>       0.99923000       0.99846000       0.08631254 </v>
   <v>       0.99923000       0.99846000       0.36814206 </v>
   <v>       0.65492700       0.30985400       0.06041748 </v>
   <v>       0.65492700       0.30985400       0.34224700 </v>
   <v>       0.76973800       0.53947500       0.20725292 </v>
   <v>       0.76973800       0.63947500       0.48908244 </v>
   <v>       0.93971600       0.87943300       0.15783749 </v>
   <v>       0.93971600       0.97943300       0.43966701 </v>
   <v>       0.20515200       0.41030300       0.18578822 </v>
   <v>       0.20515200       0.51030300       0.46761774 </v>
   <v>       0.20184900       0.40369900       0.09969156 </v>
   <v>       0.20184900       0.40369900       0.38152107 </v>
   <v>       0.56380500       0.12761000       0.10779021 </v>
   <v>       0.56380500       0.12761000       0.38961973 </v>
   <v>       0.56710600       0.13421200       0.19387616 </v>
   <v>       0.56710600       0.23421200       0.47570568 </v>
   <v>       0.82923400       0.65846800       0.13571444 </v>
   <v>       0.82923400       0.75846800       0.41754396 </v>
  </varray>
 </structure>
 <calculation>
  <scstep>
   <time name="dav">   69.95   69.97</time>
   <time name="total">   84.71   84.74</time>
   <energy>
    <i name="alphaZ">     36.80884744 </i>
    <i name="ewald">  11893.57011234 </i>
    <i name="hartreedc"> -14950.86471608 </i>
    <i name="XCdc">    -88.23316250 </i>
    <i name="pawpsdc">   1056.43050070 </i>
    <i name="pawaedc">   -732.41190547 </i>
    <i name="eentropy">     -0.04040648 </i>
    <i name="bandstr">    -84.71681050 </i>
    <i name="atom">   3354.04126044 </i>
    <i name="e_fr_energy">    484.58371989 </i>
    <i name="e_wo_entrp">    484.62412637 </i>
    <i name="e_0_energy">    484.60392313 </i>
   </energy>
  </scstep>
  <scstep>
   <time name="dav">   82.57   82.60</time>
   <time name="total">   82.58   82.61</time>
   <energy>
    <i name="e_fr_energy">    -70.44298493 </i>
    <i name="e_wo_entrp">    -70.42268130 </i>
    <i name="e_0_energy">    -70.43283311 </i>
   </energy>
  </scstep>
  <scstep>
   <time name="dav">   74.66   74.71</time>
   <time name="total">   74.68   74.72</time>
   <energy>
    <i name="e_fr_energy">   -125.66104239 </i>
    <i name="e_wo_entrp">   -125.64939893 </i>
    <i name="e_0_energy">   -125.65522066 </i>
   </energy>
  </scstep>
  <scstep>
   <time name="dav">   87.61   87.67</time>
   <time name="total">   87.63   87.69</time>
   <energy>
    <i name="e_fr_energy">   -128.12005411 </i>
    <i name="e_wo_entrp">   -128.10777700 </i>
    <i name="e_0_energy">   -128.11391556 </i>
   </energy>
  </scstep>
  <scstep>
   <time name="dav">   81.14   81.18</time>
   <time name="total">   85.38   85.43</time>
   <energy>
    <i name="e_fr_energy">   -128.17914712 </i>
    <i name="e_wo_entrp">   -128.16683727 </i>
    <i name="e_0_energy">   -128.17299219 </i>
   </energy>
  </scstep>
  <scstep>
   <time name="dav">   78.99   79.00</time>
   <time name="total">   96.30   96.32</time>
   <energy>
    <i name="e_fr_energy">   -126.34057540 </i>
    <i name="e_wo_entrp">   -126.32542900 </i>
    <i name="e_0_energy">   -126.33300220 </i>
   </energy>
  </scstep>
  <scstep>
   <time name="dav">   72.85   72.89</time>
   <time name="total">   89.46   89.51</time>
   <energy>
    <i name="e_fr_energy">   -126.06616593 </i>
    <i name="e_wo_entrp">   -126.04704817 </i>
    <i name="e_0_energy">   -126.05660705 </i>
   </energy>
  </scstep>
  <scstep>
   <time name="dav">   78.75   78.79</time>
   <time name="total">   95.53   95.59</time>
   <energy>
    <i name="e_fr_energy">   -126.05295944 </i>
    <i name="e_wo_entrp">   -126.03287537 </i>
    <i name="e_0_energy">   -126.04291741 </i>
   </energy>
  </scstep>
  <scstep>
   <time name="dav">   73.87   73.91</time>
   <time name="total">   91.24   91.29</time>
   <energy>
    <i name="e_fr_energy">   -126.03216680 </i>
    <i name="e_wo_entrp">   -126.01415632 </i>
    <i name="e_0_energy">   -126.02316156 </i>
   </energy>
  </scstep>
  <scstep>
   <time name="dav">   86.07   86.12</time>
   <time name="total">  104.02  104.08</time>
   <energy>
    <i name="e_fr_energy">   -126.02042271 </i>
    <i name="e_wo_entrp">   -126.00245313 </i>
    <i name="e_0_energy">   -126.01143792 </i>
   </energy>
  </scstep>
  <scstep>
   <time name="dav">   79.36   79.40</time>
   <time name="total">   97.05   97.10</time>
   <energy>
    <i name="e_fr_energy">   -126.01420582 </i>
    <i name="e_wo_entrp">   -125.99621414 </i>
    <i name="e_0_energy">   -126.00520998 </i>
   </energy>
  </scstep>
  <scstep>
   <time name="dav">   73.91   73.94</time>
   <time name="total">   90.96   90.99</time>
   <energy>
    <i name="e_fr_energy">   -126.01079350 </i>
    <i name="e_wo_entrp">   -125.99290731 </i>
    <i name="e_0_energy">   -126.00185041 </i>
   </energy>
  </scstep>
  <scstep>
   <time name="dav">   89.20   89.25</time>
   <time name="total">  107.69  107.75</time>
   <energy>
    <i name="e_fr_energy">   -126.00919022 </i>
    <i name="e_wo_entrp">   -125.99132015 </i>
    <i name="e_0_energy">   -126.00025518 </i>
   </energy>
  </scstep>
  <scstep>
   <time name="dav">   73.42   73.47</time>
   <time name="total">   91.36   91.41</time>
   <energy>
    <i name="e_fr_energy">   -126.00841913 </i>
    <i name="e_wo_entrp">   -125.99057523 </i>
    <i name="e_0_energy">   -125.99949718 </i>
   </energy>
  </scstep>
  <scstep>
   <time name="dav">   70.00   70.04</time>
   <time name="total">   87.64   87.70</time>
   <energy>
    <i name="e_fr_energy">   -126.00844824 </i>
    <i name="e_wo_entrp">   -125.99060967 </i>
    <i name="e_0_energy">   -125.99952896 </i>
   </energy>
  </scstep>
  <scstep>
   <time name="dav">   73.66   73.67</time>
   <time name="total">   92.04   92.06</time>
   <energy>
    <i name="e_fr_energy">   -126.00909792 </i>
    <i name="e_wo_entrp">   -125.99126420 </i>
    <i name="e_0_energy">   -126.00018106 </i>
   </energy>
  </scstep>
  <scstep>
   <time name="dav">   72.57   72.62</time>
   <time name="total">   90.91   90.97</time>
   <energy>
    <i name="e_fr_energy">   -126.00919314 </i>
    <i name="e_wo_entrp">   -125.99136175 </i>
    <i name="e_0_energy">   -126.00027744 </i>
   </energy>
  </scstep>
  <scstep>
   <time name="dav">   58.30   58.33</time>
   <time name="total">   75.65   75.70</time>
   <energy>
    <i name="e_fr_energy">   -126.00922882 </i>
    <i name="e_wo_entrp">   -125.99139674 </i>
    <i name="e_0_energy">   -126.00031278 </i>
   </energy>
  </scstep>
  <scstep>
   <time name="dav">   62.34   62.36</time>
   <time name="total">   80.62   80.65</time>
   <energy>
    <i name="e_fr_energy">   -126.00925753 </i>
    <i name="e_wo_entrp">   -125.99142685 </i>
    <i name="e_0_energy">   -126.00034219 </i>
   </energy>
  </scstep>
  <scstep>
   <time name="dav">   69.71   69.76</time>
   <time name="total">   88.45   88.50</time>
   <energy>
    <i name="e_fr_energy">   -126.00922041 </i>
    <i name="e_wo_entrp">   -125.99138940 </i>
    <i name="e_0_energy">   -126.00030490 </i>
   </energy>
  </scstep>
  <scstep>
   <time name="dav">   63.88   63.89</time>
   <time name="total">   82.44   82.47</time>
   <energy>
    <i name="e_fr_energy">   -126.00919490 </i>
    <i name="e_wo_entrp">   -125.99136344 </i>
    <i name="e_0_energy">   -126.00027917 </i>
   </energy>
  </scstep>
  <scstep>
   <time name="dav">   64.65   64.70</time>
   <time name="total">   83.40   83.46</time>
   <energy>
    <i name="e_fr_energy">   -126.00913449 </i>
    <i name="e_wo_entrp">   -125.99130388 </i>
    <i name="e_0_energy">   -126.00021918 </i>
   </energy>
  </scstep>
  <scstep>
   <time name="dav">   61.39   61.44</time>
   <time name="total">   79.53   79.59</time>
   <energy>
    <i name="e_fr_energy">   -126.00913174 </i>
    <i name="e_wo_entrp">   -125.99130070 </i>
    <i name="e_0_energy">   -126.00021622 </i>
   </energy>
  </scstep>
  <scstep>
   <time name="dav">   64.41   64.44</time>
   <time name="total">   82.24   82.28</time>
   <energy>
    <i name="e_fr_energy">   -126.00911549 </i>
    <i name="e_wo_entrp">   -125.99128450 </i>
    <i name="e_0_energy">   -126.00019999 </i>
   </energy>
  </scstep>
  <scstep>
   <time name="dav">   56.08   56.11</time>
   <time name="total">   73.81   73.85</time>
   <energy>
    <i name="e_fr_energy">   -126.00911383 </i>
    <i name="e_wo_entrp">   -125.99128289 </i>
    <i name="e_0_energy">   -126.00019836 </i>
   </energy>
  </scstep>
  <scstep>
   <time name="dav">   59.21   59.26</time>
   <time name="total">   76.95   77.01</time>
   <energy>
    <i name="e_fr_energy">   -126.00911202 </i>
    <i name="e_wo_entrp">   -125.99128109 </i>
    <i name="e_0_energy">   -126.00019656 </i>
   </energy>
  </scstep>
  <scstep>
   <time name="dav">   55.38   55.40</time>
   <time name="total">   68.71   68.74</time>
   <energy>
    <i name="alphaZ">     36.80884744 </i>
    <i name="ewald">  11893.57011234 </i>
    <i name="hartreedc"> -15034.87139444 </i>
    <i name="XCdc">    -80.62059636 </i>
    <i name="pawpsdc">   1155.09376081 </i>
    <i name="pawaedc">   -833.76869698 </i>
    <i name="eentropy">     -0.01783094 </i>
    <i name="bandstr">   -616.24457416 </i>
    <i name="atom">   3354.04126044 </i>
    <i name="e_fr_energy">   -126.00911183 </i>
    <i name="e_wo_entrp">   -125.99128090 </i>
    <i name="e_0_energy">   -126.00019636 </i>
   </energy>
  </scstep>
  <structure>
   <crystal>
    <varray name="basis" >
     <v>       3.54040000       0.00000000       0.00000000 </v>
     <v>      -1.77020000      10.29434800       0.00000000 </v>
     <v>       0.00000000       0.00000000      27.50142900 </v>
    </varray>
    <i name="volume">   1002.32009712 </i>
    <varray name="rec_basis" >
     <v>       0.28245396       0.04857034       0.00000000 </v>
     <v>       0.00000000       0.09714068       0.00000000 </v>
     <v>       0.00000000       0.00000000       0.03636175 </v>
    </varray>
   </crystal>
   <varray name="positions" >
    <v>       0.11402300       0.22804500       0.23316207 </v>
    <v>       0.11402300       0.32804500       0.51499159 </v>
    <v>       0.45808900       0.91617900       0.20939482 </v>
    <v>       0.45808900       0.01617900       0.49122434 </v>
    <v>       0.31085400       0.62170900       0.08414979 </v>
    <v>       0.31085400       0.62170900       0.36597930 </v>
    <v>       0.99923000       0.99846000       0.08631254 </v>
    <v>       0.99923000       0.99846000       0.36814206 </v>
    <v>       0.65492700       0.30985400       0.06041748 </v>
    <v>       0.65492700       0.30985400       0.34224700 </v>
    <v>       0.76973800       0.53947500       0.20725292 </v>
    <v>       0.76973800       0.63947500       0.48908244 </v>
    <v>       0.93971600       0.87943300       0.15783749 </v>
    <v>       0.93971600       0.97943300       0.43966701 </v>
    <v>       0.20515200       0.41030300       0.18578822 </v>
    <v>       0.20515200       0.51030300       0.46761774 </v>
    <v>       0.20184900       0.40369900       0.09969156 </v>
    <v>       0.20184900       0.40369900       0.38152107 </v>
    <v>       0.56380500       0.12761000       0.10779021 </v>
    <v>       0.56380500       0.12761000       0.38961973 </v>
    <v>       0.56710600       0.13421200       0.19387616 </v>
    <v>       0.56710600       0.23421200       0.47570568 </v>
    <v>       0.82923400       0.65846800       0.13571444 </v>
    <v>       0.82923400       0.75846800       0.41754396 </v>
   </varray>
  </structure>
  <varray name="forces" >
   <v>       0.00025456      -0.06298310       0.01922380 </v>
   <v>      -0.11297074      -0.59574112       0.35985819 </v>
   <v>      -0.00090655      -0.00894715       0.07908152 </v>
   <v>      -0.15021896      -0.79744742       0.77928592 </v>
   <v>      -0.00078318      -0.00269736       0.00404580 </v>
   <v>      -0.12087321       2.51693026      -0.62106930 </v>
   <v>       0.00032531      -0.00849541       0.00460408 </v>
   <v>       0.52963433       1.55832849      -5.32196156 </v>
   <v>       0.00109554      -0.00215668       0.00655041 </v>
   <v>       0.05596651       0.81244641      -0.66550274 </v>
   <v>      -0.00038076       0.01146896       0.09593033 </v>
   <v>       0.05117194      -0.71485909       0.07006277 </v>
   <v>       0.00282596      -0.00901287       0.00888003 </v>
   <v>      -0.14668578      -2.40839074       5.62644340 </v>
   <v>      -0.00178476       0.04039220       0.06874820 </v>
   <v>       0.07703790      -0.54008848      -0.43425534 </v>
   <v>      -0.00047537      -0.00934807      -0.02118465 </v>
   <v>       0.02357759       0.97949555       0.99323173 </v>
   <v>      -0.00245256      -0.00280487      -0.00887898 </v>
   <v>      -0.28278742       2.82765409      -0.46258723 </v>
   <v>       0.00109669      -0.01378074      -0.02719534 </v>
   <v>       0.04446442      -0.51313504      -0.55137693 </v>
   <v>       0.00151877      -0.01104125       0.00372140 </v>
   <v>       0.03134976      -3.04578659      -0.00565551 </v>
  </varray>
  <varray name="stress" >
   <v>      -5.53391874      -0.41743865      -1.42608075 </v>
   <v>      -0.41743842       1.60953156     -28.18189068 </v>
   <v>      -1.42608063     -28.18189099      17.76864074 </v>
  </varray>
  <energy>
   <i name="e_fr_energy">   -126.00911183 </i>
   <i name="e_wo_entrp">   -126.00019636 </i>
   <i name="e_0_energy">     -0.01783094 </i>
  </energy>
  <time name="totalsc"> 2455.24 2456.54</time>
  <eigenvalues>
   <array>
    <dimension dim="1">band</dimension>
    <dimension dim="2">kpoint</dimension>
    <dimension dim="3">spin</dimension>
    <field>eigene</field>
    <field>occ</field>
    <set>
     <set comment="spin 1">
      <set comment="kpoint 1">
       <r>  -14.4908    1.0000 </r>
       <r>  -13.5426    1.0000 </r>
       <r>  -12.8050    1.0000 </r>
       <r>  -12.7741    1.0000 </r>
       <r>  -12.5076    1.0000 </r>
       <r>  -12.4021    1.0000 </r>
       <r>  -12.0897    1.0000 </r>
       <r>  -11.9277    1.0000 </r>
       <r>  -11.4457    1.0000 </r>
       <r>  -11.4308    1.0000 </r>
       <r>  -10.9944    1.0000 </r>
       <r>  -10.3925    1.0000 </r>
       <r>   -8.4291    1.0000 </r>
       <r>   -8.0365    1.0000 </r>
       <r>   -7.8283    1.0000 </r>
       <r>   -7.7727    1.0000 </r>
       <r>   -6.9239    1.0000 </r>
       <r>   -6.7597    1.0000 </r>
       <r>   -6.4955    1.0000 </r>
       <r>   -6.2813    1.0000 </r>
       <r>   -5.8437    1.0000 </r>
       <r>   -5.7709    1.0000 </r>
       <r>   -4.9849    1.0000 </r>
       <r>   -4.7309    1.0000 </r>
       <r>   -4.1338    1.0000 </r>
       <r>   -4.0044    1.0000 </r>
       <r>   -3.7862    1.0000 </r>
       <r>   -3.6868    1.0000 </r>
       <r>   -3.3427    1.0000 </r>
       <r>   -3.2009    1.0000 </r>
       <r>   -3.0566    1.0000 </r>
       <r>   -2.9239    1.0000 </r>
       <r>   -2.8485    1.0000 </r>
       <r>   -2.6569    1.0000 </r>
       <r>   -2.5338    1.0000 </r>
       <r>   -2.4561    1.0000 </r>
       <r>   -2.4013    1.0000 </r>
       <r>   -2.3507    1.0000 </r>
       <r>   -2.3118    1.0000 </r>
       <r>   -2.0729    1.0000 </r>
       <r>   -1.8711    1.0000 </r>
       <r>   -1.8372    1.0000 </r>
       <r>   -1.7339    1.0000 </r>
       <r>   -1.6403    1.0000 </r>
       <r>   -1.5981    1.0000 </r>
       <r>   -1.4936    1.0000 </r>
       <r>   -1.4334    1.0000 </r>
       <r>   -1.4179    1.0000 </r>
       <r>   -1.3088    1.0000 </r>
       <r>   -1.1373    1.0000 </r>
       <r>   -1.0982    1.0000 </r>
       <r>   -0.8194    1.0000 </r>
       <r>   -0.2832    0.9999 </r>
       <r>    0.0829    0.0741 </r>
       <r>    0.1633    0.0049 </r>
       <r>    0.9224    0.0000 </r>
       <r>    1.1159    0.0000 </r>
       <r>    1.2532    0.0000 </r>
       <r>    1.3211    0.0000 </r>
       <r>    1.6918    0.0000 </r>
       <r>    1.8298    0.0000 </r>
       <r>    1.9812    0.0000 </r>
       <r>    2.0868    0.0000 </r>
       <r>    2.1611    0.0000 </r>
       <r>    2.3704    0.0000 </r>
       <r>    2.4439    0.0000 </r>
       <r>    2.6077    0.0000 </r>
       <r>    2.7637    0.0000 </r>
      </set>
      <set comment="kpoint 2">
       <r>  -14.4341    1.0000 </r>
       <r>  -13.4812    1.0000 </r>
       <r>  -12.7528    1.0000 </r>
       <r>  -12.7196    1.0000 </r>
       <r>  -12.4520    1.0000 </r>
       <r>  -12.3473    1.0000 </r>
       <r>  -12.0278    1.0000 </r>
       <r>  -11.8757    1.0000 </r>
       <r>  -11.3963    1.0000 </r>
       <r>  -11.3818    1.0000 </r>
       <r>  -10.9460    1.0000 </r>
       <r>  -10.3531    1.0000 </r>
       <r>   -8.4356    1.0000 </r>
       <r>   -8.0727    1.0000 </r>
       <r>   -7.7940    1.0000 </r>
       <r>   -7.7251    1.0000 </r>
       <r>   -6.8851    1.0000 </r>
       <r>   -6.7257    1.0000 </r>
       <r>   -6.4897    1.0000 </r>
       <r>   -6.3071    1.0000 </r>
       <r>   -5.8139    1.0000 </r>
       <r>   -5.7484    1.0000 </r>
       <r>   -4.9795    1.0000 </r>
       <r>   -4.7362    1.0000 </r>
       <r>   -4.4519    1.0000 </r>
       <r>   -4.0702    1.0000 </r>
       <r>   -3.7947    1.0000 </r>
       <r>   -3.7074    1.0000 </r>
       <r>   -3.5264    1.0000 </r>
       <r>   -3.3208    1.0000 </r>
       <r>   -3.2892    1.0000 </r>
       <r>   -3.2426    1.0000 </r>
       <r>   -3.0149    1.0000 </r>
       <r>   -2.9488    1.0000 </r>
       <r>   -2.7497    1.0000 </r>
       <r>   -2.7022    1.0000 </r>
       <r>   -2.5237    1.0000 </r>
       <r>   -2.4761    1.0000 </r>
       <r>   -2.3714    1.0000 </r>
       <r>   -2.2071    1.0000 </r>
       <r>   -2.1963    1.0000 </r>
       <r>   -2.0585    1.0000 </r>
       <r>   -1.9691    1.0000 </r>
       <r>   -1.8940    1.0000 </r>
       <r>   -1.8395    1.0000 </r>
       <r>   -1.7414    1.0000 </r>
       <r>   -1.5190    1.0000 </r>
       <r>   -1.3843    1.0000 </r>
       <r>   -1.2379    1.0000 </r>
       <r>   -1.1178    1.0000 </r>
       <r>   -1.0444    1.0000 </r>
       <r>   -0.7547    1.0000 </r>
       <r>   -0.2747    0.9998 </r>
       <r>   -0.1614    0.9778 </r>
       <r>    0.5127    0.0000 </r>
       <r>    1.1046    0.0000 </r>
       <r>    1.4409    0.0000 </r>
       <r>    1.5823    0.0000 </r>
       <r>    1.7619    0.0000 </r>
       <r>    2.0077    0.0000 </r>
       <r>    2.1174    0.0000 </r>
       <r>    2.1984    0.0000 </r>
       <r>    2.2521    0.0000 </r>
       <r>    2.3136    0.0000 </r>
       <r>    2.5346    0.0000 </r>
       <r>    2.6091    0.0000 </r>
       <r>    2.7674    0.0000 </r>
       <r>    2.9108    0.0000 </r>
      </set>
      <set comment="kpoint 3">
       <r>  -14.2661    1.0000 </r>
       <r>  -13.2982    1.0000 </r>
       <r>  -12.5971    1.0000 </r>
       <r>  -12.5586    1.0000 </r>
       <r>  -12.2870    1.0000 </r>
       <r>  -12.1850    1.0000 </r>
       <r>  -11.8465    1.0000 </r>
       <r>  -11.7251    1.0000 </r>
       <r>  -11.2531    1.0000 </r>
       <r>  -11.2396    1.0000 </r>
       <r>  -10.8070    1.0000 </r>
       <r>  -10.2445    1.0000 </r>
       <r>   -8.4579    1.0000 </r>
       <r>   -8.1690    1.0000 </r>
       <r>   -7.7526    1.0000 </r>
       <r>   -7.6267    1.0000 </r>
       <r>   -6.7900    1.0000 </r>
       <r>   -6.6470    1.0000 </r>
       <r>   -6.5023    1.0000 </r>
       <r>   -6.4395    1.0000 </r>
       <r>   -5.7934    1.0000 </r>
       <r>   -5.7099    1.0000 </r>
       <r>   -5.1097    1.0000 </r>
       <r>   -5.0386    1.0000 </r>
       <r>   -4.8627    1.0000 </r>
       <r>   -4.2234    1.0000 </r>
       <r>   -4.0979    1.0000 </r>
       <r>   -4.0511    1.0000 </r>
       <r>   -3.9775    1.0000 </r>
       <r>   -3.8218    1.0000 </r>
       <r>   -3.6993    1.0000 </r>
       <r>   -3.5799    1.0000 </r>
       <r>   -3.5407    1.0000 </r>
       <r>   -3.3573    1.0000 </r>
       <r>   -3.2082    1.0000 </r>
       <r>   -3.0528    1.0000 </r>
       <r>   -2.9765    1.0000 </r>
       <r>   -2.9596    1.0000 </r>
       <r>   -2.7830    1.0000 </r>
       <r>   -2.5550    1.0000 </r>
       <r>   -2.4835    1.0000 </r>
       <r>   -2.3799    1.0000 </r>
       <r>   -2.3204    1.0000 </r>
       <r>   -2.1529    1.0000 </r>
       <r>   -1.9483    1.0000 </r>
       <r>   -1.7694    1.0000 </r>
       <r>   -1.6633    1.0000 </r>
       <r>   -1.4512    1.0000 </r>
       <r>   -1.2447    1.0000 </r>
       <r>   -1.1499    1.0000 </r>
       <r>   -1.0276    1.0000 </r>
       <r>   -0.8253    1.0000 </r>
       <r>   -0.7016    1.0000 </r>
       <r>   -0.1794    0.9882 </r>
       <r>    0.9348    0.0000 </r>
       <r>    1.3357    0.0000 </r>
       <r>    1.7437    0.0000 </r>
       <r>    1.9236    0.0000 </r>
       <r>    1.9790    0.0000 </r>
       <r>    2.2397    0.0000 </r>
       <r>    2.4177    0.0000 </r>
       <r>    2.5522    0.0000 </r>
       <r>    2.5973    0.0000 </r>
       <r>    2.6832    0.0000 </r>
       <r>    2.7473    0.0000 </r>
       <r>    2.9192    0.0000 </r>
       <r>    3.0144    0.0000 </r>
       <r>    3.0918    0.0000 </r>
      </set>
      <set comment="kpoint 4">
       <r>  -13.9939    1.0000 </r>
       <r>  -12.9972    1.0000 </r>
       <r>  -12.3409    1.0000 </r>
       <r>  -12.2999    1.0000 </r>
       <r>  -12.0198    1.0000 </r>
       <r>  -11.9231    1.0000 </r>
       <r>  -11.5633    1.0000 </r>
       <r>  -11.4955    1.0000 </r>
       <r>  -11.0341    1.0000 </r>
       <r>  -11.0225    1.0000 </r>
       <r>  -10.6036    1.0000 </r>
       <r>  -10.1035    1.0000 </r>
       <r>   -8.5194    1.0000 </r>
       <r>   -8.3604    1.0000 </r>
       <r>   -7.8255    1.0000 </r>
       <r>   -7.5879    1.0000 </r>
       <r>   -6.8543    1.0000 </r>
       <r>   -6.7165    1.0000 </r>
       <r>   -6.6342    1.0000 </r>
       <r>   -6.5571    1.0000 </r>
       <r>   -6.0358    1.0000 </r>
       <r>   -5.7406    1.0000 </r>
       <r>   -5.5138    1.0000 </r>
       <r>   -5.3419    1.0000 </r>
       <r>   -5.2676    1.0000 </r>
       <r>   -4.8141    1.0000 </r>
       <r>   -4.6116    1.0000 </r>
       <r>   -4.5165    1.0000 </r>
       <r>   -4.3916    1.0000 </r>
       <r>   -4.2511    1.0000 </r>
       <r>   -4.1947    1.0000 </r>
       <r>   -4.1103    1.0000 </r>
       <r>   -3.8073    1.0000 </r>
       <r>   -3.6851    1.0000 </r>
       <r>   -3.5443    1.0000 </r>
       <r>   -3.4679    1.0000 </r>
       <r>   -3.2318    1.0000 </r>
       <r>   -3.0917    1.0000 </r>
       <r>   -2.9767    1.0000 </r>
       <r>   -2.7735    1.0000 </r>
       <r>   -2.6882    1.0000 </r>
       <r>   -2.5207    1.0000 </r>
       <r>   -2.4125    1.0000 </r>
       <r>   -2.3631    1.0000 </r>
       <r>   -1.9170    1.0000 </r>
       <r>   -1.8485    1.0000 </r>
       <r>   -1.8267    1.0000 </r>
       <r>   -1.7307    1.0000 </r>
       <r>   -1.4637    1.0000 </r>
       <r>   -1.2695    1.0000 </r>
       <r>   -1.1068    1.0000 </r>
       <r>   -1.0161    1.0000 </r>
       <r>   -0.7000    1.0000 </r>
       <r>   -0.1695    0.9832 </r>
       <r>    0.6191    0.0000 </r>
       <r>    1.1404    0.0000 </r>
       <r>    1.3476    0.0000 </r>
       <r>    1.8422    0.0000 </r>
       <r>    2.0111    0.0000 </r>
       <r>    2.1251    0.0000 </r>
       <r>    2.2244    0.0000 </r>
       <r>    2.2582    0.0000 </r>
       <r>    2.3560    0.0000 </r>
       <r>    2.6064    0.0000 </r>
       <r>    2.6537    0.0000 </r>
       <r>    2.8645    0.0000 </r>
       <r>    2.9037    0.0000 </r>
       <r>    2.9721    0.0000 </r>
      </set>
      <set comment="kpoint 5">
       <r>  -13.6344    1.0000 </r>
       <r>  -12.5854    1.0000 </r>
       <r>  -11.9928    1.0000 </r>
       <r>  -11.9675    1.0000 </r>
       <r>  -11.6669    1.0000 </r>
       <r>  -11.5812    1.0000 </r>
       <r>  -11.2678    1.0000 </r>
       <r>  -11.1892    1.0000 </r>
       <r>  -10.7834    1.0000 </r>
       <r>  -10.7739    1.0000 </r>
       <r>  -10.4170    1.0000 </r>
       <r>  -10.0114    1.0000 </r>
       <r>   -8.6572    1.0000 </r>
       <r>   -8.6277    1.0000 </r>
       <r>   -8.0861    1.0000 </r>
       <r>   -7.7070    1.0000 </r>
       <r>   -7.3147    1.0000 </r>
       <r>   -6.9966    1.0000 </r>
       <r>   -6.9054    1.0000 </r>
       <r>   -6.7270    1.0000 </r>
       <r>   -6.3658    1.0000 </r>
       <r>   -6.1737    1.0000 </r>
       <r>   -6.1412    1.0000 </r>
       <r>   -5.9618    1.0000 </r>
       <r>   -5.3114    1.0000 </r>
       <r>   -5.2120    1.0000 </r>
       <r>   -4.8085    1.0000 </r>
       <r>   -4.7230    1.0000 </r>
       <r>   -4.6859    1.0000 </r>
       <r>   -4.5022    1.0000 </r>
       <r>   -4.3631    1.0000 </r>
       <r>   -4.3118    1.0000 </r>
       <r>   -4.2194    1.0000 </r>
       <r>   -3.8948    1.0000 </r>
       <r>   -3.5033    1.0000 </r>
       <r>   -3.3960    1.0000 </r>
       <r>   -3.2563    1.0000 </r>
       <r>   -3.1842    1.0000 </r>
       <r>   -3.0874    1.0000 </r>
       <r>   -3.0397    1.0000 </r>
       <r>   -2.8474    1.0000 </r>
       <r>   -2.6498    1.0000 </r>
       <r>   -2.5190    1.0000 </r>
       <r>   -2.3831    1.0000 </r>
       <r>   -2.1756    1.0000 </r>
       <r>   -2.0593    1.0000 </r>
       <r>   -1.8899    1.0000 </r>
       <r>   -1.8658    1.0000 </r>
       <r>   -1.7146    1.0000 </r>
       <r>   -1.4281    1.0000 </r>
       <r>   -1.3096    1.0000 </r>
       <r>   -1.1250    1.0000 </r>
       <r>   -0.6818    1.0000 </r>
       <r>   -0.1648    0.9802 </r>
       <r>    0.3023    0.0000 </r>
       <r>    0.6886    0.0000 </r>
       <r>    1.0146    0.0000 </r>
       <r>    1.5841    0.0000 </r>
       <r>    1.6169    0.0000 </r>
       <r>    1.7750    0.0000 </r>
       <r>    1.8863    0.0000 </r>
       <r>    2.0110    0.0000 </r>
       <r>    2.1995    0.0000 </r>
       <r>    2.3486    0.0000 </r>
       <r>    2.4208    0.0000 </r>
       <r>    2.4708    0.0000 </r>
       <r>    2.6981    0.0000 </r>
       <r>    2.8302    0.0000 </r>
      </set>
      <set comment="kpoint 6">
       <r>  -13.2286    1.0000 </r>
       <r>  -12.0771    1.0000 </r>
       <r>  -11.6492    1.0000 </r>
       <r>  -11.5733    1.0000 </r>
       <r>  -11.2708    1.0000 </r>
       <r>  -11.2213    1.0000 </r>
       <r>  -11.0694    1.0000 </r>
       <r>  -10.8515    1.0000 </r>
       <r>  -10.6273    1.0000 </r>
       <r>  -10.5556    1.0000 </r>
       <r>  -10.4557    1.0000 </r>
       <r>  -10.0480    1.0000 </r>
       <r>   -8.8326    1.0000 </r>
       <r>   -8.6689    1.0000 </r>
       <r>   -8.3786    1.0000 </r>
       <r>   -7.9324    1.0000 </r>
       <r>   -7.6335    1.0000 </r>
       <r>   -7.4613    1.0000 </r>
       <r>   -7.4161    1.0000 </r>
       <r>   -7.1801    1.0000 </r>
       <r>   -6.9621    1.0000 </r>
       <r>   -6.7643    1.0000 </r>
       <r>   -6.6616    1.0000 </r>
       <r>   -6.5318    1.0000 </r>
       <r>   -5.2287    1.0000 </r>
       <r>   -5.2032    1.0000 </r>
       <r>   -4.8012    1.0000 </r>
       <r>   -4.6215    1.0000 </r>
       <r>   -4.5287    1.0000 </r>
       <r>   -4.4410    1.0000 </r>
       <r>   -4.2425    1.0000 </r>
       <r>   -4.2287    1.0000 </r>
       <r>   -4.1294    1.0000 </r>
       <r>   -4.0725    1.0000 </r>
       <r>   -3.6625    1.0000 </r>
       <r>   -3.5753    1.0000 </r>
       <r>   -3.4634    1.0000 </r>
       <r>   -3.2729    1.0000 </r>
       <r>   -3.1901    1.0000 </r>
       <r>   -3.1694    1.0000 </r>
       <r>   -2.8974    1.0000 </r>
       <r>   -2.7818    1.0000 </r>
       <r>   -2.6149    1.0000 </r>
       <r>   -2.4343    1.0000 </r>
       <r>   -2.2807    1.0000 </r>
       <r>   -2.2388    1.0000 </r>
       <r>   -2.0741    1.0000 </r>
       <r>   -2.0155    1.0000 </r>
       <r>   -1.8450    1.0000 </r>
       <r>   -1.6181    1.0000 </r>
       <r>   -1.4219    1.0000 </r>
       <r>   -1.2680    1.0000 </r>
       <r>   -0.6859    1.0000 </r>
       <r>   -0.1937    0.9932 </r>
       <r>    0.0572    0.1396 </r>
       <r>    0.3499    0.0000 </r>
       <r>    0.7967    0.0000 </r>
       <r>    1.2640    0.0000 </r>
       <r>    1.3895    0.0000 </r>
       <r>    1.6377    0.0000 </r>
       <r>    1.7229    0.0000 </r>
       <r>    1.7891    0.0000 </r>
       <r>    2.0398    0.0000 </r>
       <r>    2.1289    0.0000 </r>
       <r>    2.2522    0.0000 </r>
       <r>    2.3207    0.0000 </r>
       <r>    2.4706    0.0000 </r>
       <r>    2.6251    0.0000 </r>
      </set>
      <set comment="kpoint 7">
       <r>  -12.8955    1.0000 </r>
       <r>  -11.5872    1.0000 </r>
       <r>  -11.5032    1.0000 </r>
       <r>  -11.1520    1.0000 </r>
       <r>  -10.9880    1.0000 </r>
       <r>  -10.9462    1.0000 </r>
       <r>  -10.8494    1.0000 </r>
       <r>  -10.8072    1.0000 </r>
       <r>  -10.7335    1.0000 </r>
       <r>  -10.6309    1.0000 </r>
       <r>  -10.4917    1.0000 </r>
       <r>  -10.1586    1.0000 </r>
       <r>   -8.6912    1.0000 </r>
       <r>   -8.5925    1.0000 </r>
       <r>   -8.4407    1.0000 </r>
       <r>   -8.0830    1.0000 </r>
       <r>   -8.0582    1.0000 </r>
       <r>   -7.7861    1.0000 </r>
       <r>   -7.5714    1.0000 </r>
       <r>   -7.5203    1.0000 </r>
       <r>   -7.4519    1.0000 </r>
       <r>   -7.2852    1.0000 </r>
       <r>   -7.1839    1.0000 </r>
       <r>   -6.8178    1.0000 </r>
       <r>   -5.0296    1.0000 </r>
       <r>   -4.9196    1.0000 </r>
       <r>   -4.6879    1.0000 </r>
       <r>   -4.5206    1.0000 </r>
       <r>   -4.4549    1.0000 </r>
       <r>   -4.2568    1.0000 </r>
       <r>   -4.1683    1.0000 </r>
       <r>   -4.0534    1.0000 </r>
       <r>   -3.9702    1.0000 </r>
       <r>   -3.9292    1.0000 </r>
       <r>   -3.8347    1.0000 </r>
       <r>   -3.7757    1.0000 </r>
       <r>   -3.5708    1.0000 </r>
       <r>   -3.5482    1.0000 </r>
       <r>   -3.3319    1.0000 </r>
       <r>   -3.2593    1.0000 </r>
       <r>   -3.1015    1.0000 </r>
       <r>   -3.0000    1.0000 </r>
       <r>   -2.6940    1.0000 </r>
       <r>   -2.5753    1.0000 </r>
       <r>   -2.3598    1.0000 </r>
       <r>   -2.1933    1.0000 </r>
       <r>   -2.1436    1.0000 </r>
       <r>   -2.0861    1.0000 </r>
       <r>   -1.7643    1.0000 </r>
       <r>   -1.7104    1.0000 </r>
       <r>   -1.5269    1.0000 </r>
       <r>   -1.3380    1.0000 </r>
       <r>   -0.6801    1.0000 </r>
       <r>   -0.2761    0.9999 </r>
       <r>   -0.1052    0.8878 </r>
       <r>    0.2122    0.0005 </r>
       <r>    0.6561    0.0000 </r>
       <r>    1.0926    0.0000 </r>
       <r>    1.3634    0.0000 </r>
       <r>    1.5477    0.0000 </r>
       <r>    1.6532    0.0000 </r>
       <r>    1.7127    0.0000 </r>
       <r>    1.8450    0.0000 </r>
       <r>    1.9713    0.0000 </r>
       <r>    2.0802    0.0000 </r>
       <r>    2.3117    0.0000 </r>
       <r>    2.3947    0.0000 </r>
       <r>    2.5052    0.0000 </r>
      </set>
      <set comment="kpoint 8">
       <r>  -14.4863    1.0000 </r>
       <r>  -13.4870    1.0000 </r>
       <r>  -12.9785    1.0000 </r>
       <r>  -12.8154    1.0000 </r>
       <r>  -12.5106    1.0000 </r>
       <r>  -12.4163    1.0000 </r>
       <r>  -11.8995    1.0000 </r>
       <r>  -11.8505    1.0000 </r>
       <r>  -11.4782    1.0000 </r>
       <r>  -11.4004    1.0000 </r>
       <r>  -11.0024    1.0000 </r>
       <r>  -10.3379    1.0000 </r>
       <r>   -8.9033    1.0000 </r>
       <r>   -8.5186    1.0000 </r>
       <r>   -7.4105    1.0000 </r>
       <r>   -7.2412    1.0000 </r>
       <r>   -6.7565    1.0000 </r>
       <r>   -6.6710    1.0000 </r>
       <r>   -6.5929    1.0000 </r>
       <r>   -6.4816    1.0000 </r>
       <r>   -5.8019    1.0000 </r>
       <r>   -5.7278    1.0000 </r>
       <r>   -4.7405    1.0000 </r>
       <r>   -4.5961    1.0000 </r>
       <r>   -4.2931    1.0000 </r>
       <r>   -4.0323    1.0000 </r>
       <r>   -4.0107    1.0000 </r>
       <r>   -3.7669    1.0000 </r>
       <r>   -3.5060    1.0000 </r>
       <r>   -3.3682    1.0000 </r>
       <r>   -3.1293    1.0000 </r>
       <r>   -3.0135    1.0000 </r>
       <r>   -2.7132    1.0000 </r>
       <r>   -2.6901    1.0000 </r>
       <r>   -2.5338    1.0000 </r>
       <r>   -2.4040    1.0000 </r>
       <r>   -2.3744    1.0000 </r>
       <r>   -2.3184    1.0000 </r>
       <r>   -2.2384    1.0000 </r>
       <r>   -2.1526    1.0000 </r>
       <r>   -1.9809    1.0000 </r>
       <r>   -1.8902    1.0000 </r>
       <r>   -1.8294    1.0000 </r>
       <r>   -1.6262    1.0000 </r>
       <r>   -1.5814    1.0000 </r>
       <r>   -1.4965    1.0000 </r>
       <r>   -1.4297    1.0000 </r>
       <r>   -1.3654    1.0000 </r>
       <r>   -1.2082    1.0000 </r>
       <r>   -1.1052    1.0000 </r>
       <r>   -0.9859    1.0000 </r>
       <r>   -0.8056    1.0000 </r>
       <r>   -0.2090    0.9963 </r>
       <r>    0.1104    0.0332 </r>
       <r>    0.1519    0.0077 </r>
       <r>    0.9110    0.0000 </r>
       <r>    1.1967    0.0000 </r>
       <r>    1.3638    0.0000 </r>
       <r>    1.4773    0.0000 </r>
       <r>    1.7163    0.0000 </r>
       <r>    1.7965    0.0000 </r>
       <r>    1.8590    0.0000 </r>
       <r>    2.2161    0.0000 </r>
       <r>    2.2633    0.0000 </r>
       <r>    2.4356    0.0000 </r>
       <r>    2.5158    0.0000 </r>
       <r>    2.6408    0.0000 </r>
       <r>    2.7360    0.0000 </r>
      </set>
      <set comment="kpoint 9">
       <r>  -14.4288    1.0000 </r>
       <r>  -13.4101    1.0000 </r>
       <r>  -12.9594    1.0000 </r>
       <r>  -12.7695    1.0000 </r>
       <r>  -12.4543    1.0000 </r>
       <r>  -12.3627    1.0000 </r>
       <r>  -11.8277    1.0000 </r>
       <r>  -11.7641    1.0000 </r>
       <r>  -11.4367    1.0000 </r>
       <r>  -11.3372    1.0000 </r>
       <r>  -10.9579    1.0000 </r>
       <r>  -10.2867    1.0000 </r>
       <r>   -8.9601    1.0000 </r>
       <r>   -8.5773    1.0000 </r>
       <r>   -7.3580    1.0000 </r>
       <r>   -7.1510    1.0000 </r>
       <r>   -6.6893    1.0000 </r>
       <r>   -6.6695    1.0000 </r>
       <r>   -6.5298    1.0000 </r>
       <r>   -6.5038    1.0000 </r>
       <r>   -5.7938    1.0000 </r>
       <r>   -5.6902    1.0000 </r>
       <r>   -4.7537    1.0000 </r>
       <r>   -4.6427    1.0000 </r>
       <r>   -4.5009    1.0000 </r>
       <r>   -4.2853    1.0000 </r>
       <r>   -4.0777    1.0000 </r>
       <r>   -3.7384    1.0000 </r>
       <r>   -3.6156    1.0000 </r>
       <r>   -3.4844    1.0000 </r>
       <r>   -3.3857    1.0000 </r>
       <r>   -3.0840    1.0000 </r>
       <r>   -3.0121    1.0000 </r>
       <r>   -2.9679    1.0000 </r>
       <r>   -2.7157    1.0000 </r>
       <r>   -2.6852    1.0000 </r>
       <r>   -2.5529    1.0000 </r>
       <r>   -2.4832    1.0000 </r>
       <r>   -2.4188    1.0000 </r>
       <r>   -2.2986    1.0000 </r>
       <r>   -2.1552    1.0000 </r>
       <r>   -2.1051    1.0000 </r>
       <r>   -2.0102    1.0000 </r>
       <r>   -1.8961    1.0000 </r>
       <r>   -1.8374    1.0000 </r>
       <r>   -1.7544    1.0000 </r>
       <r>   -1.5420    1.0000 </r>
       <r>   -1.3683    1.0000 </r>
       <r>   -1.1304    1.0000 </r>
       <r>   -1.0257    1.0000 </r>
       <r>   -0.9203    1.0000 </r>
       <r>   -0.7618    1.0000 </r>
       <r>   -0.2491    0.9994 </r>
       <r>   -0.0964    0.8621 </r>
       <r>    0.5751    0.0000 </r>
       <r>    1.0022    0.0000 </r>
       <r>    1.5595    0.0000 </r>
       <r>    1.6409    0.0000 </r>
       <r>    1.7774    0.0000 </r>
       <r>    1.9398    0.0000 </r>
       <r>    2.1261    0.0000 </r>
       <r>    2.2052    0.0000 </r>
       <r>    2.3665    0.0000 </r>
       <r>    2.4891    0.0000 </r>
       <r>    2.5523    0.0000 </r>
       <r>    2.6567    0.0000 </r>
       <r>    2.8424    0.0000 </r>
       <r>    3.0031    0.0000 </r>
      </set>
      <set comment="kpoint 10">
       <r>  -14.2603    1.0000 </r>
       <r>  -13.2135    1.0000 </r>
       <r>  -12.8229    1.0000 </r>
       <r>  -12.6132    1.0000 </r>
       <r>  -12.2884    1.0000 </r>
       <r>  -12.2001    1.0000 </r>
       <r>  -11.6732    1.0000 </r>
       <r>  -11.5717    1.0000 </r>
       <r>  -11.2971    1.0000 </r>
       <r>  -11.1812    1.0000 </r>
       <r>  -10.8164    1.0000 </r>
       <r>  -10.1768    1.0000 </r>
       <r>   -8.9550    1.0000 </r>
       <r>   -8.6429    1.0000 </r>
       <r>   -7.3182    1.0000 </r>
       <r>   -7.0802    1.0000 </r>
       <r>   -6.6632    1.0000 </r>
       <r>   -6.6436    1.0000 </r>
       <r>   -6.5287    1.0000 </r>
       <r>   -6.4741    1.0000 </r>
       <r>   -5.8971    1.0000 </r>
       <r>   -5.6523    1.0000 </r>
       <r>   -5.1386    1.0000 </r>
       <r>   -4.8612    1.0000 </r>
       <r>   -4.8240    1.0000 </r>
       <r>   -4.3929    1.0000 </r>
       <r>   -4.3649    1.0000 </r>
       <r>   -4.2700    1.0000 </r>
       <r>   -3.9843    1.0000 </r>
       <r>   -3.8888    1.0000 </r>
       <r>   -3.6565    1.0000 </r>
       <r>   -3.5306    1.0000 </r>
       <r>   -3.4557    1.0000 </r>
       <r>   -3.3506    1.0000 </r>
       <r>   -3.1342    1.0000 </r>
       <r>   -3.0062    1.0000 </r>
       <r>   -2.9600    1.0000 </r>
       <r>   -2.8124    1.0000 </r>
       <r>   -2.7294    1.0000 </r>
       <r>   -2.6180    1.0000 </r>
       <r>   -2.5464    1.0000 </r>
       <r>   -2.4619    1.0000 </r>
       <r>   -2.3205    1.0000 </r>
       <r>   -2.2863    1.0000 </r>
       <r>   -1.9650    1.0000 </r>
       <r>   -1.8877    1.0000 </r>
       <r>   -1.5774    1.0000 </r>
       <r>   -1.4852    1.0000 </r>
       <r>   -1.2145    1.0000 </r>
       <r>   -1.1452    1.0000 </r>
       <r>   -0.9632    1.0000 </r>
       <r>   -0.7351    1.0000 </r>
       <r>   -0.6242    1.0000 </r>
       <r>   -0.1207    0.9241 </r>
       <r>    0.7514    0.0000 </r>
       <r>    1.3807    0.0000 </r>
       <r>    1.6072    0.0000 </r>
       <r>    1.6650    0.0000 </r>
       <r>    2.0221    0.0000 </r>
       <r>    2.1018    0.0000 </r>
       <r>    2.3222    0.0000 </r>
       <r>    2.4881    0.0000 </r>
       <r>    2.6739    0.0000 </r>
       <r>    2.7545    0.0000 </r>
       <r>    2.8648    0.0000 </r>
       <r>    2.9909    0.0000 </r>
       <r>    3.0589    0.0000 </r>
       <r>    3.1307    0.0000 </r>
      </set>
      <set comment="kpoint 11">
       <r>  -13.9883    1.0000 </r>
       <r>  -12.9020    1.0000 </r>
       <r>  -12.5715    1.0000 </r>
       <r>  -12.3542    1.0000 </r>
       <r>  -12.0204    1.0000 </r>
       <r>  -11.9371    1.0000 </r>
       <r>  -11.4521    1.0000 </r>
       <r>  -11.2978    1.0000 </r>
       <r>  -11.0750    1.0000 </r>
       <r>  -10.9527    1.0000 </r>
       <r>  -10.5989    1.0000 </r>
       <r>  -10.0566    1.0000 </r>
       <r>   -8.9004    1.0000 </r>
       <r>   -8.7736    1.0000 </r>
       <r>   -7.3985    1.0000 </r>
       <r>   -7.2082    1.0000 </r>
       <r>   -6.8111    1.0000 </r>
       <r>   -6.6975    1.0000 </r>
       <r>   -6.6500    1.0000 </r>
       <r>   -6.5196    1.0000 </r>
       <r>   -6.2495    1.0000 </r>
       <r>   -5.8244    1.0000 </r>
       <r>   -5.5611    1.0000 </r>
       <r>   -5.2130    1.0000 </r>
       <r>   -5.1025    1.0000 </r>
       <r>   -5.0317    1.0000 </r>
       <r>   -4.6657    1.0000 </r>
       <r>   -4.5783    1.0000 </r>
       <r>   -4.4986    1.0000 </r>
       <r>   -4.4140    1.0000 </r>
       <r>   -4.0572    1.0000 </r>
       <r>   -4.0125    1.0000 </r>
       <r>   -3.8367    1.0000 </r>
       <r>   -3.7228    1.0000 </r>
       <r>   -3.3701    1.0000 </r>
       <r>   -3.2358    1.0000 </r>
       <r>   -3.1702    1.0000 </r>
       <r>   -3.0953    1.0000 </r>
       <r>   -2.9193    1.0000 </r>
       <r>   -2.6963    1.0000 </r>
       <r>   -2.6001    1.0000 </r>
       <r>   -2.5387    1.0000 </r>
       <r>   -2.4810    1.0000 </r>
       <r>   -2.4171    1.0000 </r>
       <r>   -2.0104    1.0000 </r>
       <r>   -1.9834    1.0000 </r>
       <r>   -1.8805    1.0000 </r>
       <r>   -1.7722    1.0000 </r>
       <r>   -1.4336    1.0000 </r>
       <r>   -1.3833    1.0000 </r>
       <r>   -1.0744    1.0000 </r>
       <r>   -0.8924    1.0000 </r>
       <r>   -0.6805    1.0000 </r>
       <r>   -0.1546    0.9722 </r>
       <r>    0.4004    0.0000 </r>
       <r>    0.9232    0.0000 </r>
       <r>    1.2037    0.0000 </r>
       <r>    1.4476    0.0000 </r>
       <r>    1.5996    0.0000 </r>
       <r>    1.8814    0.0000 </r>
       <r>    2.1804    0.0000 </r>
       <r>    2.2828    0.0000 </r>
       <r>    2.5727    0.0000 </r>
       <r>    2.7025    0.0000 </r>
       <r>    2.8936    0.0000 </r>
       <r>    2.9892    0.0000 </r>
       <r>    3.0959    0.0000 </r>
       <r>    3.2418    0.0000 </r>
      </set>
      <set comment="kpoint 12">
       <r>  -13.6297    1.0000 </r>
       <r>  -12.4852    1.0000 </r>
       <r>  -12.2125    1.0000 </r>
       <r>  -12.0139    1.0000 </r>
       <r>  -11.6684    1.0000 </r>
       <r>  -11.5944    1.0000 </r>
       <r>  -11.2184    1.0000 </r>
       <r>  -10.9863    1.0000 </r>
       <r>  -10.8107    1.0000 </r>
       <r>  -10.6984    1.0000 </r>
       <r>  -10.3930    1.0000 </r>
       <r>  -10.0150    1.0000 </r>
       <r>   -8.9729    1.0000 </r>
       <r>   -8.7930    1.0000 </r>
       <r>   -7.7102    1.0000 </r>
       <r>   -7.6301    1.0000 </r>
       <r>   -7.1223    1.0000 </r>
       <r>   -7.0969    1.0000 </r>
       <r>   -6.9608    1.0000 </r>
       <r>   -6.8459    1.0000 </r>
       <r>   -6.5064    1.0000 </r>
       <r>   -6.2087    1.0000 </r>
       <r>   -6.1848    1.0000 </r>
       <r>   -5.9177    1.0000 </r>
       <r>   -5.3844    1.0000 </r>
       <r>   -5.1831    1.0000 </r>
       <r>   -4.9382    1.0000 </r>
       <r>   -4.7008    1.0000 </r>
       <r>   -4.5696    1.0000 </r>
       <r>   -4.4834    1.0000 </r>
       <r>   -4.3916    1.0000 </r>
       <r>   -4.3118    1.0000 </r>
       <r>   -4.0153    1.0000 </r>
       <r>   -3.9758    1.0000 </r>
       <r>   -3.3467    1.0000 </r>
       <r>   -3.2760    1.0000 </r>
       <r>   -3.1375    1.0000 </r>
       <r>   -3.0005    1.0000 </r>
       <r>   -2.9555    1.0000 </r>
       <r>   -2.9299    1.0000 </r>
       <r>   -2.8677    1.0000 </r>
       <r>   -2.6647    1.0000 </r>
       <r>   -2.5171    1.0000 </r>
       <r>   -2.4260    1.0000 </r>
       <r>   -2.2860    1.0000 </r>
       <r>   -2.2584    1.0000 </r>
       <r>   -1.9579    1.0000 </r>
       <r>   -1.8838    1.0000 </r>
       <r>   -1.7479    1.0000 </r>
       <r>   -1.5110    1.0000 </r>
       <r>   -1.3191    1.0000 </r>
       <r>   -1.1872    1.0000 </r>
       <r>   -0.7273    1.0000 </r>
       <r>   -0.1959    0.9937 </r>
       <r>    0.2190    0.0004 </r>
       <r>    0.4410    0.0000 </r>
       <r>    0.7982    0.0000 </r>
       <r>    1.2250    0.0000 </r>
       <r>    1.2629    0.0000 </r>
       <r>    1.3999    0.0000 </r>
       <r>    1.8715    0.0000 </r>
       <r>    2.1581    0.0000 </r>
       <r>    2.3007    0.0000 </r>
       <r>    2.4455    0.0000 </r>
       <r>    2.6067    0.0000 </r>
       <r>    2.6678    0.0000 </r>
       <r>    2.8553    0.0000 </r>
       <r>    2.9685    0.0000 </r>
      </set>
      <set comment="kpoint 13">
       <r>  -13.2256    1.0000 </r>
       <r>  -11.9818    1.0000 </r>
       <r>  -11.7625    1.0000 </r>
       <r>  -11.6714    1.0000 </r>
       <r>  -11.2812    1.0000 </r>
       <r>  -11.2300    1.0000 </r>
       <r>  -11.0478    1.0000 </r>
       <r>  -10.7301    1.0000 </r>
       <r>  -10.5987    1.0000 </r>
       <r>  -10.5070    1.0000 </r>
       <r>  -10.4688    1.0000 </r>
       <r>  -10.0684    1.0000 </r>
       <r>   -8.9627    1.0000 </r>
       <r>   -8.6509    1.0000 </r>
       <r>   -8.1136    1.0000 </r>
       <r>   -7.9517    1.0000 </r>
       <r>   -7.7823    1.0000 </r>
       <r>   -7.4653    1.0000 </r>
       <r>   -7.3569    1.0000 </r>
       <r>   -7.3424    1.0000 </r>
       <r>   -7.0194    1.0000 </r>
       <r>   -6.6959    1.0000 </r>
       <r>   -6.6634    1.0000 </r>
       <r>   -6.6054    1.0000 </r>
       <r>   -5.3481    1.0000 </r>
       <r>   -5.1729    1.0000 </r>
       <r>   -4.7900    1.0000 </r>
       <r>   -4.7772    1.0000 </r>
       <r>   -4.5063    1.0000 </r>
       <r>   -4.4361    1.0000 </r>
       <r>   -4.2954    1.0000 </r>
       <r>   -4.1169    1.0000 </r>
       <r>   -3.9427    1.0000 </r>
       <r>   -3.8620    1.0000 </r>
       <r>   -3.5668    1.0000 </r>
       <r>   -3.3584    1.0000 </r>
       <r>   -3.2918    1.0000 </r>
       <r>   -3.2804    1.0000 </r>
       <r>   -3.1354    1.0000 </r>
       <r>   -3.1142    1.0000 </r>
       <r>   -2.9539    1.0000 </r>
       <r>   -2.8484    1.0000 </r>
       <r>   -2.6940    1.0000 </r>
       <r>   -2.5172    1.0000 </r>
       <r>   -2.3118    1.0000 </r>
       <r>   -2.2670    1.0000 </r>
       <r>   -2.0960    1.0000 </r>
       <r>   -2.0578    1.0000 </r>
       <r>   -1.8586    1.0000 </r>
       <r>   -1.6944    1.0000 </r>
       <r>   -1.4810    1.0000 </r>
       <r>   -1.3726    1.0000 </r>
       <r>   -0.7384    1.0000 </r>
       <r>   -0.2576    0.9996 </r>
       <r>    0.1001    0.0456 </r>
       <r>    0.2825    0.0000 </r>
       <r>    0.5015    0.0000 </r>
       <r>    0.9982    0.0000 </r>
       <r>    1.1864    0.0000 </r>
       <r>    1.3579    0.0000 </r>
       <r>    1.6993    0.0000 </r>
       <r>    1.8224    0.0000 </r>
       <r>    2.0317    0.0000 </r>
       <r>    2.1488    0.0000 </r>
       <r>    2.2861    0.0000 </r>
       <r>    2.5916    0.0000 </r>
       <r>    2.6394    0.0000 </r>
       <r>    2.7253    0.0000 </r>
      </set>
      <set comment="kpoint 14">
       <r>  -12.8947    1.0000 </r>
       <r>  -11.5864    1.0000 </r>
       <r>  -11.4322    1.0000 </r>
       <r>  -11.2680    1.0000 </r>
       <r>  -11.0005    1.0000 </r>
       <r>  -10.9583    1.0000 </r>
       <r>  -10.8703    1.0000 </r>
       <r>  -10.8102    1.0000 </r>
       <r>  -10.7051    1.0000 </r>
       <r>  -10.5768    1.0000 </r>
       <r>  -10.4796    1.0000 </r>
       <r>  -10.1555    1.0000 </r>
       <r>   -8.5825    1.0000 </r>
       <r>   -8.5563    1.0000 </r>
       <r>   -8.4015    1.0000 </r>
       <r>   -8.3297    1.0000 </r>
       <r>   -7.9829    1.0000 </r>
       <r>   -7.8300    1.0000 </r>
       <r>   -7.5698    1.0000 </r>
       <r>   -7.5158    1.0000 </r>
       <r>   -7.4611    1.0000 </r>
       <r>   -7.3131    1.0000 </r>
       <r>   -7.1445    1.0000 </r>
       <r>   -6.8296    1.0000 </r>
       <r>   -5.0986    1.0000 </r>
       <r>   -5.0235    1.0000 </r>
       <r>   -4.6927    1.0000 </r>
       <r>   -4.4730    1.0000 </r>
       <r>   -4.3263    1.0000 </r>
       <r>   -4.2261    1.0000 </r>
       <r>   -4.1614    1.0000 </r>
       <r>   -4.1061    1.0000 </r>
       <r>   -4.0090    1.0000 </r>
       <r>   -3.9328    1.0000 </r>
       <r>   -3.8240    1.0000 </r>
       <r>   -3.6681    1.0000 </r>
       <r>   -3.5258    1.0000 </r>
       <r>   -3.4817    1.0000 </r>
       <r>   -3.2715    1.0000 </r>
       <r>   -3.2616    1.0000 </r>
       <r>   -3.0260    1.0000 </r>
       <r>   -2.9813    1.0000 </r>
       <r>   -2.6544    1.0000 </r>
       <r>   -2.6087    1.0000 </r>
       <r>   -2.5320    1.0000 </r>
       <r>   -2.1905    1.0000 </r>
       <r>   -2.1433    1.0000 </r>
       <r>   -2.1074    1.0000 </r>
       <r>   -1.7778    1.0000 </r>
       <r>   -1.7043    1.0000 </r>
       <r>   -1.5639    1.0000 </r>
       <r>   -1.4293    1.0000 </r>
       <r>   -0.6680    1.0000 </r>
       <r>   -0.3375    1.0000 </r>
       <r>   -0.0169    0.4862 </r>
       <r>    0.2713    0.0000 </r>
       <r>    0.4567    0.0000 </r>
       <r>    0.9170    0.0000 </r>
       <r>    1.4080    0.0000 </r>
       <r>    1.5112    0.0000 </r>
       <r>    1.5588    0.0000 </r>
       <r>    1.7316    0.0000 </r>
       <r>    1.8118    0.0000 </r>
       <r>    2.0913    0.0000 </r>
       <r>    2.1302    0.0000 </r>
       <r>    2.4000    0.0000 </r>
       <r>    2.4435    0.0000 </r>
       <r>    2.4961    0.0000 </r>
      </set>
      <set comment="kpoint 15">
       <r>  -12.8964    1.0000 </r>
       <r>  -11.5864    1.0000 </r>
       <r>  -11.5366    1.0000 </r>
       <r>  -11.0763    1.0000 </r>
       <r>  -10.9745    1.0000 </r>
       <r>  -10.9346    1.0000 </r>
       <r>  -10.8135    1.0000 </r>
       <r>  -10.8083    1.0000 </r>
       <r>  -10.7584    1.0000 </r>
       <r>  -10.6978    1.0000 </r>
       <r>  -10.5041    1.0000 </r>
       <r>  -10.1614    1.0000 </r>
       <r>   -8.7597    1.0000 </r>
       <r>   -8.5917    1.0000 </r>
       <r>   -8.4343    1.0000 </r>
       <r>   -8.1491    1.0000 </r>
       <r>   -7.9454    1.0000 </r>
       <r>   -7.7750    1.0000 </r>
       <r>   -7.6039    1.0000 </r>
       <r>   -7.5460    1.0000 </r>
       <r>   -7.3023    1.0000 </r>
       <r>   -7.2825    1.0000 </r>
       <r>   -7.2206    1.0000 </r>
       <r>   -6.8076    1.0000 </r>
       <r>   -4.9997    1.0000 </r>
       <r>   -4.7952    1.0000 </r>
       <r>   -4.7396    1.0000 </r>
       <r>   -4.5822    1.0000 </r>
       <r>   -4.5555    1.0000 </r>
       <r>   -4.3637    1.0000 </r>
       <r>   -4.1873    1.0000 </r>
       <r>   -4.0095    1.0000 </r>
       <r>   -3.9971    1.0000 </r>
       <r>   -3.8943    1.0000 </r>
       <r>   -3.8578    1.0000 </r>
       <r>   -3.6828    1.0000 </r>
       <r>   -3.6288    1.0000 </r>
       <r>   -3.5606    1.0000 </r>
       <r>   -3.4457    1.0000 </r>
       <r>   -3.3554    1.0000 </r>
       <r>   -3.0683    1.0000 </r>
       <r>   -2.8080    1.0000 </r>
       <r>   -2.6870    1.0000 </r>
       <r>   -2.5934    1.0000 </r>
       <r>   -2.3850    1.0000 </r>
       <r>   -2.1714    1.0000 </r>
       <r>   -2.1482    1.0000 </r>
       <r>   -2.1018    1.0000 </r>
       <r>   -1.7474    1.0000 </r>
       <r>   -1.6840    1.0000 </r>
       <r>   -1.5004    1.0000 </r>
       <r>   -1.2922    1.0000 </r>
       <r>   -0.6591    1.0000 </r>
       <r>   -0.3194    1.0000 </r>
       <r>   -0.0332    0.5777 </r>
       <r>    0.2700    0.0000 </r>
       <r>    0.6274    0.0000 </r>
       <r>    1.0689    0.0000 </r>
       <r>    1.3537    0.0000 </r>
       <r>    1.6380    0.0000 </r>
       <r>    1.7179    0.0000 </r>
       <r>    1.7717    0.0000 </r>
       <r>    1.8588    0.0000 </r>
       <r>    2.0970    0.0000 </r>
       <r>    2.2058    0.0000 </r>
       <r>    2.3070    0.0000 </r>
       <r>    2.3400    0.0000 </r>
       <r>    2.5083    0.0000 </r>
      </set>
      <set comment="kpoint 16">
       <r>  -13.2302    1.0000 </r>
       <r>  -12.1036    1.0000 </r>
       <r>  -11.6336    1.0000 </r>
       <r>  -11.4892    1.0000 </r>
       <r>  -11.2609    1.0000 </r>
       <r>  -11.2081    1.0000 </r>
       <r>  -11.0994    1.0000 </r>
       <r>  -10.9301    1.0000 </r>
       <r>  -10.6309    1.0000 </r>
       <r>  -10.5827    1.0000 </r>
       <r>  -10.4511    1.0000 </r>
       <r>  -10.0308    1.0000 </r>
       <r>   -8.7448    1.0000 </r>
       <r>   -8.6515    1.0000 </r>
       <r>   -8.4914    1.0000 </r>
       <r>   -7.9382    1.0000 </r>
       <r>   -7.7643    1.0000 </r>
       <r>   -7.4410    1.0000 </r>
       <r>   -7.3307    1.0000 </r>
       <r>   -7.1152    1.0000 </r>
       <r>   -6.8151    1.0000 </r>
       <r>   -6.8041    1.0000 </r>
       <r>   -6.6661    1.0000 </r>
       <r>   -6.5345    1.0000 </r>
       <r>   -5.3100    1.0000 </r>
       <r>   -5.0615    1.0000 </r>
       <r>   -4.8823    1.0000 </r>
       <r>   -4.8082    1.0000 </r>
       <r>   -4.4051    1.0000 </r>
       <r>   -4.3646    1.0000 </r>
       <r>   -4.2948    1.0000 </r>
       <r>   -4.2721    1.0000 </r>
       <r>   -4.0900    1.0000 </r>
       <r>   -4.0248    1.0000 </r>
       <r>   -3.7285    1.0000 </r>
       <r>   -3.6537    1.0000 </r>
       <r>   -3.4841    1.0000 </r>
       <r>   -3.4077    1.0000 </r>
       <r>   -3.2673    1.0000 </r>
       <r>   -3.1867    1.0000 </r>
       <r>   -2.9080    1.0000 </r>
       <r>   -2.7370    1.0000 </r>
       <r>   -2.6026    1.0000 </r>
       <r>   -2.4551    1.0000 </r>
       <r>   -2.2453    1.0000 </r>
       <r>   -2.2331    1.0000 </r>
       <r>   -2.0593    1.0000 </r>
       <r>   -1.9410    1.0000 </r>
       <r>   -1.8242    1.0000 </r>
       <r>   -1.5942    1.0000 </r>
       <r>   -1.3965    1.0000 </r>
       <r>   -1.1168    1.0000 </r>
       <r>   -0.6465    1.0000 </r>
       <r>   -0.2250    0.9982 </r>
       <r>    0.0180    0.2986 </r>
       <r>    0.4341    0.0000 </r>
       <r>    0.8275    0.0000 </r>
       <r>    1.3677    0.0000 </r>
       <r>    1.4480    0.0000 </r>
       <r>    1.6851    0.0000 </r>
       <r>    1.8029    0.0000 </r>
       <r>    1.8952    0.0000 </r>
       <r>    2.0142    0.0000 </r>
       <r>    2.1123    0.0000 </r>
       <r>    2.2390    0.0000 </r>
       <r>    2.3012    0.0000 </r>
       <r>    2.4226    0.0000 </r>
       <r>    2.5954    0.0000 </r>
      </set>
      <set comment="kpoint 17">
       <r>  -13.6355    1.0000 </r>
       <r>  -12.5977    1.0000 </r>
       <r>  -11.9563    1.0000 </r>
       <r>  -11.9504    1.0000 </r>
       <r>  -11.6643    1.0000 </r>
       <r>  -11.5728    1.0000 </r>
       <r>  -11.2937    1.0000 </r>
       <r>  -11.2325    1.0000 </r>
       <r>  -10.7905    1.0000 </r>
       <r>  -10.7723    1.0000 </r>
       <r>  -10.4232    1.0000 </r>
       <r>  -10.0119    1.0000 </r>
       <r>   -8.5591    1.0000 </r>
       <r>   -8.5319    1.0000 </r>
       <r>   -8.1884    1.0000 </r>
       <r>   -7.8281    1.0000 </r>
       <r>   -7.3598    1.0000 </r>
       <r>   -7.0012    1.0000 </r>
       <r>   -6.8751    1.0000 </r>
       <r>   -6.6452    1.0000 </r>
       <r>   -6.2764    1.0000 </r>
       <r>   -6.1702    1.0000 </r>
       <r>   -6.1554    1.0000 </r>
       <r>   -5.9707    1.0000 </r>
       <r>   -5.3980    1.0000 </r>
       <r>   -5.1514    1.0000 </r>
       <r>   -4.8952    1.0000 </r>
       <r>   -4.7461    1.0000 </r>
       <r>   -4.6422    1.0000 </r>
       <r>   -4.4722    1.0000 </r>
       <r>   -4.3178    1.0000 </r>
       <r>   -4.3005    1.0000 </r>
       <r>   -4.2429    1.0000 </r>
       <r>   -3.8344    1.0000 </r>
       <r>   -3.6078    1.0000 </r>
       <r>   -3.4609    1.0000 </r>
       <r>   -3.3118    1.0000 </r>
       <r>   -3.1921    1.0000 </r>
       <r>   -3.0920    1.0000 </r>
       <r>   -3.0551    1.0000 </r>
       <r>   -2.8334    1.0000 </r>
       <r>   -2.6693    1.0000 </r>
       <r>   -2.4997    1.0000 </r>
       <r>   -2.3701    1.0000 </r>
       <r>   -2.1743    1.0000 </r>
       <r>   -2.0240    1.0000 </r>
       <r>   -1.8730    1.0000 </r>
       <r>   -1.8651    1.0000 </r>
       <r>   -1.7065    1.0000 </r>
       <r>   -1.4083    1.0000 </r>
       <r>   -1.3105    1.0000 </r>
       <r>   -1.0604    1.0000 </r>
       <r>   -0.6608    1.0000 </r>
       <r>   -0.1881    0.9915 </r>
       <r>    0.2616    0.0000 </r>
       <r>    0.7732    0.0000 </r>
       <r>    1.0892    0.0000 </r>
       <r>    1.6151    0.0000 </r>
       <r>    1.6938    0.0000 </r>
       <r>    1.8878    0.0000 </r>
       <r>    1.9205    0.0000 </r>
       <r>    2.0077    0.0000 </r>
       <r>    2.1579    0.0000 </r>
       <r>    2.2562    0.0000 </r>
       <r>    2.3858    0.0000 </r>
       <r>    2.4507    0.0000 </r>
       <r>    2.6998    0.0000 </r>
       <r>    2.7478    0.0000 </r>
      </set>
      <set comment="kpoint 18">
       <r>  -13.9937    1.0000 </r>
       <r>  -12.9929    1.0000 </r>
       <r>  -12.3555    1.0000 </r>
       <r>  -12.3014    1.0000 </r>
       <r>  -12.0198    1.0000 </r>
       <r>  -11.9232    1.0000 </r>
       <r>  -11.5492    1.0000 </r>
       <r>  -11.4926    1.0000 </r>
       <r>  -11.0340    1.0000 </r>
       <r>  -11.0239    1.0000 </r>
       <r>  -10.6021    1.0000 </r>
       <r>  -10.1045    1.0000 </r>
       <r>   -8.4958    1.0000 </r>
       <r>   -8.4000    1.0000 </r>
       <r>   -7.7840    1.0000 </r>
       <r>   -7.6398    1.0000 </r>
       <r>   -6.8808    1.0000 </r>
       <r>   -6.7111    1.0000 </r>
       <r>   -6.6378    1.0000 </r>
       <r>   -6.5405    1.0000 </r>
       <r>   -5.9344    1.0000 </r>
       <r>   -5.7430    1.0000 </r>
       <r>   -5.5803    1.0000 </r>
       <r>   -5.3375    1.0000 </r>
       <r>   -5.2604    1.0000 </r>
       <r>   -4.8346    1.0000 </r>
       <r>   -4.6036    1.0000 </r>
       <r>   -4.5211    1.0000 </r>
       <r>   -4.4084    1.0000 </r>
       <r>   -4.2629    1.0000 </r>
       <r>   -4.1933    1.0000 </r>
       <r>   -4.0786    1.0000 </r>
       <r>   -3.7993    1.0000 </r>
       <r>   -3.7287    1.0000 </r>
       <r>   -3.4944    1.0000 </r>
       <r>   -3.4464    1.0000 </r>
       <r>   -3.1847    1.0000 </r>
       <r>   -3.1168    1.0000 </r>
       <r>   -2.9794    1.0000 </r>
       <r>   -2.8204    1.0000 </r>
       <r>   -2.6998    1.0000 </r>
       <r>   -2.5256    1.0000 </r>
       <r>   -2.4192    1.0000 </r>
       <r>   -2.3502    1.0000 </r>
       <r>   -1.9156    1.0000 </r>
       <r>   -1.8644    1.0000 </r>
       <r>   -1.8308    1.0000 </r>
       <r>   -1.7428    1.0000 </r>
       <r>   -1.4579    1.0000 </r>
       <r>   -1.2620    1.0000 </r>
       <r>   -1.1080    1.0000 </r>
       <r>   -0.9920    1.0000 </r>
       <r>   -0.6817    1.0000 </r>
       <r>   -0.1969    0.9940 </r>
       <r>    0.6635    0.0000 </r>
       <r>    1.0376    0.0000 </r>
       <r>    1.4538    0.0000 </r>
       <r>    1.8074    0.0000 </r>
       <r>    1.9236    0.0000 </r>
       <r>    2.0364    0.0000 </r>
       <r>    2.2010    0.0000 </r>
       <r>    2.3274    0.0000 </r>
       <r>    2.3737    0.0000 </r>
       <r>    2.5018    0.0000 </r>
       <r>    2.7099    0.0000 </r>
       <r>    2.8932    0.0000 </r>
       <r>    2.9268    0.0000 </r>
[...]
       <r>    2.6752    0.0000 </r>
      </set>
      <set comment="kpoint 54">
       <r>  -12.8956    1.0000 </r>
       <r>  -11.5856    1.0000 </r>
       <r>  -11.4918    1.0000 </r>
       <r>  -11.1738    1.0000 </r>
       <r>  -10.9874    1.0000 </r>
       <r>  -10.9490    1.0000 </r>
       <r>  -10.8556    1.0000 </r>
       <r>  -10.8098    1.0000 </r>
       <r>  -10.7270    1.0000 </r>
       <r>  -10.6174    1.0000 </r>
       <r>  -10.4912    1.0000 </r>
       <r>  -10.1581    1.0000 </r>
       <r>   -8.6684    1.0000 </r>
       <r>   -8.5808    1.0000 </r>
       <r>   -8.4407    1.0000 </r>
       <r>   -8.1260    1.0000 </r>
       <r>   -8.0978    1.0000 </r>
       <r>   -7.7913    1.0000 </r>
       <r>   -7.5711    1.0000 </r>
       <r>   -7.5529    1.0000 </r>
       <r>   -7.3554    1.0000 </r>
       <r>   -7.2889    1.0000 </r>
       <r>   -7.1745    1.0000 </r>
       <r>   -6.7946    1.0000 </r>
       <r>   -5.1359    1.0000 </r>
       <r>   -4.9501    1.0000 </r>
       <r>   -4.7515    1.0000 </r>
       <r>   -4.4933    1.0000 </r>
       <r>   -4.4503    1.0000 </r>
       <r>   -4.2613    1.0000 </r>
       <r>   -4.1251    1.0000 </r>
       <r>   -4.0646    1.0000 </r>
       <r>   -3.9447    1.0000 </r>
       <r>   -3.9261    1.0000 </r>
       <r>   -3.7915    1.0000 </r>
       <r>   -3.7564    1.0000 </r>
       <r>   -3.5559    1.0000 </r>
       <r>   -3.4849    1.0000 </r>
       <r>   -3.3295    1.0000 </r>
       <r>   -3.2630    1.0000 </r>
       <r>   -3.0687    1.0000 </r>
       <r>   -3.0187    1.0000 </r>
       <r>   -2.6978    1.0000 </r>
       <r>   -2.5957    1.0000 </r>
       <r>   -2.3765    1.0000 </r>
       <r>   -2.2107    1.0000 </r>
       <r>   -2.1709    1.0000 </r>
       <r>   -2.0846    1.0000 </r>
       <r>   -1.7509    1.0000 </r>
       <r>   -1.6983    1.0000 </r>
       <r>   -1.5332    1.0000 </r>
       <r>   -1.2917    1.0000 </r>
       <r>   -0.6643    1.0000 </r>
       <r>   -0.4330    1.0000 </r>
       <r>    0.0813    0.0773 </r>
       <r>    0.2791    0.0000 </r>
       <r>    0.3382    0.0000 </r>
       <r>    1.2057    0.0000 </r>
       <r>    1.3569    0.0000 </r>
       <r>    1.5733    0.0000 </r>
       <r>    1.6244    0.0000 </r>
       <r>    1.6826    0.0000 </r>
       <r>    1.8679    0.0000 </r>
       <r>    2.0221    0.0000 </r>
       <r>    2.1306    0.0000 </r>
       <r>    2.2510    0.0000 </r>
       <r>    2.3580    0.0000 </r>
       <r>    2.4914    0.0000 </r>
      </set>
     </set>
    </set>
   </array>
  </eigenvalues>
  <separator name="orbital magnetization" >
   <v name="MAGDIPOLOUT">      0.00000000      0.00000000      0.00000000</v>
  </separator>
  <dos>
   <i name="efermi">     -0.01932963 </i>
   <total>
    <array>
     <dimension dim="1">gridpoints</dimension>
     <dimension dim="2">spin</dimension>
     <field>energy</field>
     <field>total</field>
     <field>integrated</field>
     <set>
      <set comment="spin 1">
       <r>   -15.4908     0.0000     0.0000 </r>
       <r>   -15.4249     0.0000     0.0000 </r>
       <r>   -15.3590     0.0000     0.0000 </r>
       <r>   -15.2930     0.0000     0.0000 </r>
       <r>   -15.2271     0.0000     0.0000 </r>
       <r>   -15.1612     0.0000     0.0000 </r>
       <r>   -15.0953     0.0000     0.0000 </r>
       <r>   -15.0294     0.0000     0.0000 </r>
       <r>   -14.9635     0.0000     0.0000 </r>
       <r>   -14.8976     0.0000     0.0000 </r>
       <r>   -14.8317     0.0000     0.0000 </r>
       <r>   -14.7658     0.0001     0.0000 </r>
       <r>   -14.6999     0.0032     0.0002 </r>
       <r>   -14.6340     0.0491     0.0035 </r>
       <r>   -14.5681     0.3561     0.0269 </r>
       <r>   -14.5021     1.2704     0.1107 </r>
       <r>   -14.4362     2.2948     0.2619 </r>
       <r>   -14.3703     2.2725     0.4117 </r>
       <r>   -14.3044     1.8551     0.5339 </r>
       <r>   -14.2385     1.8356     0.6549 </r>
       <r>   -14.1726     1.2796     0.7393 </r>
       <r>   -14.1067     0.6281     0.7807 </r>
       <r>   -14.0408     0.9475     0.8431 </r>
       <r>   -13.9749     1.6345     0.9508 </r>
       <r>   -13.9090     1.3385     1.0391 </r>
       <r>   -13.8431     0.4961     1.0718 </r>
       <r>   -13.7771     0.1686     1.0829 </r>
       <r>   -13.7112     0.5376     1.1183 </r>
       <r>   -13.6453     1.4445     1.2135 </r>
       <r>   -13.5794     1.9664     1.3431 </r>
       <r>   -13.5135     1.8896     1.4676 </r>
       <r>   -13.4476     1.9941     1.5991 </r>
       <r>   -13.3817     2.1025     1.7376 </r>
       <r>   -13.3158     2.3540     1.8928 </r>
       <r>   -13.2499     3.1021     2.0972 </r>
       <r>   -13.1840     3.3555     2.3184 </r>
       <r>   -13.1181     2.4894     2.4825 </r>
       <r>   -13.0522     1.8741     2.6060 </r>
       <r>   -12.9862     2.6728     2.7822 </r>
       <r>   -12.9203     4.4015     3.0722 </r>
       <r>   -12.8544     5.4766     3.4332 </r>
       <r>   -12.7885     5.0910     3.7687 </r>
       <r>   -12.7226     4.1345     4.0412 </r>
       <r>   -12.6567     3.8094     4.2923 </r>
       <r>   -12.5908     4.7205     4.6034 </r>
       <r>   -12.5249     5.5960     4.9723 </r>
       <r>   -12.4590     5.8233     5.3561 </r>
       <r>   -12.3931     6.2817     5.7701 </r>
       <r>   -12.3272     6.8352     6.2206 </r>
       <r>   -12.2613     6.3016     6.6359 </r>
       <r>   -12.1953     4.9900     6.9648 </r>
       <r>   -12.1294     4.1559     7.2387 </r>
       <r>   -12.0635     4.7790     7.5537 </r>
       <r>   -11.9976     6.7354     7.9976 </r>
       <r>   -11.9317     7.7178     8.5063 </r>
       <r>   -11.8658     6.9676     8.9655 </r>
       <r>   -11.7999     5.9040     9.3546 </r>
       <r>   -11.7340     6.0564     9.7538 </r>
       <r>   -11.6681     8.0915    10.2871 </r>
       <r>   -11.6022    10.1679    10.9572 </r>
       <r>   -11.5363    10.4677    11.6471 </r>
       <r>   -11.4704     9.6249    12.2815 </r>
       <r>   -11.4044     8.4681    12.8396 </r>
       <r>   -11.3385     8.2379    13.3826 </r>
       <r>   -11.2726    10.1017    14.0484 </r>
       <r>   -11.2067    10.8977    14.7666 </r>
       <r>   -11.1408     8.8357    15.3490 </r>
       <r>   -11.0749     8.0449    15.8792 </r>
       <r>   -11.0090     9.9516    16.5351 </r>
       <r>   -10.9431    10.9180    17.2547 </r>
       <r>   -10.8772    10.0275    17.9156 </r>
       <r>   -10.8113    10.2481    18.5910 </r>
       <r>   -10.7454    10.3417    19.2726 </r>
       <r>   -10.6795     8.6655    19.8437 </r>
       <r>   -10.6135     7.7384    20.3538 </r>
       <r>   -10.5476     7.6192    20.8559 </r>
       <r>   -10.4817     7.1069    21.3243 </r>
       <r>   -10.4158     6.2787    21.7382 </r>
       <r>   -10.3499     5.0042    22.0680 </r>
       <r>   -10.2840     4.0509    22.3350 </r>
       <r>   -10.2181     4.0845    22.6042 </r>
       <r>   -10.1522     4.8275    22.9224 </r>
       <r>   -10.0863     5.5761    23.2899 </r>
       <r>   -10.0204     5.4864    23.6515 </r>
       <r>    -9.9545     3.6701    23.8934 </r>
       <r>    -9.8885     1.3510    23.9824 </r>
       <r>    -9.8226     0.2454    23.9986 </r>
       <r>    -9.7567     0.0209    23.9999 </r>
       <r>    -9.6908     0.0008    24.0000 </r>
       <r>    -9.6249     0.0000    24.0000 </r>
       <r>    -9.5590     0.0000    24.0000 </r>
       <r>    -9.4931     0.0000    24.0000 </r>
       <r>    -9.4272     0.0007    24.0000 </r>
       <r>    -9.3613     0.0119    24.0008 </r>
       <r>    -9.2954     0.0932    24.0070 </r>
       <r>    -9.2295     0.3485    24.0299 </r>
       <r>    -9.1636     0.6656    24.0738 </r>
       <r>    -9.0976     0.8680    24.1310 </r>
       <r>    -9.0317     1.4482    24.2265 </r>
       <r>    -8.9658     2.8311    24.4131 </r>
       <r>    -8.8999     4.0483    24.6799 </r>
       <r>    -8.8340     4.4082    24.9704 </r>
       <r>    -8.7681     5.1418    25.3093 </r>
       <r>    -8.7022     6.4408    25.7338 </r>
       <r>    -8.6363     7.5053    26.2285 </r>
       <r>    -8.5704     7.7808    26.7413 </r>
       <r>    -8.5045     7.2327    27.2180 </r>
       <r>    -8.4386     6.6786    27.6582 </r>
       <r>    -8.3727     5.6551    28.0309 </r>
       <r>    -8.3067     3.6541    28.2717 </r>
       <r>    -8.2408     2.2454    28.4197 </r>
       <r>    -8.1749     2.5697    28.5891 </r>
       <r>    -8.1090     3.7571    28.8367 </r>
       <r>    -8.0431     4.2300    29.1155 </r>
       <r>    -7.9772     3.9014    29.3726 </r>
       <r>    -7.9113     3.7003    29.6165 </r>
       <r>    -7.8454     4.4278    29.9083 </r>
       <r>    -7.7795     6.2388    30.3195 </r>
       <r>    -7.7136     6.9749    30.7792 </r>
       <r>    -7.6477     6.5914    31.2137 </r>
       <r>    -7.5818     6.7529    31.6587 </r>
       <r>    -7.5158     6.9633    32.1177 </r>
       <r>    -7.4499     7.2786    32.5974 </r>
       <r>    -7.3840     8.3080    33.1450 </r>
       <r>    -7.3181     9.2973    33.7577 </r>
       <r>    -7.2522     8.9913    34.3503 </r>
       <r>    -7.1863     7.4853    34.8437 </r>
       <r>    -7.1204     6.2111    35.2530 </r>
       <r>    -7.0545     5.8445    35.6383 </r>
       <r>    -6.9886     6.0272    36.0355 </r>
       <r>    -6.9227     6.2095    36.4448 </r>
       <r>    -6.8568     7.2893    36.9252 </r>
       <r>    -6.7908     9.7169    37.5656 </r>
       <r>    -6.7249    12.5070    38.3899 </r>
       <r>    -6.6590    14.8209    39.3668 </r>
       <r>    -6.5931    14.4970    40.3222 </r>
       <r>    -6.5272    12.3709    41.1376 </r>
       <r>    -6.4613    10.0591    41.8006 </r>
       <r>    -6.3954     6.6511    42.2389 </r>
       <r>    -6.3295     4.0876    42.5083 </r>
       <r>    -6.2636     3.8620    42.7629 </r>
       <r>    -6.1977     4.5051    43.0598 </r>
       <r>    -6.1318     4.2149    43.3376 </r>
       <r>    -6.0659     2.8753    43.5271 </r>
       <r>    -5.9999     2.2550    43.6757 </r>
       <r>    -5.9340     3.0064    43.8739 </r>
       <r>    -5.8681     4.2872    44.1564 </r>
       <r>    -5.8022     5.9639    44.5495 </r>
       <r>    -5.7363     7.2172    45.0252 </r>
       <r>    -5.6704     6.5859    45.4593 </r>
       <r>    -5.6045     4.8367    45.7780 </r>
       <r>    -5.5386     3.3068    45.9960 </r>
       <r>    -5.4727     2.2030    46.1412 </r>
       <r>    -5.4068     2.3750    46.2977 </r>
       <r>    -5.3409     4.0560    46.5650 </r>
       <r>    -5.2750     5.9063    46.9543 </r>
       <r>    -5.2090     7.1720    47.4270 </r>
       <r>    -5.1431     7.4244    47.9163 </r>
       <r>    -5.0772     6.9675    48.3755 </r>
       <r>    -5.0113     6.8304    48.8257 </r>
       <r>    -4.9454     7.1650    49.2980 </r>
       <r>    -4.8795     8.2433    49.8413 </r>
       <r>    -4.8136     9.9337    50.4960 </r>
       <r>    -4.7477    10.9693    51.2190 </r>
       <r>    -4.6818    10.7308    51.9262 </r>
       <r>    -4.6159    10.2946    52.6047 </r>
       <r>    -4.5500    11.1488    53.3395 </r>
       <r>    -4.4841    13.2126    54.2103 </r>
       <r>    -4.4181    14.1975    55.1461 </r>
       <r>    -4.3522    13.7676    56.0535 </r>
       <r>    -4.2863    13.7765    56.9615 </r>
       <r>    -4.2204    13.3478    57.8412 </r>
       <r>    -4.1545    12.3834    58.6574 </r>
       <r>    -4.0886    13.3667    59.5383 </r>
       <r>    -4.0227    15.2047    60.5405 </r>
       <r>    -3.9568    14.7092    61.5099 </r>
       <r>    -3.8909    12.3511    62.3240 </r>
       <r>    -3.8250    10.8929    63.0419 </r>
       <r>    -3.7591    10.7279    63.7489 </r>
       <r>    -3.6931    10.8942    64.4670 </r>
       <r>    -3.6272    11.4617    65.2224 </r>
       <r>    -3.5613    13.0842    66.0847 </r>
       <r>    -3.4954    14.4426    67.0366 </r>
       <r>    -3.4295    14.1816    67.9713 </r>
       <r>    -3.3636    14.0858    68.8997 </r>
       <r>    -3.2977    14.7199    69.8699 </r>
       <r>    -3.2318    14.9315    70.8540 </r>
       <r>    -3.1659    15.2666    71.8602 </r>
       <r>    -3.1000    16.4287    72.9430 </r>
       <r>    -3.0341    17.8709    74.1208 </r>
       <r>    -2.9682    18.0180    75.3083 </r>
       <r>    -2.9022    15.4739    76.3282 </r>
       <r>    -2.8363    12.1406    77.1284 </r>
       <r>    -2.7704    11.6553    77.8966 </r>
       <r>    -2.7045    14.3471    78.8422 </r>
       <r>    -2.6386    16.7460    79.9459 </r>
       <r>    -2.5727    17.2086    81.0800 </r>
       <r>    -2.5068    17.5035    82.2337 </r>
       <r>    -2.4409    17.9693    83.4180 </r>
       <r>    -2.3750    18.0533    84.6079 </r>
       <r>    -2.3091    16.6865    85.7077 </r>
       <r>    -2.2432    14.9633    86.6939 </r>
       <r>    -2.1773    14.7094    87.6633 </r>
       <r>    -2.1113    14.9616    88.6494 </r>
       <r>    -2.0454    14.3404    89.5946 </r>
       <r>    -1.9795    14.2093    90.5311 </r>
       <r>    -1.9136    15.6266    91.5610 </r>
       <r>    -1.8477    16.7387    92.6642 </r>
       <r>    -1.7818    15.9946    93.7184 </r>
       <r>    -1.7159    14.1768    94.6528 </r>
       <r>    -1.6500    11.7246    95.4255 </r>
       <r>    -1.5841     9.9845    96.0836 </r>
       <r>    -1.5182    10.4511    96.7724 </r>
       <r>    -1.4523    12.2300    97.5785 </r>
       <r>    -1.3864    12.7981    98.4220 </r>
       <r>    -1.3204    11.6514    99.1899 </r>
       <r>    -1.2545    10.2814    99.8676 </r>
       <r>    -1.1886     9.5322   100.4958 </r>
       <r>    -1.1227     9.8444   101.1446 </r>
       <r>    -1.0568     9.8129   101.7914 </r>
       <r>    -0.9909     8.5355   102.3540 </r>
       <r>    -0.9250     6.6538   102.7925 </r>
       <r>    -0.8591     5.1516   103.1320 </r>
       <r>    -0.7932     5.8389   103.5169 </r>
       <r>    -0.7273     8.7450   104.0932 </r>
       <r>    -0.6614    10.3369   104.7745 </r>
       <r>    -0.5954     7.5978   105.2753 </r>
       <r>    -0.5295     3.2666   105.4906 </r>
       <r>    -0.4636     1.1292   105.5650 </r>
       <r>    -0.3977     1.2408   105.6468 </r>
       <r>    -0.3318     2.9400   105.8405 </r>
       <r>    -0.2659     5.9001   106.2294 </r>
       <r>    -0.2000     8.5984   106.7961 </r>
       <r>    -0.1341     8.8432   107.3790 </r>
       <r>    -0.0682     6.3651   107.7985 </r>
       <r>    -0.0023     3.9552   108.0592 </r>
       <r>     0.0636     3.4467   108.2863 </r>
       <r>     0.1295     3.9608   108.5474 </r>
       <r>     0.1955     4.3230   108.8323 </r>
       <r>     0.2614     4.6010   109.1355 </r>
       <r>     0.3273     4.5268   109.4339 </r>
       <r>     0.3932     4.1981   109.7106 </r>
       <r>     0.4591     4.3576   109.9978 </r>
       <r>     0.5250     4.4260   110.2895 </r>
       <r>     0.5909     4.1082   110.5603 </r>
       <r>     0.6568     3.7044   110.8044 </r>
       <r>     0.7227     3.4629   111.0327 </r>
       <r>     0.7886     3.8307   111.2851 </r>
       <r>     0.8545     4.2541   111.5655 </r>
       <r>     0.9204     4.4284   111.8574 </r>
       <r>     0.9864     4.6943   112.1668 </r>
       <r>     1.0523     4.8721   112.4879 </r>
       <r>     1.1182     5.1543   112.8276 </r>
       <r>     1.1841     5.6686   113.2012 </r>
       <r>     1.2500     6.5746   113.6345 </r>
       <r>     1.3159     7.7935   114.1482 </r>
       <r>     1.3818     8.8007   114.7282 </r>
       <r>     1.4477     8.5585   115.2923 </r>
       <r>     1.5136     8.0072   115.8200 </r>
       <r>     1.5795     9.3422   116.4358 </r>
       <r>     1.6454    11.6106   117.2010 </r>
       <r>     1.7113    13.0127   118.0587 </r>
       <r>     1.7773    13.4311   118.9439 </r>
       <r>     1.8432    13.2816   119.8193 </r>
       <r>     1.9091    12.1073   120.6172 </r>
       <r>     1.9750    10.7467   121.3255 </r>
       <r>     2.0409    11.5150   122.0845 </r>
       <r>     2.1068    13.7065   122.9878 </r>
       <r>     2.1727    15.5301   124.0114 </r>
       <r>     2.2386    16.4850   125.0979 </r>
       <r>     2.3045    16.4431   126.1816 </r>
       <r>     2.3704    15.3721   127.1948 </r>
       <r>     2.4363    14.6111   128.1578 </r>
       <r>     2.5023    14.4503   129.1102 </r>
       <r>     2.5682    13.6435   130.0094 </r>
       <r>     2.6341    13.1976   130.8793 </r>
       <r>     2.7000    13.2363   131.7516 </r>
       <r>     2.7659    12.0496   132.5458 </r>
       <r>     2.8318    10.5782   133.2430 </r>
       <r>     2.8977    10.1292   133.9106 </r>
       <r>     2.9636     9.4655   134.5345 </r>
       <r>     3.0295     8.0362   135.0641 </r>
       <r>     3.0954     6.1386   135.4687 </r>
       <r>     3.1613     3.9702   135.7304 </r>
       <r>     3.2272     2.1869   135.8745 </r>
       <r>     3.2932     1.1906   135.9530 </r>
       <r>     3.3591     0.5453   135.9889 </r>
       <r>     3.4250     0.1469   135.9986 </r>
       <r>     3.4909     0.0197   135.9999 </r>
       <r>     3.5568     0.0012   136.0000 </r>
       <r>     3.6227     0.0000   136.0000 </r>
       <r>     3.6886     0.0000   136.0000 </r>
       <r>     3.7545     0.0000   136.0000 </r>
       <r>     3.8204     0.0000   136.0000 </r>
       <r>     3.8863     0.0000   136.0000 </r>
       <r>     3.9522     0.0000   136.0000 </r>
       <r>     4.0181     0.0000   136.0000 </r>
       <r>     4.0841     0.0000   136.0000 </r>
       <r>     4.1500     0.0000   136.0000 </r>
       <r>     4.2159     0.0000   136.0000 </r>
       <r>     4.2818     0.0000   136.0000 </r>
      </set>
     </set>
    </array>
   </total>
  </dos>
 </calculation>
 <structure name="finalpos" >
  <crystal>
   <varray name="basis" >
    <v>       3.54040000       0.00000000       0.00000000 </v>
    <v>      -1.77020000      10.29434800       0.00000000 </v>
    <v>       0.00000000       0.00000000      27.50142900 </v>
   </varray>
   <i name="volume">   1002.32009712 </i>
   <varray name="rec_basis" >
    <v>       0.28245396       0.04857034       0.00000000 </v>
    <v>       0.00000000       0.09714068       0.00000000 </v>
    <v>       0.00000000       0.00000000       0.03636175 </v>
   </varray>
  </crystal>
  <varray name="positions" >
   <v>       0.11402300       0.22804500       0.23316207 </v>
   <v>       0.11402300       0.32804500       0.51499159 </v>
   <v>       0.45808900       0.91617900       0.20939482 </v>
   <v>       0.45808900       0.01617900       0.49122434 </v>
   <v>       0.31085400       0.62170900       0.08414979 </v>
   <v>       0.31085400       0.62170900       0.36597930 </v>
   <v>       0.99923000       0.99846000       0.08631254 </v>
   <v>       0.99923000       0.99846000       0.36814206 </v>
   <v>       0.65492700       0.30985400       0.06041748 </v>
   <v>       0.65492700       0.30985400       0.34224700 </v>
   <v>       0.76973800       0.53947500       0.20725292 </v>
   <v>       0.76973800       0.63947500       0.48908244 </v>
   <v>       0.93971600       0.87943300       0.15783749 </v>
   <v>       0.93971600       0.97943300       0.43966701 </v>
   <v>       0.20515200       0.41030300       0.18578822 </v>
   <v>       0.20515200       0.51030300       0.46761774 </v>
   <v>       0.20184900       0.40369900       0.09969156 </v>
   <v>       0.20184900       0.40369900       0.38152107 </v>
   <v>       0.56380500       0.12761000       0.10779021 </v>
   <v>       0.56380500       0.12761000       0.38961973 </v>
   <v>       0.56710600       0.13421200       0.19387616 </v>
   <v>       0.56710600       0.23421200       0.47570568 </v>
   <v>       0.82923400       0.65846800       0.13571444 </v>
   <v>       0.82923400       0.75846800       0.41754396 </v>
  </varray>
 </structure>
</modeling>
