<?xml version="1.0" encoding="ISO-8859-1"?>
<modeling>
 <generator>
  <i name="program" type="string">vasp </i>
  <i name="version" type="string">5.3.5  </i>
  <i name="subversion" type="string">31Mar14 (build Oct 29 2014 16:16:03) complex                          parallel </i>
  <i name="platform" type="string">Linux-UFHPC </i>
  <i name="date" type="string">2016 02 09 </i>
  <i name="time" type="string">17:48:04 </i>
 </generator>
 <incar>
  <i type="string" name="PREC">accurate</i>
  <i type="int" name="IBRION">     2</i>
  <i name="EDIFF">      0.00000100</i>
  <i type="int" name="NSW">     0</i>
  <i type="int" name="ISIF">     3</i>
  <i name="ENCUT">    300.00000000</i>
  <i type="string" name="LREAL"> Auto</i>
  <i type="int" name="ISMEAR">     0</i>
  <i name="SIGMA">      0.10000000</i>
  <i type="logical" name="LWAVE"> F  </i>
  <i type="logical" name="LCHARG"> F  </i>
  <i type="logical" name="LAECHG"> F  </i>
  <i type="string" name="GGA"> Bo</i>
  <i name="PARAM1">      0.18333333</i>
  <i name="PARAM2">      0.22000000</i>
  <i type="logical" name="LUSE_VDW"> T  </i>
  <i name="AGGAC">      0.00000000</i>
 </incar>
 <kpoints>
  <generation param="Gamma">
   <v type="int" name="divisions">      13        4        2 </v>
   <v name="usershift">      0.00000000       0.00000000       0.00000000 </v>
   <v name="genvec1">      0.07692308      -0.00000000       0.00000000 </v>
   <v name="genvec2">      0.00000000       0.25000000       0.00000000 </v>
   <v name="genvec3">      0.00000000       0.00000000       0.50000000 </v>
   <v name="shift">      0.00000000       0.00000000       0.00000000 </v>
  </generation>
  <varray name="kpointlist" >
   <v>       0.00000000       0.00000000       0.00000000 </v>
   <v>       0.07692308      -0.00000000       0.00000000 </v>
   <v>       0.15384615      -0.00000000       0.00000000 </v>
   <v>       0.23076923      -0.00000000       0.00000000 </v>
   <v>       0.30769231      -0.00000000       0.00000000 </v>
   <v>       0.38461538      -0.00000000       0.00000000 </v>
   <v>       0.46153846      -0.00000000       0.00000000 </v>
   <v>       0.00000000       0.25000000       0.00000000 </v>
   <v>       0.07692308       0.25000000       0.00000000 </v>
   <v>       0.15384615       0.25000000       0.00000000 </v>
   <v>       0.23076923       0.25000000       0.00000000 </v>
   <v>       0.30769231       0.25000000       0.00000000 </v>
   <v>       0.38461538       0.25000000       0.00000000 </v>
   <v>       0.46153846       0.25000000       0.00000000 </v>
   <v>      -0.46153846       0.25000000       0.00000000 </v>
   <v>      -0.38461538       0.25000000       0.00000000 </v>
   <v>      -0.30769231       0.25000000       0.00000000 </v>
   <v>      -0.23076923       0.25000000       0.00000000 </v>
   <v>      -0.15384615       0.25000000       0.00000000 </v>
   <v>      -0.07692308       0.25000000       0.00000000 </v>
   <v>       0.00000000       0.50000000       0.00000000 </v>
   <v>       0.07692308       0.50000000       0.00000000 </v>
   <v>       0.15384615       0.50000000       0.00000000 </v>
   <v>       0.23076923       0.50000000       0.00000000 </v>
   <v>       0.30769231       0.50000000       0.00000000 </v>
   <v>       0.38461538       0.50000000       0.00000000 </v>
   <v>       0.46153846       0.50000000       0.00000000 </v>
   <v>       0.00000000       0.00000000       0.50000000 </v>
   <v>       0.07692308      -0.00000000       0.50000000 </v>
   <v>       0.15384615      -0.00000000       0.50000000 </v>
   <v>       0.23076923      -0.00000000       0.50000000 </v>
   <v>       0.30769231      -0.00000000       0.50000000 </v>
   <v>       0.38461538      -0.00000000       0.50000000 </v>
   <v>       0.46153846      -0.00000000       0.50000000 </v>
   <v>       0.00000000       0.25000000       0.50000000 </v>
   <v>       0.07692308       0.25000000       0.50000000 </v>
   <v>       0.15384615       0.25000000       0.50000000 </v>
   <v>       0.23076923       0.25000000       0.50000000 </v>
   <v>       0.30769231       0.25000000       0.50000000 </v>
   <v>       0.38461538       0.25000000       0.50000000 </v>
   <v>       0.46153846       0.25000000       0.50000000 </v>
   <v>      -0.46153846       0.25000000       0.50000000 </v>
   <v>      -0.38461538       0.25000000       0.50000000 </v>
   <v>      -0.30769231       0.25000000       0.50000000 </v>
   <v>      -0.23076923       0.25000000       0.50000000 </v>
   <v>      -0.15384615       0.25000000       0.50000000 </v>
   <v>      -0.07692308       0.25000000       0.50000000 </v>
   <v>       0.00000000       0.50000000       0.50000000 </v>
   <v>       0.07692308       0.50000000       0.50000000 </v>
   <v>       0.15384615       0.50000000       0.50000000 </v>
   <v>       0.23076923       0.50000000       0.50000000 </v>
   <v>       0.30769231       0.50000000       0.50000000 </v>
   <v>       0.38461538       0.50000000       0.50000000 </v>
   <v>       0.46153846       0.50000000       0.50000000 </v>
  </varray>
  <varray name="weights" >
   <v>       0.00961538 </v>
   <v>       0.01923077 </v>
   <v>       0.01923077 </v>
   <v>       0.01923077 </v>
   <v>       0.01923077 </v>
   <v>       0.01923077 </v>
   <v>       0.01923077 </v>
   <v>       0.01923077 </v>
   <v>       0.01923077 </v>
   <v>       0.01923077 </v>
   <v>       0.01923077 </v>
   <v>       0.01923077 </v>
   <v>       0.01923077 </v>
   <v>       0.01923077 </v>
   <v>       0.01923077 </v>
   <v>       0.01923077 </v>
   <v>       0.01923077 </v>
   <v>       0.01923077 </v>
   <v>       0.01923077 </v>
   <v>       0.01923077 </v>
   <v>       0.00961538 </v>
   <v>       0.01923077 </v>
   <v>       0.01923077 </v>
   <v>       0.01923077 </v>
   <v>       0.01923077 </v>
   <v>       0.01923077 </v>
   <v>       0.01923077 </v>
   <v>       0.00961538 </v>
   <v>       0.01923077 </v>
   <v>       0.01923077 </v>
   <v>       0.01923077 </v>
   <v>       0.01923077 </v>
   <v>       0.01923077 </v>
   <v>       0.01923077 </v>
   <v>       0.01923077 </v>
   <v>       0.01923077 </v>
   <v>       0.01923077 </v>
   <v>       0.01923077 </v>
   <v>       0.01923077 </v>
   <v>       0.01923077 </v>
   <v>       0.01923077 </v>
   <v>       0.01923077 </v>
   <v>       0.01923077 </v>
   <v>       0.01923077 </v>
   <v>       0.01923077 </v>
   <v>       0.01923077 </v>
   <v>       0.01923077 </v>
   <v>       0.00961538 </v>
   <v>       0.01923077 </v>
   <v>       0.01923077 </v>
   <v>       0.01923077 </v>
   <v>       0.01923077 </v>
   <v>       0.01923077 </v>
   <v>       0.01923077 </v>
  </varray>
 </kpoints>
 <parameters>
  <separator name="general" >
   <i type="string" name="SYSTEM">unknown system</i>
   <i type="logical" name="LCOMPAT"> F  </i>
  </separator>
  <separator name="electronic" >
   <i type="string" name="PREC">accura</i>
   <i name="ENMAX">    300.00000000</i>
   <i name="ENAUG">    342.92400000</i>
   <i name="EDIFF">      0.00000100</i>
   <i type="int" name="IALGO">    38</i>
   <i type="int" name="IWAVPR">    10</i>
   <i type="int" name="NBANDS">    68</i>
   <i name="NELECT">    108.00000000</i>
   <i type="int" name="TURBO">     0</i>
   <i type="int" name="IRESTART">     0</i>
   <i type="int" name="NREBOOT">     0</i>
   <i type="int" name="NMIN">     0</i>
   <i name="EREF">      0.00000000</i>
   <separator name="electronic smearing" >
    <i type="int" name="ISMEAR">     0</i>
    <i name="SIGMA">      0.10000000</i>
    <i name="KSPACING">      0.50000000</i>
    <i type="logical" name="KGAMMA"> T  </i>
   </separator>
   <separator name="electronic projectors" >
    <i type="logical" name="LREAL"> T  </i>
    <v name="ROPT">     -0.00025000     -0.00025000</v>
    <i type="int" name="LMAXPAW">  -100</i>
    <i type="int" name="LMAXMIX">     2</i>
    <i type="logical" name="NLSPLINE"> F  </i>
   </separator>
   <separator name="electronic startup" >
    <i type="int" name="ISTART">     0</i>
    <i type="int" name="ICHARG">     2</i>
    <i type="int" name="INIWAV">     1</i>
   </separator>
   <separator name="electronic spin" >
    <i type="int" name="ISPIN">     1</i>
    <i type="logical" name="LNONCOLLINEAR"> F  </i>
    <v name="MAGMOM">      1.00000000      1.00000000      1.00000000      1.00000000      1.00000000      1.00000000      1.00000000      1.00000000      1.00000000      1.00000000      1.00000000      1.00000000      1.00000000      1.00000000      1.00000000      1.00000000      1.00000000      1.00000000      1.00000000      1.00000000
      1.00000000      1.00000000      1.00000000      1.00000000</v>
    <i name="NUPDOWN">     -1.00000000</i>
    <i type="logical" name="LSORBIT"> F  </i>
    <v name="SAXIS">      0.00000000      0.00000000      1.00000000</v>
    <i type="logical" name="LSPIRAL"> F  </i>
    <v name="QSPIRAL">      0.00000000      0.00000000      0.00000000</v>
    <i type="logical" name="LZEROZ"> F  </i>
   </separator>
   <separator name="electronic exchange-correlation" >
    <i type="logical" name="LASPH"> F  </i>
    <i type="logical" name="LMETAGGA"> F  </i>
   </separator>
   <separator name="electronic convergence" >
    <i type="int" name="NELM">    60</i>
    <i type="int" name="NELMDL">    -5</i>
    <i type="int" name="NELMIN">     2</i>
    <i name="ENINI">    300.00000000</i>
    <separator name="electronic convergence detail" >
     <i type="logical" name="LDIAG"> T  </i>
     <i type="logical" name="LSUBROT"> F  </i>
     <i name="WEIMIN">      0.00000000</i>
     <i name="EBREAK">      0.00000000</i>
     <i name="DEPER">      0.30000000</i>
     <i type="int" name="NRMM">     4</i>
     <i name="TIME">      0.40000000</i>
    </separator>
   </separator>
   <separator name="electronic mixer" >
    <i name="AMIX">      0.40000000</i>
    <i name="BMIX">      1.00000000</i>
    <i name="AMIN">      0.10000000</i>
    <i name="AMIX_MAG">      1.60000000</i>
    <i name="BMIX_MAG">      1.00000000</i>
    <separator name="electronic mixer details" >
     <i type="int" name="IMIX">     4</i>
     <i type="int" name="MAXMIX">   -45</i>
     <i name="WC">    100.00000000</i>
     <i type="int" name="INIMIX">     1</i>
     <i type="int" name="MIXPRE">     1</i>
     <i type="int" name="MREMOVE">     5</i>
    </separator>
   </separator>
   <separator name="electronic dipolcorrection" >
    <i type="logical" name="LDIPOL"> F  </i>
    <i type="logical" name="LMONO"> F  </i>
    <i type="int" name="IDIPOL">     0</i>
    <i name="EPSILON">      1.00000000</i>
    <v name="DIPOL">   -100.00000000   -100.00000000   -100.00000000</v>
    <i name="EFIELD">      0.00000000</i>
   </separator>
  </separator>
  <separator name="grids" >
   <i type="int" name="NGX">    20</i>
   <i type="int" name="NGY">    60</i>
   <i type="int" name="NGZ">   160</i>
   <i type="int" name="NGXF">    40</i>
   <i type="int" name="NGYF">   120</i>
   <i type="int" name="NGZF">   320</i>
   <i type="logical" name="ADDGRID"> F  </i>
  </separator>
  <separator name="ionic" >
   <i type="int" name="NSW">     0</i>
   <i type="int" name="IBRION">    -1</i>
   <i type="int" name="ISIF">     3</i>
   <i name="PSTRESS">      0.00000000</i>
   <i name="EDIFFG">      0.00001000</i>
   <i type="int" name="NFREE">     1</i>
   <i name="POTIM">      0.50000000</i>
   <i name="SMASS">     -3.00000000</i>
   <i name="SCALEE">      1.00000000</i>
  </separator>
  <separator name="ionic md" >
   <i name="TEBEG">      0.00010000</i>
   <i name="TEEND">      0.00010000</i>
   <i type="int" name="NBLOCK">     1</i>
   <i type="int" name="KBLOCK">     1</i>
   <i type="int" name="NPACO">   256</i>
   <i name="APACO">     16.00000000</i>
  </separator>
  <separator name="symmetry" >
   <i type="int" name="ISYM">     2</i>
   <i name="SYMPREC">      0.00001000</i>
  </separator>
  <separator name="dos" >
   <i type="logical" name="LORBIT"> F  </i>
   <v name="RWIGS">     -1.00000000     -1.00000000</v>
   <i type="int" name="NEDOS">   301</i>
   <i name="EMIN">     10.00000000</i>
   <i name="EMAX">    -10.00000000</i>
   <i name="EFERMI">      0.00000000</i>
  </separator>
  <separator name="writing" >
   <i type="int" name="NWRITE">     2</i>
   <i type="logical" name="LWAVE"> F  </i>
   <i type="logical" name="LCHARG"> F  </i>
   <i type="logical" name="LPARD"> F  </i>
   <i type="logical" name="LVTOT"> F  </i>
   <i type="logical" name="LVHAR"> F  </i>
   <i type="logical" name="LELF"> F  </i>
   <i type="logical" name="LOPTICS"> F  </i>
   <v name="STM">      0.00000000      0.00000000      0.00000000      0.00000000      0.00000000      0.00000000      0.00000000</v>
  </separator>
  <separator name="performance" >
   <i type="int" name="NPAR">     4</i>
   <i type="int" name="NSIM">     4</i>
   <i type="int" name="NBLK">    -1</i>
   <i type="logical" name="LPLANE"> T  </i>
   <i type="logical" name="LSCALAPACK"> T  </i>
   <i type="logical" name="LSCAAWARE"> F  </i>
   <i type="logical" name="LSCALU"> F  </i>
   <i type="logical" name="LASYNC"> F  </i>
   <i type="logical" name="LORBITALREAL"> F  </i>
  </separator>
  <separator name="miscellaneous" >
   <i type="int" name="IDIOT">     3</i>
   <i type="logical" name="LMUSIC"> F  </i>
   <v name="POMASS">     30.97400000     28.08500000</v>
   <v name="DARWINR">      0.00000000      0.00000000</v>
   <v name="DARWINV">      1.00000000      1.00000000</v>
   <i type="logical" name="LCORR"> T  </i>
  </separator>
  <i type="logical" name="GGA_COMPAT"> T  </i>
  <i type="logical" name="LBERRY"> F  </i>
  <i type="int" name="ICORELEVEL">     0</i>
  <i type="logical" name="LDAU"> F  </i>
  <i type="int" name="I_CONSTRAINED_M">     0</i>
  <separator name="electronic exchange-correlation" >
   <i type="string" name="GGA">BO</i>
   <i type="int" name="VOSKOWN">     0</i>
   <i type="logical" name="LHFCALC"> F  </i>
   <i type="string" name="PRECFOCK"></i>
   <i type="logical" name="LSYMGRAD"> F  </i>
   <i type="logical" name="LHFONE"> F  </i>
   <i type="logical" name="LRHFCALC"> F  </i>
   <i type="logical" name="LTHOMAS"> F  </i>
   <i type="logical" name="LMODELHF"> F  </i>
   <i name="ENCUT4O">     -1.00000000</i>
   <i type="int" name="EXXOEP">     0</i>
   <i type="int" name="FOURORBIT">     0</i>
   <i name="AEXX">      0.00000000</i>
   <i name="HFALPHA">      0.00000000</i>
   <i name="MCALPHA">      0.00000000</i>
   <i name="ALDAX">      1.00000000</i>
   <i name="AGGAX">      1.00000000</i>
   <i name="ALDAC">      1.00000000</i>
   <i name="AGGAC">      0.00000000</i>
   <i type="int" name="NKREDX">     1</i>
   <i type="int" name="NKREDY">     1</i>
   <i type="int" name="NKREDZ">     1</i>
   <i type="logical" name="SHIFTRED"> F  </i>
   <i type="logical" name="ODDONLY"> F  </i>
   <i type="logical" name="EVENONLY"> F  </i>
   <i type="int" name="LMAXFOCK">     0</i>
   <i type="int" name="NMAXFOCKAE">     0</i>
   <i type="logical" name="LFOCKAEDFT"> F  </i>
   <i name="HFSCREEN">      0.00000000</i>
   <i name="HFSCREENC">      0.00000000</i>
   <i type="int" name="NBANDSGWLOW">     0</i>
  </separator>
  <separator name="vdW DFT" >
   <i type="logical" name="LUSE_VDW"> T  </i>
   <i name="Zab_VDW">     -0.84910000</i>
   <i name="PARAM1">      0.18333333</i>
   <i name="PARAM2">      0.22000000</i>
   <i name="PARAM3">      0.00000000</i>
  </separator>
  <separator name="model GW" >
   <i type="int" name="MODEL_GW">     0</i>
   <i name="MODEL_EPS0">     25.05800243</i>
   <i name="MODEL_ALPHA">      1.00000000</i>
  </separator>
  <separator name="linear response parameters" >
   <i type="logical" name="LEPSILON"> F  </i>
   <i type="logical" name="LRPA"> F  </i>
   <i type="logical" name="LNABLA"> F  </i>
   <i type="logical" name="LVEL"> F  </i>
   <i type="int" name="KINTER">     0</i>
   <i name="CSHIFT">      0.10000000</i>
   <i name="OMEGAMAX">     -1.00000000</i>
   <i name="DEG_THRESHOLD">      0.00200000</i>
  </separator>
  <separator name="orbital magnetization" >
   <i type="logical" name="NUCIND"> F  </i>
   <v name="MAGPOS">      0.00000000      0.00000000      0.00000000</v>
   <i type="logical" name="LNICSALL"> T  </i>
   <i type="logical" name="ORBITALMAG"> F  </i>
   <i type="logical" name="LMAGBLOCH"> F  </i>
   <i type="logical" name="LCHIMAG"> F  </i>
   <i type="logical" name="LGAUGE"> T  </i>
   <i type="int" name="MAGATOM">     0</i>
   <v name="MAGDIPOL">      0.00000000      0.00000000      0.00000000</v>
   <v name="AVECCONST">      0.00000000      0.00000000      0.00000000</v>
  </separator>
  <separator name="response functions" >
   <i type="logical" name="LADDER"> F  </i>
   <i type="logical" name="LFXC"> F  </i>
   <i type="logical" name="LHARTREE"> T  </i>
   <i type="int" name="IBSE">     0</i>
   <i type="logical" name="LTCTE"> F  </i>
   <i type="logical" name="LTETE"> F  </i>
   <i type="logical" name="LTRIPLET"> F  </i>
   <i type="logical" name="LFXCEPS"> F  </i>
   <i type="logical" name="LFXHEG"> F  </i>
   <i type="logical" name="L2ORDER"> F  </i>
   <i type="logical" name="LUSEW"> F  </i>
   <i name="ENCUTGW">     -2.00000000</i>
   <i name="ENCUTGWSOFT">     -2.00000000</i>
   <i name="ENCUTLF">     -1.00000000</i>
   <i type="int" name="LMAXMP2">    -1</i>
   <i name="SCISSOR">      0.00000000</i>
   <i type="int" name="NOMEGA">     0</i>
   <i type="int" name="NOMEGAR">     0</i>
   <i type="int" name="NBANDSGW">    -1</i>
   <i type="int" name="NBANDSO">    -1</i>
   <i type="int" name="NBANDSV">    -1</i>
   <i type="int" name="NELM">     1</i>
   <i type="int" name="DIM">     3</i>
   <i type="int" name="ANTIRES">     0</i>
   <i name="OMEGAMAX">    -30.00000000</i>
   <i name="OMEGAMIN">    -30.00000000</i>
   <i name="OMEGATL">   -200.00000000</i>
   <i type="int" name="OMEGAGRID">     0</i>
   <i name="CSHIFT">     -0.10000000</i>
   <i type="logical" name="SELFENERGY"> F  </i>
   <i type="logical" name="LSPECTRAL"> F  </i>
   <i type="logical" name="ODDONLYGW"> F  </i>
   <i type="logical" name="EVENONLYGW"> F  </i>
   <i type="int" name="NKREDLFX">     1</i>
   <i type="int" name="NKREDLFY">     1</i>
   <i type="int" name="NKREDLFZ">     1</i>
   <i type="int" name="MAXMEM">  1800</i>
   <i type="int" name="TELESCOPE">     0</i>
   <i type="int" name="TAUPAR">     1</i>
  </separator>
  <separator name="External order field" >
   <i name="OFIELD_KAPPA">      0.00000000</i>
   <v name="OFIELD_K">      0.00000000      0.00000000      0.00000000</v>
   <i name="OFIELD_Q6_NEAR">      0.00000000</i>
   <i name="OFIELD_Q6_FAR">      0.00000000</i>
   <i name="OFIELD_A">      0.00000000</i>
  </separator>
 </parameters>
 <atominfo>
  <atoms>      24 </atoms>
  <types>       2 </types>
  <array name="atoms" >
   <dimension dim="1">ion</dimension>
   <field type="string">element</field>
   <field type="int">atomtype</field>
   <set>
    <rc><c>P </c><c>   1</c></rc>
    <rc><c>P </c><c>   1</c></rc>
    <rc><c>P </c><c>   1</c></rc>
    <rc><c>P </c><c>   1</c></rc>
    <rc><c>P </c><c>   1</c></rc>
    <rc><c>P </c><c>   1</c></rc>
    <rc><c>P </c><c>   1</c></rc>
    <rc><c>P </c><c>   1</c></rc>
    <rc><c>P </c><c>   1</c></rc>
    <rc><c>P </c><c>   1</c></rc>
    <rc><c>P </c><c>   1</c></rc>
    <rc><c>P </c><c>   1</c></rc>
    <rc><c>Si</c><c>   2</c></rc>
    <rc><c>Si</c><c>   2</c></rc>
    <rc><c>Si</c><c>   2</c></rc>
    <rc><c>Si</c><c>   2</c></rc>
    <rc><c>Si</c><c>   2</c></rc>
    <rc><c>Si</c><c>   2</c></rc>
    <rc><c>Si</c><c>   2</c></rc>
    <rc><c>Si</c><c>   2</c></rc>
    <rc><c>Si</c><c>   2</c></rc>
    <rc><c>Si</c><c>   2</c></rc>
    <rc><c>Si</c><c>   2</c></rc>
    <rc><c>Si</c><c>   2</c></rc>
   </set>
  </array>
  <array name="atomtypes" >
   <dimension dim="1">type</dimension>
   <field type="int">atomspertype</field>
   <field type="string">element</field>
   <field>mass</field>
   <field>valence</field>
   <field type="string">pseudopotential</field>
   <set>
    <rc><c>  12</c><c>P </c><c>     30.97400000</c><c>      5.00000000</c><c>  PAW_PBE P 17Jan2003                   </c></rc>
    <rc><c>  12</c><c>Si</c><c>     28.08500000</c><c>      4.00000000</c><c> PAW_PBE Si 05Jan2001                   </c></rc>
   </set>
  </array>
 </atominfo>
 <structure name="initialpos" >
  <crystal>
   <varray name="basis" >
    <v>       3.54040000       0.00000000       0.00000000 </v>
    <v>      -1.77020000      10.29434800       0.00000000 </v>
    <v>       0.00000000       0.00000000      27.50142900 </v>
   </varray>
   <i name="volume">   1002.32009712 </i>
   <varray name="rec_basis" >
    <v>       0.28245396       0.04857034       0.00000000 </v>
    <v>       0.00000000       0.09714068       0.00000000 </v>
    <v>       0.00000000       0.00000000       0.03636175 </v>
   </varray>
  </crystal>
  <varray name="positions" >
   <v>       0.11402300       0.22804500       0.23316207 </v>
   <v>       0.51402300       0.22804500       0.51499159 </v>
   <v>       0.45808900       0.91617900       0.20939482 </v>
   <v>       0.85808900       0.91617900       0.49122434 </v>
   <v>       0.31085400       0.62170900       0.08414979 </v>
   <v>       0.31085400       0.62170900       0.36597930 </v>
   <v>       0.99923000       0.99846000       0.08631254 </v>
   <v>       0.99923000       0.99846000       0.36814206 </v>
   <v>       0.65492700       0.30985400       0.06041748 </v>
   <v>       0.65492700       0.30985400       0.34224700 </v>
   <v>       0.76973800       0.53947500       0.20725292 </v>
   <v>       0.16973800       0.53947500       0.48908244 </v>
   <v>       0.93971600       0.87943300       0.15783749 </v>
   <v>       0.33971600       0.87943300       0.43966701 </v>
   <v>       0.20515200       0.41030300       0.18578822 </v>
   <v>       0.60515200       0.41030300       0.46761774 </v>
   <v>       0.20184900       0.40369900       0.09969156 </v>
   <v>       0.20184900       0.40369900       0.38152107 </v>
   <v>       0.56380500       0.12761000       0.10779021 </v>
   <v>       0.56380500       0.12761000       0.38961973 </v>
   <v>       0.56710600       0.13421200       0.19387616 </v>
   <v>       0.96710600       0.13421200       0.47570568 </v>
   <v>       0.82923400       0.65846800       0.13571444 </v>
   <v>       0.22923400       0.65846800       0.41754396 </v>
  </varray>
 </structure>
 <calculation>
  <scstep>
   <time name="dav">   65.78   65.82</time>
   <time name="total">   82.43   82.50</time>
   <energy>
    <i name="alphaZ">     36.80884744 </i>
    <i name="ewald">  11911.61454691 </i>
    <i name="hartreedc"> -14952.21255405 </i>
    <i name="XCdc">    -88.10680698 </i>
    <i name="pawpsdc">   1056.43050070 </i>
    <i name="pawaedc">   -732.41190547 </i>
    <i name="eentropy">     -0.03969366 </i>
    <i name="bandstr">    -88.40797641 </i>
    <i name="atom">   3354.04126044 </i>
    <i name="e_fr_energy">    497.71621894 </i>
    <i name="e_wo_entrp">    497.75591260 </i>
    <i name="e_0_energy">    497.73606577 </i>
   </energy>
  </scstep>
  <scstep>
   <time name="dav">   82.03   82.05</time>
   <time name="total">   82.04   82.06</time>
   <energy>
    <i name="e_fr_energy">    -62.57446477 </i>
    <i name="e_wo_entrp">    -62.54578452 </i>
    <i name="e_0_energy">    -62.56012464 </i>
   </energy>
  </scstep>
  <scstep>
   <time name="dav">   75.94   75.96</time>
   <time name="total">   75.95   75.97</time>
   <energy>
    <i name="e_fr_energy">   -120.04711498 </i>
    <i name="e_wo_entrp">   -120.00831674 </i>
    <i name="e_0_energy">   -120.02771586 </i>
   </energy>
  </scstep>
  <scstep>
   <time name="dav">   88.65   88.67</time>
   <time name="total">   88.66   88.69</time>
   <energy>
    <i name="e_fr_energy">   -122.73518310 </i>
    <i name="e_wo_entrp">   -122.69460423 </i>
    <i name="e_0_energy">   -122.71489366 </i>
   </energy>
  </scstep>
  <scstep>
   <time name="dav">   81.76   81.78</time>
   <time name="total">   85.93   85.95</time>
   <energy>
    <i name="e_fr_energy">   -122.79295524 </i>
    <i name="e_wo_entrp">   -122.75233440 </i>
    <i name="e_0_energy">   -122.77264482 </i>
   </energy>
  </scstep>
  <scstep>
   <time name="dav">   72.98   73.00</time>
   <time name="total">   91.80   91.83</time>
   <energy>
    <i name="e_fr_energy">   -118.83982721 </i>
    <i name="e_wo_entrp">   -118.80304826 </i>
    <i name="e_0_energy">   -118.82143773 </i>
   </energy>
  </scstep>
  <scstep>
   <time name="dav">   77.64   77.66</time>
   <time name="total">   96.52   96.55</time>
   <energy>
    <i name="e_fr_energy">   -118.80214568 </i>
    <i name="e_wo_entrp">   -118.76349389 </i>
    <i name="e_0_energy">   -118.78281978 </i>
   </energy>
  </scstep>
  <scstep>
   <time name="dav">   74.81   74.85</time>
   <time name="total">   94.02   94.06</time>
   <energy>
    <i name="e_fr_energy">   -118.65395172 </i>
    <i name="e_wo_entrp">   -118.61577808 </i>
    <i name="e_0_energy">   -118.63486490 </i>
   </energy>
  </scstep>
  <scstep>
   <time name="dav">   84.35   84.37</time>
   <time name="total">  105.14  105.17</time>
   <energy>
    <i name="e_fr_energy">   -118.69912283 </i>
    <i name="e_wo_entrp">   -118.66063336 </i>
    <i name="e_0_energy">   -118.67987810 </i>
   </energy>
  </scstep>
  <scstep>
   <time name="dav">   95.77   95.92</time>
   <time name="total">  118.06  118.38</time>
   <energy>
    <i name="e_fr_energy">   -118.68249077 </i>
    <i name="e_wo_entrp">   -118.64390863 </i>
    <i name="e_0_energy">   -118.66319970 </i>
   </energy>
  </scstep>
  <scstep>
   <time name="dav">   78.29   78.38</time>
   <time name="total">   97.56   97.66</time>
   <energy>
    <i name="e_fr_energy">   -118.67360862 </i>
    <i name="e_wo_entrp">   -118.63487423 </i>
    <i name="e_0_energy">   -118.65424142 </i>
   </energy>
  </scstep>
  <scstep>
   <time name="dav">   83.82   83.85</time>
   <time name="total">  102.69  102.77</time>
   <energy>
    <i name="e_fr_energy">   -118.66900462 </i>
    <i name="e_wo_entrp">   -118.63025552 </i>
    <i name="e_0_energy">   -118.64963007 </i>
   </energy>
  </scstep>
  <scstep>
   <time name="dav">   77.00   77.02</time>
   <time name="total">   96.60   96.63</time>
   <energy>
    <i name="e_fr_energy">   -118.66669674 </i>
    <i name="e_wo_entrp">   -118.62794144 </i>
    <i name="e_0_energy">   -118.64731909 </i>
   </energy>
  </scstep>
  <scstep>
   <time name="dav">   83.74   83.77</time>
   <time name="total">  103.49  103.52</time>
   <energy>
    <i name="e_fr_energy">   -118.66542093 </i>
    <i name="e_wo_entrp">   -118.62665121 </i>
    <i name="e_0_energy">   -118.64603607 </i>
   </energy>
  </scstep>
  <scstep>
   <time name="dav">   83.88   83.91</time>
   <time name="total">  104.04  104.07</time>
   <energy>
    <i name="e_fr_energy">   -118.66529021 </i>
    <i name="e_wo_entrp">   -118.62650978 </i>
    <i name="e_0_energy">   -118.64590000 </i>
   </energy>
  </scstep>
  <scstep>
   <time name="dav">   77.20   77.30</time>
   <time name="total">   97.11   97.34</time>
   <energy>
    <i name="e_fr_energy">   -118.66558384 </i>
    <i name="e_wo_entrp">   -118.62679911 </i>
    <i name="e_0_energy">   -118.64619148 </i>
   </energy>
  </scstep>
  <scstep>
   <time name="dav">   79.17   79.20</time>
   <time name="total">   99.34   99.37</time>
   <energy>
    <i name="e_fr_energy">   -118.66581880 </i>
    <i name="e_wo_entrp">   -118.62703378 </i>
    <i name="e_0_energy">   -118.64642629 </i>
   </energy>
  </scstep>
  <scstep>
   <time name="dav">   75.01   75.03</time>
   <time name="total">   94.61   94.64</time>
   <energy>
    <i name="e_fr_energy">   -118.66603005 </i>
    <i name="e_wo_entrp">   -118.62724446 </i>
    <i name="e_0_energy">   -118.64663726 </i>
   </energy>
  </scstep>
  <scstep>
   <time name="dav">   74.82   74.84</time>
   <time name="total">   94.34   94.37</time>
   <energy>
    <i name="e_fr_energy">   -118.66610884 </i>
    <i name="e_wo_entrp">   -118.62732409 </i>
    <i name="e_0_energy">   -118.64671647 </i>
   </energy>
  </scstep>
  <scstep>
   <time name="dav">   68.92   68.94</time>
   <time name="total">   88.46   88.49</time>
   <energy>
    <i name="e_fr_energy">   -118.66612949 </i>
    <i name="e_wo_entrp">   -118.62734398 </i>
    <i name="e_0_energy">   -118.64673674 </i>
   </energy>
  </scstep>
  <scstep>
   <time name="dav">   71.99   72.05</time>
   <time name="total">   91.43   91.52</time>
   <energy>
    <i name="e_fr_energy">   -118.66608708 </i>
    <i name="e_wo_entrp">   -118.62730064 </i>
    <i name="e_0_energy">   -118.64669386 </i>
   </energy>
  </scstep>
  <scstep>
   <time name="dav">   69.32   69.36</time>
   <time name="total">   88.86   88.91</time>
   <energy>
    <i name="e_fr_energy">   -118.66605060 </i>
    <i name="e_wo_entrp">   -118.62726399 </i>
    <i name="e_0_energy">   -118.64665730 </i>
   </energy>
  </scstep>
  <scstep>
   <time name="dav">   67.44   67.49</time>
   <time name="total">   86.93   87.05</time>
   <energy>
    <i name="e_fr_energy">   -118.66599637 </i>
    <i name="e_wo_entrp">   -118.62720948 </i>
    <i name="e_0_energy">   -118.64660293 </i>
   </energy>
  </scstep>
  <scstep>
   <time name="dav">   70.75   70.80</time>
   <time name="total">   91.41   91.47</time>
   <energy>
    <i name="e_fr_energy">   -118.66597489 </i>
    <i name="e_wo_entrp">   -118.62718801 </i>
    <i name="e_0_energy">   -118.64658145 </i>
   </energy>
  </scstep>
  <scstep>
   <time name="dav">   78.30   78.60</time>
   <time name="total">  100.54  101.05</time>
   <energy>
    <i name="e_fr_energy">   -118.66596617 </i>
    <i name="e_wo_entrp">   -118.62717925 </i>
    <i name="e_0_energy">   -118.64657271 </i>
   </energy>
  </scstep>
  <scstep>
   <time name="dav">   62.62   62.71</time>
   <time name="total">   82.30   82.39</time>
   <energy>
    <i name="e_fr_energy">   -118.66596311 </i>
    <i name="e_wo_entrp">   -118.62717622 </i>
    <i name="e_0_energy">   -118.64656967 </i>
   </energy>
  </scstep>
  <scstep>
   <time name="dav">   61.24   61.26</time>
   <time name="total">   80.74   80.79</time>
   <energy>
    <i name="e_fr_energy">   -118.66596124 </i>
    <i name="e_wo_entrp">   -118.62717438 </i>
    <i name="e_0_energy">   -118.64656781 </i>
   </energy>
  </scstep>
  <scstep>
   <time name="dav">   56.57   56.60</time>
   <time name="total">   71.33   71.39</time>
   <energy>
    <i name="alphaZ">     36.80884744 </i>
    <i name="ewald">  11911.61454691 </i>
    <i name="hartreedc"> -15045.87095444 </i>
    <i name="XCdc">    -79.91981412 </i>
    <i name="pawpsdc">   1185.69731263 </i>
    <i name="pawaedc">   -865.25708410 </i>
    <i name="eentropy">     -0.03878685 </i>
    <i name="bandstr">   -615.74128866 </i>
    <i name="atom">   3354.04126044 </i>
    <i name="e_fr_energy">   -118.66596075 </i>
    <i name="e_wo_entrp">   -118.62717389 </i>
    <i name="e_0_energy">   -118.64656732 </i>
   </energy>
  </scstep>
  <structure>
   <crystal>
    <varray name="basis" >
     <v>       3.54040000       0.00000000       0.00000000 </v>
     <v>      -1.77020000      10.29434800       0.00000000 </v>
     <v>       0.00000000       0.00000000      27.50142900 </v>
    </varray>
    <i name="volume">   1002.32009712 </i>
    <varray name="rec_basis" >
     <v>       0.28245396       0.04857034       0.00000000 </v>
     <v>       0.00000000       0.09714068       0.00000000 </v>
     <v>       0.00000000       0.00000000       0.03636175 </v>
    </varray>
   </crystal>
   <varray name="positions" >
    <v>       0.11402300       0.22804500       0.23316207 </v>
    <v>       0.51402300       0.22804500       0.51499159 </v>
    <v>       0.45808900       0.91617900       0.20939482 </v>
    <v>       0.85808900       0.91617900       0.49122434 </v>
    <v>       0.31085400       0.62170900       0.08414979 </v>
    <v>       0.31085400       0.62170900       0.36597930 </v>
    <v>       0.99923000       0.99846000       0.08631254 </v>
    <v>       0.99923000       0.99846000       0.36814206 </v>
    <v>       0.65492700       0.30985400       0.06041748 </v>
    <v>       0.65492700       0.30985400       0.34224700 </v>
    <v>       0.76973800       0.53947500       0.20725292 </v>
    <v>       0.16973800       0.53947500       0.48908244 </v>
    <v>       0.93971600       0.87943300       0.15783749 </v>
    <v>       0.33971600       0.87943300       0.43966701 </v>
    <v>       0.20515200       0.41030300       0.18578822 </v>
    <v>       0.60515200       0.41030300       0.46761774 </v>
    <v>       0.20184900       0.40369900       0.09969156 </v>
    <v>       0.20184900       0.40369900       0.38152107 </v>
    <v>       0.56380500       0.12761000       0.10779021 </v>
    <v>       0.56380500       0.12761000       0.38961973 </v>
    <v>       0.56710600       0.13421200       0.19387616 </v>
    <v>       0.96710600       0.13421200       0.47570568 </v>
    <v>       0.82923400       0.65846800       0.13571444 </v>
    <v>       0.22923400       0.65846800       0.41754396 </v>
   </varray>
  </structure>
  <varray name="forces" >
   <v>       0.02345669      -0.02663752       0.06178176 </v>
   <v>      -0.36281172       0.47897716       0.35498180 </v>
   <v>       0.00262262      -0.01173905       0.08961735 </v>
   <v>      -0.28612801       0.14782779       0.48501339 </v>
   <v>      -0.00039484      -0.00979008       0.01117758 </v>
   <v>       9.40238422     -10.54229638     -38.31216703 </v>
   <v>       0.00291774       0.00814334      -0.00193935 </v>
   <v>       1.29963968      -0.58078929      -0.74063288 </v>
   <v>       0.00121009      -0.00191768       0.02449704 </v>
   <v>       0.46425580      -0.16653283      -0.48399149 </v>
   <v>       0.00116062       0.00230521       0.09024243 </v>
   <v>      -0.43538224       0.52663046       0.97080777 </v>
   <v>       0.00244898       0.00480189       0.01039712 </v>
   <v>      -1.03384876       0.35023596      -0.01045957 </v>
   <v>      -0.00180503       0.02364979       0.05899473 </v>
   <v>      -0.69133846       0.16578534      -0.37897323 </v>
   <v>      -0.00098772      -0.00129034      -0.03485668 </v>
   <v>       0.79826632      -0.34509424       0.46390543 </v>
   <v>       0.00112114      -0.01519051      -0.04220858 </v>
   <v>       0.66236314      -0.36411447       0.13216748 </v>
   <v>      -0.00299976      -0.04771884       0.04403003 </v>
   <v>      -0.75442726       0.14905997      -0.58877660 </v>
   <v>       0.00252651       0.01659765      -0.00153294 </v>
   <v>      -9.09424973      10.23909667      37.79792442 </v>
  </varray>
  <varray name="stress" >
   <v>      -2.43592899      -5.93781832     -36.37557605 </v>
   <v>      -5.93781845       9.07454079      32.53695063 </v>
   <v>     -36.37557604      32.53695070      88.54566977 </v>
  </varray>
  <energy>
   <i name="e_fr_energy">   -118.66596075 </i>
   <i name="e_wo_entrp">   -118.64656732 </i>
   <i name="e_0_energy">     -0.03878685 </i>
  </energy>
  <time name="totalsc"> 2707.64 2710.12</time>
  <eigenvalues>
   <array>
    <dimension dim="1">band</dimension>
    <dimension dim="2">kpoint</dimension>
    <dimension dim="3">spin</dimension>
    <field>eigene</field>
    <field>occ</field>
    <set>
     <set comment="spin 1">
      <set comment="kpoint 1">
       <r>  -13.7055    1.0000 </r>
       <r>  -13.6367    1.0000 </r>
       <r>  -12.9145    1.0000 </r>
       <r>  -12.8950    1.0000 </r>
       <r>  -12.5928    1.0000 </r>
       <r>  -12.3591    1.0000 </r>
       <r>  -12.1937    1.0000 </r>
       <r>  -12.1483    1.0000 </r>
       <r>  -11.5299    1.0000 </r>
       <r>  -11.3355    1.0000 </r>
       <r>  -11.0896    1.0000 </r>
       <r>  -11.0194    1.0000 </r>
       <r>   -8.1365    1.0000 </r>
       <r>   -7.9330    1.0000 </r>
       <r>   -7.8415    1.0000 </r>
       <r>   -7.3682    1.0000 </r>
       <r>   -6.9432    1.0000 </r>
       <r>   -6.5954    1.0000 </r>
       <r>   -6.4932    1.0000 </r>
       <r>   -6.4051    1.0000 </r>
       <r>   -5.9203    1.0000 </r>
       <r>   -5.6079    1.0000 </r>
       <r>   -4.8368    1.0000 </r>
       <r>   -4.7121    1.0000 </r>
       <r>   -4.0727    1.0000 </r>
       <r>   -3.7853    1.0000 </r>
       <r>   -3.6894    1.0000 </r>
       <r>   -3.4877    1.0000 </r>
       <r>   -3.1567    1.0000 </r>
       <r>   -3.1338    1.0000 </r>
       <r>   -2.9386    1.0000 </r>
       <r>   -2.9247    1.0000 </r>
       <r>   -2.8547    1.0000 </r>
       <r>   -2.6335    1.0000 </r>
       <r>   -2.5427    1.0000 </r>
       <r>   -2.4942    1.0000 </r>
       <r>   -2.3978    1.0000 </r>
       <r>   -2.2541    1.0000 </r>
       <r>   -2.1495    1.0000 </r>
       <r>   -2.0599    1.0000 </r>
       <r>   -1.9842    1.0000 </r>
       <r>   -1.8689    1.0000 </r>
       <r>   -1.8235    1.0000 </r>
       <r>   -1.7419    1.0000 </r>
       <r>   -1.6738    1.0000 </r>
       <r>   -1.6258    1.0000 </r>
       <r>   -1.5721    1.0000 </r>
       <r>   -1.5278    1.0000 </r>
       <r>   -1.3300    1.0000 </r>
       <r>   -1.2851    1.0000 </r>
       <r>   -1.2420    1.0000 </r>
       <r>   -1.1185    1.0000 </r>
       <r>   -0.3255    1.0000 </r>
       <r>   -0.0617    0.7116 </r>
       <r>    0.6501    0.0000 </r>
       <r>    1.0123    0.0000 </r>
       <r>    1.1303    0.0000 </r>
       <r>    1.2236    0.0000 </r>
       <r>    1.6130    0.0000 </r>
       <r>    1.7267    0.0000 </r>
       <r>    1.8567    0.0000 </r>
       <r>    1.8906    0.0000 </r>
       <r>    2.0644    0.0000 </r>
       <r>    2.1253    0.0000 </r>
       <r>    2.3301    0.0000 </r>
       <r>    2.5366    0.0000 </r>
       <r>    2.5724    0.0000 </r>
       <r>    2.6183    0.0000 </r>
      </set>
      <set comment="kpoint 2">
       <r>  -13.6607    1.0000 </r>
       <r>  -13.5758    1.0000 </r>
       <r>  -12.8653    1.0000 </r>
       <r>  -12.8429    1.0000 </r>
       <r>  -12.5371    1.0000 </r>
       <r>  -12.3034    1.0000 </r>
       <r>  -12.1335    1.0000 </r>
       <r>  -12.0897    1.0000 </r>
       <r>  -11.4809    1.0000 </r>
       <r>  -11.2846    1.0000 </r>
       <r>  -11.0410    1.0000 </r>
       <r>  -10.9689    1.0000 </r>
       <r>   -8.1715    1.0000 </r>
       <r>   -7.9014    1.0000 </r>
       <r>   -7.8336    1.0000 </r>
       <r>   -7.3387    1.0000 </r>
       <r>   -6.9094    1.0000 </r>
       <r>   -6.5890    1.0000 </r>
       <r>   -6.4707    1.0000 </r>
       <r>   -6.3840    1.0000 </r>
       <r>   -5.8865    1.0000 </r>
       <r>   -5.5677    1.0000 </r>
       <r>   -4.8402    1.0000 </r>
       <r>   -4.7465    1.0000 </r>
       <r>   -4.0588    1.0000 </r>
       <r>   -3.8171    1.0000 </r>
       <r>   -3.7651    1.0000 </r>
       <r>   -3.6331    1.0000 </r>
       <r>   -3.4591    1.0000 </r>
       <r>   -3.3495    1.0000 </r>
       <r>   -3.2948    1.0000 </r>
       <r>   -3.2003    1.0000 </r>
       <r>   -2.9933    1.0000 </r>
       <r>   -2.9442    1.0000 </r>
       <r>   -2.8258    1.0000 </r>
       <r>   -2.6625    1.0000 </r>
       <r>   -2.5697    1.0000 </r>
       <r>   -2.3658    1.0000 </r>
       <r>   -2.3048    1.0000 </r>
       <r>   -2.1792    1.0000 </r>
       <r>   -2.1058    1.0000 </r>
       <r>   -2.0592    1.0000 </r>
       <r>   -2.0572    1.0000 </r>
       <r>   -1.9340    1.0000 </r>
       <r>   -1.8972    1.0000 </r>
       <r>   -1.7774    1.0000 </r>
       <r>   -1.6988    1.0000 </r>
       <r>   -1.6055    1.0000 </r>
       <r>   -1.5646    1.0000 </r>
       <r>   -1.2698    1.0000 </r>
       <r>   -1.1978    1.0000 </r>
       <r>   -1.0639    1.0000 </r>
       <r>   -0.3019    1.0000 </r>
       <r>   -0.0383    0.5897 </r>
       <r>    1.0207    0.0000 </r>
       <r>    1.3364    0.0000 </r>
       <r>    1.4975    0.0000 </r>
       <r>    1.6663    0.0000 </r>
       <r>    1.8715    0.0000 </r>
       <r>    2.0362    0.0000 </r>
       <r>    2.1107    0.0000 </r>
       <r>    2.1302    0.0000 </r>
       <r>    2.2141    0.0000 </r>
       <r>    2.4035    0.0000 </r>
       <r>    2.4911    0.0000 </r>
       <r>    2.5316    0.0000 </r>
       <r>    2.6637    0.0000 </r>
       <r>    2.7987    0.0000 </r>
      </set>
      <set comment="kpoint 3">
       <r>  -13.5330    1.0000 </r>
       <r>  -13.3936    1.0000 </r>
       <r>  -12.7173    1.0000 </r>
       <r>  -12.6873    1.0000 </r>
       <r>  -12.3723    1.0000 </r>
       <r>  -12.1384    1.0000 </r>
       <r>  -11.9586    1.0000 </r>
       <r>  -11.9160    1.0000 </r>
       <r>  -11.3389    1.0000 </r>
       <r>  -11.1354    1.0000 </r>
       <r>  -10.9017    1.0000 </r>
       <r>  -10.8211    1.0000 </r>
       <r>   -8.2660    1.0000 </r>
       <r>   -7.8692    1.0000 </r>
       <r>   -7.8234    1.0000 </r>
       <r>   -7.2936    1.0000 </r>
       <r>   -6.8314    1.0000 </r>
       <r>   -6.6000    1.0000 </r>
       <r>   -6.4572    1.0000 </r>
       <r>   -6.3229    1.0000 </r>
       <r>   -5.8117    1.0000 </r>
       <r>   -5.4718    1.0000 </r>
       <r>   -4.9963    1.0000 </r>
       <r>   -4.9583    1.0000 </r>
       <r>   -4.3705    1.0000 </r>
       <r>   -4.3023    1.0000 </r>
       <r>   -4.1881    1.0000 </r>
       <r>   -4.0826    1.0000 </r>
       <r>   -3.8537    1.0000 </r>
       <r>   -3.8044    1.0000 </r>
       <r>   -3.7309    1.0000 </r>
       <r>   -3.5998    1.0000 </r>
       <r>   -3.4336    1.0000 </r>
       <r>   -3.2990    1.0000 </r>
       <r>   -3.1811    1.0000 </r>
       <r>   -3.1104    1.0000 </r>
       <r>   -3.0544    1.0000 </r>
       <r>   -2.9453    1.0000 </r>
       <r>   -2.8806    1.0000 </r>
       <r>   -2.5955    1.0000 </r>
       <r>   -2.4739    1.0000 </r>
       <r>   -2.2978    1.0000 </r>
       <r>   -2.2451    1.0000 </r>
       <r>   -2.0733    1.0000 </r>
       <r>   -1.9903    1.0000 </r>
       <r>   -1.9614    1.0000 </r>
       <r>   -1.8266    1.0000 </r>
       <r>   -1.7368    1.0000 </r>
       <r>   -1.6402    1.0000 </r>
       <r>   -1.3125    1.0000 </r>
       <r>   -1.1652    1.0000 </r>
       <r>   -1.0492    1.0000 </r>
       <r>   -0.3133    1.0000 </r>
       <r>   -0.0425    0.6127 </r>
       <r>    1.2471    0.0000 </r>
       <r>    1.3683    0.0000 </r>
       <r>    1.8405    0.0000 </r>
       <r>    1.9007    0.0000 </r>
       <r>    2.1433    0.0000 </r>
       <r>    2.2768    0.0000 </r>
       <r>    2.3598    0.0000 </r>
       <r>    2.4560    0.0000 </r>
       <r>    2.5413    0.0000 </r>
       <r>    2.6369    0.0000 </r>
       <r>    2.8217    0.0000 </r>
       <r>    2.8750    0.0000 </r>
       <r>    2.9632    0.0000 </r>
       <r>    3.0812    0.0000 </r>
      </set>
      <set comment="kpoint 4">
       <r>  -13.3432    1.0000 </r>
       <r>  -13.0931    1.0000 </r>
       <r>  -12.4691    1.0000 </r>
       <r>  -12.4311    1.0000 </r>
       <r>  -12.1053    1.0000 </r>
       <r>  -11.8708    1.0000 </r>
       <r>  -11.6872    1.0000 </r>
       <r>  -11.6368    1.0000 </r>
       <r>  -11.1218    1.0000 </r>
       <r>  -10.9001    1.0000 </r>
       <r>  -10.6977    1.0000 </r>
       <r>  -10.5890    1.0000 </r>
       <r>   -8.4568    1.0000 </r>
       <r>   -7.9293    1.0000 </r>
       <r>   -7.8932    1.0000 </r>
       <r>   -7.3724    1.0000 </r>
       <r>   -6.8002    1.0000 </r>
       <r>   -6.7337    1.0000 </r>
       <r>   -6.6111    1.0000 </r>
       <r>   -6.3076    1.0000 </r>
       <r>   -5.8322    1.0000 </r>
       <r>   -5.5960    1.0000 </r>
       <r>   -5.4357    1.0000 </r>
       <r>   -5.3135    1.0000 </r>
       <r>   -4.9149    1.0000 </r>
       <r>   -4.9005    1.0000 </r>
       <r>   -4.7035    1.0000 </r>
       <r>   -4.6072    1.0000 </r>
       <r>   -4.3388    1.0000 </r>
       <r>   -4.2821    1.0000 </r>
       <r>   -4.1353    1.0000 </r>
       <r>   -3.9709    1.0000 </r>
       <r>   -3.8870    1.0000 </r>
       <r>   -3.6955    1.0000 </r>
       <r>   -3.5932    1.0000 </r>
       <r>   -3.5599    1.0000 </r>
       <r>   -3.2144    1.0000 </r>
       <r>   -3.0877    1.0000 </r>
       <r>   -3.0289    1.0000 </r>
       <r>   -2.7650    1.0000 </r>
       <r>   -2.7130    1.0000 </r>
       <r>   -2.5856    1.0000 </r>
       <r>   -2.4772    1.0000 </r>
       <r>   -2.1445    1.0000 </r>
       <r>   -2.0116    1.0000 </r>
       <r>   -1.9474    1.0000 </r>
       <r>   -1.8999    1.0000 </r>
       <r>   -1.8097    1.0000 </r>
       <r>   -1.5946    1.0000 </r>
       <r>   -1.5539    1.0000 </r>
       <r>   -1.1789    1.0000 </r>
       <r>   -1.1145    1.0000 </r>
       <r>   -0.4776    1.0000 </r>
       <r>   -0.0636    0.7208 </r>
       <r>    0.6423    0.0000 </r>
       <r>    1.0160    0.0000 </r>
       <r>    1.4812    0.0000 </r>
       <r>    1.7792    0.0000 </r>
       <r>    1.9296    0.0000 </r>
       <r>    2.0352    0.0000 </r>
       <r>    2.1571    0.0000 </r>
       <r>    2.2695    0.0000 </r>
       <r>    2.4299    0.0000 </r>
       <r>    2.5885    0.0000 </r>
       <r>    2.7661    0.0000 </r>
       <r>    2.8021    0.0000 </r>
       <r>    2.8812    0.0000 </r>
       <r>    3.0537    0.0000 </r>
      </set>
      <set comment="kpoint 5">
       <r>  -13.1278    1.0000 </r>
       <r>  -12.6816    1.0000 </r>
       <r>  -12.1214    1.0000 </r>
       <r>  -12.0826    1.0000 </r>
       <r>  -11.7529    1.0000 </r>
       <r>  -11.5176    1.0000 </r>
       <r>  -11.3491    1.0000 </r>
       <r>  -11.2840    1.0000 </r>
       <r>  -10.8772    1.0000 </r>
       <r>  -10.6133    1.0000 </r>
       <r>  -10.5113    1.0000 </r>
       <r>  -10.3057    1.0000 </r>
       <r>   -8.7517    1.0000 </r>
       <r>   -8.1854    1.0000 </r>
       <r>   -8.1547    1.0000 </r>
       <r>   -7.6579    1.0000 </r>
       <r>   -7.1068    1.0000 </r>
       <r>   -7.0835    1.0000 </r>
       <r>   -6.9960    1.0000 </r>
       <r>   -6.5141    1.0000 </r>
       <r>   -6.2546    1.0000 </r>
       <r>   -6.1063    1.0000 </r>
       <r>   -6.0614    1.0000 </r>
       <r>   -5.4051    1.0000 </r>
       <r>   -5.3049    1.0000 </r>
       <r>   -5.0716    1.0000 </r>
       <r>   -4.8893    1.0000 </r>
       <r>   -4.8009    1.0000 </r>
       <r>   -4.7506    1.0000 </r>
       <r>   -4.5370    1.0000 </r>
       <r>   -4.4020    1.0000 </r>
       <r>   -4.3184    1.0000 </r>
       <r>   -4.2582    1.0000 </r>
       <r>   -3.9313    1.0000 </r>
       <r>   -3.5574    1.0000 </r>
       <r>   -3.4819    1.0000 </r>
       <r>   -3.2299    1.0000 </r>
       <r>   -3.1617    1.0000 </r>
       <r>   -3.0340    1.0000 </r>
       <r>   -2.9666    1.0000 </r>
       <r>   -2.8175    1.0000 </r>
       <r>   -2.7162    1.0000 </r>
       <r>   -2.4614    1.0000 </r>
       <r>   -2.3637    1.0000 </r>
       <r>   -2.1623    1.0000 </r>
       <r>   -2.0385    1.0000 </r>
       <r>   -1.9694    1.0000 </r>
       <r>   -1.8926    1.0000 </r>
       <r>   -1.8023    1.0000 </r>
       <r>   -1.5990    1.0000 </r>
       <r>   -1.3909    1.0000 </r>
       <r>   -1.0513    1.0000 </r>
       <r>   -0.7949    1.0000 </r>
       <r>   -0.1371    0.9479 </r>
       <r>    0.1277    0.0170 </r>
       <r>    0.5714    0.0000 </r>
       <r>    1.1115    0.0000 </r>
       <r>    1.4725    0.0000 </r>
       <r>    1.5160    0.0000 </r>
       <r>    1.7007    0.0000 </r>
       <r>    1.9010    0.0000 </r>
       <r>    2.1255    0.0000 </r>
       <r>    2.1989    0.0000 </r>
       <r>    2.2721    0.0000 </r>
       <r>    2.5325    0.0000 </r>
       <r>    2.5989    0.0000 </r>
       <r>    2.7328    0.0000 </r>
       <r>    2.8976    0.0000 </r>
      </set>
      <set comment="kpoint 6">
       <r>  -12.9372    1.0000 </r>
       <r>  -12.1734    1.0000 </r>
       <r>  -11.6877    1.0000 </r>
       <r>  -11.6629    1.0000 </r>
       <r>  -11.3536    1.0000 </r>
       <r>  -11.1238    1.0000 </r>
       <r>  -11.0064    1.0000 </r>
       <r>  -10.9448    1.0000 </r>
       <r>  -10.7220    1.0000 </r>
       <r>  -10.5520    1.0000 </r>
       <r>  -10.3729    1.0000 </r>
       <r>  -10.0449    1.0000 </r>
       <r>   -8.9277    1.0000 </r>
       <r>   -8.6182    1.0000 </r>
       <r>   -8.4746    1.0000 </r>
       <r>   -7.9385    1.0000 </r>
       <r>   -7.6624    1.0000 </r>
       <r>   -7.5548    1.0000 </r>
       <r>   -7.5118    1.0000 </r>
       <r>   -6.9690    1.0000 </r>
       <r>   -6.8532    1.0000 </r>
       <r>   -6.7624    1.0000 </r>
       <r>   -6.7131    1.0000 </r>
       <r>   -5.5608    1.0000 </r>
       <r>   -5.3098    1.0000 </r>
       <r>   -5.0455    1.0000 </r>
       <r>   -4.8038    1.0000 </r>
       <r>   -4.7388    1.0000 </r>
       <r>   -4.6237    1.0000 </r>
       <r>   -4.4729    1.0000 </r>
       <r>   -4.3208    1.0000 </r>
       <r>   -4.2337    1.0000 </r>
       <r>   -4.1631    1.0000 </r>
       <r>   -3.9634    1.0000 </r>
       <r>   -3.7504    1.0000 </r>
       <r>   -3.4986    1.0000 </r>
       <r>   -3.3641    1.0000 </r>
       <r>   -3.2761    1.0000 </r>
       <r>   -3.2250    1.0000 </r>
       <r>   -3.0279    1.0000 </r>
       <r>   -2.8982    1.0000 </r>
       <r>   -2.7095    1.0000 </r>
       <r>   -2.6096    1.0000 </r>
       <r>   -2.4709    1.0000 </r>
       <r>   -2.3537    1.0000 </r>
       <r>   -2.2114    1.0000 </r>
       <r>   -2.1284    1.0000 </r>
       <r>   -2.0612    1.0000 </r>
       <r>   -1.9250    1.0000 </r>
       <r>   -1.5931    1.0000 </r>
       <r>   -1.5033    1.0000 </r>
       <r>   -1.1734    1.0000 </r>
       <r>   -0.8914    1.0000 </r>
       <r>   -0.3291    1.0000 </r>
       <r>   -0.1145    0.9039 </r>
       <r>    0.2782    0.0000 </r>
       <r>    0.8130    0.0000 </r>
       <r>    1.0134    0.0000 </r>
       <r>    1.3236    0.0000 </r>
       <r>    1.6109    0.0000 </r>
       <r>    1.6477    0.0000 </r>
       <r>    1.9655    0.0000 </r>
       <r>    1.9883    0.0000 </r>
       <r>    2.1646    0.0000 </r>
       <r>    2.2220    0.0000 </r>
       <r>    2.3517    0.0000 </r>
       <r>    2.6066    0.0000 </r>
       <r>    2.6801    0.0000 </r>
      </set>
      <set comment="kpoint 7">
       <r>  -12.8241    1.0000 </r>
       <r>  -11.5999    1.0000 </r>
       <r>  -11.2421    1.0000 </r>
       <r>  -11.2240    1.0000 </r>
       <r>  -11.0501    1.0000 </r>
       <r>  -10.9435    1.0000 </r>
       <r>  -10.9164    1.0000 </r>
       <r>  -10.8245    1.0000 </r>
       <r>  -10.7540    1.0000 </r>
       <r>  -10.7320    1.0000 </r>
       <r>  -10.3077    1.0000 </r>
       <r>   -9.9049    1.0000 </r>
       <r>   -8.9530    1.0000 </r>
       <r>   -8.7837    1.0000 </r>
       <r>   -8.5386    1.0000 </r>
       <r>   -8.1783    1.0000 </r>
       <r>   -8.1019    1.0000 </r>
       <r>   -7.8579    1.0000 </r>
       <r>   -7.6696    1.0000 </r>
       <r>   -7.5025    1.0000 </r>
       <r>   -7.3834    1.0000 </r>
       <r>   -7.2745    1.0000 </r>
       <r>   -7.1838    1.0000 </r>
       <r>   -5.6377    1.0000 </r>
       <r>   -5.0509    1.0000 </r>
       <r>   -5.0043    1.0000 </r>
       <r>   -4.6758    1.0000 </r>
       <r>   -4.5972    1.0000 </r>
       <r>   -4.3888    1.0000 </r>
       <r>   -4.1944    1.0000 </r>
       <r>   -4.1752    1.0000 </r>
       <r>   -4.0755    1.0000 </r>
       <r>   -4.0308    1.0000 </r>
       <r>   -3.9225    1.0000 </r>
       <r>   -3.7946    1.0000 </r>
       <r>   -3.6809    1.0000 </r>
       <r>   -3.4979    1.0000 </r>
       <r>   -3.4004    1.0000 </r>
       <r>   -3.3519    1.0000 </r>
       <r>   -3.3291    1.0000 </r>
       <r>   -3.0993    1.0000 </r>
       <r>   -2.9287    1.0000 </r>
       <r>   -2.7862    1.0000 </r>
       <r>   -2.4758    1.0000 </r>
       <r>   -2.4028    1.0000 </r>
       <r>   -2.2765    1.0000 </r>
       <r>   -2.2181    1.0000 </r>
       <r>   -2.1453    1.0000 </r>
       <r>   -1.8036    1.0000 </r>
       <r>   -1.6193    1.0000 </r>
       <r>   -1.5718    1.0000 </r>
       <r>   -1.3515    1.0000 </r>
       <r>   -0.8506    1.0000 </r>
       <r>   -0.3891    1.0000 </r>
       <r>   -0.2088    0.9958 </r>
       <r>    0.1241    0.0192 </r>
       <r>    0.5649    0.0000 </r>
       <r>    0.7956    0.0000 </r>
       <r>    1.2865    0.0000 </r>
       <r>    1.4887    0.0000 </r>
       <r>    1.5813    0.0000 </r>
       <r>    1.7659    0.0000 </r>
       <r>    1.8070    0.0000 </r>
       <r>    1.9877    0.0000 </r>
       <r>    2.2626    0.0000 </r>
       <r>    2.2980    0.0000 </r>
       <r>    2.4013    0.0000 </r>
       <r>    2.6127    0.0000 </r>
      </set>
      <set comment="kpoint 8">
       <r>  -13.6738    1.0000 </r>
       <r>  -13.5822    1.0000 </r>
       <r>  -13.0709    1.0000 </r>
       <r>  -13.0214    1.0000 </r>
       <r>  -12.5905    1.0000 </r>
       <r>  -12.3632    1.0000 </r>
       <r>  -12.0399    1.0000 </r>
       <r>  -11.9604    1.0000 </r>
       <r>  -11.5748    1.0000 </r>
       <r>  -11.3544    1.0000 </r>
       <r>  -11.0973    1.0000 </r>
       <r>  -11.0170    1.0000 </r>
       <r>   -8.6136    1.0000 </r>
       <r>   -8.2050    1.0000 </r>
       <r>   -7.4918    1.0000 </r>
       <r>   -6.9957    1.0000 </r>
       <r>   -6.7698    1.0000 </r>
       <r>   -6.7061    1.0000 </r>
       <r>   -6.5910    1.0000 </r>
       <r>   -6.2907    1.0000 </r>
       <r>   -5.8448    1.0000 </r>
       <r>   -5.5250    1.0000 </r>
       <r>   -4.7410    1.0000 </r>
       <r>   -4.6476    1.0000 </r>
       <r>   -4.1604    1.0000 </r>
       <r>   -4.0189    1.0000 </r>
       <r>   -3.7804    1.0000 </r>
       <r>   -3.4997    1.0000 </r>
       <r>   -3.2614    1.0000 </r>
       <r>   -3.2264    1.0000 </r>
       <r>   -3.0843    1.0000 </r>
       <r>   -2.9423    1.0000 </r>
       <r>   -2.8042    1.0000 </r>
       <r>   -2.5305    1.0000 </r>
       <r>   -2.4876    1.0000 </r>
       <r>   -2.4739    1.0000 </r>
       <r>   -2.4463    1.0000 </r>
       <r>   -2.3290    1.0000 </r>
       <r>   -2.2207    1.0000 </r>
       <r>   -2.1785    1.0000 </r>
       <r>   -2.0672    1.0000 </r>
       <r>   -1.9783    1.0000 </r>
       <r>   -1.7491    1.0000 </r>
       <r>   -1.7248    1.0000 </r>
       <r>   -1.6684    1.0000 </r>
       <r>   -1.5537    1.0000 </r>
       <r>   -1.5279    1.0000 </r>
       <r>   -1.4582    1.0000 </r>
       <r>   -1.2588    1.0000 </r>
       <r>   -1.2210    1.0000 </r>
       <r>   -1.1504    1.0000 </r>
       <r>   -1.0450    1.0000 </r>
       <r>   -0.3857    1.0000 </r>
       <r>   -0.0259    0.5206 </r>
       <r>    0.6110    0.0000 </r>
       <r>    1.0912    0.0000 </r>
       <r>    1.1684    0.0000 </r>
       <r>    1.3118    0.0000 </r>
       <r>    1.6280    0.0000 </r>
       <r>    1.6360    0.0000 </r>
       <r>    1.8149    0.0000 </r>
       <r>    1.8919    0.0000 </r>
       <r>    2.1378    0.0000 </r>
       <r>    2.1579    0.0000 </r>
       <r>    2.3969    0.0000 </r>
       <r>    2.4846    0.0000 </r>
       <r>    2.5671    0.0000 </r>
       <r>    2.7975    0.0000 </r>
      </set>
      <set comment="kpoint 9">
       <r>  -13.6238    1.0000 </r>
       <r>  -13.5059    1.0000 </r>
       <r>  -13.0515    1.0000 </r>
       <r>  -12.9880    1.0000 </r>
       <r>  -12.5333    1.0000 </r>
       <r>  -12.3066    1.0000 </r>
       <r>  -11.9658    1.0000 </r>
       <r>  -11.8623    1.0000 </r>
       <r>  -11.5335    1.0000 </r>
       <r>  -11.3020    1.0000 </r>
       <r>  -11.0528    1.0000 </r>
       <r>  -10.9684    1.0000 </r>
       <r>   -8.6718    1.0000 </r>
       <r>   -8.2240    1.0000 </r>
       <r>   -7.4426    1.0000 </r>
       <r>   -6.9549    1.0000 </r>
       <r>   -6.7788    1.0000 </r>
       <r>   -6.6412    1.0000 </r>
       <r>   -6.5794    1.0000 </r>
       <r>   -6.2316    1.0000 </r>
       <r>   -5.7958    1.0000 </r>
       <r>   -5.4727    1.0000 </r>
       <r>   -4.7852    1.0000 </r>
       <r>   -4.6831    1.0000 </r>
       <r>   -4.2094    1.0000 </r>
       <r>   -4.0732    1.0000 </r>
       <r>   -3.7886    1.0000 </r>
       <r>   -3.6863    1.0000 </r>
       <r>   -3.5015    1.0000 </r>
       <r>   -3.4451    1.0000 </r>
       <r>   -3.2400    1.0000 </r>
       <r>   -3.1400    1.0000 </r>
       <r>   -3.1039    1.0000 </r>
       <r>   -2.8770    1.0000 </r>
       <r>   -2.7822    1.0000 </r>
       <r>   -2.7068    1.0000 </r>
       <r>   -2.5880    1.0000 </r>
       <r>   -2.4658    1.0000 </r>
       <r>   -2.3863    1.0000 </r>
       <r>   -2.2833    1.0000 </r>
       <r>   -2.2013    1.0000 </r>
       <r>   -2.1182    1.0000 </r>
       <r>   -2.0815    1.0000 </r>
       <r>   -1.9614    1.0000 </r>
       <r>   -1.9276    1.0000 </r>
       <r>   -1.8401    1.0000 </r>
       <r>   -1.5482    1.0000 </r>
       <r>   -1.4960    1.0000 </r>
       <r>   -1.4329    1.0000 </r>
       <r>   -1.1834    1.0000 </r>
       <r>   -1.0777    1.0000 </r>
       <r>   -0.9993    1.0000 </r>
       <r>   -0.3494    1.0000 </r>
       <r>   -0.0132    0.4492 </r>
       <r>    0.9590    0.0000 </r>
       <r>    1.4070    0.0000 </r>
       <r>    1.5527    0.0000 </r>
       <r>    1.6958    0.0000 </r>
       <r>    1.7880    0.0000 </r>
       <r>    1.9020    0.0000 </r>
       <r>    2.1050    0.0000 </r>
       <r>    2.1987    0.0000 </r>
       <r>    2.4097    0.0000 </r>
       <r>    2.4741    0.0000 </r>
       <r>    2.5518    0.0000 </r>
       <r>    2.6590    0.0000 </r>
       <r>    2.8033    0.0000 </r>
       <r>    2.9136    0.0000 </r>
      </set>
      <set comment="kpoint 10">
       <r>  -13.4977    1.0000 </r>
       <r>  -13.3100    1.0000 </r>
       <r>  -12.9147    1.0000 </r>
       <r>  -12.8384    1.0000 </r>
       <r>  -12.3669    1.0000 </r>
       <r>  -12.1394    1.0000 </r>
       <r>  -11.8042    1.0000 </r>
       <r>  -11.6655    1.0000 </r>
       <r>  -11.3942    1.0000 </r>
       <r>  -11.1451    1.0000 </r>
       <r>  -10.9113    1.0000 </r>
       <r>  -10.8207    1.0000 </r>
       <r>   -8.7374    1.0000 </r>
       <r>   -8.2014    1.0000 </r>
       <r>   -7.4098    1.0000 </r>
       <r>   -6.9451    1.0000 </r>
       <r>   -6.7566    1.0000 </r>
       <r>   -6.6085    1.0000 </r>
       <r>   -6.5384    1.0000 </r>
       <r>   -6.2166    1.0000 </r>
       <r>   -5.7468    1.0000 </r>
       <r>   -5.4005    1.0000 </r>
       <r>   -4.9392    1.0000 </r>
       <r>   -4.8640    1.0000 </r>
       <r>   -4.4825    1.0000 </r>
       <r>   -4.3982    1.0000 </r>
       <r>   -4.3804    1.0000 </r>
       <r>   -4.0880    1.0000 </r>
       <r>   -4.0579    1.0000 </r>
       <r>   -3.7555    1.0000 </r>
       <r>   -3.6339    1.0000 </r>
       <r>   -3.5860    1.0000 </r>
       <r>   -3.4530    1.0000 </r>
       <r>   -3.2282    1.0000 </r>
       <r>   -3.1773    1.0000 </r>
       <r>   -3.0596    1.0000 </r>
       <r>   -3.0326    1.0000 </r>
       <r>   -2.9303    1.0000 </r>
       <r>   -2.8030    1.0000 </r>
       <r>   -2.6856    1.0000 </r>
       <r>   -2.6324    1.0000 </r>
       <r>   -2.4128    1.0000 </r>
       <r>   -2.3116    1.0000 </r>
       <r>   -2.1639    1.0000 </r>
       <r>   -2.0769    1.0000 </r>
       <r>   -1.9841    1.0000 </r>
       <r>   -1.9381    1.0000 </r>
       <r>   -1.5816    1.0000 </r>
       <r>   -1.4359    1.0000 </r>
       <r>   -1.2356    1.0000 </r>
       <r>   -1.1318    1.0000 </r>
       <r>   -1.0070    1.0000 </r>
       <r>   -0.3245    1.0000 </r>
       <r>   -0.0350    0.5713 </r>
       <r>    1.1667    0.0000 </r>
       <r>    1.4493    0.0000 </r>
       <r>    1.6078    0.0000 </r>
       <r>    1.9065    0.0000 </r>
       <r>    2.0312    0.0000 </r>
       <r>    2.1830    0.0000 </r>
       <r>    2.3253    0.0000 </r>
       <r>    2.5016    0.0000 </r>
       <r>    2.6547    0.0000 </r>
       <r>    2.7917    0.0000 </r>
       <r>    2.9155    0.0000 </r>
       <r>    2.9799    0.0000 </r>
       <r>    3.0257    0.0000 </r>
       <r>    3.1478    0.0000 </r>
      </set>
      <set comment="kpoint 11">
       <r>  -13.3164    1.0000 </r>
       <r>  -12.9992    1.0000 </r>
       <r>  -12.6629    1.0000 </r>
       <r>  -12.5708    1.0000 </r>
       <r>  -12.0991    1.0000 </r>
       <r>  -11.8688    1.0000 </r>
       <r>  -11.5677    1.0000 </r>
       <r>  -11.3895    1.0000 </r>
       <r>  -11.1725    1.0000 </r>
       <r>  -10.8977    1.0000 </r>
       <r>  -10.6937    1.0000 </r>
       <r>  -10.5858    1.0000 </r>
       <r>   -8.8687    1.0000 </r>
       <r>   -8.1815    1.0000 </r>
       <r>   -7.4950    1.0000 </r>
       <r>   -7.1396    1.0000 </r>
       <r>   -6.7952    1.0000 </r>
       <r>   -6.7454    1.0000 </r>
       <r>   -6.6425    1.0000 </r>
       <r>   -6.3237    1.0000 </r>
       <r>   -5.9146    1.0000 </r>
       <r>   -5.5266    1.0000 </r>
       <r>   -5.3078    1.0000 </r>
       <r>   -5.1866    1.0000 </r>
       <r>   -5.1208    1.0000 </r>
       <r>   -4.7870    1.0000 </r>
       <r>   -4.7617    1.0000 </r>
       <r>   -4.6492    1.0000 </r>
       <r>   -4.5461    1.0000 </r>
       <r>   -4.1763    1.0000 </r>
       <r>   -4.1339    1.0000 </r>
       <r>   -4.0482    1.0000 </r>
       <r>   -3.8452    1.0000 </r>
       <r>   -3.6502    1.0000 </r>
       <r>   -3.4724    1.0000 </r>
       <r>   -3.3160    1.0000 </r>
       <r>   -3.2742    1.0000 </r>
       <r>   -3.1876    1.0000 </r>
       <r>   -2.9401    1.0000 </r>
       <r>   -2.7734    1.0000 </r>
       <r>   -2.7179    1.0000 </r>
       <r>   -2.6229    1.0000 </r>
       <r>   -2.4896    1.0000 </r>
       <r>   -2.2637    1.0000 </r>
       <r>   -2.0955    1.0000 </r>
       <r>   -2.0271    1.0000 </r>
       <r>   -1.9190    1.0000 </r>
       <r>   -1.8632    1.0000 </r>
       <r>   -1.5395    1.0000 </r>
       <r>   -1.4827    1.0000 </r>
       <r>   -1.1912    1.0000 </r>
       <r>   -1.1284    1.0000 </r>
       <r>   -0.4357    1.0000 </r>
       <r>   -0.0897    0.8298 </r>
       <r>    0.6883    0.0000 </r>
       <r>    1.0244    0.0000 </r>
       <r>    1.3591    0.0000 </r>
       <r>    1.4389    0.0000 </r>
       <r>    1.5314    0.0000 </r>
       <r>    1.8569    0.0000 </r>
       <r>    2.0573    0.0000 </r>
       <r>    2.2449    0.0000 </r>
       <r>    2.4778    0.0000 </r>
       <r>    2.6113    0.0000 </r>
       <r>    2.7030    0.0000 </r>
       <r>    2.9504    0.0000 </r>
       <r>    3.1330    0.0000 </r>
       <r>    3.1867    0.0000 </r>
      </set>
      <set comment="kpoint 12">
       <r>  -13.1128    1.0000 </r>
       <r>  -12.5830    1.0000 </r>
       <r>  -12.3034    1.0000 </r>
       <r>  -12.1913    1.0000 </r>
       <r>  -11.7474    1.0000 </r>
       <r>  -11.5116    1.0000 </r>
       <r>  -11.2788    1.0000 </r>
       <r>  -11.0763    1.0000 </r>
       <r>  -10.9091    1.0000 </r>
       <r>  -10.6007    1.0000 </r>
       <r>  -10.4879    1.0000 </r>
       <r>  -10.2971    1.0000 </r>
       <r>   -9.0681    1.0000 </r>
       <r>   -8.2486    1.0000 </r>
       <r>   -7.8080    1.0000 </r>
       <r>   -7.6576    1.0000 </r>
       <r>   -7.2095    1.0000 </r>
       <r>   -7.1158    1.0000 </r>
       <r>   -7.0581    1.0000 </r>
       <r>   -6.5349    1.0000 </r>
       <r>   -6.2829    1.0000 </r>
       <r>   -6.0213    1.0000 </r>
       <r>   -5.9696    1.0000 </r>
       <r>   -5.5080    1.0000 </r>
       <r>   -5.4749    1.0000 </r>
       <r>   -5.0600    1.0000 </r>
       <r>   -5.0174    1.0000 </r>
       <r>   -4.7775    1.0000 </r>
       <r>   -4.5514    1.0000 </r>
       <r>   -4.4503    1.0000 </r>
       <r>   -4.3627    1.0000 </r>
       <r>   -4.2731    1.0000 </r>
       <r>   -4.1052    1.0000 </r>
       <r>   -3.8724    1.0000 </r>
       <r>   -3.6188    1.0000 </r>
       <r>   -3.4355    1.0000 </r>
       <r>   -3.1824    1.0000 </r>
       <r>   -3.0877    1.0000 </r>
       <r>   -2.9729    1.0000 </r>
       <r>   -2.9358    1.0000 </r>
       <r>   -2.7928    1.0000 </r>
       <r>   -2.6118    1.0000 </r>
       <r>   -2.4969    1.0000 </r>
       <r>   -2.3970    1.0000 </r>
       <r>   -2.3234    1.0000 </r>
       <r>   -2.0804    1.0000 </r>
       <r>   -2.0114    1.0000 </r>
       <r>   -1.9662    1.0000 </r>
       <r>   -1.8364    1.0000 </r>
       <r>   -1.7366    1.0000 </r>
       <r>   -1.4051    1.0000 </r>
       <r>   -1.1038    1.0000 </r>
       <r>   -0.7210    1.0000 </r>
       <r>   -0.1909    0.9915 </r>
       <r>    0.2053    0.0006 </r>
       <r>    0.5458    0.0000 </r>
       <r>    0.9281    0.0000 </r>
       <r>    1.1424    0.0000 </r>
       <r>    1.2237    0.0000 </r>
       <r>    1.2942    0.0000 </r>
       <r>    1.9553    0.0000 </r>
       <r>    2.0869    0.0000 </r>
       <r>    2.2203    0.0000 </r>
       <r>    2.3613    0.0000 </r>
       <r>    2.5190    0.0000 </r>
       <r>    2.6161    0.0000 </r>
       <r>    2.8751    0.0000 </r>
       <r>    3.0020    0.0000 </r>
      </set>
      <set comment="kpoint 13">
       <r>  -12.9315    1.0000 </r>
       <r>  -12.0799    1.0000 </r>
       <r>  -11.8528    1.0000 </r>
       <r>  -11.7224    1.0000 </r>
       <r>  -11.3515    1.0000 </r>
       <r>  -11.1106    1.0000 </r>
       <r>  -10.9929    1.0000 </r>
       <r>  -10.8188    1.0000 </r>
       <r>  -10.6989    1.0000 </r>
       <r>  -10.5644    1.0000 </r>
       <r>  -10.3643    1.0000 </r>
       <r>  -10.0318    1.0000 </r>
       <r>   -9.0582    1.0000 </r>
       <r>   -8.4625    1.0000 </r>
       <r>   -8.2175    1.0000 </r>
       <r>   -8.1790    1.0000 </r>
       <r>   -7.8750    1.0000 </r>
       <r>   -7.6366    1.0000 </r>
       <r>   -7.4556    1.0000 </r>
       <r>   -7.0370    1.0000 </r>
       <r>   -6.7954    1.0000 </r>
       <r>   -6.7532    1.0000 </r>
       <r>   -6.6006    1.0000 </r>
       <r>   -5.6517    1.0000 </r>
       <r>   -5.4397    1.0000 </r>
       <r>   -5.1120    1.0000 </r>
       <r>   -4.8833    1.0000 </r>
       <r>   -4.7006    1.0000 </r>
       <r>   -4.5796    1.0000 </r>
       <r>   -4.3907    1.0000 </r>
       <r>   -4.2217    1.0000 </r>
       <r>   -4.0871    1.0000 </r>
       <r>   -4.0076    1.0000 </r>
       <r>   -3.9562    1.0000 </r>
       <r>   -3.4956    1.0000 </r>
       <r>   -3.4469    1.0000 </r>
       <r>   -3.3784    1.0000 </r>
       <r>   -3.2242    1.0000 </r>
       <r>   -3.2055    1.0000 </r>
       <r>   -3.0260    1.0000 </r>
       <r>   -2.9509    1.0000 </r>
       <r>   -2.7743    1.0000 </r>
       <r>   -2.6303    1.0000 </r>
       <r>   -2.4892    1.0000 </r>
       <r>   -2.3837    1.0000 </r>
       <r>   -2.3236    1.0000 </r>
       <r>   -2.1726    1.0000 </r>
       <r>   -2.1313    1.0000 </r>
       <r>   -1.9418    1.0000 </r>
       <r>   -1.6573    1.0000 </r>
       <r>   -1.5652    1.0000 </r>
       <r>   -1.1785    1.0000 </r>
       <r>   -0.8847    1.0000 </r>
       <r>   -0.3823    1.0000 </r>
       <r>   -0.0745    0.7698 </r>
       <r>    0.2526    0.0001 </r>
       <r>    0.6530    0.0000 </r>
       <r>    0.9106    0.0000 </r>
       <r>    1.1179    0.0000 </r>
       <r>    1.2523    0.0000 </r>
       <r>    1.7226    0.0000 </r>
       <r>    1.8126    0.0000 </r>
       <r>    1.9541    0.0000 </r>
       <r>    2.0782    0.0000 </r>
       <r>    2.4770    0.0000 </r>
       <r>    2.5558    0.0000 </r>
       <r>    2.6480    0.0000 </r>
       <r>    2.7120    0.0000 </r>
      </set>
      <set comment="kpoint 14">
       <r>  -12.8229    1.0000 </r>
       <r>  -11.5306    1.0000 </r>
       <r>  -11.3570    1.0000 </r>
       <r>  -11.2307    1.0000 </r>
       <r>  -11.0618    1.0000 </r>
       <r>  -10.9634    1.0000 </r>
       <r>  -10.9197    1.0000 </r>
       <r>  -10.7945    1.0000 </r>
       <r>  -10.7541    1.0000 </r>
       <r>  -10.6794    1.0000 </r>
       <r>  -10.3120    1.0000 </r>
       <r>   -9.9045    1.0000 </r>
       <r>   -8.8034    1.0000 </r>
       <r>   -8.6510    1.0000 </r>
       <r>   -8.4961    1.0000 </r>
       <r>   -8.4276    1.0000 </r>
       <r>   -8.3334    1.0000 </r>
       <r>   -7.7786    1.0000 </r>
       <r>   -7.6164    1.0000 </r>
       <r>   -7.5517    1.0000 </r>
       <r>   -7.4137    1.0000 </r>
       <r>   -7.2322    1.0000 </r>
       <r>   -7.1346    1.0000 </r>
       <r>   -5.6545    1.0000 </r>
       <r>   -5.1193    1.0000 </r>
       <r>   -5.0458    1.0000 </r>
       <r>   -4.6384    1.0000 </r>
       <r>   -4.5697    1.0000 </r>
       <r>   -4.3567    1.0000 </r>
       <r>   -4.2490    1.0000 </r>
       <r>   -4.1210    1.0000 </r>
       <r>   -4.0573    1.0000 </r>
       <r>   -4.0267    1.0000 </r>
       <r>   -3.8068    1.0000 </r>
       <r>   -3.7457    1.0000 </r>
       <r>   -3.6504    1.0000 </r>
       <r>   -3.6031    1.0000 </r>
       <r>   -3.4022    1.0000 </r>
       <r>   -3.3464    1.0000 </r>
       <r>   -3.1531    1.0000 </r>
       <r>   -3.0839    1.0000 </r>
       <r>   -2.8168    1.0000 </r>
       <r>   -2.7416    1.0000 </r>
       <r>   -2.6942    1.0000 </r>
       <r>   -2.4653    1.0000 </r>
       <r>   -2.3650    1.0000 </r>
       <r>   -2.2143    1.0000 </r>
       <r>   -2.1841    1.0000 </r>
       <r>   -1.7959    1.0000 </r>
       <r>   -1.6511    1.0000 </r>
       <r>   -1.5406    1.0000 </r>
       <r>   -1.3639    1.0000 </r>
       <r>   -0.9141    1.0000 </r>
       <r>   -0.4348    1.0000 </r>
       <r>   -0.1936    0.9923 </r>
       <r>    0.1227    0.0202 </r>
       <r>    0.5422    0.0000 </r>
       <r>    0.8243    0.0000 </r>
       <r>    1.3350    0.0000 </r>
       <r>    1.4163    0.0000 </r>
       <r>    1.4754    0.0000 </r>
       <r>    1.6826    0.0000 </r>
       <r>    1.8028    0.0000 </r>
       <r>    2.0356    0.0000 </r>
       <r>    2.3133    0.0000 </r>
       <r>    2.3937    0.0000 </r>
       <r>    2.4520    0.0000 </r>
       <r>    2.5422    0.0000 </r>
      </set>
      <set comment="kpoint 15">
       <r>  -12.8246    1.0000 </r>
       <r>  -11.6333    1.0000 </r>
       <r>  -11.2236    1.0000 </r>
       <r>  -11.1647    1.0000 </r>
       <r>  -11.0365    1.0000 </r>
       <r>  -10.9191    1.0000 </r>
       <r>  -10.9033    1.0000 </r>
       <r>  -10.8549    1.0000 </r>
       <r>  -10.8003    1.0000 </r>
       <r>  -10.7484    1.0000 </r>
       <r>  -10.3064    1.0000 </r>
       <r>   -9.9112    1.0000 </r>
       <r>   -8.9710    1.0000 </r>
       <r>   -8.8525    1.0000 </r>
       <r>   -8.5326    1.0000 </r>
       <r>   -8.1323    1.0000 </r>
       <r>   -8.0406    1.0000 </r>
       <r>   -7.8020    1.0000 </r>
       <r>   -7.7017    1.0000 </r>
       <r>   -7.4556    1.0000 </r>
       <r>   -7.3756    1.0000 </r>
       <r>   -7.3140    1.0000 </r>
       <r>   -7.2533    1.0000 </r>
       <r>   -5.5738    1.0000 </r>
       <r>   -5.0444    1.0000 </r>
       <r>   -4.8353    1.0000 </r>
       <r>   -4.6849    1.0000 </r>
       <r>   -4.6628    1.0000 </r>
       <r>   -4.4663    1.0000 </r>
       <r>   -4.2608    1.0000 </r>
       <r>   -4.1407    1.0000 </r>
       <r>   -4.0986    1.0000 </r>
       <r>   -3.9982    1.0000 </r>
       <r>   -3.9775    1.0000 </r>
       <r>   -3.9566    1.0000 </r>
       <r>   -3.7482    1.0000 </r>
       <r>   -3.4887    1.0000 </r>
       <r>   -3.4699    1.0000 </r>
       <r>   -3.4331    1.0000 </r>
       <r>   -3.2166    1.0000 </r>
       <r>   -2.9038    1.0000 </r>
       <r>   -2.8112    1.0000 </r>
       <r>   -2.7688    1.0000 </r>
       <r>   -2.5267    1.0000 </r>
       <r>   -2.4492    1.0000 </r>
       <r>   -2.2738    1.0000 </r>
       <r>   -2.2230    1.0000 </r>
       <r>   -2.1645    1.0000 </r>
       <r>   -1.7963    1.0000 </r>
       <r>   -1.5991    1.0000 </r>
       <r>   -1.5522    1.0000 </r>
       <r>   -1.3369    1.0000 </r>
       <r>   -0.9396    1.0000 </r>
       <r>   -0.4015    1.0000 </r>
       <r>   -0.2175    0.9971 </r>
       <r>    0.1373    0.0120 </r>
       <r>    0.6613    0.0000 </r>
       <r>    0.9020    0.0000 </r>
       <r>    1.2864    0.0000 </r>
       <r>    1.5662    0.0000 </r>
       <r>    1.6701    0.0000 </r>
       <r>    1.7004    0.0000 </r>
       <r>    1.9724    0.0000 </r>
       <r>    2.1352    0.0000 </r>
       <r>    2.2624    0.0000 </r>
       <r>    2.2773    0.0000 </r>
       <r>    2.4202    0.0000 </r>
       <r>    2.4982    0.0000 </r>
      </set>
      <set comment="kpoint 16">
       <r>  -12.9388    1.0000 </r>
       <r>  -12.1998    1.0000 </r>
       <r>  -11.6773    1.0000 </r>
       <r>  -11.5790    1.0000 </r>
       <r>  -11.3517    1.0000 </r>
       <r>  -11.1311    1.0000 </r>
       <r>  -11.0246    1.0000 </r>
       <r>  -11.0051    1.0000 </r>
       <r>  -10.7244    1.0000 </r>
       <r>  -10.5475    1.0000 </r>
       <r>  -10.3756    1.0000 </r>
       <r>  -10.0360    1.0000 </r>
       <r>   -8.8391    1.0000 </r>
       <r>   -8.7379    1.0000 </r>
       <r>   -8.5898    1.0000 </r>
       <r>   -7.7627    1.0000 </r>
       <r>   -7.5995    1.0000 </r>
       <r>   -7.5304    1.0000 </r>
       <r>   -7.4262    1.0000 </r>
       <r>   -7.1122    1.0000 </r>
       <r>   -6.9013    1.0000 </r>
       <r>   -6.7652    1.0000 </r>
       <r>   -6.7158    1.0000 </r>
       <r>   -5.4645    1.0000 </r>
       <r>   -5.1741    1.0000 </r>
       <r>   -5.1027    1.0000 </r>
       <r>   -4.9432    1.0000 </r>
       <r>   -4.7311    1.0000 </r>
       <r>   -4.5334    1.0000 </r>
       <r>   -4.4684    1.0000 </r>
       <r>   -4.3828    1.0000 </r>
       <r>   -4.3032    1.0000 </r>
       <r>   -4.1781    1.0000 </r>
       <r>   -3.9572    1.0000 </r>
       <r>   -3.8175    1.0000 </r>
       <r>   -3.5417    1.0000 </r>
       <r>   -3.4950    1.0000 </r>
       <r>   -3.2801    1.0000 </r>
       <r>   -3.2229    1.0000 </r>
       <r>   -3.0211    1.0000 </r>
       <r>   -2.8513    1.0000 </r>
       <r>   -2.6729    1.0000 </r>
       <r>   -2.6249    1.0000 </r>
       <r>   -2.4914    1.0000 </r>
       <r>   -2.3292    1.0000 </r>
       <r>   -2.1787    1.0000 </r>
       <r>   -2.0485    1.0000 </r>
       <r>   -2.0283    1.0000 </r>
       <r>   -1.9027    1.0000 </r>
       <r>   -1.5560    1.0000 </r>
       <r>   -1.4940    1.0000 </r>
       <r>   -1.2063    1.0000 </r>
       <r>   -0.9613    1.0000 </r>
       <r>   -0.2876    0.9999 </r>
       <r>   -0.1140    0.9027 </r>
       <r>    0.2727    0.0000 </r>
       <r>    0.8661    0.0000 </r>
       <r>    1.1497    0.0000 </r>
       <r>    1.3109    0.0000 </r>
       <r>    1.6804    0.0000 </r>
       <r>    1.8108    0.0000 </r>
       <r>    2.0272    0.0000 </r>
       <r>    2.1616    0.0000 </r>
       <r>    2.2207    0.0000 </r>
       <r>    2.3013    0.0000 </r>
       <r>    2.3292    0.0000 </r>
       <r>    2.4944    0.0000 </r>
       <r>    2.5467    0.0000 </r>
      </set>
      <set comment="kpoint 17">
       <r>  -13.1292    1.0000 </r>
       <r>  -12.6938    1.0000 </r>
       <r>  -12.1153    1.0000 </r>
       <r>  -12.0415    1.0000 </r>
       <r>  -11.7524    1.0000 </r>
       <r>  -11.5179    1.0000 </r>
       <r>  -11.3594    1.0000 </r>
       <r>  -11.3251    1.0000 </r>
       <r>  -10.8688    1.0000 </r>
       <r>  -10.6132    1.0000 </r>
       <r>  -10.5174    1.0000 </r>
       <r>  -10.3012    1.0000 </r>
       <r>   -8.6525    1.0000 </r>
       <r>   -8.3055    1.0000 </r>
       <r>   -8.2842    1.0000 </r>
       <r>   -7.3829    1.0000 </r>
       <r>   -7.1024    1.0000 </r>
       <r>   -7.0214    1.0000 </r>
       <r>   -6.9708    1.0000 </r>
       <r>   -6.7432    1.0000 </r>
       <r>   -6.2482    1.0000 </r>
       <r>   -6.0830    1.0000 </r>
       <r>   -6.0697    1.0000 </r>
       <r>   -5.4099    1.0000 </r>
       <r>   -5.2462    1.0000 </r>
       <r>   -5.1434    1.0000 </r>
       <r>   -4.9826    1.0000 </r>
       <r>   -4.7463    1.0000 </r>
       <r>   -4.6277    1.0000 </r>
       <r>   -4.5407    1.0000 </r>
       <r>   -4.4218    1.0000 </r>
       <r>   -4.3365    1.0000 </r>
       <r>   -4.2601    1.0000 </r>
       <r>   -3.9470    1.0000 </r>
       <r>   -3.5943    1.0000 </r>
       <r>   -3.5450    1.0000 </r>
       <r>   -3.2421    1.0000 </r>
       <r>   -3.1667    1.0000 </r>
       <r>   -3.0382    1.0000 </r>
       <r>   -2.9269    1.0000 </r>
       <r>   -2.8022    1.0000 </r>
       <r>   -2.7281    1.0000 </r>
       <r>   -2.4792    1.0000 </r>
       <r>   -2.3418    1.0000 </r>
       <r>   -2.1223    1.0000 </r>
       <r>   -2.0220    1.0000 </r>
       <r>   -1.9531    1.0000 </r>
       <r>   -1.8934    1.0000 </r>
       <r>   -1.7956    1.0000 </r>
       <r>   -1.5708    1.0000 </r>
       <r>   -1.3961    1.0000 </r>
       <r>   -1.0943    1.0000 </r>
       <r>   -0.8393    1.0000 </r>
       <r>   -0.0596    0.7010 </r>
       <r>    0.1408    0.0106 </r>
       <r>    0.5476    0.0000 </r>
       <r>    1.0521    0.0000 </r>
       <r>    1.5472    0.0000 </r>
       <r>    1.6081    0.0000 </r>
       <r>    1.8216    0.0000 </r>
       <r>    1.8925    0.0000 </r>
       <r>    2.1521    0.0000 </r>
       <r>    2.2795    0.0000 </r>
       <r>    2.3343    0.0000 </r>
       <r>    2.5636    0.0000 </r>
       <r>    2.5953    0.0000 </r>
       <r>    2.6642    0.0000 </r>
       <r>    2.8291    0.0000 </r>
      </set>
      <set comment="kpoint 18">
       <r>  -13.3403    1.0000 </r>
       <r>  -13.0889    1.0000 </r>
       <r>  -12.4834    1.0000 </r>
       <r>  -12.4456    1.0000 </r>
       <r>  -12.1051    1.0000 </r>
       <r>  -11.8708    1.0000 </r>
       <r>  -11.6705    1.0000 </r>
       <r>  -11.6195    1.0000 </r>
       <r>  -11.1255    1.0000 </r>
       <r>  -10.9017    1.0000 </r>
       <r>  -10.6963    1.0000 </r>
       <r>  -10.5851    1.0000 </r>
       <r>   -8.4969    1.0000 </r>
       <r>   -8.0544    1.0000 </r>
       <r>   -7.8815    1.0000 </r>
       <r>   -7.1186    1.0000 </r>
       <r>   -6.7971    1.0000 </r>
       <r>   -6.7370    1.0000 </r>
       <r>   -6.5739    1.0000 </r>
       <r>   -6.4230    1.0000 </r>
       <r>   -5.8347    1.0000 </r>
       <r>   -5.5903    1.0000 </r>
       <r>   -5.4317    1.0000 </r>
       <r>   -5.4054    1.0000 </r>
       <r>   -4.9358    1.0000 </r>
       <r>   -4.8959    1.0000 </r>
       <r>   -4.6977    1.0000 </r>
       <r>   -4.6106    1.0000 </r>
       <r>   -4.3412    1.0000 </r>
       <r>   -4.2848    1.0000 </r>
       <r>   -4.0784    1.0000 </r>
       <r>   -3.9176    1.0000 </r>
       <r>   -3.8891    1.0000 </r>
       <r>   -3.7350    1.0000 </r>
       <r>   -3.5991    1.0000 </r>
       <r>   -3.5432    1.0000 </r>
       <r>   -3.2348    1.0000 </r>
       <r>   -3.0878    1.0000 </r>
       <r>   -2.9754    1.0000 </r>
       <r>   -2.7777    1.0000 </r>
       <r>   -2.7044    1.0000 </r>
       <r>   -2.5878    1.0000 </r>
       <r>   -2.4862    1.0000 </r>
       <r>   -2.1694    1.0000 </r>
       <r>   -2.0001    1.0000 </r>
       <r>   -1.9426    1.0000 </r>
       <r>   -1.9050    1.0000 </r>
       <r>   -1.8252    1.0000 </r>
       <r>   -1.6120    1.0000 </r>
       <r>   -1.5485    1.0000 </r>
       <r>   -1.1794    1.0000 </r>
       <r>   -1.0889    1.0000 </r>
       <r>   -0.5399    1.0000 </r>
       <r>    0.0019    0.3662 </r>
       <r>    0.7032    0.0000 </r>
       <r>    1.0135    0.0000 </r>
       <r>    1.3628    0.0000 </r>
       <r>    1.7404    0.0000 </r>
       <r>    1.9089    0.0000 </r>
[...]
       <r>    2.7594    0.0000 </r>
      </set>
      <set comment="kpoint 54">
       <r>  -12.8234    1.0000 </r>
       <r>  -11.5887    1.0000 </r>
       <r>  -11.2637    1.0000 </r>
       <r>  -11.2292    1.0000 </r>
       <r>  -11.0529    1.0000 </r>
       <r>  -10.9488    1.0000 </r>
       <r>  -10.9172    1.0000 </r>
       <r>  -10.8176    1.0000 </r>
       <r>  -10.7515    1.0000 </r>
       <r>  -10.7191    1.0000 </r>
       <r>  -10.3108    1.0000 </r>
       <r>   -9.9104    1.0000 </r>
       <r>   -8.8361    1.0000 </r>
       <r>   -8.7610    1.0000 </r>
       <r>   -8.5392    1.0000 </r>
       <r>   -8.3125    1.0000 </r>
       <r>   -8.2146    1.0000 </r>
       <r>   -7.7823    1.0000 </r>
       <r>   -7.6589    1.0000 </r>
       <r>   -7.5008    1.0000 </r>
       <r>   -7.3881    1.0000 </r>
       <r>   -7.2639    1.0000 </r>
       <r>   -7.1850    1.0000 </r>
       <r>   -5.5320    1.0000 </r>
       <r>   -5.1390    1.0000 </r>
       <r>   -5.0399    1.0000 </r>
       <r>   -4.6798    1.0000 </r>
       <r>   -4.5744    1.0000 </r>
       <r>   -4.4000    1.0000 </r>
       <r>   -4.2126    1.0000 </r>
       <r>   -4.1710    1.0000 </r>
       <r>   -4.0756    1.0000 </r>
       <r>   -4.0128    1.0000 </r>
       <r>   -3.8630    1.0000 </r>
       <r>   -3.7951    1.0000 </r>
       <r>   -3.6659    1.0000 </r>
       <r>   -3.5819    1.0000 </r>
       <r>   -3.3805    1.0000 </r>
       <r>   -3.3497    1.0000 </r>
       <r>   -3.2248    1.0000 </r>
       <r>   -3.1204    1.0000 </r>
       <r>   -2.7976    1.0000 </r>
       <r>   -2.6578    1.0000 </r>
       <r>   -2.5958    1.0000 </r>
       <r>   -2.4732    1.0000 </r>
       <r>   -2.3645    1.0000 </r>
       <r>   -2.2697    1.0000 </r>
       <r>   -2.1672    1.0000 </r>
       <r>   -1.8118    1.0000 </r>
       <r>   -1.6286    1.0000 </r>
       <r>   -1.5250    1.0000 </r>
       <r>   -1.3358    1.0000 </r>
       <r>   -0.9813    1.0000 </r>
       <r>   -0.4369    1.0000 </r>
       <r>   -0.2143    0.9967 </r>
       <r>    0.1936    0.0011 </r>
       <r>    0.6885    0.0000 </r>
       <r>    0.7845    0.0000 </r>
       <r>    1.2608    0.0000 </r>
       <r>    1.5069    0.0000 </r>
       <r>    1.5681    0.0000 </r>
       <r>    1.7835    0.0000 </r>
       <r>    1.8034    0.0000 </r>
       <r>    1.9557    0.0000 </r>
       <r>    2.2426    0.0000 </r>
       <r>    2.3003    0.0000 </r>
       <r>    2.4065    0.0000 </r>
       <r>    2.6523    0.0000 </r>
      </set>
     </set>
    </set>
   </array>
  </eigenvalues>
  <separator name="orbital magnetization" >
   <v name="MAGDIPOLOUT">      0.00000000      0.00000000      0.00000000</v>
  </separator>
  <dos>
   <i name="efermi">     -0.02226451 </i>
   <total>
    <array>
     <dimension dim="1">gridpoints</dimension>
     <dimension dim="2">spin</dimension>
     <field>energy</field>
     <field>total</field>
     <field>integrated</field>
     <set>
      <set comment="spin 1">
       <r>   -14.7055     0.0000     0.0000 </r>
       <r>   -14.6425     0.0000     0.0000 </r>
       <r>   -14.5796     0.0000     0.0000 </r>
       <r>   -14.5166     0.0000     0.0000 </r>
       <r>   -14.4536     0.0000     0.0000 </r>
       <r>   -14.3906     0.0000     0.0000 </r>
       <r>   -14.3277     0.0000     0.0000 </r>
       <r>   -14.2647     0.0000     0.0000 </r>
       <r>   -14.2017     0.0000     0.0000 </r>
       <r>   -14.1387     0.0000     0.0000 </r>
       <r>   -14.0758     0.0000     0.0000 </r>
       <r>   -14.0128     0.0000     0.0000 </r>
       <r>   -13.9498     0.0003     0.0000 </r>
       <r>   -13.8868     0.0060     0.0004 </r>
       <r>   -13.8239     0.0705     0.0048 </r>
       <r>   -13.7609     0.4413     0.0326 </r>
       <r>   -13.6979     1.5307     0.1290 </r>
       <r>   -13.6349     3.1471     0.3272 </r>
       <r>   -13.5720     4.3180     0.5991 </r>
       <r>   -13.5090     4.5215     0.8839 </r>
       <r>   -13.4460     3.9556     1.1330 </r>
       <r>   -13.3830     3.5044     1.3536 </r>
       <r>   -13.3201     3.5509     1.5773 </r>
       <r>   -13.2571     3.2076     1.7793 </r>
       <r>   -13.1941     2.8255     1.9572 </r>
       <r>   -13.1312     3.6769     2.1887 </r>
       <r>   -13.0682     5.1378     2.5123 </r>
       <r>   -13.0052     6.0796     2.8951 </r>
       <r>   -12.9422     6.6072     3.3112 </r>
       <r>   -12.8793     6.5740     3.7252 </r>
       <r>   -12.8163     5.8604     4.0943 </r>
       <r>   -12.7533     4.9017     4.4029 </r>
       <r>   -12.6903     4.4863     4.6855 </r>
       <r>   -12.6274     4.7853     4.9868 </r>
       <r>   -12.5644     5.2258     5.3159 </r>
       <r>   -12.5014     5.0732     5.6354 </r>
       <r>   -12.4384     4.5789     5.9237 </r>
       <r>   -12.3755     4.8245     6.2276 </r>
       <r>   -12.3125     5.3013     6.5614 </r>
       <r>   -12.2495     5.2276     6.8906 </r>
       <r>   -12.1865     6.0530     7.2718 </r>
       <r>   -12.1236     7.9800     7.7743 </r>
       <r>   -12.0606     8.1291     8.2862 </r>
       <r>   -11.9976     6.3758     8.6878 </r>
       <r>   -11.9346     5.6254     9.0420 </r>
       <r>   -11.8717     6.1688     9.4305 </r>
       <r>   -11.8087     6.5986     9.8460 </r>
       <r>   -11.7457     7.0825    10.2920 </r>
       <r>   -11.6828     7.7999    10.7832 </r>
       <r>   -11.6198     8.2908    11.3053 </r>
       <r>   -11.5568     8.4794    11.8393 </r>
       <r>   -11.4938     7.6436    12.3207 </r>
       <r>   -11.4309     6.6786    12.7412 </r>
       <r>   -11.3679     8.0394    13.2475 </r>
       <r>   -11.3049     9.9433    13.8737 </r>
       <r>   -11.2419     9.7107    14.4852 </r>
       <r>   -11.1790     9.2838    15.0699 </r>
       <r>   -11.1160    10.5374    15.7334 </r>
       <r>   -11.0530    12.0359    16.4914 </r>
       <r>   -10.9900    13.0154    17.3110 </r>
       <r>   -10.9271    14.0001    18.1927 </r>
       <r>   -10.8641    13.7884    19.0610 </r>
       <r>   -10.8011    11.8201    19.8053 </r>
       <r>   -10.7381    10.0046    20.4353 </r>
       <r>   -10.6752     8.8039    20.9898 </r>
       <r>   -10.6122     7.8021    21.4811 </r>
       <r>   -10.5492     7.0135    21.9228 </r>
       <r>   -10.4862     5.4158    22.2638 </r>
       <r>   -10.4233     3.8058    22.5035 </r>
       <r>   -10.3603     3.9991    22.7553 </r>
       <r>   -10.2973     4.7162    23.0523 </r>
       <r>   -10.2343     3.5536    23.2761 </r>
       <r>   -10.1714     1.5376    23.3729 </r>
       <r>   -10.1084     0.8853    23.4287 </r>
       <r>   -10.0454     1.5484    23.5262 </r>
       <r>    -9.9825     2.1970    23.6646 </r>
       <r>    -9.9195     2.2970    23.8092 </r>
       <r>    -9.8565     1.8527    23.9259 </r>
       <r>    -9.7935     0.9149    23.9835 </r>
       <r>    -9.7306     0.2320    23.9981 </r>
       <r>    -9.6676     0.0284    23.9999 </r>
       <r>    -9.6046     0.0016    24.0000 </r>
       <r>    -9.5416     0.0000    24.0000 </r>
       <r>    -9.4787     0.0000    24.0000 </r>
       <r>    -9.4157     0.0000    24.0000 </r>
       <r>    -9.3527     0.0001    24.0000 </r>
       <r>    -9.2897     0.0018    24.0001 </r>
       <r>    -9.2268     0.0272    24.0018 </r>
       <r>    -9.1638     0.2077    24.0149 </r>
       <r>    -9.1008     0.8242    24.0668 </r>
       <r>    -9.0378     1.8483    24.1832 </r>
       <r>    -8.9749     2.7390    24.3557 </r>
       <r>    -8.9119     3.4852    24.5752 </r>
       <r>    -8.8489     4.5048    24.8589 </r>
       <r>    -8.7859     5.1413    25.1826 </r>
       <r>    -8.7230     4.8024    25.4850 </r>
       <r>    -8.6600     4.3460    25.7587 </r>
       <r>    -8.5970     4.3858    26.0349 </r>
       <r>    -8.5340     4.7840    26.3362 </r>
       <r>    -8.4711     5.0732    26.6557 </r>
       <r>    -8.4081     4.8281    26.9597 </r>
       <r>    -8.3451     4.8522    27.2653 </r>
       <r>    -8.2822     5.7573    27.6278 </r>
       <r>    -8.2192     6.9142    28.0633 </r>
       <r>    -8.1562     7.0855    28.5095 </r>
       <r>    -8.0932     5.5710    28.8603 </r>
       <r>    -8.0303     3.6990    29.0932 </r>
       <r>    -7.9673     3.2500    29.2979 </r>
       <r>    -7.9043     4.6693    29.5919 </r>
       <r>    -7.8413     6.1587    29.9798 </r>
       <r>    -7.7784     6.0047    30.3579 </r>
       <r>    -7.7154     5.4248    30.6995 </r>
       <r>    -7.6524     5.7837    31.0638 </r>
       <r>    -7.5894     6.2251    31.4558 </r>
       <r>    -7.5265     6.6825    31.8766 </r>
       <r>    -7.4635     7.6803    32.3603 </r>
       <r>    -7.4005     8.3235    32.8844 </r>
       <r>    -7.3375     7.7522    33.3726 </r>
       <r>    -7.2746     6.2615    33.7669 </r>
       <r>    -7.2116     5.4980    34.1132 </r>
       <r>    -7.1486     6.2785    34.5085 </r>
       <r>    -7.0856     7.4260    34.9762 </r>
       <r>    -7.0227     7.6261    35.4564 </r>
       <r>    -6.9597     7.2578    35.9135 </r>
       <r>    -6.8967     7.2135    36.3678 </r>
       <r>    -6.8338     8.5888    36.9086 </r>
       <r>    -6.7708    11.0790    37.6063 </r>
       <r>    -6.7078    11.8127    38.3502 </r>
       <r>    -6.6448    10.5269    39.0131 </r>
       <r>    -6.5819     9.5326    39.6134 </r>
       <r>    -6.5189     8.3859    40.1415 </r>
       <r>    -6.4559     6.6112    40.5579 </r>
       <r>    -6.3929     5.3417    40.8943 </r>
       <r>    -6.3300     5.2528    41.2250 </r>
       <r>    -6.2670     5.3550    41.5623 </r>
       <r>    -6.2040     4.2568    41.8303 </r>
       <r>    -6.1410     3.0027    42.0194 </r>
       <r>    -6.0781     3.1091    42.2152 </r>
       <r>    -6.0151     3.7793    42.4532 </r>
       <r>    -5.9521     4.1279    42.7132 </r>
       <r>    -5.8891     4.3427    42.9867 </r>
       <r>    -5.8262     4.4852    43.2691 </r>
       <r>    -5.7632     4.1857    43.5327 </r>
       <r>    -5.7002     3.7981    43.7719 </r>
       <r>    -5.6372     4.4963    44.0550 </r>
       <r>    -5.5743     6.2964    44.4515 </r>
       <r>    -5.5113     8.1375    44.9640 </r>
       <r>    -5.4483     9.0073    45.5312 </r>
       <r>    -5.3853     8.3008    46.0540 </r>
       <r>    -5.3224     6.4198    46.4582 </r>
       <r>    -5.2594     4.8033    46.7607 </r>
       <r>    -5.1964     4.5604    47.0479 </r>
       <r>    -5.1335     6.2665    47.4425 </r>
       <r>    -5.0705     8.8778    48.0016 </r>
       <r>    -5.0075    10.3336    48.6523 </r>
       <r>    -4.9445     9.8303    49.2714 </r>
       <r>    -4.8816     8.7520    49.8226 </r>
       <r>    -4.8186     9.1173    50.3967 </r>
       <r>    -4.7556    11.0432    51.0921 </r>
       <r>    -4.6926    12.2965    51.8665 </r>
       <r>    -4.6297    11.7825    52.6085 </r>
       <r>    -4.5667    10.4978    53.2696 </r>
       <r>    -4.5037     9.4424    53.8642 </r>
       <r>    -4.4407     9.7270    54.4768 </r>
       <r>    -4.3778    11.4305    55.1966 </r>
       <r>    -4.3148    12.7292    55.9982 </r>
       <r>    -4.2518    13.3954    56.8417 </r>
       <r>    -4.1888    14.4076    57.7491 </r>
       <r>    -4.1259    15.1445    58.7028 </r>
       <r>    -4.0629    14.9573    59.6447 </r>
       <r>    -3.9999    13.9166    60.5211 </r>
       <r>    -3.9369    12.3149    61.2966 </r>
       <r>    -3.8740    11.0411    61.9919 </r>
       <r>    -3.8110    11.1200    62.6922 </r>
       <r>    -3.7480    11.9210    63.4429 </r>
       <r>    -3.6850    12.3181    64.2186 </r>
       <r>    -3.6221    12.7353    65.0206 </r>
       <r>    -3.5591    13.5604    65.8745 </r>
       <r>    -3.4961    14.5707    66.7921 </r>
       <r>    -3.4332    14.5920    67.7110 </r>
       <r>    -3.3702    13.3741    68.5532 </r>
       <r>    -3.3072    13.3736    69.3954 </r>
       <r>    -3.2442    15.8550    70.3939 </r>
       <r>    -3.1813    18.3545    71.5497 </r>
       <r>    -3.1183    18.0845    72.6886 </r>
       <r>    -3.0553    16.4645    73.7254 </r>
       <r>    -2.9923    15.7113    74.7148 </r>
       <r>    -2.9294    15.4243    75.6862 </r>
       <r>    -2.8664    14.7112    76.6126 </r>
       <r>    -2.8034    15.0083    77.5577 </r>
       <r>    -2.7404    16.2513    78.5811 </r>
       <r>    -2.6775    16.5119    79.6210 </r>
       <r>    -2.6145    15.8405    80.6185 </r>
       <r>    -2.5515    15.4033    81.5885 </r>
       <r>    -2.4885    16.3755    82.6197 </r>
       <r>    -2.4256    17.0301    83.6922 </r>
       <r>    -2.3626    16.3651    84.7228 </r>
       <r>    -2.2996    16.3819    85.7544 </r>
       <r>    -2.2366    17.0124    86.8257 </r>
       <r>    -2.1737    17.7419    87.9430 </r>
       <r>    -2.1107    18.5433    89.1108 </r>
       <r>    -2.0477    19.1472    90.3165 </r>
       <r>    -1.9848    19.5091    91.5451 </r>
       <r>    -1.9218    18.9839    92.7406 </r>
       <r>    -1.8588    16.7740    93.7969 </r>
       <r>    -1.7958    13.7397    94.6622 </r>
       <r>    -1.7329    11.1447    95.3640 </r>
       <r>    -1.6699    10.6011    96.0316 </r>
       <r>    -1.6069    13.2699    96.8673 </r>
       <r>    -1.5439    16.2563    97.8910 </r>
       <r>    -1.4810    15.0666    98.8398 </r>
       <r>    -1.4180    11.0547    99.5359 </r>
       <r>    -1.3550     8.1840   100.0513 </r>
       <r>    -1.2920     7.3222   100.5124 </r>
       <r>    -1.2291     8.5899   101.0534 </r>
       <r>    -1.1661    11.0394   101.7486 </r>
       <r>    -1.1031    11.9319   102.5000 </r>
       <r>    -1.0401    10.8512   103.1833 </r>
       <r>    -0.9772     8.9711   103.7483 </r>
       <r>    -0.9142     6.6342   104.1661 </r>
       <r>    -0.8512     4.6769   104.4606 </r>
       <r>    -0.7882     3.4670   104.6789 </r>
       <r>    -0.7253     2.3292   104.8256 </r>
       <r>    -0.6623     1.1990   104.9011 </r>
       <r>    -0.5993     0.7299   104.9471 </r>
       <r>    -0.5363     1.3359   105.0312 </r>
       <r>    -0.4734     3.0102   105.2207 </r>
       <r>    -0.4104     5.4129   105.5616 </r>
       <r>    -0.3474     7.1046   106.0090 </r>
       <r>    -0.2845     6.5709   106.4228 </r>
       <r>    -0.2215     5.0597   106.7414 </r>
       <r>    -0.1585     4.7703   107.0418 </r>
       <r>    -0.0955     6.1622   107.4299 </r>
       <r>    -0.0326     7.7706   107.9193 </r>
       <r>     0.0304     7.1091   108.3669 </r>
       <r>     0.0934     4.9429   108.6782 </r>
       <r>     0.1564     3.9094   108.9244 </r>
       <r>     0.2193     3.7298   109.1593 </r>
       <r>     0.2823     3.1845   109.3598 </r>
       <r>     0.3453     1.9722   109.4840 </r>
       <r>     0.4083     0.8656   109.5385 </r>
       <r>     0.4712     0.9723   109.5998 </r>
       <r>     0.5342     2.4665   109.7551 </r>
       <r>     0.5972     4.1062   110.0137 </r>
       <r>     0.6602     4.7107   110.3103 </r>
       <r>     0.7231     4.5139   110.5946 </r>
       <r>     0.7861     4.1348   110.8550 </r>
       <r>     0.8491     4.0797   111.1119 </r>
       <r>     0.9121     4.4537   111.3924 </r>
       <r>     0.9750     5.2703   111.7242 </r>
       <r>     1.0380     6.0589   112.1058 </r>
       <r>     1.1010     6.2520   112.4995 </r>
       <r>     1.1640     6.5485   112.9119 </r>
       <r>     1.2269     7.3832   113.3769 </r>
       <r>     1.2899     8.3710   113.9040 </r>
       <r>     1.3529     9.0214   114.4721 </r>
       <r>     1.4158     9.3475   115.0608 </r>
       <r>     1.4788     9.7576   115.6752 </r>
       <r>     1.5418     9.9924   116.3045 </r>
       <r>     1.6048    10.0004   116.9343 </r>
       <r>     1.6677    10.3621   117.5868 </r>
       <r>     1.7307    11.0262   118.2812 </r>
       <r>     1.7937    11.7775   119.0229 </r>
       <r>     1.8567    12.4206   119.8050 </r>
       <r>     1.9196    12.6793   120.6035 </r>
       <r>     1.9826    12.6392   121.3994 </r>
       <r>     2.0456    12.8546   122.2089 </r>
       <r>     2.1086    13.8717   123.0825 </r>
       <r>     2.1715    15.0657   124.0313 </r>
       <r>     2.2345    15.4118   125.0018 </r>
       <r>     2.2975    14.7023   125.9277 </r>
       <r>     2.3605    13.7951   126.7964 </r>
       <r>     2.4234    13.6966   127.6589 </r>
       <r>     2.4864    14.5872   128.5775 </r>
       <r>     2.5494    15.9380   129.5812 </r>
       <r>     2.6124    16.4533   130.6173 </r>
       <r>     2.6753    15.2184   131.5757 </r>
       <r>     2.7383    13.0754   132.3991 </r>
       <r>     2.8013    11.5833   133.1286 </r>
       <r>     2.8642    10.5928   133.7956 </r>
       <r>     2.9272     9.1971   134.3748 </r>
       <r>     2.9902     7.5118   134.8479 </r>
       <r>     3.0532     6.1793   135.2370 </r>
       <r>     3.1161     5.1130   135.5590 </r>
       <r>     3.1791     3.8502   135.8014 </r>
       <r>     3.2421     2.2030   135.9402 </r>
       <r>     3.3051     0.7829   135.9895 </r>
       <r>     3.3680     0.1514   135.9990 </r>
       <r>     3.4310     0.0149   136.0000 </r>
       <r>     3.4940     0.0007   136.0000 </r>
       <r>     3.5570     0.0000   136.0000 </r>
       <r>     3.6199     0.0000   136.0000 </r>
       <r>     3.6829     0.0000   136.0000 </r>
       <r>     3.7459     0.0000   136.0000 </r>
       <r>     3.8089     0.0000   136.0000 </r>
       <r>     3.8718     0.0000   136.0000 </r>
       <r>     3.9348     0.0000   136.0000 </r>
       <r>     3.9978     0.0000   136.0000 </r>
       <r>     4.0608     0.0000   136.0000 </r>
       <r>     4.1237     0.0000   136.0000 </r>
       <r>     4.1867     0.0000   136.0000 </r>
      </set>
     </set>
    </array>
   </total>
  </dos>
 </calculation>
 <structure name="finalpos" >
  <crystal>
   <varray name="basis" >
    <v>       3.54040000       0.00000000       0.00000000 </v>
    <v>      -1.77020000      10.29434800       0.00000000 </v>
    <v>       0.00000000       0.00000000      27.50142900 </v>
   </varray>
   <i name="volume">   1002.32009712 </i>
   <varray name="rec_basis" >
    <v>       0.28245396       0.04857034       0.00000000 </v>
    <v>       0.00000000       0.09714068       0.00000000 </v>
    <v>       0.00000000       0.00000000       0.03636175 </v>
   </varray>
  </crystal>
  <varray name="positions" >
   <v>       0.11402300       0.22804500       0.23316207 </v>
   <v>       0.51402300       0.22804500       0.51499159 </v>
   <v>       0.45808900       0.91617900       0.20939482 </v>
   <v>       0.85808900       0.91617900       0.49122434 </v>
   <v>       0.31085400       0.62170900       0.08414979 </v>
   <v>       0.31085400       0.62170900       0.36597930 </v>
   <v>       0.99923000       0.99846000       0.08631254 </v>
   <v>       0.99923000       0.99846000       0.36814206 </v>
   <v>       0.65492700       0.30985400       0.06041748 </v>
   <v>       0.65492700       0.30985400       0.34224700 </v>
   <v>       0.76973800       0.53947500       0.20725292 </v>
   <v>       0.16973800       0.53947500       0.48908244 </v>
   <v>       0.93971600       0.87943300       0.15783749 </v>
   <v>       0.33971600       0.87943300       0.43966701 </v>
   <v>       0.20515200       0.41030300       0.18578822 </v>
   <v>       0.60515200       0.41030300       0.46761774 </v>
   <v>       0.20184900       0.40369900       0.09969156 </v>
   <v>       0.20184900       0.40369900       0.38152107 </v>
   <v>       0.56380500       0.12761000       0.10779021 </v>
   <v>       0.56380500       0.12761000       0.38961973 </v>
   <v>       0.56710600       0.13421200       0.19387616 </v>
   <v>       0.96710600       0.13421200       0.47570568 </v>
   <v>       0.82923400       0.65846800       0.13571444 </v>
   <v>       0.22923400       0.65846800       0.41754396 </v>
  </varray>
 </structure>
</modeling>
