  24  24   0   0
  0.4176334E+02  0.3540400E-09  0.1044544E-08  0.2750143E-08  0.5000000E-15
  1.000000000000000E-004
  CAR 
 unknown system                          
      4.13909827    -16.06985171  301      0.19367182      1.00000000
    -16.070  0.0000E+00  0.0000E+00
    -16.002  0.0000E+00  0.0000E+00
    -15.935  0.0000E+00  0.0000E+00
    -15.868  0.0000E+00  0.0000E+00
    -15.800  0.0000E+00  0.0000E+00
    -15.733  0.0000E+00  0.0000E+00
    -15.666  0.0000E+00  0.0000E+00
    -15.598  0.7545E-13  0.5082E-14
    -15.531  0.6919E-10  0.4666E-11
    -15.464  0.2620E-07  0.1769E-08
    -15.396  0.4133E-05  0.2802E-06
    -15.329  0.2757E-03  0.1885E-04
    -15.261  0.7952E-02  0.5545E-03
    -15.194  0.1023E+00  0.7446E-02
    -15.127  0.6092E+00  0.4848E-01
    -15.059  0.1736E+01  0.1654E+00
    -14.992  0.2468E+01  0.3317E+00
    -14.925  0.2140E+01  0.4758E+00
    -14.857  0.1932E+01  0.6060E+00
    -14.790  0.1607E+01  0.7142E+00
    -14.723  0.8495E+00  0.7715E+00
    -14.655  0.9023E+00  0.8322E+00
    -14.588  0.1596E+01  0.9398E+00
    -14.520  0.1406E+01  0.1034E+01
    -14.453  0.5529E+00  0.1072E+01
    -14.386  0.2639E+00  0.1090E+01
    -14.318  0.8176E+00  0.1145E+01
    -14.251  0.1606E+01  0.1253E+01
    -14.184  0.1370E+01  0.1345E+01
    -14.116  0.5083E+00  0.1379E+01
    -14.049  0.1569E+00  0.1390E+01
    -13.982  0.5028E+00  0.1424E+01
    -13.914  0.1364E+01  0.1516E+01
    -13.847  0.1614E+01  0.1624E+01
    -13.780  0.8946E+00  0.1685E+01
    -13.712  0.7300E+00  0.1734E+01
    -13.645  0.1833E+01  0.1857E+01
    -13.577  0.2962E+01  0.2057E+01
    -13.510  0.2842E+01  0.2248E+01
    -13.443  0.2225E+01  0.2398E+01
    -13.375  0.2085E+01  0.2538E+01
    -13.308  0.2595E+01  0.2713E+01
    -13.241  0.3494E+01  0.2949E+01
    -13.173  0.3818E+01  0.3206E+01
    -13.106  0.3782E+01  0.3461E+01
    -13.039  0.4453E+01  0.3761E+01
    -12.971  0.4523E+01  0.4065E+01
    -12.904  0.3333E+01  0.4290E+01
    -12.836  0.2578E+01  0.4463E+01
    -12.769  0.3046E+01  0.4669E+01
    -12.702  0.3864E+01  0.4929E+01
    -12.634  0.4536E+01  0.5234E+01
    -12.567  0.5245E+01  0.5588E+01
    -12.500  0.5978E+01  0.5990E+01
    -12.432  0.6588E+01  0.6434E+01
    -12.365  0.6486E+01  0.6871E+01
    -12.298  0.5170E+01  0.7219E+01
    -12.230  0.4051E+01  0.7492E+01
    -12.163  0.4758E+01  0.7813E+01
    -12.095  0.7026E+01  0.8286E+01
    -12.028  0.8135E+01  0.8834E+01
    -11.961  0.7274E+01  0.9324E+01
    -11.893  0.6856E+01  0.9786E+01
    -11.826  0.6964E+01  0.1026E+02
    -11.759  0.6867E+01  0.1072E+02
    -11.691  0.7247E+01  0.1121E+02
    -11.624  0.7762E+01  0.1173E+02
    -11.557  0.7509E+01  0.1223E+02
    -11.489  0.6714E+01  0.1269E+02
    -11.422  0.7057E+01  0.1316E+02
    -11.354  0.8762E+01  0.1375E+02
    -11.287  0.9676E+01  0.1440E+02
    -11.220  0.9276E+01  0.1503E+02
    -11.152  0.9014E+01  0.1564E+02
    -11.085  0.9299E+01  0.1626E+02
    -11.018  0.9856E+01  0.1693E+02
    -10.950  0.1023E+02  0.1762E+02
    -10.883  0.1051E+02  0.1832E+02
    -10.816  0.1028E+02  0.1902E+02
    -10.748  0.9388E+01  0.1965E+02
    -10.681  0.8213E+01  0.2020E+02
    -10.613  0.7089E+01  0.2068E+02
    -10.546  0.7434E+01  0.2118E+02
    -10.479  0.7120E+01  0.2166E+02
    -10.411  0.3871E+01  0.2192E+02
    -10.344  0.1060E+01  0.2199E+02
    -10.277  0.4047E+00  0.2202E+02
    -10.209  0.1513E+01  0.2212E+02
    -10.142  0.4515E+01  0.2243E+02
    -10.075  0.7703E+01  0.2294E+02
    -10.007  0.7771E+01  0.2347E+02
     -9.940  0.4975E+01  0.2380E+02
     -9.872  0.2199E+01  0.2395E+02
     -9.805  0.6791E+00  0.2400E+02
     -9.738  0.4901E+00  0.2403E+02
     -9.670  0.1244E+01  0.2411E+02
     -9.603  0.1796E+01  0.2423E+02
     -9.536  0.1742E+01  0.2435E+02
     -9.468  0.2696E+01  0.2453E+02
     -9.401  0.5121E+01  0.2488E+02
     -9.334  0.6936E+01  0.2535E+02
     -9.266  0.5955E+01  0.2575E+02
     -9.199  0.3310E+01  0.2597E+02
     -9.131  0.2213E+01  0.2612E+02
     -9.064  0.2840E+01  0.2631E+02
     -8.997  0.3112E+01  0.2652E+02
     -8.929  0.3406E+01  0.2675E+02
     -8.862  0.4668E+01  0.2706E+02
     -8.795  0.5134E+01  0.2741E+02
     -8.727  0.4117E+01  0.2769E+02
     -8.660  0.3243E+01  0.2791E+02
     -8.593  0.3331E+01  0.2813E+02
     -8.525  0.4151E+01  0.2841E+02
     -8.458  0.4908E+01  0.2874E+02
     -8.390  0.4623E+01  0.2905E+02
     -8.323  0.3475E+01  0.2929E+02
     -8.256  0.2721E+01  0.2947E+02
     -8.188  0.2806E+01  0.2966E+02
     -8.121  0.2517E+01  0.2983E+02
     -8.054  0.1576E+01  0.2993E+02
     -7.986  0.1256E+01  0.3002E+02
     -7.919  0.2441E+01  0.3018E+02
     -7.852  0.4636E+01  0.3050E+02
     -7.784  0.5657E+01  0.3088E+02
     -7.717  0.5129E+01  0.3122E+02
     -7.649  0.4766E+01  0.3154E+02
     -7.582  0.4963E+01  0.3188E+02
     -7.515  0.5831E+01  0.3227E+02
     -7.447  0.7207E+01  0.3276E+02
     -7.380  0.7837E+01  0.3328E+02
     -7.313  0.7764E+01  0.3381E+02
     -7.245  0.8530E+01  0.3438E+02
     -7.178  0.9561E+01  0.3503E+02
     -7.111  0.9847E+01  0.3569E+02
     -7.043  0.1001E+02  0.3636E+02
     -6.976  0.9579E+01  0.3701E+02
     -6.908  0.9033E+01  0.3762E+02
     -6.841  0.9704E+01  0.3827E+02
     -6.774  0.1107E+02  0.3902E+02
     -6.706  0.1069E+02  0.3974E+02
     -6.639  0.8335E+01  0.4030E+02
     -6.572  0.6694E+01  0.4075E+02
     -6.504  0.5250E+01  0.4110E+02
     -6.437  0.4493E+01  0.4140E+02
     -6.370  0.5715E+01  0.4179E+02
     -6.302  0.6845E+01  0.4225E+02
     -6.235  0.6268E+01  0.4267E+02
     -6.167  0.4818E+01  0.4300E+02
     -6.100  0.4374E+01  0.4329E+02
     -6.033  0.5611E+01  0.4367E+02
     -5.965  0.5951E+01  0.4407E+02
     -5.898  0.4931E+01  0.4440E+02
     -5.831  0.4690E+01  0.4472E+02
     -5.763  0.4593E+01  0.4503E+02
     -5.696  0.4061E+01  0.4530E+02
     -5.629  0.4209E+01  0.4559E+02
     -5.561  0.5224E+01  0.4594E+02
     -5.494  0.6822E+01  0.4640E+02
     -5.426  0.7798E+01  0.4692E+02
     -5.359  0.7774E+01  0.4745E+02
     -5.292  0.8104E+01  0.4799E+02
     -5.224  0.7535E+01  0.4850E+02
     -5.157  0.5670E+01  0.4888E+02
     -5.090  0.5679E+01  0.4926E+02
     -5.022  0.8162E+01  0.4981E+02
     -4.955  0.1023E+02  0.5050E+02
     -4.888  0.9494E+01  0.5114E+02
     -4.820  0.8039E+01  0.5168E+02
     -4.753  0.7593E+01  0.5220E+02
     -4.685  0.7469E+01  0.5270E+02
     -4.618  0.7902E+01  0.5323E+02
     -4.551  0.9172E+01  0.5385E+02
     -4.483  0.1059E+02  0.5456E+02
     -4.416  0.1132E+02  0.5532E+02
     -4.349  0.1121E+02  0.5608E+02
     -4.281  0.1134E+02  0.5684E+02
     -4.214  0.1221E+02  0.5767E+02
     -4.147  0.1370E+02  0.5859E+02
     -4.079  0.1485E+02  0.5959E+02
     -4.012  0.1388E+02  0.6052E+02
     -3.944  0.1123E+02  0.6128E+02
     -3.877  0.9743E+01  0.6194E+02
     -3.810  0.1040E+02  0.6264E+02
     -3.742  0.1215E+02  0.6346E+02
     -3.675  0.1360E+02  0.6437E+02
     -3.608  0.1410E+02  0.6532E+02
     -3.540  0.1367E+02  0.6624E+02
     -3.473  0.1319E+02  0.6713E+02
     -3.406  0.1331E+02  0.6803E+02
     -3.338  0.1430E+02  0.6899E+02
     -3.271  0.1555E+02  0.7004E+02
     -3.203  0.1634E+02  0.7114E+02
     -3.136  0.1619E+02  0.7223E+02
     -3.069  0.1604E+02  0.7331E+02
     -3.001  0.1615E+02  0.7440E+02
     -2.934  0.1557E+02  0.7545E+02
     -2.867  0.1512E+02  0.7647E+02
     -2.799  0.1546E+02  0.7751E+02
     -2.732  0.1637E+02  0.7861E+02
     -2.665  0.1775E+02  0.7981E+02
     -2.597  0.1939E+02  0.8111E+02
     -2.530  0.1967E+02  0.8244E+02
     -2.462  0.1841E+02  0.8368E+02
     -2.395  0.1691E+02  0.8482E+02
     -2.328  0.1556E+02  0.8586E+02
     -2.260  0.1528E+02  0.8689E+02
     -2.193  0.1499E+02  0.8790E+02
     -2.126  0.1342E+02  0.8881E+02
     -2.058  0.1289E+02  0.8968E+02
     -1.991  0.1482E+02  0.9068E+02
     -1.924  0.1605E+02  0.9176E+02
     -1.856  0.1478E+02  0.9275E+02
     -1.789  0.1249E+02  0.9359E+02
     -1.721  0.1007E+02  0.9427E+02
     -1.654  0.1002E+02  0.9495E+02
     -1.587  0.1328E+02  0.9584E+02
     -1.519  0.1591E+02  0.9691E+02
     -1.452  0.1474E+02  0.9791E+02
     -1.385  0.1120E+02  0.9866E+02
     -1.317  0.7951E+01  0.9920E+02
     -1.250  0.7458E+01  0.9970E+02
     -1.183  0.9786E+01  0.1004E+03
     -1.115  0.1212E+02  0.1012E+03
     -1.048  0.1248E+02  0.1020E+03
     -0.981  0.1089E+02  0.1027E+03
     -0.913  0.8201E+01  0.1033E+03
     -0.846  0.5883E+01  0.1037E+03
     -0.778  0.4472E+01  0.1040E+03
     -0.711  0.3310E+01  0.1042E+03
     -0.644  0.2570E+01  0.1044E+03
     -0.576  0.2039E+01  0.1045E+03
     -0.509  0.1516E+01  0.1046E+03
     -0.442  0.2411E+01  0.1048E+03
     -0.374  0.5125E+01  0.1051E+03
     -0.307  0.6939E+01  0.1056E+03
     -0.240  0.5740E+01  0.1060E+03
     -0.172  0.3656E+01  0.1062E+03
     -0.105  0.2912E+01  0.1064E+03
     -0.037  0.3158E+01  0.1067E+03
      0.030  0.4219E+01  0.1069E+03
      0.097  0.5776E+01  0.1073E+03
      0.165  0.6936E+01  0.1078E+03
      0.232  0.6999E+01  0.1083E+03
      0.299  0.5460E+01  0.1086E+03
      0.367  0.3711E+01  0.1089E+03
      0.434  0.2336E+01  0.1090E+03
      0.501  0.1597E+01  0.1091E+03
      0.569  0.1943E+01  0.1093E+03
      0.636  0.2427E+01  0.1094E+03
      0.704  0.2665E+01  0.1096E+03
      0.771  0.2974E+01  0.1098E+03
      0.838  0.3320E+01  0.1100E+03
      0.906  0.3897E+01  0.1103E+03
      0.973  0.5283E+01  0.1107E+03
      1.040  0.7309E+01  0.1112E+03
      1.108  0.9986E+01  0.1118E+03
      1.175  0.1311E+02  0.1127E+03
      1.242  0.1483E+02  0.1137E+03
      1.310  0.1467E+02  0.1147E+03
      1.377  0.1338E+02  0.1156E+03
      1.445  0.1196E+02  0.1164E+03
      1.512  0.1236E+02  0.1172E+03
      1.579  0.1391E+02  0.1182E+03
      1.647  0.1500E+02  0.1192E+03
      1.714  0.1526E+02  0.1202E+03
      1.781  0.1467E+02  0.1212E+03
      1.849  0.1322E+02  0.1221E+03
      1.916  0.1177E+02  0.1229E+03
      1.983  0.1137E+02  0.1236E+03
      2.051  0.1187E+02  0.1244E+03
      2.118  0.1328E+02  0.1253E+03
      2.186  0.1444E+02  0.1263E+03
      2.253  0.1383E+02  0.1272E+03
      2.320  0.1272E+02  0.1281E+03
      2.388  0.1232E+02  0.1289E+03
      2.455  0.1237E+02  0.1298E+03
      2.522  0.1299E+02  0.1306E+03
      2.590  0.1398E+02  0.1316E+03
      2.657  0.1391E+02  0.1325E+03
      2.724  0.1160E+02  0.1333E+03
      2.792  0.9429E+01  0.1339E+03
      2.859  0.8813E+01  0.1345E+03
      2.927  0.7716E+01  0.1351E+03
      2.994  0.5810E+01  0.1354E+03
      3.061  0.4152E+01  0.1357E+03
      3.129  0.2589E+01  0.1359E+03
      3.196  0.1154E+01  0.1360E+03
      3.263  0.3243E+00  0.1360E+03
      3.331  0.5111E-01  0.1360E+03
      3.398  0.3994E-02  0.1360E+03
      3.465  0.1418E-03  0.1360E+03
      3.533  0.2175E-05  0.1360E+03
      3.600  0.1406E-07  0.1360E+03
      3.668  0.3775E-10  0.1360E+03
      3.735  0.4171E-13  0.1360E+03
      3.802  0.0000E+00  0.1360E+03
      3.870  0.0000E+00  0.1360E+03
      3.937  0.0000E+00  0.1360E+03
      4.004  0.0000E+00  0.1360E+03
      4.072  0.0000E+00  0.1360E+03
      4.139  0.0000E+00  0.1360E+03
