   24   24    1    1
  0.4176334E+02  0.3540400E-09  0.1044544E-08  0.2750143E-08  0.5000000E-15
  1.000000000000000E-004
  CAR 
 unknown system                          
    108     54     68
 
  0.0000000E+00  0.0000000E+00  0.0000000E+00  0.9615385E-02
    1      -15.069852
    2      -13.628237
    3      -13.230296
    4      -12.887189
    5      -12.637657
    6      -12.562252
    7      -12.174281
    8      -11.864195
    9      -11.521094
   10      -11.393703
   11      -11.077432
   12      -10.107758
   13       -9.361305
   14       -8.121525
   15       -7.917916
   16       -7.124488
   17       -7.057857
   18       -6.865587
   19       -6.582062
   20       -6.314197
   21       -5.911824
   22       -5.257211
   23       -5.066718
   24       -4.824591
   25       -4.418137
   26       -4.073155
   27       -3.799597
   28       -3.684315
   29       -3.573577
   30       -3.246879
   31       -3.144703
   32       -2.999621
   33       -2.929768
   34       -2.815524
   35       -2.720193
   36       -2.534988
   37       -2.484239
   38       -2.420166
   39       -2.377168
   40       -2.260944
   41       -2.064147
   42       -1.964970
   43       -1.835270
   44       -1.811918
   45       -1.731139
   46       -1.667786
   47       -1.650547
   48       -1.519316
   49       -1.455334
   50       -1.261162
   51       -1.096275
   52       -0.992719
   53        0.198540
   54        0.328740
   55        0.955736
   56        0.987193
   57        1.073981
   58        1.193143
   59        1.244602
   60        1.412557
   61        1.629134
   62        1.724645
   63        1.889693
   64        1.942432
   65        2.086790
   66        2.343739
   67        2.422099
   68        2.557791
 
  0.7692308E-01 -0.1387779E-16  0.0000000E+00  0.1923077E-01
    1      -15.015711
    2      -13.566889
    3      -13.175373
    4      -12.835034
    5      -12.579925
    6      -12.506354
    7      -12.112053
    8      -11.814940
    9      -11.472140
   10      -11.340229
   11      -11.029077
   12      -10.087325
   13       -9.346658
   14       -8.158149
   15       -7.880968
   16       -7.123351
   17       -7.031226
   18       -6.844813
   19       -6.576621
   20       -6.305581
   21       -5.878389
   22       -5.520509
   23       -5.145800
   24       -4.830114
   25       -4.569362
   26       -4.048220
   27       -3.838252
   28       -3.735870
   29       -3.659730
   30       -3.521446
   31       -3.362774
   32       -3.297561
   33       -3.251408
   34       -2.921955
   35       -2.820062
   36       -2.732548
   37       -2.622989
   38       -2.559849
   39       -2.455447
   40       -2.314824
   41       -2.278550
   42       -2.087803
   43       -2.049949
   44       -1.946985
   45       -1.916923
   46       -1.825016
   47       -1.599431
   48       -1.523203
   49       -1.481822
   50       -1.249156
   51       -1.069201
   52       -1.002806
   53        0.197721
   54        0.363508
   55        0.938457
   56        1.170991
   57        1.198995
   58        1.456749
   59        1.590098
   60        1.675457
   61        1.713393
   62        2.049183
   63        2.111418
   64        2.186706
   65        2.232257
   66        2.527938
   67        2.599228
   68        2.683585
 
  0.1538462E+00 -0.2775558E-16  0.0000000E+00  0.1923077E-01
    1      -14.855710
    2      -13.383915
    3      -13.012911
    4      -12.679287
    5      -12.409454
    6      -12.340753
    7      -11.929636
    8      -11.670335
    9      -11.330107
   10      -11.184879
   11      -10.890348
   12      -10.042138
   13       -9.313346
   14       -8.254367
   15       -7.838659
   16       -7.265951
   17       -6.960920
   18       -6.797337
   19       -6.589833
   20       -6.351259
   21       -6.057666
   22       -5.802589
   23       -5.224770
   24       -4.960280
   25       -4.883776
   26       -4.305121
   27       -4.184906
   28       -4.115196
   29       -4.037264
   30       -3.961247
   31       -3.786827
   32       -3.737113
   33       -3.504921
   34       -3.328913
   35       -3.237153
   36       -3.106016
   37       -3.050924
   38       -3.021513
   39       -2.791059
   40       -2.617391
   41       -2.464424
   42       -2.405825
   43       -2.246174
   44       -2.177837
   45       -2.014356
   46       -1.855028
   47       -1.737347
   48       -1.535109
   49       -1.315332
   50       -1.115000
   51       -1.024335
   52       -0.703916
   53        0.039142
   54        0.201636
   55        0.679796
   56        1.095544
   57        1.246713
   58        1.664221
   59        1.856697
   60        2.088286
   61        2.196016
   62        2.334417
   63        2.369520
   64        2.542011
   65        2.608546
   66        2.793677
   67        2.882102
   68        2.989666
 
  0.2307692E+00 -0.4163336E-16  0.0000000E+00  0.1923077E-01
    1      -14.598512
    2      -13.082899
    3      -12.751379
    4      -12.423022
    5      -12.135733
    6      -12.073140
    7      -11.641883
    8      -11.443077
    9      -11.113170
   10      -10.947168
   11      -10.687417
   12      -10.029843
   13       -9.288550
   14       -8.445843
   15       -7.912165
   16       -7.791410
   17       -6.931163
   18       -6.784273
   19       -6.722910
   20       -6.587769
   21       -6.200624
   22       -5.823785
   23       -5.630620
   24       -5.424913
   25       -5.280168
   26       -4.898445
   27       -4.692702
   28       -4.605840
   29       -4.497051
   30       -4.313066
   31       -4.266594
   32       -3.900548
   33       -3.831363
   34       -3.694148
   35       -3.555901
   36       -3.422914
   37       -3.258163
   38       -3.081772
   39       -3.052901
   40       -2.720338
   41       -2.642329
   42       -2.549131
   43       -2.456433
   44       -2.187229
   45       -1.991207
   46       -1.911491
   47       -1.819390
   48       -1.592072
   49       -1.555170
   50       -1.218639
   51       -1.071407
   52       -0.379170
   53       -0.309413
   54       -0.141841
   55        0.546641
   56        1.037686
   57        1.266067
   58        1.552372
   59        1.781291
   60        1.953939
   61        2.052141
   62        2.165139
   63        2.221329
   64        2.392438
   65        2.600502
   66        2.782915
   67        2.874062
   68        2.901680
 
  0.3076923E+00 -0.5551115E-16  0.0000000E+00  0.1923077E-01
    1      -14.264378
    2      -12.671183
    3      -12.413512
    4      -12.074703
    5      -11.781687
    6      -11.722640
    7      -11.283638
    8      -11.172071
    9      -10.868704
   10      -10.683894
   11      -10.501853
   12      -10.121257
   13       -9.293970
   14       -8.740903
   15       -8.404553
   16       -8.171382
   17       -7.137383
   18       -7.085346
   19       -6.988346
   20       -6.954858
   21       -6.419365
   22       -6.248946
   23       -6.054537
   24       -5.993201
   25       -5.556974
   26       -5.297881
   27       -4.954314
   28       -4.839809
   29       -4.782817
   30       -4.424510
   31       -4.396492
   32       -4.306288
   33       -4.107861
   34       -3.704559
   35       -3.478768
   36       -3.409902
   37       -3.230439
   38       -3.164353
   39       -3.006247
   40       -2.873923
   41       -2.815208
   42       -2.677130
   43       -2.513045
   44       -2.327669
   45       -2.148062
   46       -1.981799
   47       -1.953827
   48       -1.798660
   49       -1.593385
   50       -1.416491
   51       -1.162598
   52       -0.853594
   53       -0.643643
   54       -0.195933
   55        0.338171
   56        0.967037
   57        1.285233
   58        1.393876
   59        1.545089
   60        1.714161
   61        1.848548
   62        1.940503
   63        2.055323
   64        2.192506
   65        2.304304
   66        2.624500
   67        2.745381
   68        2.799793
 
  0.3846154E+00 -0.8326673E-16  0.0000000E+00  0.1923077E-01
    1      -13.901165
    2      -12.163553
    3      -12.067015
    4      -11.655515
    5      -11.417366
    6      -11.332350
    7      -10.975407
    8      -10.937327
    9      -10.713652
   10      -10.544789
   11      -10.527971
   12      -10.145903
   13       -9.379310
   14       -8.919260
   15       -8.887478
   16       -8.463712
   17       -7.581554
   18       -7.545136
   19       -7.503088
   20       -7.213496
   21       -6.859319
   22       -6.843850
   23       -6.749338
   24       -6.396590
   25       -5.446403
   26       -5.301554
   27       -4.961370
   28       -4.698330
   29       -4.614848
   30       -4.509800
   31       -4.313390
   32       -4.195109
   33       -4.162895
   34       -3.746112
   35       -3.611597
   36       -3.356160
   37       -3.347163
   38       -3.240665
   39       -3.154110
   40       -3.017400
   41       -2.850775
   42       -2.618273
   43       -2.577411
   44       -2.502278
   45       -2.361460
   46       -2.195643
   47       -2.111037
   48       -1.933439
   49       -1.591437
   50       -1.509274
   51       -1.406982
   52       -1.065096
   53       -0.863680
   54       -0.300097
   55        0.095602
   56        0.788872
   57        1.236561
   58        1.336372
   59        1.385915
   60        1.585150
   61        1.617198
   62        1.777084
   63        1.901205
   64        2.022700
   65        2.185617
   66        2.278991
   67        2.624362
   68        2.693482
 
  0.4615385E+00 -0.8326673E-16  0.0000000E+00  0.1923077E-01
    1      -13.625814
    2      -11.890093
    3      -11.588311
    4      -11.232854
    5      -11.216321
    6      -11.035759
    7      -10.930377
    8      -10.822281
    9      -10.813520
   10      -10.723296
   11      -10.515369
   12       -9.961357
   13       -9.636153
   14       -9.118058
   15       -8.774462
   16       -8.526848
   17       -8.165996
   18       -7.816147
   19       -7.658549
   20       -7.409370
   21       -7.372715
   22       -7.267412
   23       -7.232948
   24       -6.595565
   25       -5.254789
   26       -5.021264
   27       -4.971512
   28       -4.593792
   29       -4.485037
   30       -4.301044
   31       -4.165460
   32       -4.032541
   33       -3.974098
   34       -3.908349
   35       -3.784159
   36       -3.655817
   37       -3.550617
   38       -3.339550
   39       -3.128919
   40       -3.063230
   41       -2.916797
   42       -2.785215
   43       -2.660203
   44       -2.574485
   45       -2.439763
   46       -2.277418
   47       -2.196937
   48       -1.819808
   49       -1.749431
   50       -1.605134
   51       -1.441175
   52       -1.156974
   53       -0.928997
   54       -0.307545
   55       -0.101970
   56        0.682862
   57        1.165916
   58        1.202191
   59        1.324533
   60        1.484119
   61        1.586745
   62        1.670443
   63        1.807995
   64        1.951865
   65        2.032600
   66        2.318129
   67        2.429909
   68        2.485710
 
  0.0000000E+00  0.2500000E+00  0.0000000E+00  0.1923077E-01
    1      -15.068179
    2      -13.573037
    3      -13.264344
    4      -13.060840
    5      -12.587502
    6      -12.526306
    7      -11.999669
    8      -11.944698
    9      -11.566050
   10      -11.296604
   11      -11.086453
   12      -10.091918
   13       -9.440981
   14       -8.602877
   15       -7.488119
   16       -7.124183
   17       -7.012927
   18       -6.758116
   19       -6.683566
   20       -6.216654
   21       -5.833831
   22       -5.336793
   23       -5.072130
   24       -4.727403
   25       -4.241164
   26       -4.131047
   27       -4.035120
   28       -3.694102
   29       -3.509054
   30       -3.375115
   31       -3.215709
   32       -3.005143
   33       -2.874887
   34       -2.795963
   35       -2.696251
   36       -2.589207
   37       -2.480495
   38       -2.432421
   39       -2.382506
   40       -2.276744
   41       -2.168890
   42       -2.047138
   43       -1.971669
   44       -1.946788
   45       -1.716392
   46       -1.626626
   47       -1.492792
   48       -1.449419
   49       -1.369085
   50       -1.223121
   51       -1.075849
   52       -1.018618
   53        0.161208
   54        0.210376
   55        0.954478
   56        1.071711
   57        1.136047
   58        1.220676
   59        1.307069
   60        1.437739
   61        1.639933
   62        1.776192
   63        1.799102
   64        2.087246
   65        2.175605
   66        2.447857
   67        2.506528
   68        2.573437
 
  0.7692308E-01  0.2500000E+00  0.0000000E+00  0.1923077E-01
    1      -15.013739
    2      -13.496261
    3      -13.215525
    4      -13.041702
    5      -12.526342
    6      -12.453038
    7      -11.965845
    8      -11.853505
    9      -11.524781
   10      -11.223724
   11      -11.042186
   12      -10.071644
   13       -9.442065
   14       -8.661357
   15       -7.440852
   16       -7.113226
   17       -6.998415
   18       -6.766918
   19       -6.614186
   20       -6.186923
   21       -5.784584
   22       -5.546999
   23       -5.249298
   24       -4.773264
   25       -4.371268
   26       -4.186341
   27       -4.016718
   28       -3.768918
   29       -3.682197
   30       -3.503076
   31       -3.465849
   32       -3.242409
   33       -3.109715
   34       -2.926668
   35       -2.860454
   36       -2.768773
   37       -2.636768
   38       -2.586108
   39       -2.537488
   40       -2.366743
   41       -2.281456
   42       -2.187781
   43       -2.090446
   44       -1.972919
   45       -1.924084
   46       -1.834253
   47       -1.547469
   48       -1.516663
   49       -1.395280
   50       -1.185401
   51       -1.076499
   52       -0.965986
   53        0.155279
   54        0.248264
   55        1.023799
   56        1.171241
   57        1.310906
   58        1.503123
   59        1.547450
   60        1.699998
   61        1.798519
   62        1.889554
   63        2.141975
   64        2.353060
   65        2.449437
   66        2.558828
   67        2.597400
   68        2.875748
 
  0.1538462E+00  0.2500000E+00  0.0000000E+00  0.1923077E-01
    1      -14.853620
    2      -13.299819
    3      -13.055010
    4      -12.905138
    5      -12.357671
    6      -12.272028
    7      -11.834616
    8      -11.657351
    9      -11.385430
   10      -11.053907
   11      -10.901003
   12      -10.038384
   13       -9.406126
   14       -8.727008
   15       -7.411284
   16       -7.227486
   17       -6.952617
   18       -6.744828
   19       -6.584751
   20       -6.355211
   21       -5.981235
   22       -5.736737
   23       -5.326759
   24       -4.932393
   25       -4.804463
   26       -4.468704
   27       -4.381769
   28       -4.125197
   29       -4.046526
   30       -3.906514
   31       -3.747197
   32       -3.699892
   33       -3.487728
   34       -3.286202
   35       -3.148477
   36       -3.051156
   37       -3.032031
   38       -2.895656
   39       -2.833977
   40       -2.691503
   41       -2.616139
   42       -2.429494
   43       -2.395420
   44       -2.192586
   45       -2.018341
   46       -1.968368
   47       -1.599320
   48       -1.493840
   49       -1.268389
   50       -1.134607
   51       -0.985625
   52       -0.732078
   53        0.052625
   54        0.145774
   55        0.617611
   56        1.152923
   57        1.268332
   58        1.578858
   59        1.679478
   60        2.017844
   61        2.118824
   62        2.279165
   63        2.440700
   64        2.663285
   65        2.706043
   66        2.842679
   67        2.989087
   68        3.042545
 
  0.2307692E+00  0.2500000E+00  0.0000000E+00  0.1923077E-01
    1      -14.596556
    2      -12.988609
    3      -12.790468
    4      -12.653695
    5      -12.088829
    6      -11.997743
    7      -11.609425
    8      -11.381312
    9      -11.163758
   10      -10.804450
   11      -10.683782
   12      -10.056523
   13       -9.353845
   14       -8.858316
   15       -7.755116
   16       -7.480013
   17       -6.964246
   18       -6.784602
   19       -6.732235
   20       -6.649814
   21       -6.104488
   22       -5.908463
   23       -5.500702
   24       -5.428861
   25       -5.294697
   26       -5.113248
   27       -4.758030
   28       -4.643200
   29       -4.578974
   30       -4.230134
   31       -4.119329
   32       -3.930024
   33       -3.816791
   34       -3.653556
   35       -3.366599
   36       -3.285414
   37       -3.206565
   38       -3.173245
   39       -2.921850
   40       -2.769622
   41       -2.685167
   42       -2.613502
   43       -2.464246
   44       -2.265369
   45       -2.078099
   46       -1.973904
   47       -1.859843
   48       -1.574714
   49       -1.484636
   50       -1.196565
   51       -1.076603
   52       -0.365315
   53       -0.320665
   54       -0.093461
   55        0.372379
   56        1.028349
   57        1.178298
   58        1.365922
   59        1.499290
   60        1.636895
   61        1.971279
   62        2.147254
   63        2.274782
   64        2.525788
   65        2.630519
   66        2.784994
   67        2.951789
   68        3.137809
 
  0.3076923E+00  0.2500000E+00  0.0000000E+00  0.1923077E-01
    1      -14.262812
    2      -12.572355
    3      -12.443056
    4      -12.294572
    5      -11.738128
    6      -11.665069
    7      -11.313747
    8      -11.068131
    9      -10.900203
   10      -10.537048
   11      -10.478629
   12      -10.184323
   13       -9.318917
   14       -9.057539
   15       -8.372601
   16       -7.794754
   17       -7.260848
   18       -7.197709
   19       -7.050421
   20       -6.909288
   21       -6.330643
   22       -6.276618
   23       -6.013605
   24       -5.988203
   25       -5.625373
   26       -5.463470
   27       -5.029086
   28       -4.978962
   29       -4.515124
   30       -4.422008
   31       -4.359785
   32       -4.160168
   33       -4.084891
   34       -3.658680
   35       -3.427514
   36       -3.345120
   37       -3.181706
   38       -3.087748
   39       -2.957369
   40       -2.857786
   41       -2.760758
   42       -2.595046
   43       -2.542109
   44       -2.408817
   45       -2.334970
   46       -2.047960
   47       -1.966417
   48       -1.832805
   49       -1.642344
   50       -1.412428
   51       -1.180323
   52       -0.769210
   53       -0.605941
   54       -0.263958
   55        0.208825
   56        0.855845
   57        1.122090
   58        1.166341
   59        1.327807
   60        1.493981
   61        1.726589
   62        1.939371
   63        2.093624
   64        2.258389
   65        2.389304
   66        2.544170
   67        2.699493
   68        2.877146
 
  0.3846154E+00  0.2500000E+00  0.0000000E+00  0.1923077E-01
    1      -13.900265
    2      -12.088064
    3      -12.060454
    4      -11.844453
    5      -11.388922
    6      -11.330358
    7      -11.009810
    8      -10.810978
    9      -10.689704
   10      -10.555794
   11      -10.518168
   12      -10.126562
   13       -9.385662
   14       -9.047702
   15       -8.873716
   16       -8.198861
   17       -7.865852
   18       -7.665454
   19       -7.446070
   20       -7.148223
   21       -6.849302
   22       -6.783417
   23       -6.744724
   24       -6.415835
   25       -5.493564
   26       -5.425613
   27       -4.983519
   28       -4.869158
   29       -4.600009
   30       -4.466103
   31       -4.207356
   32       -4.062838
   33       -3.948079
   34       -3.610854
   35       -3.438053
   36       -3.375710
   37       -3.296029
   38       -3.251477
   39       -3.202651
   40       -3.013891
   41       -2.937650
   42       -2.731455
   43       -2.561049
   44       -2.453860
   45       -2.379494
   46       -2.229521
   47       -2.157696
   48       -1.943815
   49       -1.651985
   50       -1.547429
   51       -1.395746
   52       -1.060755
   53       -0.830306
   54       -0.362554
   55        0.037696
   56        0.749889
   57        1.098342
   58        1.196243
   59        1.242987
   60        1.384859
   61        1.589472
   62        1.743996
   63        1.777329
   64        1.982468
   65        2.141900
   66        2.492943
   67        2.559166
   68        2.601025
 
  0.4615385E+00  0.2500000E+00  0.0000000E+00  0.1923077E-01
    1      -13.625566
    2      -11.888681
    3      -11.517974
    4      -11.349077
    5      -11.229060
    6      -11.048072
    7      -10.951000
    8      -10.808430
    9      -10.785294
   10      -10.669089
   11      -10.524734
   12       -9.937618
   13       -9.653544
   14       -9.100837
   15       -8.641110
   16       -8.486064
   17       -8.415511
   18       -7.853724
   19       -7.604717
   20       -7.404696
   21       -7.367396
   22       -7.266948
   23       -7.222230
   24       -6.583960
   25       -5.298187
   26       -5.108261
   27       -4.981830
   28       -4.565041
   29       -4.472343
   30       -4.255061
   31       -4.222985
   32       -4.021037
   33       -3.890544
   34       -3.827748
   35       -3.743923
   36       -3.582880
   37       -3.542066
   38       -3.343758
   39       -3.120413
   40       -3.057230
   41       -2.968754
   42       -2.740227
   43       -2.687921
   44       -2.574585
   45       -2.522809
   46       -2.248868
   47       -2.205546
   48       -1.810597
   49       -1.745847
   50       -1.637701
   51       -1.523623
   52       -1.146729
   53       -0.951531
   54       -0.346777
   55       -0.059743
   56        0.718252
   57        1.149267
   58        1.225309
   59        1.344360
   60        1.431000
   61        1.482898
   62        1.596125
   63        1.734372
   64        1.805834
   65        2.098138
   66        2.344904
   67        2.394889
   68        2.443624
 
 -0.4615385E+00  0.2500000E+00  0.0000000E+00  0.1923077E-01
    1      -13.626050
    2      -11.886720
    3      -11.621950
    4      -11.223037
    5      -11.155933
    6      -11.022041
    7      -10.894838
    8      -10.843694
    9      -10.806156
   10      -10.791002
   11      -10.531843
   12       -9.963368
   13       -9.638643
   14       -9.097718
   15       -8.842940
   16       -8.520836
   17       -8.031010
   18       -7.809209
   19       -7.691787
   20       -7.482833
   21       -7.366701
   22       -7.306873
   23       -7.200411
   24       -6.559109
   25       -5.268441
   26       -5.001093
   27       -4.825406
   28       -4.668115
   29       -4.478932
   30       -4.334899
   31       -4.131615
   32       -4.078603
   33       -4.031884
   34       -3.968216
   35       -3.765002
   36       -3.718496
   37       -3.609517
   38       -3.436397
   39       -3.049150
   40       -2.887422
   41       -2.877979
   42       -2.764395
   43       -2.648723
   44       -2.576993
   45       -2.467994
   46       -2.256804
   47       -2.211551
   48       -1.870475
   49       -1.781718
   50       -1.583272
   51       -1.457444
   52       -1.163837
   53       -0.968060
   54       -0.338967
   55       -0.022890
   56        0.781309
   57        1.169946
   58        1.285043
   59        1.334820
   60        1.529685
   61        1.577386
   62        1.687751
   63        1.802952
   64        1.890364
   65        2.181418
   66        2.287945
   67        2.472593
   68        2.523576
 
 -0.3846154E+00  0.2500000E+00  0.0000000E+00  0.1923077E-01
    1      -13.901684
    2      -12.189700
    3      -12.055177
    4      -11.570624
    5      -11.447106
    6      -11.331375
    7      -11.019339
    8      -10.935027
    9      -10.716238
   10      -10.571628
   11      -10.537041
   12      -10.129193
   13       -9.371717
   14       -8.888828
   15       -8.828269
   16       -8.577960
   17       -7.557990
   18       -7.527921
   19       -7.416557
   20       -7.270213
   21       -6.894459
   22       -6.873753
   23       -6.752977
   24       -6.338105
   25       -5.436987
   26       -5.158785
   27       -4.985841
   28       -4.888488
   29       -4.512991
   30       -4.465059
   31       -4.340168
   32       -4.215284
   33       -4.173214
   34       -3.811649
   35       -3.603558
   36       -3.494552
   37       -3.407899
   38       -3.253493
   39       -3.157413
   40       -2.942798
   41       -2.794095
   42       -2.680879
   43       -2.590513
   44       -2.446181
   45       -2.325740
   46       -2.188521
   47       -2.030611
   48       -1.914798
   49       -1.675392
   50       -1.508843
   51       -1.367804
   52       -1.092271
   53       -0.882646
   54       -0.341783
   55        0.148564
   56        0.887684
   57        1.177317
   58        1.337227
   59        1.465266
   60        1.655355
   61        1.755876
   62        1.829775
   63        1.968123
   64        2.081546
   65        2.207182
   66        2.342744
   67        2.516372
   68        2.673796
 
 -0.3076923E+00  0.2500000E+00  0.0000000E+00  0.1923077E-01
    1      -14.264754
    2      -12.683433
    3      -12.404092
    4      -12.033037
    5      -11.797706
    6      -11.725442
    7      -11.329427
    8      -11.148794
    9      -10.860343
   10      -10.718385
   11      -10.507953
   12      -10.104354
   13       -9.273605
   14       -8.641599
   15       -8.410382
   16       -8.274299
   17       -7.219452
   18       -7.088356
   19       -6.957930
   20       -6.899608
   21       -6.403598
   22       -6.240472
   23       -6.062612
   24       -6.017198
   25       -5.535015
   26       -5.235974
   27       -4.997728
   28       -4.874386
   29       -4.725823
   30       -4.495687
   31       -4.395037
   32       -4.324094
   33       -4.014188
   34       -3.686879
   35       -3.545223
   36       -3.481609
   37       -3.228975
   38       -3.158055
   39       -3.022471
   40       -2.856858
   41       -2.753033
   42       -2.685492
   43       -2.538660
   44       -2.362083
   45       -2.108273
   46       -1.964790
   47       -1.949075
   48       -1.793475
   49       -1.574872
   50       -1.423919
   51       -1.164046
   52       -0.893252
   53       -0.638228
   54       -0.283551
   55        0.359561
   56        1.005288
   57        1.295701
   58        1.468001
   59        1.626521
   60        1.809903
   61        1.866425
   62        1.959902
   63        2.088380
   64        2.201847
   65        2.326605
   66        2.601555
   67        2.665311
   68        2.782955
 
 -0.2307692E+00  0.2500000E+00  0.0000000E+00  0.1923077E-01
    1      -14.598471
    2      -13.078675
    3      -12.752245
    4      -12.437600
    5      -12.131437
    6      -12.072235
    7      -11.624996
    8      -11.454963
    9      -11.116822
   10      -10.941563
   11      -10.686036
   12      -10.028910
   13       -9.276034
   14       -8.485915
   15       -7.871215
   16       -7.784741
   17       -7.048362
   18       -6.779251
   19       -6.725482
   20       -6.494582
   21       -6.172322
   22       -5.825613
   23       -5.666984
   24       -5.421443
   25       -5.292304
   26       -4.917322
   27       -4.690644
   28       -4.609956
   29       -4.480702
   30       -4.343529
   31       -4.251855
   32       -3.886585
   33       -3.819411
   34       -3.611458
   35       -3.536634
   36       -3.430306
   37       -3.259060
   38       -3.082131
   39       -3.054035
   40       -2.739521
   41       -2.653430
   42       -2.533713
   43       -2.436036
   44       -2.286938
   45       -1.982834
   46       -1.912304
   47       -1.828394
   48       -1.573283
   49       -1.523931
   50       -1.215979
   51       -1.086659
   52       -0.417674
   53       -0.289771
   54       -0.235868
   55        0.514288
   56        1.077855
   57        1.339657
   58        1.620156
   59        1.738356
   60        1.908227
   61        1.963234
   62        2.178872
   63        2.260384
   64        2.347524
   65        2.630013
   66        2.830280
   67        2.888060
   68        2.927782
 
 -0.1538462E+00  0.2500000E+00  0.0000000E+00  0.1923077E-01
    1      -14.855109
    2      -13.362487
    3      -13.026007
    4      -12.752825
    5      -12.385280
    6      -12.331929
    7      -11.842649
    8      -11.719061
    9      -11.349367
   10      -11.143437
   11      -10.888437
   12      -10.040096
   13       -9.330822
   14       -8.465884
   15       -7.628888
   16       -7.224901
   17       -7.041460
   18       -6.751137
   19       -6.641112
   20       -6.310053
   21       -6.028507
   22       -5.777066
   23       -5.299033
   24       -4.934435
   25       -4.830673
   26       -4.375116
   27       -4.249112
   28       -4.132413
   29       -4.033058
   30       -3.944569
   31       -3.780344
   32       -3.642806
   33       -3.490062
   34       -3.355917
   35       -3.202626
   36       -3.087463
   37       -3.007683
   38       -2.983317
   39       -2.781649
   40       -2.638801
   41       -2.578161
   42       -2.404451
   43       -2.292309
   44       -2.232055
   45       -2.001562
   46       -1.863532
   47       -1.700529
   48       -1.523721
   49       -1.297796
   50       -1.097312
   51       -1.017264
   52       -0.788869
   53        0.050725
   54        0.203904
   55        0.602506
   56        1.027130
   57        1.389740
   58        1.625526
   59        1.718306
   60        2.094061
   61        2.171631
   62        2.336567
   63        2.407871
   64        2.621196
   65        2.702995
   66        2.859820
   67        2.919312
   68        3.058192
 
 -0.7692308E-01  0.2500000E+00  0.0000000E+00  0.1923077E-01
    1      -15.014549
    2      -13.528290
    3      -13.200077
    4      -12.963275
    5      -12.539652