       N       E                     dE             d eps       ncg     rms          rms(c)
DAV:   1     0.528269184955E+03    0.52827E+03   -0.28784E+04  7376   0.790E+02
DAV:   2    -0.402819456378E+02   -0.56855E+03   -0.55327E+03  9768   0.191E+02
DAV:   3    -0.997097059653E+02   -0.59428E+02   -0.58462E+02  8976   0.637E+01
DAV:   4    -0.102884399333E+03   -0.31747E+01   -0.31396E+01 11840   0.153E+01
DAV:   5    -0.102933224020E+03   -0.48825E-01   -0.48698E-01 10120   0.199E+00    0.138E+01
DAV:   6    -0.968761345750E+02    0.60571E+01   -0.27858E+01  9108   0.139E+01    0.633E+00
DAV:   7    -0.971556786262E+02   -0.27954E+00   -0.15326E+01  8368   0.876E+00    0.360E+00
DAV:   8    -0.971010260255E+02    0.54653E-01   -0.19146E+00  8920   0.398E+00    0.200E+00
DAV:   9    -0.971172864523E+02   -0.16260E-01   -0.61141E-01  9080   0.210E+00    0.963E-01
DAV:  10    -0.971205414577E+02   -0.32550E-02   -0.25046E-01  9224   0.129E+00    0.386E-01
DAV:  11    -0.971129071032E+02    0.76344E-02   -0.43683E-02  9112   0.623E-01    0.191E-01
DAV:  12    -0.970998840401E+02    0.13023E-01   -0.11349E-02  8936   0.298E-01    0.866E-02
DAV:  13    -0.970953838331E+02    0.45002E-02   -0.19042E-03  9080   0.147E-01    0.412E-02
DAV:  14    -0.970917785882E+02    0.36052E-02   -0.64806E-04  9176   0.723E-02    0.226E-02
DAV:  15    -0.970900568471E+02    0.17217E-02   -0.15615E-04  9104   0.396E-02    0.122E-02
DAV:  16    -0.970898056905E+02    0.25116E-03   -0.67949E-05  8400   0.232E-02    0.771E-03
DAV:  17    -0.970897489584E+02    0.56732E-04   -0.51675E-05  8232   0.181E-02    0.519E-03
DAV:  18    -0.970902639013E+02   -0.51494E-03   -0.11859E-04  8368   0.215E-02    0.285E-03
DAV:  19    -0.970904767389E+02   -0.21284E-03   -0.97835E-05  8128   0.162E-02    0.167E-03
DAV:  20    -0.970905456342E+02   -0.68895E-04   -0.14158E-05  6784   0.860E-03    0.103E-03
DAV:  21    -0.970905628835E+02   -0.17249E-04   -0.14805E-05  6808   0.786E-03    0.816E-04
DAV:  22    -0.970905164115E+02    0.46472E-04   -0.23693E-05  7192   0.909E-03    0.444E-04
DAV:  23    -0.970904803330E+02    0.36079E-04   -0.10948E-05  6288   0.893E-03    0.283E-04
DAV:  24    -0.970904232605E+02    0.57073E-04   -0.69589E-06  6568   0.711E-03    0.128E-04
DAV:  25    -0.970904099307E+02    0.13330E-04   -0.61676E-06  6536   0.761E-03    0.652E-05
DAV:  26    -0.970904007110E+02    0.92197E-05   -0.43587E-06  6664   0.699E-03    0.310E-05
DAV:  27    -0.970904011403E+02   -0.42923E-06   -0.26177E-06  5556   0.564E-03
   1 F= -.97090401E+02 E0= -.97072559E+02  d E =-.356843E-01
