 vasp.5.3.5 31Mar14 (build Oct 29 2014 16:16:03) complex                        
  
 executed on          Linux-UFHPC date 2016.02.09  18:08:59
 running on    8 total cores
 distrk:  each k-point on    8 cores,    1 groups
 distr:  one band on NCORES_PER_BAND=   2 cores,    4 groups


--------------------------------------------------------------------------------------------------------


 INCAR:
 POTCAR:    PAW_PBE P 17Jan2003                   
 POTCAR:   PAW_PBE Si 05Jan2001                   

 ----------------------------------------------------------------------------- 
|                                                                             |
|  ADVICE TO THIS USER RUNNING 'VASP/VAMP'   (HEAR YOUR MASTER'S VOICE ...):  |
|                                                                             |
|      You have switched on vdW-DFT.                                          |
|      This routine was written and supplied by Jiri Klimes.                  |
|      We recommed that you carefully read and cite the following             |
|      publication                                                            |
|      J. Klimes, D.R. Bowler, A. Michelides                                  |
|        J. Phys.: Cond Matt. 22 022201 (2010)                                |
|      J. Klimes, D.R. Bowler, A. Michelides                                  |
|        Phys. Rev. B. 83, 195131 (2011)                                      |
|      and references therein.                                                |
|                                                                             |
 ----------------------------------------------------------------------------- 

 POTCAR:    PAW_PBE P 17Jan2003                   
   VRHFIN =P : s2p3                                                             
   LEXCH  = PE                                                                  
   EATOM  =   176.0430 eV,   12.9388 Ry                                         
                                                                                
   TITEL  = PAW_PBE P 17Jan2003                                                 
   LULTRA =        F    use ultrasoft PP ?                                      
   IUNSCR =        1    unscreen: 0-lin 1-nonlin 2-no                           
   RPACOR =    1.500    partial core radius                                     
   POMASS =   30.974; ZVAL   =    5.000    mass and valenz                      
   RCORE  =    1.900    outmost cutoff radius                                   
   RWIGS  =    2.330; RWIGS  =    1.233    wigner-seitz radius (au A)           
   ENMAX  =  270.000; ENMIN  =  191.280 eV                                      
   ICORE  =        2    local potential                                         
   LCOR   =        T    correct aug charges                                     
   LPAW   =        T    paw PP                                                  
   EAUG   =  342.924                                                            
   DEXC   =    -.002                                                            
   RMAX   =    2.887    core radius for proj-oper                               
   RAUG   =    1.300    factor for augmentation sphere                          
   RDEP   =    1.931    radius for radial grids                                 
   QCUT   =   -4.330; QGAM   =    8.659    optimization parameters              
                                                                                
   Description                                                                  
     l     E      TYP  RCUT    TYP  RCUT                                        
     0   .000     23  1.900                                                     
     0   .000     23  1.900                                                     
     1   .000     23  1.900                                                     
     1   .000     23  1.900                                                     
     2   .000     23  1.900                                                     
  local pseudopotential read in
  partial core-charges read in
  atomic valenz-charges read in
  non local Contribution for L=           0  read in
    real space projection operators read in
  non local Contribution for L=           0  read in
    real space projection operators read in
  non local Contribution for L=           1  read in
    real space projection operators read in
  non local Contribution for L=           1  read in
    real space projection operators read in
    PAW grid and wavefunctions read in
 
   number of l-projection  operators is LMAX  =           4
   number of lm-projection operators is LMMAX =           8
 
 POTCAR:   PAW_PBE Si 05Jan2001                   
   VRHFIN =Si: s2p2                                                             
   LEXCH  = PE                                                                  
   EATOM  =   103.0669 eV,    7.5752 Ry                                         
                                                                                
   TITEL  = PAW_PBE Si 05Jan2001                                                
   LULTRA =        F    use ultrasoft PP ?                                      
   IUNSCR =        1    unscreen: 0-lin 1-nonlin 2-no                           
   RPACOR =    1.500    partial core radius                                     
   POMASS =   28.085; ZVAL   =    4.000    mass and valenz                      
   RCORE  =    1.900    outmost cutoff radius                                   
   RWIGS  =    2.480; RWIGS  =    1.312    wigner-seitz radius (au A)           
   ENMAX  =  245.345; ENMIN  =  184.009 eV                                      
   ICORE  =        2    local potential                                         
   LCOR   =        T    correct aug charges                                     
   LPAW   =        T    paw PP                                                  
   EAUG   =  322.069                                                            
   DEXC   =    -.007                                                            
   RMAX   =    2.944    core radius for proj-oper                               
   RAUG   =    1.300    factor for augmentation sphere                          
   RDEP   =    1.993    radius for radial grids                                 
   QCUT   =   -4.246; QGAM   =    8.493    optimization parameters              
                                                                                
   Description                                                                  
     l     E      TYP  RCUT    TYP  RCUT                                        
     0   .000     23  1.900                                                     
     0   .000     23  1.900                                                     
     1   .000     23  1.900                                                     
     1   .000     23  1.900                                                     
     2   .000      7  1.900                                                     
  local pseudopotential read in
  partial core-charges read in
  atomic valenz-charges read in
  non local Contribution for L=           0  read in
    real space projection operators read in
  non local Contribution for L=           0  read in
    real space projection operators read in
  non local Contribution for L=           1  read in
    real space projection operators read in
  non local Contribution for L=           1  read in
    real space projection operators read in
    PAW grid and wavefunctions read in
 
   number of l-projection  operators is LMAX  =           4
   number of lm-projection operators is LMMAX =           8
 
 Optimization of the real space projectors (new method)

 maximal supplied QI-value         = 19.84
 optimisation between [QCUT,QGAM] = [  8.73, 17.66] = [ 21.34, 87.33] Ry 
 Optimized for a Real-space Cutoff    1.50 Angstroem

   l    n(q)    QCUT    max X(q) W(low)/X(q) W(high)/X(q)  e(spline) 
   0      8     8.731     6.651    0.16E-04    0.15E-04    0.77E-08
   0      8     8.731    90.285    0.16E-03    0.90E-04    0.16E-06
   1      7     8.731     4.328    0.47E-04    0.36E-04    0.45E-07
   1      7     8.731    54.583    0.13E-03    0.39E-03    0.20E-06
 Optimization of the real space projectors (new method)

 maximal supplied QI-value         = 19.84
 optimisation between [QCUT,QGAM] = [  8.73, 17.66] = [ 21.34, 87.33] Ry 
 Optimized for a Real-space Cutoff    1.46 Angstroem

   l    n(q)    QCUT    max X(q) W(low)/X(q) W(high)/X(q)  e(spline) 
   0      8     8.731     8.708    0.16E-04    0.11E-04    0.68E-08
   0      8     8.731   106.241    0.24E-03    0.77E-04    0.13E-06
   1      7     8.731     5.901    0.34E-04    0.38E-04    0.36E-07
   1      7     8.731    73.241    0.12E-03    0.39E-03    0.15E-06

 ----------------------------------------------------------------------------- 
|                                                                             |
|  ADVICE TO THIS USER RUNNING 'VASP/VAMP'   (HEAR YOUR MASTER'S VOICE ...):  |
|                                                                             |
|      You enforced a specific xc-type in the INCAR file,                     |
|      a different type was found on the POTCAR file                          |
|          I HOPE YOU KNOW, WHAT YOU ARE  DOING                               |
|                                                                             |
 ----------------------------------------------------------------------------- 

  PAW_PBE P 17Jan2003                   :
 energy of atom  1       EATOM= -176.0430
 kinetic energy error for atom=    0.0040 (will be added to EATOM!!)
 PAW_PBE Si 05Jan2001                   :
 energy of atom  2       EATOM= -103.0669
 kinetic energy error for atom=    0.0021 (will be added to EATOM!!)
 
 
 POSCAR: Si12                                    
  positions in direct lattice
  No initial velocities read in
 exchange correlation table for  LEXCH =       42
   RHO(1)=    0.500       N(1)  =     2000
   RHO(2)=  100.500       N(2)  =     4000
 


--------------------------------------------------------------------------------------------------------


 ion  position               nearest neighbor table
   1  0.114  0.228  0.233-  15 2.28  21 2.29  21 2.29
   2  0.614  0.628  0.515-  16 2.28  22 2.29  22 2.29
   3  0.458  0.916  0.209-  21 2.28  13 2.30  13 2.30
   4  0.958  0.316  0.491-  22 2.28  14 2.30  14 2.30
   5  0.311  0.622  0.084-  17 2.28  23 2.30  23 2.30
   6  0.311  0.622  0.366-  18 2.28
   7  0.999  0.998  0.086-  19 2.29  19 2.29  13 2.32
   8  0.999  0.998  0.368-  24 1.83  20 2.29  20 2.29  24 2.89
   9  0.655  0.310  0.060-  19 2.28  17 2.29  17 2.29
  10  0.655  0.310  0.342-  20 2.28  18 2.29  18 2.29  14 2.79
  11  0.770  0.539  0.207-  15 2.29  15 2.29  23 2.32
  12  0.270  0.939  0.489-  16 2.29  16 2.29  24 2.32
  13  0.940  0.879  0.158-   3 2.30   3 2.30   7 2.32  23 2.35
  14  0.440  0.279  0.440-  20 2.20   4 2.30   4 2.30  18 2.31  24 2.35  10 2.79
  15  0.205  0.410  0.186-   1 2.28  11 2.29  11 2.29  17 2.37
  16  0.705  0.810  0.468-   2 2.28  12 2.29  12 2.29
  17  0.202  0.404  0.100-   5 2.28   9 2.29   9 2.29  15 2.37
  18  0.202  0.404  0.382-   6 2.28  10 2.29  10 2.29  14 2.31  22 3.00
  19  0.564  0.128  0.108-   9 2.28   7 2.29   7 2.29  21 2.37
  20  0.564  0.128  0.390-  24 1.26  14 2.20  10 2.28   8 2.29   8 2.29  24 3.02
  21  0.567  0.134  0.194-   3 2.28   1 2.29   1 2.29  19 2.37
  22  0.067  0.534  0.476-   4 2.28   2 2.29   2 2.29  18 3.00
  23  0.829  0.658  0.136-   5 2.30   5 2.30  11 2.32  13 2.35
  24  0.329  0.058  0.418-  20 1.26   8 1.83  12 2.32  14 2.35   8 2.89  20 3.02
 

 ----------------------------------------------------------------------------- 
|                                                                             |
|           W    W    AA    RRRRR   N    N  II  N    N   GGGG   !!!           |
|           W    W   A  A   R    R  NN   N  II  NN   N  G    G  !!!           |
|           W    W  A    A  R    R  N N  N  II  N N  N  G       !!!           |
|           W WW W  AAAAAA  RRRRR   N  N N  II  N  N N  G  GGG   !            |
|           WW  WW  A    A  R   R   N   NN  II  N   NN  G    G                |
|           W    W  A    A  R    R  N    N  II  N    N   GGGG   !!!           |
|                                                                             |
|      The distance between some ions is very small                           |
|      please check the nearest neigbor list in the OUTCAR file               |
|          I HOPE YOU KNOW, WHAT YOU ARE  DOING                               |
|                                                                             |
 ----------------------------------------------------------------------------- 

  LATTYP: Found a base centered orthorhombic cell.
 ALAT       =     3.5404000000
 B/A-ratio  =     5.8153587165
 C/A-ratio  =     7.7678875268
  
  Lattice vectors:
  
 A1 = (   1.7702000000,  10.2943480000,   0.0000000000)
 A2 = (   1.7702000000, -10.2943480000,   0.0000000000)
 A3 = (   0.0000000000,   0.0000000000, -27.5014290000)


Analysis of symmetry for initial positions (statically):
=====================================================================
 Subroutine PRICEL returns:
 Original cell was already a primitive cell.
 

 Routine SETGRP: Setting up the symmetry group for a 
 base centered orthorhombic supercell.


 Subroutine GETGRP returns: Found  1 space group operations
 (whereof  1 operations were pure point group operations)
 out of a pool of  8 trial point group operations.


The static configuration has the point symmetry C_1 .


Analysis of symmetry for dynamics (positions and initial velocities):
=====================================================================
 Subroutine PRICEL returns:
 Original cell was already a primitive cell.
 

 Routine SETGRP: Setting up the symmetry group for a 
 base centered orthorhombic supercell.


 Subroutine GETGRP returns: Found  1 space group operations
 (whereof  1 operations were pure point group operations)
 out of a pool of  8 trial point group operations.


The dynamic configuration has the point symmetry C_1 .
 
 
 KPOINTS: pymatgen generated KPOINTS with grid den

Automatic generation of k-mesh.
Space group operators:
 irot       det(A)        alpha          n_x          n_y          n_z        tau_x        tau_y        tau_z
    1     1.000000     0.000000     1.000000     0.000000     0.000000     0.000000     0.000000     0.000000
 
 Subroutine IBZKPT returns following result:
 ===========================================
 
 Found     54 irreducible k-points:
 
 Following reciprocal coordinates:
            Coordinates               Weight
  0.000000  0.000000  0.000000      1.000000
  0.076923 -0.000000  0.000000      2.000000
  0.153846 -0.000000  0.000000      2.000000
  0.230769 -0.000000  0.000000      2.000000
  0.307692 -0.000000  0.000000      2.000000
  0.384615 -0.000000  0.000000      2.000000
  0.461538 -0.000000  0.000000      2.000000
  0.000000  0.250000  0.000000      2.000000
  0.076923  0.250000  0.000000      2.000000
  0.153846  0.250000  0.000000      2.000000
  0.230769  0.250000  0.000000      2.000000
  0.307692  0.250000  0.000000      2.000000
  0.384615  0.250000  0.000000      2.000000
  0.461538  0.250000  0.000000      2.000000
 -0.461538  0.250000  0.000000      2.000000
 -0.384615  0.250000  0.000000      2.000000
 -0.307692  0.250000  0.000000      2.000000
 -0.230769  0.250000  0.000000      2.000000
 -0.153846  0.250000  0.000000      2.000000
 -0.076923  0.250000  0.000000      2.000000
  0.000000  0.500000  0.000000      1.000000
  0.076923  0.500000  0.000000      2.000000
  0.153846  0.500000  0.000000      2.000000
  0.230769  0.500000  0.000000      2.000000
  0.307692  0.500000  0.000000      2.000000
  0.384615  0.500000  0.000000      2.000000
  0.461538  0.500000  0.000000      2.000000
  0.000000  0.000000  0.500000      1.000000
  0.076923 -0.000000  0.500000      2.000000
  0.153846 -0.000000  0.500000      2.000000
  0.230769 -0.000000  0.500000      2.000000
  0.307692 -0.000000  0.500000      2.000000
  0.384615 -0.000000  0.500000      2.000000
  0.461538 -0.000000  0.500000      2.000000
  0.000000  0.250000  0.500000      2.000000
  0.076923  0.250000  0.500000      2.000000
  0.153846  0.250000  0.500000      2.000000
  0.230769  0.250000  0.500000      2.000000
  0.307692  0.250000  0.500000      2.000000
  0.384615  0.250000  0.500000      2.000000
  0.461538  0.250000  0.500000      2.000000
 -0.461538  0.250000  0.500000      2.000000
 -0.384615  0.250000  0.500000      2.000000
 -0.307692  0.250000  0.500000      2.000000
 -0.230769  0.250000  0.500000      2.000000
 -0.153846  0.250000  0.500000      2.000000
 -0.076923  0.250000  0.500000      2.000000
  0.000000  0.500000  0.500000      1.000000
  0.076923  0.500000  0.500000      2.000000
  0.153846  0.500000  0.500000      2.000000
  0.230769  0.500000  0.500000      2.000000
  0.307692  0.500000  0.500000      2.000000
  0.384615  0.500000  0.500000      2.000000
  0.461538  0.500000  0.500000      2.000000
 
 Following cartesian coordinates:
            Coordinates               Weight
  0.000000  0.000000  0.000000      1.000000
  0.021727  0.003736  0.000000      2.000000
  0.043454  0.007472  0.000000      2.000000
  0.065182  0.011209  0.000000      2.000000
  0.086909  0.014945  0.000000      2.000000
  0.108636  0.018681  0.000000      2.000000
  0.130363  0.022417  0.000000      2.000000
  0.000000  0.024285  0.000000      2.000000
  0.021727  0.028021  0.000000      2.000000
  0.043454  0.031758  0.000000      2.000000
  0.065182  0.035494  0.000000      2.000000
  0.086909  0.039230  0.000000      2.000000
  0.108636  0.042966  0.000000      2.000000
  0.130363  0.046702  0.000000      2.000000
 -0.130363  0.001868  0.000000      2.000000
 -0.108636  0.005604  0.000000      2.000000
 -0.086909  0.009340  0.000000      2.000000
 -0.065182  0.013077  0.000000      2.000000
 -0.043454  0.016813  0.000000      2.000000
 -0.021727  0.020549  0.000000      2.000000
  0.000000  0.048570  0.000000      1.000000
  0.021727  0.052307  0.000000      2.000000
  0.043454  0.056043  0.000000      2.000000
  0.065182  0.059779  0.000000      2.000000
  0.086909  0.063515  0.000000      2.000000
  0.108636  0.067251  0.000000      2.000000
  0.130363  0.070987  0.000000      2.000000
  0.000000  0.000000  0.018181      1.000000
  0.021727  0.003736  0.018181      2.000000
  0.043454  0.007472  0.018181      2.000000
  0.065182  0.011209  0.018181      2.000000
  0.086909  0.014945  0.018181      2.000000
  0.108636  0.018681  0.018181      2.000000
  0.130363  0.022417  0.018181      2.000000
  0.000000  0.024285  0.018181      2.000000
  0.021727  0.028021  0.018181      2.000000
  0.043454  0.031758  0.018181      2.000000
  0.065182  0.035494  0.018181      2.000000
  0.086909  0.039230  0.018181      2.000000
  0.108636  0.042966  0.018181      2.000000
  0.130363  0.046702  0.018181      2.000000
 -0.130363  0.001868  0.018181      2.000000
 -0.108636  0.005604  0.018181      2.000000
 -0.086909  0.009340  0.018181      2.000000
 -0.065182  0.013077  0.018181      2.000000
 -0.043454  0.016813  0.018181      2.000000
 -0.021727  0.020549  0.018181      2.000000
  0.000000  0.048570  0.018181      1.000000
  0.021727  0.052307  0.018181      2.000000
  0.043454  0.056043  0.018181      2.000000
  0.065182  0.059779  0.018181      2.000000
  0.086909  0.063515  0.018181      2.000000
  0.108636  0.067251  0.018181      2.000000
  0.130363  0.070987  0.018181      2.000000
 


--------------------------------------------------------------------------------------------------------




 Dimension of arrays:
   k-points           NKPTS =     54   k-points in BZ     NKDIM =     54   number of bands    NBANDS=     68
   number of dos      NEDOS =    301   number of ions     NIONS =     24
   non local maximal  LDIM  =      4   non local SUM 2l+1 LMDIM =      8
   total plane-waves  NPLWV = 192000
   max r-space proj   IRMAX =   2772   max aug-charges    IRDMAX=   6603
   dimension x,y,z NGX =    20 NGY =   60 NGZ =  160
   dimension x,y,z NGXF=    40 NGYF=  120 NGZF=  320
   support grid    NGXF=    40 NGYF=  120 NGZF=  320
   ions per type =              12  12
 NGX,Y,Z   is equivalent  to a cutoff of   9.39,  9.55,  9.67 a.u.
 NGXF,Y,Z  is equivalent  to a cutoff of  18.78, 19.10, 19.34 a.u.


 I would recommend the setting:
   dimension x,y,z NGX =    20 NGY =   59 NGZ =  155
 SYSTEM =  unknown system                          
 POSCAR =  Si12                                    

 Startparameter for this run:
   NWRITE =      2    write-flag & timer
   PREC   = accura    normal or accurate (medium, high low for compatibility)
   ISTART =      0    job   : 0-new  1-cont  2-samecut
   ICHARG =      2    charge: 1-file 2-atom 10-const
   ISPIN  =      1    spin polarized calculation?
   LNONCOLLINEAR =      F non collinear calculations
   LSORBIT =      F    spin-orbit coupling
   INIWAV =      1    electr: 0-lowe 1-rand  2-diag
   LASPH  =      F    aspherical Exc in radial PAW
   METAGGA=      F    non-selfconsistent MetaGGA calc.

 Electronic Relaxation 1
   ENCUT  =  300.0 eV  22.05 Ry    4.70 a.u.   5.00 14.75 38.84*2*pi/ulx,y,z
   ENINI  =  300.0     initial cutoff
   ENAUG  =  342.9 eV  augmentation charge cutoff
   NELM   =     60;   NELMIN=  2; NELMDL= -5     # of ELM steps 
   EDIFF  = 0.1E-05   stopping-criterion for ELM
   LREAL  =      T    real-space projection
   NLSPLINE    = F    spline interpolate recip. space projectors
   LCOMPAT=      F    compatible to vasp.4.4
   GGA_COMPAT  = T    GGA compatible to vasp.4.4-vasp.4.6
   LMAXPAW     = -100 max onsite density
   LMAXMIX     =    2 max onsite mixed and CHGCAR
   VOSKOWN=      0    Vosko Wilk Nusair interpolation
   ROPT   =   -0.00025  -0.00025
 Ionic relaxation
   EDIFFG = 0.1E-04   stopping-criterion for IOM
   NSW    =      0    number of steps for IOM
   NBLOCK =      1;   KBLOCK =      1    inner block; outer block 
   IBRION =     -1    ionic relax: 0-MD 1-quasi-New 2-CG
   NFREE  =      1    steps in history (QN), initial steepest desc. (CG)
   ISIF   =      3    stress and relaxation
   IWAVPR =     10    prediction:  0-non 1-charg 2-wave 3-comb
   ISYM   =      2    0-nonsym 1-usesym 2-fastsym
   LCORR  =      T    Harris-Foulkes like correction to forces

   POTIM  = 0.5000    time-step for ionic-motion
   TEIN   =    0.0    initial temperature
   TEBEG  =    0.0;   TEEND  =   0.0 temperature during run
   SMASS  =  -3.00    Nose mass-parameter (am)
   estimated Nose-frequenzy (Omega)   =  0.10E-29 period in steps =****** mass=  -0.286E-27a.u.
   SCALEE = 1.0000    scale energy and forces
   NPACO  =    256;   APACO  = 16.0  distance and # of slots for P.C.
   PSTRESS=    0.0 pullay stress

  Mass of Ions in am
   POMASS =  30.97 28.09
  Ionic Valenz
   ZVAL   =   5.00  4.00
  Atomic Wigner-Seitz radii
   RWIGS  =  -1.00 -1.00
  virtual crystal weights 
   VCA    =   1.00  1.00
   NELECT =     108.0000    total number of electrons
   NUPDOWN=      -1.0000    fix difference up-down

 DOS related values:
   EMIN   =  10.00;   EMAX   =-10.00  energy-range for DOS
   EFERMI =   0.00
   ISMEAR =     0;   SIGMA  =   0.10  broadening in eV -4-tet -1-fermi 0-gaus

 Electronic relaxation 2 (details)
   IALGO  =     38    algorithm
   LDIAG  =      T    sub-space diagonalisation (order eigenvalues)
   LSUBROT=      F    optimize rotation matrix (better conditioning)
   TURBO    =      0    0=normal 1=particle mesh
   IRESTART =      0    0=no restart 2=restart with 2 vectors
   NREBOOT  =      0    no. of reboots
   NMIN     =      0    reboot dimension
   EREF     =   0.00    reference energy to select bands
   IMIX   =      4    mixing-type and parameters
     AMIX     =   0.40;   BMIX     =  1.00
     AMIX_MAG =   1.60;   BMIX_MAG =  1.00
     AMIN     =   0.10
     WC   =   100.;   INIMIX=   1;  MIXPRE=   1;  MAXMIX= -45

 Intra band minimization:
   WEIMIN = 0.0000     energy-eigenvalue tresh-hold
   EBREAK =  0.37E-08  absolut break condition
   DEPER  =   0.30     relativ break condition  

   TIME   =   0.40     timestep for ELM

  volume/ion in A,a.u.               =      41.76       281.83
  Fermi-wavevector in a.u.,A,eV,Ry     =   0.779018  1.472130  8.256946  0.606868
  Thomas-Fermi vector in A             =   1.882034
 
 Write flags
   LWAVE  =      F    write WAVECAR
   LCHARG =      F    write CHGCAR
   LVTOT  =      F    write LOCPOT, total local potential
   LVHAR  =      F    write LOCPOT, Hartree potential only
   LELF   =      F    write electronic localiz. function (ELF)
   LORBIT =      0    0 simple, 1 ext, 2 COOP (PROOUT)


 Dipole corrections
   LMONO  =      F    monopole corrections only (constant potential shift)
   LDIPOL =      F    correct potential (dipole corrections)
   IDIPOL =      0    1-x, 2-y, 3-z, 4-all directions 
   EPSILON=  1.0000000 bulk dielectric constant

 Exchange correlation treatment:
   GGA     =    BO    GGA type
   LEXCH   =    42    internal setting for exchange type
   VOSKOWN=      0    Vosko Wilk Nusair interpolation
   LHFCALC =     F    Hartree Fock is set to
   LHFONE  =     F    Hartree Fock one center treatment
   AEXX    =    0.0000 exact exchange contribution

 vdW DFT:
   LUSE_VDW   =     T    switch on vdW DFT
   Zab_VDW    =-.8491    correlation parameter
   PARAM1     =0.1833
   PARAM2     =0.2200
   PARAM3     =0.0000

 Linear response parameters
   LEPSILON=     F    determine dielectric tensor
   LRPA    =     F    only Hartree local field effects (RPA)
   LNABLA  =     F    use nabla operator in PAW spheres
   LVEL    =     F    velocity operator in full k-point grid
   LINTERFAST=   F  fast interpolation
   KINTER  =     0    interpolate to denser k-point grid
   CSHIFT  =0.1000    complex shift for real part using Kramers Kronig
   OMEGAMAX=  -1.0    maximum frequency
   DEG_THRESHOLD= 0.2000000E-02 threshold for treating states as degnerate
   RTIME   =    0.100 relaxation time in fs

 Orbital magnetization related:
   ORBITALMAG=     F  switch on orbital magnetization
   LCHIMAG   =     F  perturbation theory with respect to B field
   DQ        =  0.001000  dq finite difference perturbation B field



--------------------------------------------------------------------------------------------------------


 Static calculation
 charge density and potential will be updated during run
 non-spin polarized calculation
 Variant of blocked Davidson
 Davidson routine will perform the subspace rotation
 perform sub-space diagonalisation
    after iterative eigenvector-optimisation
 modified Broyden-mixing scheme, WC =      100.0
 initial mixing is a Kerker type mixing with AMIX =  0.4000 and BMIX =      1.0000
 Hartree-type preconditioning will be used
 using additional bands           14
 real space projection scheme for non local part
 use partial core corrections
 calculate Harris-corrections to forces 
   (improved forces if not selfconsistent)
 use gradient corrections 
 use of overlap-Matrix (Vanderbilt PP)
 Gauss-broadening in eV      SIGMA  =   0.10


--------------------------------------------------------------------------------------------------------


  energy-cutoff  :      300.00
  volume of cell :     1002.32
      direct lattice vectors                 reciprocal lattice vectors
     3.540400000  0.000000000  0.000000000     0.282453960  0.048570342  0.000000000
    -1.770200000 10.294348000  0.000000000     0.000000000  0.097140683  0.000000000
     0.000000000  0.000000000 27.501429000     0.000000000  0.000000000  0.036361747

  length of vectors
     3.540400000 10.445439617 27.501429000     0.286599577  0.097140683  0.036361747


 
 k-points in units of 2pi/SCALE and weight: pymatgen generated KPOINTS with grid den
   0.00000000  0.00000000  0.00000000       0.010
   0.02172723  0.00373618  0.00000000       0.019
   0.04345446  0.00747236  0.00000000       0.019
   0.06518168  0.01120854  0.00000000       0.019
   0.08690891  0.01494472  0.00000000       0.019
   0.10863614  0.01868090  0.00000000       0.019
   0.13036337  0.02241708  0.00000000       0.019
   0.00000000  0.02428517  0.00000000       0.019
   0.02172723  0.02802135  0.00000000       0.019
   0.04345446  0.03175753  0.00000000       0.019
   0.06518168  0.03549371  0.00000000       0.019
   0.08690891  0.03922989  0.00000000       0.019
   0.10863614  0.04296607  0.00000000       0.019
   0.13036337  0.04670225  0.00000000       0.019
  -0.13036337  0.00186809  0.00000000       0.019
  -0.10863614  0.00560427  0.00000000       0.019
  -0.08690891  0.00934045  0.00000000       0.019
  -0.06518168  0.01307663  0.00000000       0.019
  -0.04345446  0.01681281  0.00000000       0.019
  -0.02172723  0.02054899  0.00000000       0.019
   0.00000000  0.04857034  0.00000000       0.010
   0.02172723  0.05230652  0.00000000       0.019
   0.04345446  0.05604270  0.00000000       0.019
   0.06518168  0.05977888  0.00000000       0.019
   0.08690891  0.06351506  0.00000000       0.019
   0.10863614  0.06725124  0.00000000       0.019
   0.13036337  0.07098742  0.00000000       0.019
   0.00000000  0.00000000  0.01818087       0.010
   0.02172723  0.00373618  0.01818087       0.019
   0.04345446  0.00747236  0.01818087       0.019
   0.06518168  0.01120854  0.01818087       0.019
   0.08690891  0.01494472  0.01818087       0.019
   0.10863614  0.01868090  0.01818087       0.019
   0.13036337  0.02241708  0.01818087       0.019
   0.00000000  0.02428517  0.01818087       0.019
   0.02172723  0.02802135  0.01818087       0.019
   0.04345446  0.03175753  0.01818087       0.019
   0.06518168  0.03549371  0.01818087       0.019
   0.08690891  0.03922989  0.01818087       0.019
   0.10863614  0.04296607  0.01818087       0.019
   0.13036337  0.04670225  0.01818087       0.019
  -0.13036337  0.00186809  0.01818087       0.019
  -0.10863614  0.00560427  0.01818087       0.019
  -0.08690891  0.00934045  0.01818087       0.019
  -0.06518168  0.01307663  0.01818087       0.019
  -0.04345446  0.01681281  0.01818087       0.019
  -0.02172723  0.02054899  0.01818087       0.019
   0.00000000  0.04857034  0.01818087       0.010
   0.02172723  0.05230652  0.01818087       0.019
   0.04345446  0.05604270  0.01818087       0.019
   0.06518168  0.05977888  0.01818087       0.019
   0.08690891  0.06351506  0.01818087       0.019
   0.10863614  0.06725124  0.01818087       0.019
   0.13036337  0.07098742  0.01818087       0.019
 
 k-points in reciprocal lattice and weights: pymatgen generated KPOINTS with grid den
   0.00000000  0.00000000  0.00000000       0.010
   0.07692308 -0.00000000  0.00000000       0.019
   0.15384615 -0.00000000  0.00000000       0.019
   0.23076923 -0.00000000  0.00000000       0.019
   0.30769231 -0.00000000  0.00000000       0.019
   0.38461538 -0.00000000  0.00000000       0.019
   0.46153846 -0.00000000  0.00000000       0.019
   0.00000000  0.25000000  0.00000000       0.019
   0.07692308  0.25000000  0.00000000       0.019
   0.15384615  0.25000000  0.00000000       0.019
   0.23076923  0.25000000  0.00000000       0.019
   0.30769231  0.25000000  0.00000000       0.019
   0.38461538  0.25000000  0.00000000       0.019
   0.46153846  0.25000000  0.00000000       0.019
  -0.46153846  0.25000000  0.00000000       0.019
  -0.38461538  0.25000000  0.00000000       0.019
  -0.30769231  0.25000000  0.00000000       0.019
  -0.23076923  0.25000000  0.00000000       0.019
  -0.15384615  0.25000000  0.00000000       0.019
  -0.07692308  0.25000000  0.00000000       0.019
   0.00000000  0.50000000  0.00000000       0.010
   0.07692308  0.50000000  0.00000000       0.019
   0.15384615  0.50000000  0.00000000       0.019
   0.23076923  0.50000000  0.00000000       0.019
   0.30769231  0.50000000  0.00000000       0.019
   0.38461538  0.50000000  0.00000000       0.019
   0.46153846  0.50000000  0.00000000       0.019
   0.00000000  0.00000000  0.50000000       0.010
   0.07692308 -0.00000000  0.50000000       0.019
   0.15384615 -0.00000000  0.50000000       0.019
   0.23076923 -0.00000000  0.50000000       0.019
   0.30769231 -0.00000000  0.50000000       0.019
   0.38461538 -0.00000000  0.50000000       0.019
   0.46153846 -0.00000000  0.50000000       0.019
   0.00000000  0.25000000  0.50000000       0.019
   0.07692308  0.25000000  0.50000000       0.019
   0.15384615  0.25000000  0.50000000       0.019
   0.23076923  0.25000000  0.50000000       0.019
   0.30769231  0.25000000  0.50000000       0.019
   0.38461538  0.25000000  0.50000000       0.019
   0.46153846  0.25000000  0.50000000       0.019
  -0.46153846  0.25000000  0.50000000       0.019
  -0.38461538  0.25000000  0.50000000       0.019
  -0.30769231  0.25000000  0.50000000       0.019
  -0.23076923  0.25000000  0.50000000       0.019
  -0.15384615  0.25000000  0.50000000       0.019
  -0.07692308  0.25000000  0.50000000       0.019
   0.00000000  0.50000000  0.50000000       0.010
   0.07692308  0.50000000  0.50000000       0.019
   0.15384615  0.50000000  0.50000000       0.019
   0.23076923  0.50000000  0.50000000       0.019
   0.30769231  0.50000000  0.50000000       0.019
   0.38461538  0.50000000  0.50000000       0.019
   0.46153846  0.50000000  0.50000000       0.019
 
 position of ions in fractional coordinates (direct lattice) 
   0.11402300  0.22804500  0.23316207
   0.61402300  0.62804500  0.51499159
   0.45808900  0.91617900  0.20939482
   0.95808900  0.31617900  0.49122434
   0.31085400  0.62170900  0.08414979
   0.31085400  0.62170900  0.36597930
   0.99923000  0.99846000  0.08631254
   0.99923000  0.99846000  0.36814206
   0.65492700  0.30985400  0.06041748
   0.65492700  0.30985400  0.34224700
   0.76973800  0.53947500  0.20725292
   0.26973800  0.93947500  0.48908244
   0.93971600  0.87943300  0.15783749
   0.43971600  0.27943300  0.43966701
   0.20515200  0.41030300  0.18578822
   0.70515200  0.81030300  0.46761774
   0.20184900  0.40369900  0.09969156
   0.20184900  0.40369900  0.38152107
   0.56380500  0.12761000  0.10779021
   0.56380500  0.12761000  0.38961973
   0.56710600  0.13421200  0.19387616
   0.06710600  0.53421200  0.47570568
   0.82923400  0.65846800  0.13571444
   0.32923400  0.05846800  0.41754396
 
 position of ions in cartesian coordinates  (Angst):
   0.00000177  2.34757459  6.41229012
   1.06212177  6.46531379 14.16300462
  -0.00000177  9.43146546  5.75865686
   2.83231823  3.25485666 13.50937136
  -0.00000177  6.40008880  2.31423934
  -0.00000177  6.40008880 10.06495384
   1.77020000 10.27849470  2.37371832
   1.77020000 10.27849470 10.12443282
   1.77020000  3.18974491  1.66156717
   1.77020000  3.18974491  9.41228167
   1.77020177  5.55354339  5.69975143
  -0.70807823  9.67128259 13.45046593
   1.77019823  9.05318934  4.34075665
   1.06211823  2.87658054 12.09147115
   0.00000177  4.22380187  5.10944151
   1.06212177  8.34154107 12.86015601
  -0.00000177  4.15581799  2.74166024
  -0.00000177  4.15581799 10.49237474
   1.77020000  1.31366175  2.96438477
   1.77020000  1.31366175 10.71509927
   1.77020000  1.38162503  5.33187152
  -0.70808000  5.49936423 13.08258602
   1.77020000  6.77849874  3.73234107
   1.06212000  0.60188994 11.48305557
 


--------------------------------------------------------------------------------------------------------


 k-point  1 :   0.0000 0.0000 0.0000  plane waves:   11717
 k-point  2 :   0.0769-0.0000 0.0000  plane waves:   11762
 k-point  3 :   0.1538-0.0000 0.0000  plane waves:   11805
 k-point  4 :   0.2308-0.0000 0.0000  plane waves:   11824
 k-point  5 :   0.3077-0.0000 0.0000  plane waves:   11875
 k-point  6 :   0.3846-0.0000 0.0000  plane waves:   11864
 k-point  7 :   0.4615-0.0000 0.0000  plane waves:   11883
 k-point  8 :   0.0000 0.2500 0.0000  plane waves:   11683
 k-point  9 :   0.0769 0.2500 0.0000  plane waves:   11756
 k-point 10 :   0.1538 0.2500 0.0000  plane waves:   11807
 k-point 11 :   0.2308 0.2500 0.0000  plane waves:   11853
 k-point 12 :   0.3077 0.2500 0.0000  plane waves:   11866
 k-point 13 :   0.3846 0.2500 0.0000  plane waves:   11889
 k-point 14 :   0.4615 0.2500 0.0000  plane waves:   11885
 k-point 15 :  -0.4615 0.2500 0.0000  plane waves:   11886
 k-point 16 :  -0.3846 0.2500 0.0000  plane waves:   11867
 k-point 17 :  -0.3077 0.2500 0.0000  plane waves:   11849
 k-point 18 :  -0.2308 0.2500 0.0000  plane waves:   11827
 k-point 19 :  -0.1538 0.2500 0.0000  plane waves:   11801
 k-point 20 :  -0.0769 0.2500 0.0000  plane waves:   11757
 k-point 21 :   0.0000 0.5000 0.0000  plane waves:   11710
 k-point 22 :   0.0769 0.5000 0.0000  plane waves:   11762
 k-point 23 :   0.1538 0.5000 0.0000  plane waves:   11782
 k-point 24 :   0.2308 0.5000 0.0000  plane waves:   11841
 k-point 25 :   0.3077 0.5000 0.0000  plane waves:   11876
 k-point 26 :   0.3846 0.5000 0.0000  plane waves:   11889
 k-point 27 :   0.4615 0.5000 0.0000  plane waves:   11881
 k-point 28 :   0.0000 0.0000 0.5000  plane waves:   11698
 k-point 29 :   0.0769-0.0000 0.5000  plane waves:   11752
 k-point 30 :   0.1538-0.0000 0.5000  plane waves:   11800
 k-point 31 :   0.2308-0.0000 0.5000  plane waves:   11834
 k-point 32 :   0.3077-0.0000 0.5000  plane waves:   11850
 k-point 33 :   0.3846-0.0000 0.5000  plane waves:   11888
 k-point 34 :   0.4615-0.0000 0.5000  plane waves:   11896
 k-point 35 :   0.0000 0.2500 0.5000  plane waves:   11714
 k-point 36 :   0.0769 0.2500 0.5000  plane waves:   11754
 k-point 37 :   0.1538 0.2500 0.5000  plane waves:   11802
 k-point 38 :   0.2308 0.2500 0.5000  plane waves:   11840
 k-point 39 :   0.3077 0.2500 0.5000  plane waves:   11858
 k-point 40 :   0.3846 0.2500 0.5000  plane waves:   11896
 k-point 41 :   0.4615 0.2500 0.5000  plane waves:   11886
 k-point 42 :  -0.4615 0.2500 0.5000  plane waves:   11852
 k-point 43 :  -0.3846 0.2500 0.5000  plane waves:   11838
 k-point 44 :  -0.3077 0.2500 0.5000  plane waves:   11842
 k-point 45 :  -0.2308 0.2500 0.5000  plane waves:   11840
 k-point 46 :  -0.1538 0.2500 0.5000  plane waves:   11804
 k-point 47 :  -0.0769 0.2500 0.5000  plane waves:   11748
 k-point 48 :   0.0000 0.5000 0.5000  plane waves:   11724
 k-point 49 :   0.0769 0.5000 0.5000  plane waves:   11748
 k-point 50 :   0.1538 0.5000 0.5000  plane waves:   11814
 k-point 51 :   0.2308 0.5000 0.5000  plane waves:   11832
 k-point 52 :   0.3077 0.5000 0.5000  plane waves:   11868
 k-point 53 :   0.3846 0.5000 0.5000  plane waves:   11892
 k-point 54 :   0.4615 0.5000 0.5000  plane waves:   11878

 maximum and minimum number of plane-waves per node :      5964     5832

 maximum number of plane-waves:     11896
 maximum index in each direction: 
   IXMAX=    5   IYMAX=   14   IZMAX=   38
   IXMIN=   -5   IYMIN=  -15   IZMIN=  -39

 WARNING: aliasing errors must be expected set NGX to  22 to avoid them
 NGY is ok and might be reduce to  60
 NGZ is ok and might be reduce to 156
 aliasing errors are usually negligible using standard VASP settings
 and one can safely disregard these warnings

 real space projection operators:
  total allocation   :       3793.25 KBytes
  max/ min on nodes  :       1899.38       1893.88


 parallel 3D FFT for wavefunctions:
    minimum data exchange during FFTs selected (reduces bandwidth)
 parallel 3D FFT for charge:
    minimum data exchange during FFTs selected (reduces bandwidth)


 total amount of memory used by VASP on root node   146493. kBytes
========================================================================

   base      :      30000. kBytes
   nonlr-proj:       3452. kBytes
   fftplans  :       9347. kBytes
   grid      :      14649. kBytes
   one-center:         36. kBytes
   wavefun   :      89009. kBytes
 
     INWAV:  cpu time    0.00: real time    0.00
 Broyden mixing: mesh for mixing (old mesh)
   NGX =  9   NGY = 29   NGZ = 77
  (NGX  = 40   NGY  =120   NGZ  =320)
  gives a total of  20097 points

 initial charge density was supplied:
 charge density of overlapping atoms calculated
 number of electron     108.0000000 magnetization 
 keeping initial charge density in first step


--------------------------------------------------------------------------------------------------------


 Maximum index for non-local projection operator         1333
 Maximum index for augmentation-charges          822 (set IRDMAX)


--------------------------------------------------------------------------------------------------------


 First call to EWALD:  gamma=   0.177
 Maximum number of real-space cells 7x 3x 1
 Maximum number of reciprocal cells 1x 3x 7

 FEWALD executed in parallel
    FEWALD:  cpu time    0.00: real time    0.00


----------------------------------------- Iteration    1(   1)  ---------------------------------------


vdW kernel read from vdw_kernel.bindat
  0.0000  0.2424  0.5071  0.7962  1.1119  1.4567  1.8333  2.2446  2.6937  3.1842
  3.7199  4.3049  4.9438  5.6415  6.4036  7.2358  8.1446  9.1372 10.2212 11.4050
 12.6979 14.1099 15.6519 17.3360 19.1751 21.1837 23.3773 25.7729 28.3892 31.2465
 34.3669 37.7748 41.4965 45.5611 50.0000
 
    POTLOK:  cpu time   16.28: real time   16.29
    SETDIJ:  cpu time    0.01: real time    0.01
     EDDAV:  cpu time   71.58: real time   71.60
       DOS:  cpu time    0.01: real time    0.01
    --------------------------------------------
      LOOP:  cpu time   87.89: real time   87.92

 eigenvalue-minimisations  :  7376
 total energy-change (2. order) : 0.5282692E+03  (-0.2878353E+04)
 number of electron     108.0000000 magnetization 
 augmentation part      108.0000000 magnetization 

 Free energy of the ion-electron system (eV)
  ---------------------------------------------------
  alpha Z        PSCENC =        36.80884744
  Ewald energy   TEWEN  =     12048.17637673
  -Hartree energ DENC   =    -15048.22020628
  -exchange      EXHF   =         0.00000000
  -V(xc)+E(xc)   XCENC  =       -87.07807478
  PAW double counting   =      1056.43050070     -732.41190547
  entropy T*S    EENTRO =        -0.04409093
  eigenvalues    EBANDS =       -99.43352291
  atomic energy  EATOM  =      3354.04126044
  ---------------------------------------------------
  free energy    TOTEN  =       528.26918495 eV

  energy without entropy =      528.31327588  energy(sigma->0) =      528.29123042


--------------------------------------------------------------------------------------------------------




----------------------------------------- Iteration    1(   2)  ---------------------------------------


     EDDAV:  cpu time   88.55: real time   88.58
       DOS:  cpu time    0.01: real time    0.01
    --------------------------------------------
      LOOP:  cpu time   88.56: real time   88.60

 eigenvalue-minimisations  :  9768
 total energy-change (2. order) :-0.5685511E+03  (-0.5532697E+03)
 number of electron     108.0000000 magnetization 
 augmentation part      108.0000000 magnetization 

 Free energy of the ion-electron system (eV)
  ---------------------------------------------------
  alpha Z        PSCENC =        36.80884744
  Ewald energy   TEWEN  =     12048.17637673
  -Hartree energ DENC   =    -15048.22020628
  -exchange      EXHF   =         0.00000000
  -V(xc)+E(xc)   XCENC  =       -87.07807478
  PAW double counting   =      1056.43050070     -732.41190547
  entropy T*S    EENTRO =        -0.01863602
  eigenvalues    EBANDS =      -668.01010841
  atomic energy  EATOM  =      3354.04126044
  ---------------------------------------------------
  free energy    TOTEN  =       -40.28194564 eV

  energy without entropy =      -40.26330962  energy(sigma->0) =      -40.27262763


--------------------------------------------------------------------------------------------------------




----------------------------------------- Iteration    1(   3)  ---------------------------------------


     EDDAV:  cpu time   82.34: real time   82.35
       DOS:  cpu time    0.01: real time    0.01
    --------------------------------------------
      LOOP:  cpu time   82.35: real time   82.37

 eigenvalue-minimisations  :  8976
 total energy-change (2. order) :-0.5942776E+02  (-0.5846165E+02)
 number of electron     108.0000000 magnetization 
 augmentation part      108.0000000 magnetization 

 Free energy of the ion-electron system (eV)
  ---------------------------------------------------
  alpha Z        PSCENC =        36.80884744
  Ewald energy   TEWEN  =     12048.17637673
  -Hartree energ DENC   =    -15048.22020628
  -exchange      EXHF   =         0.00000000
  -V(xc)+E(xc)   XCENC  =       -87.07807478
  PAW double counting   =      1056.43050070     -732.41190547
  entropy T*S    EENTRO =        -0.03671684
  eigenvalues    EBANDS =      -727.41978792
  atomic energy  EATOM  =      3354.04126044
  ---------------------------------------------------
  free energy    TOTEN  =       -99.70970597 eV

  energy without entropy =      -99.67298913  energy(sigma->0) =      -99.69134755


--------------------------------------------------------------------------------------------------------




----------------------------------------- Iteration    1(   4)  ---------------------------------------


     EDDAV:  cpu time  102.78: real time  102.81
       DOS:  cpu time    0.01: real time    0.01
    --------------------------------------------
      LOOP:  cpu time  102.80: real time  102.82

 eigenvalue-minimisations  : 11840
 total energy-change (2. order) :-0.3174693E+01  (-0.3139634E+01)
 number of electron     108.0000000 magnetization 
 augmentation part      108.0000000 magnetization 

 Free energy of the ion-electron system (eV)
  ---------------------------------------------------
  alpha Z        PSCENC =        36.80884744
  Ewald energy   TEWEN  =     12048.17637673
  -Hartree energ DENC   =    -15048.22020628
  -exchange      EXHF   =         0.00000000
  -V(xc)+E(xc)   XCENC  =       -87.07807478
  PAW double counting   =      1056.43050070     -732.41190547
  entropy T*S    EENTRO =        -0.04338171
  eigenvalues    EBANDS =      -730.58781641
  atomic energy  EATOM  =      3354.04126044
  ---------------------------------------------------
  free energy    TOTEN  =      -102.88439933 eV

  energy without entropy =     -102.84101762  energy(sigma->0) =     -102.86270848


--------------------------------------------------------------------------------------------------------




----------------------------------------- Iteration    1(   5)  ---------------------------------------


     EDDAV:  cpu time   90.50: real time   90.52
       DOS:  cpu time    0.01: real time    0.01
    CHARGE:  cpu time    4.67: real time    4.67
    MIXING:  cpu time    0.01: real time    0.01
    --------------------------------------------
      LOOP:  cpu time   95.20: real time   95.22

 eigenvalue-minimisations  : 10120
 total energy-change (2. order) :-0.4882469E-01  (-0.4869841E-01)
 number of electron     107.9999996 magnetization 
 augmentation part       -9.8169615 magnetization 

 Broyden mixing:
  rms(total) = 0.13800E+01    rms(broyden)= 0.13795E+01
  rms(prec ) = 0.15113E+01
  weight for this iteration     100.00

 Free energy of the ion-electron system (eV)
  ---------------------------------------------------
  alpha Z        PSCENC =        36.80884744
  Ewald energy   TEWEN  =     12048.17637673
  -Hartree energ DENC   =    -15048.22020628
  -exchange      EXHF   =         0.00000000
  -V(xc)+E(xc)   XCENC  =       -87.07807478
  PAW double counting   =      1056.43050070     -732.41190547
  entropy T*S    EENTRO =        -0.04348975
  eigenvalues    EBANDS =      -730.63653306
  atomic energy  EATOM  =      3354.04126044
  ---------------------------------------------------
  free energy    TOTEN  =      -102.93322402 eV

  energy without entropy =     -102.88973427  energy(sigma->0) =     -102.91147915


--------------------------------------------------------------------------------------------------------




----------------------------------------- Iteration    1(   6)  ---------------------------------------


    POTLOK:  cpu time   14.79: real time   14.80
    SETDIJ:  cpu time    0.01: real time    0.01
     EDDAV:  cpu time   83.61: real time   83.63
       DOS:  cpu time    0.01: real time    0.01
    CHARGE:  cpu time    4.63: real time    4.63
    MIXING:  cpu time    0.01: real time    0.01
    --------------------------------------------
      LOOP:  cpu time  103.07: real time  103.10

 eigenvalue-minimisations  :  9108
 total energy-change (2. order) : 0.6057089E+01  (-0.2785829E+01)
 number of electron     107.9999995 magnetization 
 augmentation part       -9.5912370 magnetization 

 Broyden mixing:
  rms(total) = 0.63320E+00    rms(broyden)= 0.63315E+00
  rms(prec ) = 0.68998E+00
  weight for this iteration     100.00

 eigenvalues of (default mixing * dielectric matrix)
  average eigenvalue GAMMA=   1.3358
  1.3358

 Free energy of the ion-electron system (eV)
  ---------------------------------------------------
  alpha Z        PSCENC =        36.80884744
  Ewald energy   TEWEN  =     12048.17637673
  -Hartree energ DENC   =    -15109.06024474
  -exchange      EXHF   =         0.00000000
  -V(xc)+E(xc)   XCENC  =       -83.63362877
  PAW double counting   =      1134.72418244     -813.14413166
  entropy T*S    EENTRO =        -0.03612357
  eigenvalues    EBANDS =      -664.75267289
  atomic energy  EATOM  =      3354.04126044
  ---------------------------------------------------
  free energy    TOTEN  =       -96.87613458 eV

  energy without entropy =      -96.84001100  energy(sigma->0) =      -96.85807279


--------------------------------------------------------------------------------------------------------




----------------------------------------- Iteration    1(   7)  ---------------------------------------


    POTLOK:  cpu time   14.82: real time   14.82
    SETDIJ:  cpu time    0.01: real time    0.01
     EDDAV:  cpu time   77.85: real time   77.86
       DOS:  cpu time    0.01: real time    0.01
    CHARGE:  cpu time    4.60: real time    4.60
    MIXING:  cpu time    0.01: real time    0.01
    --------------------------------------------
      LOOP:  cpu time   97.31: real time   97.33

 eigenvalue-minimisations  :  8368
 total energy-change (2. order) :-0.2795441E+00  (-0.1532556E+01)
 number of electron     107.9999995 magnetization 
 augmentation part       -9.5161145 magnetization 

 Broyden mixing:
  rms(total) = 0.35980E+00    rms(broyden)= 0.35973E+00
  rms(prec ) = 0.38817E+00
  weight for this iteration     100.00

 eigenvalues of (default mixing * dielectric matrix)
  average eigenvalue GAMMA=   1.1488
  0.8467  1.4509

 Free energy of the ion-electron system (eV)
  ---------------------------------------------------
  alpha Z        PSCENC =        36.80884744
  Ewald energy   TEWEN  =     12048.17637673
  -Hartree energ DENC   =    -15118.03103826
  -exchange      EXHF   =         0.00000000
  -V(xc)+E(xc)   XCENC  =       -81.35804878
  PAW double counting   =      1177.26946277     -856.93692492
  entropy T*S    EENTRO =        -0.02552903
  eigenvalues    EBANDS =      -657.10008503
  atomic energy  EATOM  =      3354.04126044
  ---------------------------------------------------
  free energy    TOTEN  =       -97.15567863 eV

  energy without entropy =      -97.13014959  energy(sigma->0) =      -97.14291411


--------------------------------------------------------------------------------------------------------




----------------------------------------- Iteration    1(   8)  ---------------------------------------


    POTLOK:  cpu time   14.80: real time   14.80
    SETDIJ:  cpu time    0.01: real time    0.01
     EDDAV:  cpu time   81.53: real time   81.61
       DOS:  cpu time    0.01: real time    0.01
    CHARGE:  cpu time    4.59: real time    4.59
    MIXING:  cpu time    0.01: real time    0.01
    --------------------------------------------
      LOOP:  cpu time  100.96: real time  101.04

 eigenvalue-minimisations  :  8920
 total energy-change (2. order) : 0.5465260E-01  (-0.1914591E+00)
 number of electron     107.9999995 magnetization 
 augmentation part       -9.4940707 magnetization 

 Broyden mixing:
  rms(total) = 0.20034E+00    rms(broyden)= 0.20033E+00
  rms(prec ) = 0.21555E+00
  weight for this iteration     100.00

 eigenvalues of (default mixing * dielectric matrix)
  average eigenvalue GAMMA=   1.2701
  1.9354  1.1291  0.7459

 Free energy of the ion-electron system (eV)
  ---------------------------------------------------
  alpha Z        PSCENC =        36.80884744
  Ewald energy   TEWEN  =     12048.17637673
  -Hartree energ DENC   =    -15134.36071327
  -exchange      EXHF   =         0.00000000
  -V(xc)+E(xc)   XCENC  =       -80.16755683
  PAW double counting   =      1194.50260050     -874.65459783
  entropy T*S    EENTRO =        -0.03201834
  eigenvalues    EBANDS =      -641.41522488
  atomic energy  EATOM  =      3354.04126044
  ---------------------------------------------------
  free energy    TOTEN  =       -97.10102603 eV

  energy without entropy =      -97.06900768  energy(sigma->0) =      -97.08501685


--------------------------------------------------------------------------------------------------------




----------------------------------------- Iteration    1(   9)  ---------------------------------------


    POTLOK:  cpu time   14.70: real time   14.76
    SETDIJ:  cpu time    0.01: real time    0.01
     EDDAV:  cpu time   83.09: real time   83.11
       DOS:  cpu time    0.01: real time    0.01
    CHARGE:  cpu time    4.62: real time    4.62
    MIXING:  cpu time    0.01: real time    0.01
    --------------------------------------------
      LOOP:  cpu time  102.45: real time  102.53

 eigenvalue-minimisations  :  9080
 total energy-change (2. order) :-0.1626043E-01  (-0.6114072E-01)
 number of electron     107.9999995 magnetization 
 augmentation part       -9.4849550 magnetization 

 Broyden mixing:
  rms(total) = 0.96328E-01    rms(broyden)= 0.96319E-01
  rms(prec ) = 0.11346E+00
  weight for this iteration     100.00

 eigenvalues of (default mixing * dielectric matrix)
  average eigenvalue GAMMA=   1.2669
  2.4176  1.0222  1.0222  0.6056

 Free energy of the ion-electron system (eV)
  ---------------------------------------------------
  alpha Z        PSCENC =        36.80884744
  Ewald energy   TEWEN  =     12048.17637673
  -Hartree energ DENC   =    -15139.96433249
  -exchange      EXHF   =         0.00000000
  -V(xc)+E(xc)   XCENC  =       -79.33188865
  PAW double counting   =      1203.64156920     -884.07874342
  entropy T*S    EENTRO =        -0.03527991
  eigenvalues    EBANDS =      -636.37509580
  atomic energy  EATOM  =      3354.04126044
  ---------------------------------------------------
  free energy    TOTEN  =       -97.11728645 eV

  energy without entropy =      -97.08200655  energy(sigma->0) =      -97.09964650


--------------------------------------------------------------------------------------------------------




----------------------------------------- Iteration    1(  10)  ---------------------------------------


    POTLOK:  cpu time   14.73: real time   14.76
    SETDIJ:  cpu time    0.01: real time    0.01
     EDDAV:  cpu time   83.84: real time   83.86
       DOS:  cpu time    0.01: real time    0.01
    CHARGE:  cpu time    4.61: real time    4.61
    MIXING:  cpu time    0.01: real time    0.02
    --------------------------------------------
      LOOP:  cpu time  103.23: real time  103.50

 eigenvalue-minimisations  :  9224
 total energy-change (2. order) :-0.3255005E-02  (-0.2504578E-01)
 number of electron     107.9999995 magnetization 
 augmentation part       -9.4805531 magnetization 

 Broyden mixing:
  rms(total) = 0.38622E-01    rms(broyden)= 0.38614E-01
  rms(prec ) = 0.46891E-01
  weight for this iteration     100.00

 eigenvalues of (default mixing * dielectric matrix)
  average eigenvalue GAMMA=   1.2223
  2.5201  1.1116  1.1116  0.8351  0.5331

 Free energy of the ion-electron system (eV)
  ---------------------------------------------------
  alpha Z        PSCENC =        36.80884744
  Ewald energy   TEWEN  =     12048.17637673
  -Hartree energ DENC   =    -15148.20289679
  -exchange      EXHF   =         0.00000000
  -V(xc)+E(xc)   XCENC  =       -78.83228205
  PAW double counting   =      1207.68076079     -888.24736319
  entropy T*S    EENTRO =        -0.03525327
  eigenvalues    EBANDS =      -628.50999157
  atomic energy  EATOM  =      3354.04126044
  ---------------------------------------------------
  free energy    TOTEN  =       -97.12054146 eV

  energy without entropy =      -97.08528819  energy(sigma->0) =      -97.10291482


--------------------------------------------------------------------------------------------------------




----------------------------------------- Iteration    1(  11)  ---------------------------------------


    POTLOK:  cpu time   14.76: real time   14.76
    SETDIJ:  cpu time    0.01: real time    0.02
     EDDAV:  cpu time   83.08: real time   83.10
       DOS:  cpu time    0.01: real time    0.01
    CHARGE:  cpu time    4.58: real time    4.58
    MIXING:  cpu time    0.01: real time    0.01
    --------------------------------------------
      LOOP:  cpu time  102.46: real time  102.48

 eigenvalue-minimisations  :  9112
 total energy-change (2. order) : 0.7634354E-02  (-0.4368263E-02)
 number of electron     107.9999995 magnetization 
 augmentation part       -9.4803076 magnetization 

 Broyden mixing:
  rms(total) = 0.19126E-01    rms(broyden)= 0.19125E-01
  rms(prec ) = 0.20920E-01
  weight for this iteration     100.00

 eigenvalues of (default mixing * dielectric matrix)
  average eigenvalue GAMMA=   1.2735
  2.5182  1.7215  1.0706  1.0706  0.7391  0.5209

 Free energy of the ion-electron system (eV)
  ---------------------------------------------------
  alpha Z        PSCENC =        36.80884744
  Ewald energy   TEWEN  =     12048.17637673
  -Hartree energ DENC   =    -15148.34475295
  -exchange      EXHF   =         0.00000000
  -V(xc)+E(xc)   XCENC  =       -78.75625773
  PAW double counting   =      1206.75280160     -887.30213962
  entropy T*S    EENTRO =        -0.03547062
  eigenvalues    EBANDS =      -628.45357240
  atomic energy  EATOM  =      3354.04126044
  ---------------------------------------------------
  free energy    TOTEN  =       -97.11290710 eV

  energy without entropy =      -97.07743648  energy(sigma->0) =      -97.09517179


--------------------------------------------------------------------------------------------------------




----------------------------------------- Iteration    1(  12)  ---------------------------------------


    POTLOK:  cpu time   14.78: real time   14.78
    SETDIJ:  cpu time    0.02: real time    0.02
     EDDAV:  cpu time   81.81: real time   81.83
       DOS:  cpu time    0.01: real time    0.01
    CHARGE:  cpu time    4.60: real time    4.60
    MIXING:  cpu time    0.01: real time    0.01
    --------------------------------------------
      LOOP:  cpu time  101.23: real time  101.25

 eigenvalue-minimisations  :  8936
 total energy-change (2. order) : 0.1302306E-01  (-0.1134875E-02)
 number of electron     107.9999995 magnetization 
 augmentation part       -9.4833907 magnetization 

 Broyden mixing:
  rms(total) = 0.86641E-02    rms(broyden)= 0.86624E-02
  rms(prec ) = 0.10689E-01
  weight for this iteration     100.00

 eigenvalues of (default mixing * dielectric matrix)
  average eigenvalue GAMMA=   1.2527
  2.6150  1.8951  1.0871  1.0871  0.8735  0.6830  0.5280

 Free energy of the ion-electron system (eV)
  ---------------------------------------------------
  alpha Z        PSCENC =        36.80884744
  Ewald energy   TEWEN  =     12048.17637673
  -Hartree energ DENC   =    -15149.21953894
  -exchange      EXHF   =         0.00000000
  -V(xc)+E(xc)   XCENC  =       -78.74616840
  PAW double counting   =      1204.45819622     -884.94869783
  entropy T*S    EENTRO =        -0.03580897
  eigenvalues    EBANDS =      -627.63435075
  atomic energy  EATOM  =      3354.04126044
  ---------------------------------------------------
  free energy    TOTEN  =       -97.09988404 eV

  energy without entropy =      -97.06407507  energy(sigma->0) =      -97.08197956


--------------------------------------------------------------------------------------------------------




----------------------------------------- Iteration    1(  13)  ---------------------------------------


    POTLOK:  cpu time   14.75: real time   14.76
    SETDIJ:  cpu time    0.02: real time    0.02
     EDDAV:  cpu time   82.72: real time   82.73
       DOS:  cpu time    0.01: real time    0.01
    CHARGE:  cpu time    4.58: real time    4.58
    MIXING:  cpu time    0.01: real time    0.01
    --------------------------------------------
      LOOP:  cpu time  102.09: real time  102.12

 eigenvalue-minimisations  :  9080
 total energy-change (2. order) : 0.4500207E-02  (-0.1904190E-03)
 number of electron     107.9999995 magnetization 
 augmentation part       -9.4834797 magnetization 

 Broyden mixing:
  rms(total) = 0.41248E-02    rms(broyden)= 0.41243E-02
  rms(prec ) = 0.53156E-02
  weight for this iteration     100.00

 eigenvalues of (default mixing * dielectric matrix)
  average eigenvalue GAMMA=   1.2876
  2.6477  2.0882  1.1827  1.1827  0.9988  0.9988  0.6728  0.5289

 Free energy of the ion-electron system (eV)
  ---------------------------------------------------
  alpha Z        PSCENC =        36.80884744
  Ewald energy   TEWEN  =     12048.17637673
  -Hartree energ DENC   =    -15150.25105673
  -exchange      EXHF   =         0.00000000
  -V(xc)+E(xc)   XCENC  =       -78.73430860
  PAW double counting   =      1203.84247752     -884.31697850
  entropy T*S    EENTRO =        -0.03565704
  eigenvalues    EBANDS =      -626.62634510
  atomic energy  EATOM  =      3354.04126044
  ---------------------------------------------------
  free energy    TOTEN  =       -97.09538383 eV

  energy without entropy =      -97.05972679  energy(sigma->0) =      -97.07755531


--------------------------------------------------------------------------------------------------------




----------------------------------------- Iteration    1(  14)  ---------------------------------------


    POTLOK:  cpu time   14.76: real time   14.77
    SETDIJ:  cpu time    0.02: real time    0.02
     EDDAV:  cpu time   83.37: real time   83.39
       DOS:  cpu time    0.01: real time    0.01
    CHARGE:  cpu time    4.59: real time    4.59
    MIXING:  cpu time    0.02: real time    0.02
    --------------------------------------------
      LOOP:  cpu time  102.78: real time  102.80

 eigenvalue-minimisations  :  9176
 total energy-change (2. order) : 0.3605245E-02  (-0.6480582E-04)
 number of electron     107.9999995 magnetization 
 augmentation part       -9.4837181 magnetization 

 Broyden mixing:
  rms(total) = 0.22620E-02    rms(broyden)= 0.22616E-02
  rms(prec ) = 0.32797E-02
  weight for this iteration     100.00

 eigenvalues of (default mixing * dielectric matrix)
  average eigenvalue GAMMA=   1.3220
  2.7988  2.2966  1.4687  1.1154  1.1154  0.9587  0.9587  0.5301  0.6559

 Free energy of the ion-electron system (eV)
  ---------------------------------------------------
  alpha Z        PSCENC =        36.80884744
  Ewald energy   TEWEN  =     12048.17637673
  -Hartree energ DENC   =    -15151.06640590
  -exchange      EXHF   =         0.00000000
  -V(xc)+E(xc)   XCENC  =       -78.73083599
  PAW double counting   =      1203.33680866     -883.79825925
  entropy T*S    EENTRO =        -0.03572081
  eigenvalues    EBANDS =      -625.82384991
  atomic energy  EATOM  =      3354.04126044
  ---------------------------------------------------
  free energy    TOTEN  =       -97.09177859 eV

  energy without entropy =      -97.05605778  energy(sigma->0) =      -97.07391818


--------------------------------------------------------------------------------------------------------




----------------------------------------- Iteration    1(  15)  ---------------------------------------


    POTLOK:  cpu time   14.75: real time   14.77
    SETDIJ:  cpu time    0.01: real time    0.01
     EDDAV:  cpu time   83.30: real time   83.32
       DOS:  cpu time    0.01: real time    0.01
    CHARGE:  cpu time    4.58: real time    4.58
    MIXING:  cpu time    0.02: real time    0.02
    --------------------------------------------
      LOOP:  cpu time  102.67: real time  102.72

 eigenvalue-minimisations  :  9104
 total energy-change (2. order) : 0.1721741E-02  (-0.1561547E-04)
 number of electron     107.9999995 magnetization 
 augmentation part       -9.4834742 magnetization 

 Broyden mixing:
  rms(total) = 0.12191E-02    rms(broyden)= 0.12190E-02
  rms(prec ) = 0.20759E-02
  weight for this iteration     100.00

 eigenvalues of (default mixing * dielectric matrix)
  average eigenvalue GAMMA=   1.3461
  2.8213  2.4121  1.8194  1.1334  1.1334  1.0015  1.0015  0.9583  0.5304  0.6497

 Free energy of the ion-electron system (eV)
  ---------------------------------------------------
  alpha Z        PSCENC =        36.80884744
  Ewald energy   TEWEN  =     12048.17637673
  -Hartree energ DENC   =    -15151.82402942
  -exchange      EXHF   =         0.00000000
  -V(xc)+E(xc)   XCENC  =       -78.72569310
  PAW double counting   =      1203.10718200     -883.56336789
  entropy T*S    EENTRO =        -0.03567028
  eigenvalues    EBANDS =      -625.07496277
  atomic energy  EATOM  =      3354.04126044
  ---------------------------------------------------
  free energy    TOTEN  =       -97.09005685 eV

  energy without entropy =      -97.05438657  energy(sigma->0) =      -97.07222171


--------------------------------------------------------------------------------------------------------




----------------------------------------- Iteration    1(  16)  ---------------------------------------


    POTLOK:  cpu time   14.76: real time   14.77
    SETDIJ:  cpu time    0.01: real time    0.01
     EDDAV:  cpu time   78.00: real time   78.02
       DOS:  cpu time    0.01: real time    0.01
    CHARGE:  cpu time    4.56: real time    4.56
    MIXING:  cpu time    0.01: real time    0.02
    --------------------------------------------
      LOOP:  cpu time   97.37: real time   97.40

 eigenvalue-minimisations  :  8400
 total energy-change (2. order) : 0.2511566E-03  (-0.6794884E-05)
 number of electron     107.9999995 magnetization 
 augmentation part       -9.4832733 magnetization 

 Broyden mixing:
  rms(total) = 0.77138E-03    rms(broyden)= 0.77131E-03
  rms(prec ) = 0.13631E-02
  weight for this iteration     100.00

 eigenvalues of (default mixing * dielectric matrix)
  average eigenvalue GAMMA=   1.3906
  3.1898  2.6366  1.7900  1.4785  1.0887  1.0887  0.9917  0.9917  0.8666  0.5304
  0.6439

 Free energy of the ion-electron system (eV)
  ---------------------------------------------------
  alpha Z        PSCENC =        36.80884744
  Ewald energy   TEWEN  =     12048.17637673
  -Hartree energ DENC   =    -15152.48771299
  -exchange      EXHF   =         0.00000000
  -V(xc)+E(xc)   XCENC  =       -78.72250898
  PAW double counting   =      1203.06405341     -883.51959878
  entropy T*S    EENTRO =        -0.03569636
  eigenvalues    EBANDS =      -624.41482661
  atomic energy  EATOM  =      3354.04126044
  ---------------------------------------------------
  free energy    TOTEN  =       -97.08980569 eV

  energy without entropy =      -97.05410934  energy(sigma->0) =      -97.07195751


--------------------------------------------------------------------------------------------------------




----------------------------------------- Iteration    1(  17)  ---------------------------------------


    POTLOK:  cpu time   14.76: real time   14.77
    SETDIJ:  cpu time    0.02: real time    0.02
     EDDAV:  cpu time   76.79: real time   76.81
       DOS:  cpu time    0.01: real time    0.01
    CHARGE:  cpu time    4.59: real time    4.59
    MIXING:  cpu time    0.02: real time    0.02
    --------------------------------------------
      LOOP:  cpu time   96.19: real time   96.21

 eigenvalue-minimisations  :  8232
 total energy-change (2. order) : 0.5673208E-04  (-0.5167519E-05)
 number of electron     107.9999995 magnetization 
 augmentation part       -9.4831912 magnetization 

 Broyden mixing:
  rms(total) = 0.51931E-03    rms(broyden)= 0.51928E-03
  rms(prec ) = 0.85245E-03
  weight for this iteration     100.00

 eigenvalues of (default mixing * dielectric matrix)
  average eigenvalue GAMMA=   1.4788
  3.7906  2.6485  1.9710  1.9710  1.1282  1.1282  1.0591  1.0591  0.9078  0.9078
  0.5304  0.6443

 Free energy of the ion-electron system (eV)
  ---------------------------------------------------
  alpha Z        PSCENC =        36.80884744
  Ewald energy   TEWEN  =     12048.17637673
  -Hartree energ DENC   =    -15153.11984748
  -exchange      EXHF   =         0.00000000
  -V(xc)+E(xc)   XCENC  =       -78.71984298
  PAW double counting   =      1203.00808614     -883.46235879
  entropy T*S    EENTRO =        -0.03568720
  eigenvalues    EBANDS =      -623.78658329
  atomic energy  EATOM  =      3354.04126044
  ---------------------------------------------------
  free energy    TOTEN  =       -97.08974896 eV

  energy without entropy =      -97.05406176  energy(sigma->0) =      -97.07190536


--------------------------------------------------------------------------------------------------------




----------------------------------------- Iteration    1(  18)  ---------------------------------------


    POTLOK:  cpu time   14.79: real time   14.80
    SETDIJ:  cpu time    0.01: real time    0.01
     EDDAV:  cpu time   77.80: real time   77.82
       DOS:  cpu time    0.01: real time    0.01
    CHARGE:  cpu time    4.61: real time    4.61
    MIXING:  cpu time    0.02: real time    0.02
    --------------------------------------------
      LOOP:  cpu time   97.25: real time   97.27

 eigenvalue-minimisations  :  8368
 total energy-change (2. order) :-0.5149429E-03  (-0.1185884E-04)
 number of electron     107.9999995 magnetization 
 augmentation part       -9.4831555 magnetization 

 Broyden mixing:
  rms(total) = 0.28487E-03    rms(broyden)= 0.28484E-03
  rms(prec ) = 0.48032E-03
  weight for this iteration     100.00

 eigenvalues of (default mixing * dielectric matrix)
  average eigenvalue GAMMA=   1.5971
  5.1539  2.7389  2.3180  1.7778  1.4824  1.1275  1.1275  1.0049  1.0049  0.9257
  0.9257  0.5304  0.6449

 Free energy of the ion-electron system (eV)
  ---------------------------------------------------
  alpha Z        PSCENC =        36.80884744
  Ewald energy   TEWEN  =     12048.17637673
  -Hartree energ DENC   =    -15153.60063970
  -exchange      EXHF   =         0.00000000
  -V(xc)+E(xc)   XCENC  =       -78.71701512
  PAW double counting   =      1203.03101830     -883.48577329
  entropy T*S    EENTRO =        -0.03568356
  eigenvalues    EBANDS =      -623.30865514
  atomic energy  EATOM  =      3354.04126044
  ---------------------------------------------------
  free energy    TOTEN  =       -97.09026390 eV

  energy without entropy =      -97.05458034  energy(sigma->0) =      -97.07242212


--------------------------------------------------------------------------------------------------------




----------------------------------------- Iteration    1(  19)  ---------------------------------------


    POTLOK:  cpu time   14.77: real time   14.78
    SETDIJ:  cpu time    0.01: real time    0.01
     EDDAV:  cpu time   76.26: real time   76.28
       DOS:  cpu time    0.01: real time    0.01
    CHARGE:  cpu time    4.60: real time    4.60
    MIXING:  cpu time    0.02: real time    0.02
    --------------------------------------------
      LOOP:  cpu time   95.68: real time   95.71

 eigenvalue-minimisations  :  8128
 total energy-change (2. order) :-0.2128376E-03  (-0.9783537E-05)
 number of electron     107.9999995 magnetization 
 augmentation part       -9.4831231 magnetization 

 Broyden mixing:
  rms(total) = 0.16741E-03    rms(broyden)= 0.16738E-03
  rms(prec ) = 0.28202E-03
  weight for this iteration     100.00

 eigenvalues of (default mixing * dielectric matrix)
  average eigenvalue GAMMA=   1.6699
  6.0175  2.8749  2.5214  1.8315  1.7651  1.1414  1.1414  1.0785  1.0785  0.5304
  0.9361  0.9361  0.8811  0.6448

 Free energy of the ion-electron system (eV)
  ---------------------------------------------------
  alpha Z        PSCENC =        36.80884744
  Ewald energy   TEWEN  =     12048.17637673
  -Hartree energ DENC   =    -15153.88404332
  -exchange      EXHF   =         0.00000000
  -V(xc)+E(xc)   XCENC  =       -78.71564759
  PAW double counting   =      1203.04569169     -883.50067147
  entropy T*S    EENTRO =        -0.03568505
  eigenvalues    EBANDS =      -623.02660561
  atomic energy  EATOM  =      3354.04126044
  ---------------------------------------------------
  free energy    TOTEN  =       -97.09047674 eV

  energy without entropy =      -97.05479169  energy(sigma->0) =      -97.07263421


--------------------------------------------------------------------------------------------------------




----------------------------------------- Iteration    1(  20)  ---------------------------------------


    POTLOK:  cpu time   14.76: real time   14.77
    SETDIJ:  cpu time    0.01: real time    0.01
     EDDAV:  cpu time   66.66: real time   66.67
       DOS:  cpu time    0.01: real time    0.01
    CHARGE:  cpu time    4.59: real time    4.59
    MIXING:  cpu time    0.02: real time    0.02
    --------------------------------------------
      LOOP:  cpu time   86.05: real time   86.08

 eigenvalue-minimisations  :  6784
 total energy-change (2. order) :-0.6889528E-04  (-0.1415818E-05)
 number of electron     107.9999995 magnetization 
 augmentation part       -9.4831040 magnetization 

 Broyden mixing:
  rms(total) = 0.10256E-03    rms(broyden)= 0.10255E-03
  rms(prec ) = 0.18420E-03
  weight for this iteration     100.00

 eigenvalues of (default mixing * dielectric matrix)
  average eigenvalue GAMMA=   1.7224
  6.6012  3.0081  2.5772  1.7980  1.7980  1.6481  1.1387  1.1387  0.5304  0.6448
  0.9986  0.9986  1.0227  1.0227  0.9092

 Free energy of the ion-electron system (eV)
  ---------------------------------------------------
  alpha Z        PSCENC =        36.80884744
  Ewald energy   TEWEN  =     12048.17637673
  -Hartree energ DENC   =    -15154.01083064
  -exchange      EXHF   =         0.00000000
  -V(xc)+E(xc)   XCENC  =       -78.71503433
  PAW double counting   =      1203.05553209     -883.51069379
  entropy T*S    EENTRO =        -0.03568403
  eigenvalues    EBANDS =      -622.90031956
  atomic energy  EATOM  =      3354.04126044
  ---------------------------------------------------
  free energy    TOTEN  =       -97.09054563 eV

  energy without entropy =      -97.05486160  energy(sigma->0) =      -97.07270362


--------------------------------------------------------------------------------------------------------




----------------------------------------- Iteration    1(  21)  ---------------------------------------


    POTLOK:  cpu time   14.76: real time   14.77
    SETDIJ:  cpu time    0.01: real time    0.02
     EDDAV:  cpu time   66.61: real time   66.63
       DOS:  cpu time    0.01: real time    0.01
    CHARGE:  cpu time    4.66: real time    4.66
    MIXING:  cpu time    0.02: real time    0.02
    --------------------------------------------
      LOOP:  cpu time   86.08: real time   86.10

 eigenvalue-minimisations  :  6808
 total energy-change (2. order) :-0.1724930E-04  (-0.1480544E-05)
 number of electron     107.9999995 magnetization 
 augmentation part       -9.4830990 magnetization 

 Broyden mixing:
  rms(total) = 0.81627E-04    rms(broyden)= 0.81620E-04
  rms(prec ) = 0.12757E-03
  weight for this iteration     100.00

 eigenvalues of (default mixing * dielectric matrix)
  average eigenvalue GAMMA=   1.7705
  6.8443  3.3746  2.6575  2.4172  1.6779  1.6779  1.1417  1.1417  1.2206  1.2206
  0.5304  0.6448  0.9755  0.9755  0.9136  0.9136

 Free energy of the ion-electron system (eV)
  ---------------------------------------------------
  alpha Z        PSCENC =        36.80884744
  Ewald energy   TEWEN  =     12048.17637673
  -Hartree energ DENC   =    -15154.07977859
  -exchange      EXHF   =         0.00000000
  -V(xc)+E(xc)   XCENC  =       -78.71491009
  PAW double counting   =      1203.05475145     -883.50988819
  entropy T*S    EENTRO =        -0.03568545
  eigenvalues    EBANDS =      -622.83153664
  atomic energy  EATOM  =      3354.04126044
  ---------------------------------------------------
  free energy    TOTEN  =       -97.09056288 eV

  energy without entropy =      -97.05487744  energy(sigma->0) =      -97.07272016


--------------------------------------------------------------------------------------------------------




----------------------------------------- Iteration    1(  22)  ---------------------------------------


    POTLOK:  cpu time   14.78: real time   14.79
    SETDIJ:  cpu time    0.01: real time    0.01
     EDDAV:  cpu time   69.78: real time   69.80
       DOS:  cpu time    0.01: real time    0.01
    CHARGE:  cpu time    4.55: real time    4.55
    MIXING:  cpu time    0.02: real time    0.02
    --------------------------------------------
      LOOP:  cpu time   89.16: real time   89.17

 eigenvalue-minimisations  :  7192
 total energy-change (2. order) : 0.4647193E-04  (-0.2369338E-05)
 number of electron     107.9999995 magnetization 
 augmentation part       -9.4831031 magnetization 

 Broyden mixing:
  rms(total) = 0.44411E-04    rms(broyden)= 0.44407E-04
  rms(prec ) = 0.66083E-04
  weight for this iteration     100.00

 eigenvalues of (default mixing * dielectric matrix)
  average eigenvalue GAMMA=   1.8078
  6.9614  4.0685  2.8307  2.4826  1.7454  1.7454  1.1406  1.1406  1.3074  1.3074
  0.5304  0.6448  1.0024  1.0024  1.0018  0.9105  0.9105

 Free energy of the ion-electron system (eV)
  ---------------------------------------------------
  alpha Z        PSCENC =        36.80884744
  Ewald energy   TEWEN  =     12048.17637673
  -Hartree energ DENC   =    -15154.11757120
  -exchange      EXHF   =         0.00000000
  -V(xc)+E(xc)   XCENC  =       -78.71496264
  PAW double counting   =      1203.04851124     -883.50347778
  entropy T*S    EENTRO =        -0.03568370
  eigenvalues    EBANDS =      -622.79381696
  atomic energy  EATOM  =      3354.04126044
  ---------------------------------------------------
  free energy    TOTEN  =       -97.09051641 eV

  energy without entropy =      -97.05483271  energy(sigma->0) =      -97.07267456


--------------------------------------------------------------------------------------------------------




----------------------------------------- Iteration    1(  23)  ---------------------------------------


    POTLOK:  cpu time   14.80: real time   14.80
    SETDIJ:  cpu time    0.01: real time    0.01
     EDDAV:  cpu time   63.08: real time   63.10
       DOS:  cpu time    0.01: real time    0.01
    CHARGE:  cpu time    4.56: real time    4.56
    MIXING:  cpu time    0.02: real time    0.02
    --------------------------------------------
      LOOP:  cpu time   82.48: real time   82.50

 eigenvalue-minimisations  :  6288
 total energy-change (2. order) : 0.3607854E-04  (-0.1094791E-05)
 number of electron     107.9999995 magnetization 
 augmentation part       -9.4831068 magnetization 

[...]
     31      -4.0881      2.00000
     32      -3.9061      2.00000
     33      -3.8143      2.00000
     34      -3.5974      2.00000
     35      -3.3625      2.00000
     36      -3.3227      2.00000
     37      -3.2161      2.00000
     38      -3.1478      2.00000
     39      -2.9156      2.00000
     40      -2.7274      2.00000
     41      -2.6550      2.00000
     42      -2.6210      2.00000
     43      -2.4809      2.00000
     44      -2.3650      2.00000
     45      -2.0910      2.00000
     46      -1.9767      2.00000
     47      -1.8580      2.00000
     48      -1.5308      2.00000
     49      -1.4705      2.00000
     50      -1.1955      2.00000
     51      -1.0949      2.00000
     52      -0.4414      2.00000
     53      -0.3247      2.00000
     54      -0.1430      2.00000
     55       0.3449      0.03250
     56       1.0974      0.00000
     57       1.2261      0.00000
     58       1.3644      0.00000
     59       1.4997      0.00000
     60       1.6622      0.00000
     61       1.8997      0.00000
     62       2.1623      0.00000
     63       2.2653      0.00000
     64       2.5072      0.00000
     65       2.6296      0.00000
     66       2.8204      0.00000
     67       2.9666      0.00000
     68       3.0832      0.00000

 k-point    52 :       0.3077    0.5000    0.5000
  band No.  band energies     occupation 
      1     -14.2632      2.00000
      2     -12.5977      2.00000
      3     -12.4352      2.00000
      4     -12.2502      2.00000
      5     -11.7425      2.00000
      6     -11.6866      2.00000
      7     -11.2892      2.00000
      8     -11.1023      2.00000
      9     -10.8973      2.00000
     10     -10.5769      2.00000
     11     -10.4816      2.00000
     12     -10.1555      2.00000
     13      -9.2999      2.00000
     14      -9.0094      2.00000
     15      -8.3782      2.00000
     16      -7.8628      2.00000
     17      -7.3084      2.00000
     18      -7.1522      2.00000
     19      -7.0552      2.00000
     20      -6.8901      2.00000
     21      -6.2907      2.00000
     22      -6.2614      2.00000
     23      -6.0593      2.00000
     24      -6.0112      2.00000
     25      -5.5961      2.00000
     26      -5.4404      2.00000
     27      -4.9984      2.00000
     28      -4.9573      2.00000
     29      -4.5688      2.00000
     30      -4.4630      2.00000
     31      -4.3888      2.00000
     32      -4.1676      2.00000
     33      -4.0384      2.00000
     34      -3.6325      2.00000
     35      -3.4039      2.00000
     36      -3.3308      2.00000
     37      -3.2010      2.00000
     38      -3.1499      2.00000
     39      -2.9964      2.00000
     40      -2.8707      2.00000
     41      -2.7463      2.00000
     42      -2.6172      2.00000
     43      -2.5410      2.00000
     44      -2.3804      2.00000
     45      -2.2922      2.00000
     46      -2.0396      2.00000
     47      -1.9621      2.00000
     48      -1.8273      2.00000
     49      -1.6304      2.00000
     50      -1.4113      2.00000
     51      -1.1943      2.00000
     52      -0.8163      2.00000
     53      -0.5943      2.00000
     54      -0.3666      2.00000
     55       0.2478      0.44408
     56       0.9257      0.00000
     57       1.1753      0.00000
     58       1.2349      0.00000
     59       1.3556      0.00000
     60       1.5344      0.00000
     61       1.7405      0.00000
     62       1.9808      0.00000
     63       2.1203      0.00000
     64       2.2033      0.00000
     65       2.3764      0.00000
     66       2.4785      0.00000
     67       2.6584      0.00000
     68       2.8857      0.00000

 k-point    53 :       0.3846    0.5000    0.5000
  band No.  band energies     occupation 
      1     -13.9008      2.00000
      2     -12.1227      2.00000
      3     -12.0670      2.00000
      4     -11.7533      2.00000
      5     -11.4205      2.00000
      6     -11.3332      2.00000
      7     -10.9703      2.00000
      8     -10.8595      2.00000
      9     -10.7058      2.00000
     10     -10.5582      2.00000
     11     -10.5457      2.00000
     12     -10.1118      2.00000
     13      -9.3768      2.00000
     14      -8.9935      2.00000
     15      -8.8731      2.00000
     16      -8.3375      2.00000
     17      -7.7030      2.00000
     18      -7.6552      2.00000
     19      -7.4726      2.00000
     20      -7.1950      2.00000
     21      -6.8616      2.00000
     22      -6.8061      2.00000
     23      -6.7450      2.00000
     24      -6.3588      2.00000
     25      -5.4859      2.00000
     26      -5.3822      2.00000
     27      -5.0037      2.00000
     28      -4.7621      2.00000
     29      -4.6239      2.00000
     30      -4.4631      2.00000
     31      -4.2231      2.00000
     32      -4.1271      2.00000
     33      -4.0669      2.00000
     34      -3.6219      2.00000
     35      -3.5367      2.00000
     36      -3.5089      2.00000
     37      -3.2800      2.00000
     38      -3.2094      2.00000
     39      -3.1667      2.00000
     40      -2.9523      2.00000
     41      -2.8965      2.00000
     42      -2.6737      2.00000
     43      -2.5631      2.00000
     44      -2.3997      2.00000
     45      -2.3858      2.00000
     46      -2.2224      2.00000
     47      -2.1472      2.00000
     48      -1.9501      2.00000
     49      -1.7066      2.00000
     50      -1.5415      2.00000
     51      -1.3902      2.00000
     52      -1.1040      2.00000
     53      -0.8586      2.00000
     54      -0.3813      2.00000
     55       0.1065      1.78227
     56       0.8270      0.00000
     57       1.1650      0.00000
     58       1.2315      0.00000
     59       1.3476      0.00000
     60       1.4646      0.00000
     61       1.6266      0.00000
     62       1.7673      0.00000
     63       1.8437      0.00000
     64       2.0016      0.00000
     65       2.1127      0.00000
     66       2.2548      0.00000
     67       2.5154      0.00000
     68       2.6549      0.00000

 k-point    54 :       0.4615    0.5000    0.5000
  band No.  band energies     occupation 
      1     -13.6258      2.00000
      2     -11.8853      2.00000
      3     -11.5770      2.00000
      4     -11.2547      2.00000
      5     -11.2351      2.00000
      6     -11.0387      2.00000
      7     -10.9359      2.00000
      8     -10.8083      2.00000
      9     -10.7935      2.00000
     10     -10.7099      2.00000
     11     -10.5414      2.00000
     12      -9.9400      2.00000
     13      -9.6561      2.00000
     14      -9.0794      2.00000
     15      -8.7514      2.00000
     16      -8.5276      2.00000
     17      -8.2059      2.00000
     18      -7.8535      2.00000
     19      -7.6485      2.00000
     20      -7.4562      2.00000
     21      -7.3778      2.00000
     22      -7.2571      2.00000
     23      -7.2068      2.00000
     24      -6.5512      2.00000
     25      -5.3037      2.00000
     26      -5.0414      2.00000
     27      -5.0043      2.00000
     28      -4.5705      2.00000
     29      -4.4459      2.00000
     30      -4.2725      2.00000
     31      -4.1575      2.00000
     32      -4.0492      2.00000
     33      -3.9617      2.00000
     34      -3.8525      2.00000
     35      -3.7686      2.00000
     36      -3.6658      2.00000
     37      -3.6125      2.00000
     38      -3.3425      2.00000
     39      -3.1203      2.00000
     40      -3.0230      2.00000
     41      -2.9329      2.00000
     42      -2.7742      2.00000
     43      -2.5897      2.00000
     44      -2.5311      2.00000
     45      -2.4533      2.00000
     46      -2.2806      2.00000
     47      -2.1881      2.00000
     48      -1.8672      2.00000
     49      -1.7914      2.00000
     50      -1.6126      2.00000
     51      -1.5381      2.00000
     52      -1.1518      2.00000
     53      -0.9728      2.00000
     54      -0.3937      2.00000
     55       0.0146      1.98869
     56       0.8229      0.00000
     57       1.1543      0.00000
     58       1.2593      0.00000
     59       1.2749      0.00000
     60       1.4855      0.00000
     61       1.5302      0.00000
     62       1.6481      0.00000
     63       1.7349      0.00000
     64       1.8462      0.00000
     65       1.9702      0.00000
     66       2.2847      0.00000
     67       2.4011      0.00000
     68       2.6164      0.00000


--------------------------------------------------------------------------------------------------------


 soft charge-density along one line, spin component           1
         0         1         2         3         4         5         6         7         8         9
 total charge-density along one line
 
 pseudopotential strength for first ion, spin component:           1
 29.798   0.008  -0.001  -0.023  -0.001  -0.000  -0.001  -0.000
  0.008   0.009   0.000  -0.000   0.000  -0.000   0.000  -0.000
 -0.001   0.000   6.552  -0.001   0.000  -0.003   0.000  -0.000
 -0.023  -0.000  -0.001   6.547  -0.000   0.000  -0.003   0.000
 -0.001   0.000   0.000  -0.000   6.553  -0.000   0.000  -0.003
 -0.000  -0.000  -0.003   0.000  -0.000   0.015  -0.000   0.000
 -0.001   0.000   0.000  -0.003   0.000  -0.000   0.015   0.000
 -0.000  -0.000  -0.000   0.000  -0.003   0.000   0.000   0.015
 total augmentation occupancy for first ion, spin component:           1
  1.815  -0.354   0.005   0.253   0.001   0.003   0.115  -0.002
 -0.354   1.291   0.020   0.854   0.001   0.004  -0.433  -0.000
  0.005   0.020   1.143   0.011   0.000  -0.503   0.014  -0.000
  0.253   0.854   0.011   1.288   0.002   0.013  -0.418  -0.001
  0.001   0.001   0.000   0.002   1.145  -0.000  -0.001  -0.527
  0.003   0.004  -0.503   0.013  -0.000   0.291  -0.015   0.000
  0.115  -0.433   0.014  -0.418  -0.001  -0.015   0.227   0.000
 -0.002  -0.000  -0.000  -0.001  -0.527   0.000   0.000   0.325


------------------------ aborting loop because EDIFF is reached ----------------------------------------


    CHARGE:  cpu time    4.64: real time    4.64
    FORLOC:  cpu time    0.06: real time    0.06
    FORNL :  cpu time   21.17: real time   21.18
    STRESS:  cpu time   63.74: real time   63.75
    FORCOR:  cpu time   14.84: real time   14.84
    FORHAR:  cpu time    0.15: real time    0.15
    MIXING:  cpu time    0.02: real time    0.02
    OFIELD:  cpu time    0.00: real time    0.00

  FORCE on cell =-STRESS in cart. coord.  units (eV):
  Direction    XX          YY          ZZ          XY          YZ          ZX
  --------------------------------------------------------------------------------------
  Alpha Z    36.80885    36.80885    36.80885
  Ewald   14501.20520 13943.65447-16396.69068    50.37566   -62.75018   -24.19644
  Hartree 14987.72806 14576.06718-14409.66493     3.22738   -19.29322    -0.47872
  E(xc)    -360.65354  -360.50540  -359.33551    -0.38696     0.33410     0.07596
  Local  -31045.22067-30083.87941 29216.77640   -20.77973    54.36811    -6.28466
  n-local  1184.41758  1187.21363  1180.31228     7.87234    -6.39973     1.64489
  augment  -204.63987  -205.31234  -207.24919     2.25497    -1.96655    -1.96281
  Kinetic   944.72872   945.22443   995.35052    -7.08365     2.77544    -9.06099
  Fock        0.00000     0.00000     0.00000     0.00000     0.00000     0.00000
  -------------------------------------------------------------------------------------
  Total      44.37431    39.27141    56.30775    35.48000   -32.93203   -40.26276
  in kB      70.93094    62.77412    90.00617    56.71367   -52.64082   -64.35877
  external pressure =       74.57 kB  Pullay stress =        0.00 kB


 VOLUME and BASIS-vectors are now :
 -----------------------------------------------------------------------------
  energy-cutoff  :      300.00
  volume of cell :     1002.32
      direct lattice vectors                 reciprocal lattice vectors
     3.540400000  0.000000000  0.000000000     0.282453960  0.048570342  0.000000000
    -1.770200000 10.294348000  0.000000000     0.000000000  0.097140683  0.000000000
     0.000000000  0.000000000 27.501429000     0.000000000  0.000000000  0.036361747

  length of vectors
     3.540400000 10.445439617 27.501429000     0.286599577  0.097140683  0.036361747


 FORCES acting on ions
    electron-ion (+dipol)            ewald-force                    non-local-force                 convergence-correction
 -----------------------------------------------------------------------------------------------
   0.149E+00 0.545E+01 0.331E+02   -.239E-01 -.528E+01 -.286E+02   -.819E-01 -.182E+00 -.448E+01   -.115E-06 -.574E-05 -.835E-05
   -.286E+00 -.129E+02 -.549E+03   0.305E+00 0.131E+02 0.553E+03   -.958E-01 -.371E+00 -.402E+01   0.888E-06 -.708E-06 0.152E-04
   0.553E-02 0.671E+02 0.492E+02   0.597E-02 -.686E+02 -.450E+02   -.847E-02 0.156E+01 -.418E+01   -.314E-07 0.783E-05 -.298E-06
   0.597E+00 0.262E+02 -.556E+03   -.343E+00 -.275E+02 0.559E+03   -.956E+00 0.991E+00 -.290E+01   0.167E-06 -.855E-05 0.606E-06
   -.174E-02 -.573E+02 0.526E+03   0.883E-04 0.589E+02 -.530E+03   0.299E-03 -.154E+01 0.428E+01   0.800E-07 -.129E-04 -.155E-04
   -.666E+00 -.841E+02 -.888E+02   0.207E+00 0.866E+02 0.863E+02   0.229E+00 -.312E+01 0.389E+01   -.110E-06 0.207E-04 -.200E-05
   0.768E-02 0.543E+02 0.526E+03   -.166E-05 -.562E+02 -.531E+03   0.609E-03 0.192E+01 0.418E+01   0.287E-07 0.124E-04 -.592E-05
   0.274E+02 0.138E+03 -.248E+02   -.274E+02 -.139E+03 0.266E+02   -.308E+01 -.208E+01 -.964E+01   -.230E-05 -.148E-04 -.932E-05
   -.971E-03 0.152E+01 0.572E+03   -.823E-04 -.172E+01 -.577E+03   0.212E-02 0.206E+00 0.478E+01   0.104E-07 0.207E-05 -.255E-04
   -.288E+01 -.403E+02 0.219E+01   0.305E+01 0.397E+02 -.500E+01   0.960E+00 0.247E+00 0.201E+01   -.770E-06 -.107E-04 -.562E-05
   -.641E-02 -.665E+02 0.562E+02   0.732E-03 0.684E+02 -.521E+02   0.401E-02 -.192E+01 -.404E+01   0.536E-08 -.280E-05 -.962E-05
   -.168E-02 -.836E+01 -.524E+03   0.519E-01 0.927E+01 0.528E+03   -.155E+00 -.107E+01 -.277E+01   -.217E-06 0.668E-05 0.364E-05
   -.100E-01 0.322E+02 0.209E+03   -.340E-03 -.343E+02 -.209E+03   0.128E-01 0.212E+01 0.331E+00   0.129E-07 0.523E-05 -.506E-05
   -.143E+01 -.192E+02 -.310E+03   -.167E+01 0.213E+02 0.309E+03   0.167E+01 -.125E+00 0.365E+01   -.385E-06 -.376E-05 0.643E-05
   0.328E-02 -.143E+02 0.139E+03   -.712E-03 0.146E+02 -.141E+03   -.212E-02 -.260E+00 0.254E+01   -.171E-07 -.122E-04 -.911E-05
   0.124E+00 0.179E+02 -.287E+03   0.164E+00 -.173E+02 0.285E+03   -.317E+00 -.405E+00 0.123E+01   0.979E-07 0.653E-05 -.364E-05
   -.432E-02 -.567E+01 0.346E+03   0.590E-04 0.614E+01 -.343E+03   0.254E-02 -.470E+00 -.253E+01   0.154E-08 -.721E-05 -.214E-04
   0.673E+01 -.652E+02 -.123E+03   -.526E+01 0.662E+02 0.124E+03   -.115E+01 0.679E+00 -.203E+01   0.145E-05 -.933E-05 0.573E-05
   0.127E-01 0.984E+01 0.336E+03   0.392E-04 -.101E+02 -.333E+03   -.572E-02 0.237E+00 -.249E+01   0.872E-09 0.103E-04 -.109E-04
   -.517E+02 -.989E+01 -.897E+02   0.728E+02 0.268E+02 0.727E+02   0.300E+02 0.326E+02 -.413E+02   0.174E-05 -.113E-04 -.407E-05
   -.103E+00 0.114E+02 0.129E+03   0.347E-02 -.118E+02 -.132E+03   0.938E-01 0.405E+00 0.257E+01   0.485E-07 0.577E-05 -.226E-05
   0.226E+01 -.260E+02 -.316E+03   -.226E+01 0.263E+02 0.316E+03   0.937E-01 0.235E+00 -.975E+00   -.488E-06 -.524E-05 0.383E-05
   0.239E-02 -.313E+02 0.253E+03   -.996E-04 0.334E+02 -.253E+03   0.162E-03 -.213E+01 -.358E+00   -.968E-08 -.340E-05 -.130E-04
   0.219E+02 0.762E+02 -.302E+03   -.396E+02 -.988E+02 0.319E+03   -.292E+02 -.268E+02 0.463E+02   -.359E-05 -.685E-05 -.915E-05
 -----------------------------------------------------------------------------------------------
   0.207E+01 -.743E+00 0.599E+01   -.142E-13 0.568E-13 -.171E-12   -.206E+01 0.744E+00 -.599E+01   -.350E-05 -.380E-04 -.125E-03
 
 
 POSITION                                       TOTAL-FORCE (eV/Angst)
 -----------------------------------------------------------------------------------
      0.00000      2.34757      6.41229         0.042467     -0.020300      0.031162
      1.06212      6.46531     14.16300        -0.077278     -0.163186      0.098040
     -0.00000      9.43147      5.75866         0.002749     -0.015536      0.085717
      2.83232      3.25486     13.50937        -0.702912     -0.303379      0.805132
     -0.00000      6.40009      2.31424        -0.001633     -0.005302      0.009906
     -0.00000      6.40009     10.06495        -0.229839     -0.674971      1.353867
      1.77020     10.27849      2.37372         0.008009      0.005087      0.003179
      1.77020     10.27849     10.12443        -3.107303     -2.905700     -7.862546
      1.77020      3.18974      1.66157         0.000793     -0.000646      0.014503
      1.77020      3.18974      9.41228         1.128505     -0.330207     -0.800640
      1.77020      5.55354      5.69975        -0.001944      0.003829      0.094675
     -0.70808      9.67128     13.45047        -0.104751     -0.164787      0.326240
      1.77020      9.05319      4.34076         0.002213     -0.000236      0.010573
      1.06212      2.87658     12.09147        -1.431465      1.960401      2.466364
      0.00000      4.22380      5.10944         0.000166      0.015025      0.041132
      1.06212      8.34154     12.86016        -0.028902      0.238365     -0.369456
     -0.00000      4.15582      2.74166        -0.002008     -0.000119     -0.023189
     -0.00000      4.15582     10.49237         0.317220      1.695095     -1.178148
      1.77020      1.31366      2.96438         0.006697     -0.008477     -0.027714
      1.77020      1.31366     10.71510        51.065805     49.567561    -58.280575
      1.77020      1.38163      5.33187        -0.005606     -0.030493      0.023470
     -0.70808      5.49936     13.08259         0.092524      0.538758     -0.562640
      1.77020      6.77850      3.73234         0.002174      0.013696     -0.004619
      1.06212      0.60189     11.48306       -46.975683    -49.414480     63.745567
 -----------------------------------------------------------------------------------
    total drift:                                0.006680      0.001000      0.005536


--------------------------------------------------------------------------------------------------------



  FREE ENERGIE OF THE ION-ELECTRON SYSTEM (eV)
  ---------------------------------------------------
  free  energy   TOTEN  =       -97.09040114 eV

  energy  without entropy=      -97.05471686  energy(sigma->0) =      -97.07255900
 


--------------------------------------------------------------------------------------------------------


    POTLOK:  cpu time   14.82: real time   14.82


--------------------------------------------------------------------------------------------------------


     LOOP+:  cpu time 2652.06: real time 2653.29
    4ORBIT:  cpu time    0.00: real time    0.00

 total amount of memory used by VASP on root node   146493. kBytes
========================================================================

   base      :      30000. kBytes
   nonlr-proj:       3452. kBytes
   fftplans  :       9347. kBytes
   grid      :      14649. kBytes
   one-center:         36. kBytes
   wavefun   :      89009. kBytes
 
  
  
 General timing and accounting informations for this job:
 ========================================================
  
                  Total CPU time used (sec):     2669.568
                            User time (sec):     2636.769
                          System time (sec):       32.799
                         Elapsed time (sec):     2671.975
  
                   Maximum memory used (kb):      334968.
                   Average memory used (kb):           0.
  
                          Minor page faults:      8043459
                          Major page faults:            7
                 Voluntary context switches:         1560
