<?xml version="1.0" encoding="ISO-8859-1"?>
<modeling>
 <generator>
  <i name="program" type="string">vasp </i>
  <i name="version" type="string">5.3.5  </i>
  <i name="subversion" type="string">31Mar14 (build Oct 29 2014 16:16:03) complex                          parallel </i>
  <i name="platform" type="string">Linux-UFHPC </i>
  <i name="date" type="string">2016 02 09 </i>
  <i name="time" type="string">17:29:06 </i>
 </generator>
 <incar>
  <i type="string" name="PREC">accurate</i>
  <i type="int" name="IBRION">     2</i>
  <i name="EDIFF">      0.00000100</i>
  <i type="int" name="NSW">     0</i>
  <i type="int" name="ISIF">     3</i>
  <i name="ENCUT">    300.00000000</i>
  <i type="string" name="LREAL"> Auto</i>
  <i type="int" name="ISMEAR">     0</i>
  <i name="SIGMA">      0.10000000</i>
  <i type="logical" name="LWAVE"> F  </i>
  <i type="logical" name="LCHARG"> F  </i>
  <i type="logical" name="LAECHG"> F  </i>
  <i type="string" name="GGA"> Bo</i>
  <i name="PARAM1">      0.18333333</i>
  <i name="PARAM2">      0.22000000</i>
  <i type="logical" name="LUSE_VDW"> T  </i>
  <i name="AGGAC">      0.00000000</i>
 </incar>
 <kpoints>
  <generation param="Gamma">
   <v type="int" name="divisions">      13        4        2 </v>
   <v name="usershift">      0.00000000       0.00000000       0.00000000 </v>
   <v name="genvec1">      0.07692308      -0.00000000       0.00000000 </v>
   <v name="genvec2">      0.00000000       0.25000000       0.00000000 </v>
   <v name="genvec3">      0.00000000       0.00000000       0.50000000 </v>
   <v name="shift">      0.00000000       0.00000000       0.00000000 </v>
  </generation>
  <varray name="kpointlist" >
   <v>       0.00000000       0.00000000       0.00000000 </v>
   <v>       0.07692308      -0.00000000       0.00000000 </v>
   <v>       0.15384615      -0.00000000       0.00000000 </v>
   <v>       0.23076923      -0.00000000       0.00000000 </v>
   <v>       0.30769231      -0.00000000       0.00000000 </v>
   <v>       0.38461538      -0.00000000       0.00000000 </v>
   <v>       0.46153846      -0.00000000       0.00000000 </v>
   <v>       0.00000000       0.25000000       0.00000000 </v>
   <v>       0.07692308       0.25000000       0.00000000 </v>
   <v>       0.15384615       0.25000000       0.00000000 </v>
   <v>       0.23076923       0.25000000       0.00000000 </v>
   <v>       0.30769231       0.25000000       0.00000000 </v>
   <v>       0.38461538       0.25000000       0.00000000 </v>
   <v>       0.46153846       0.25000000       0.00000000 </v>
   <v>      -0.46153846       0.25000000       0.00000000 </v>
   <v>      -0.38461538       0.25000000       0.00000000 </v>
   <v>      -0.30769231       0.25000000       0.00000000 </v>
   <v>      -0.23076923       0.25000000       0.00000000 </v>
   <v>      -0.15384615       0.25000000       0.00000000 </v>
   <v>      -0.07692308       0.25000000       0.00000000 </v>
   <v>       0.00000000       0.50000000       0.00000000 </v>
   <v>       0.07692308       0.50000000       0.00000000 </v>
   <v>       0.15384615       0.50000000       0.00000000 </v>
   <v>       0.23076923       0.50000000       0.00000000 </v>
   <v>       0.30769231       0.50000000       0.00000000 </v>
   <v>       0.38461538       0.50000000       0.00000000 </v>
   <v>       0.46153846       0.50000000       0.00000000 </v>
   <v>       0.00000000       0.00000000       0.50000000 </v>
   <v>       0.07692308      -0.00000000       0.50000000 </v>
   <v>       0.15384615      -0.00000000       0.50000000 </v>
   <v>       0.23076923      -0.00000000       0.50000000 </v>
   <v>       0.30769231      -0.00000000       0.50000000 </v>
   <v>       0.38461538      -0.00000000       0.50000000 </v>
   <v>       0.46153846      -0.00000000       0.50000000 </v>
   <v>       0.00000000       0.25000000       0.50000000 </v>
   <v>       0.07692308       0.25000000       0.50000000 </v>
   <v>       0.15384615       0.25000000       0.50000000 </v>
   <v>       0.23076923       0.25000000       0.50000000 </v>
   <v>       0.30769231       0.25000000       0.50000000 </v>
   <v>       0.38461538       0.25000000       0.50000000 </v>
   <v>       0.46153846       0.25000000       0.50000000 </v>
   <v>      -0.46153846       0.25000000       0.50000000 </v>
   <v>      -0.38461538       0.25000000       0.50000000 </v>
   <v>      -0.30769231       0.25000000       0.50000000 </v>
   <v>      -0.23076923       0.25000000       0.50000000 </v>
   <v>      -0.15384615       0.25000000       0.50000000 </v>
   <v>      -0.07692308       0.25000000       0.50000000 </v>
   <v>       0.00000000       0.50000000       0.50000000 </v>
   <v>       0.07692308       0.50000000       0.50000000 </v>
   <v>       0.15384615       0.50000000       0.50000000 </v>
   <v>       0.23076923       0.50000000       0.50000000 </v>
   <v>       0.30769231       0.50000000       0.50000000 </v>
   <v>       0.38461538       0.50000000       0.50000000 </v>
   <v>       0.46153846       0.50000000       0.50000000 </v>
  </varray>
  <varray name="weights" >
   <v>       0.00961538 </v>
   <v>       0.01923077 </v>
   <v>       0.01923077 </v>
   <v>       0.01923077 </v>
   <v>       0.01923077 </v>
   <v>       0.01923077 </v>
   <v>       0.01923077 </v>
   <v>       0.01923077 </v>
   <v>       0.01923077 </v>
   <v>       0.01923077 </v>
   <v>       0.01923077 </v>
   <v>       0.01923077 </v>
   <v>       0.01923077 </v>
   <v>       0.01923077 </v>
   <v>       0.01923077 </v>
   <v>       0.01923077 </v>
   <v>       0.01923077 </v>
   <v>       0.01923077 </v>
   <v>       0.01923077 </v>
   <v>       0.01923077 </v>
   <v>       0.00961538 </v>
   <v>       0.01923077 </v>
   <v>       0.01923077 </v>
   <v>       0.01923077 </v>
   <v>       0.01923077 </v>
   <v>       0.01923077 </v>
   <v>       0.01923077 </v>
   <v>       0.00961538 </v>
   <v>       0.01923077 </v>
   <v>       0.01923077 </v>
   <v>       0.01923077 </v>
   <v>       0.01923077 </v>
   <v>       0.01923077 </v>
   <v>       0.01923077 </v>
   <v>       0.01923077 </v>
   <v>       0.01923077 </v>
   <v>       0.01923077 </v>
   <v>       0.01923077 </v>
   <v>       0.01923077 </v>
   <v>       0.01923077 </v>
   <v>       0.01923077 </v>
   <v>       0.01923077 </v>
   <v>       0.01923077 </v>
   <v>       0.01923077 </v>
   <v>       0.01923077 </v>
   <v>       0.01923077 </v>
   <v>       0.01923077 </v>
   <v>       0.00961538 </v>
   <v>       0.01923077 </v>
   <v>       0.01923077 </v>
   <v>       0.01923077 </v>
   <v>       0.01923077 </v>
   <v>       0.01923077 </v>
   <v>       0.01923077 </v>
  </varray>
 </kpoints>
 <parameters>
  <separator name="general" >
   <i type="string" name="SYSTEM">unknown system</i>
   <i type="logical" name="LCOMPAT"> F  </i>
  </separator>
  <separator name="electronic" >
   <i type="string" name="PREC">accura</i>
   <i name="ENMAX">    300.00000000</i>
   <i name="ENAUG">    342.92400000</i>
   <i name="EDIFF">      0.00000100</i>
   <i type="int" name="IALGO">    38</i>
   <i type="int" name="IWAVPR">    10</i>
   <i type="int" name="NBANDS">    68</i>
   <i name="NELECT">    108.00000000</i>
   <i type="int" name="TURBO">     0</i>
   <i type="int" name="IRESTART">     0</i>
   <i type="int" name="NREBOOT">     0</i>
   <i type="int" name="NMIN">     0</i>
   <i name="EREF">      0.00000000</i>
   <separator name="electronic smearing" >
    <i type="int" name="ISMEAR">     0</i>
    <i name="SIGMA">      0.10000000</i>
    <i name="KSPACING">      0.50000000</i>
    <i type="logical" name="KGAMMA"> T  </i>
   </separator>
   <separator name="electronic projectors" >
    <i type="logical" name="LREAL"> T  </i>
    <v name="ROPT">     -0.00025000     -0.00025000</v>
    <i type="int" name="LMAXPAW">  -100</i>
    <i type="int" name="LMAXMIX">     2</i>
    <i type="logical" name="NLSPLINE"> F  </i>
   </separator>
   <separator name="electronic startup" >
    <i type="int" name="ISTART">     0</i>
    <i type="int" name="ICHARG">     2</i>
    <i type="int" name="INIWAV">     1</i>
   </separator>
   <separator name="electronic spin" >
    <i type="int" name="ISPIN">     1</i>
    <i type="logical" name="LNONCOLLINEAR"> F  </i>
    <v name="MAGMOM">      1.00000000      1.00000000      1.00000000      1.00000000      1.00000000      1.00000000      1.00000000      1.00000000      1.00000000      1.00000000      1.00000000      1.00000000      1.00000000      1.00000000      1.00000000      1.00000000      1.00000000      1.00000000      1.00000000      1.00000000
      1.00000000      1.00000000      1.00000000      1.00000000</v>
    <i name="NUPDOWN">     -1.00000000</i>
    <i type="logical" name="LSORBIT"> F  </i>
    <v name="SAXIS">      0.00000000      0.00000000      1.00000000</v>
    <i type="logical" name="LSPIRAL"> F  </i>
    <v name="QSPIRAL">      0.00000000      0.00000000      0.00000000</v>
    <i type="logical" name="LZEROZ"> F  </i>
   </separator>
   <separator name="electronic exchange-correlation" >
    <i type="logical" name="LASPH"> F  </i>
    <i type="logical" name="LMETAGGA"> F  </i>
   </separator>
   <separator name="electronic convergence" >
    <i type="int" name="NELM">    60</i>
    <i type="int" name="NELMDL">    -5</i>
    <i type="int" name="NELMIN">     2</i>
    <i name="ENINI">    300.00000000</i>
    <separator name="electronic convergence detail" >
     <i type="logical" name="LDIAG"> T  </i>
     <i type="logical" name="LSUBROT"> F  </i>
     <i name="WEIMIN">      0.00000000</i>
     <i name="EBREAK">      0.00000000</i>
     <i name="DEPER">      0.30000000</i>
     <i type="int" name="NRMM">     4</i>
     <i name="TIME">      0.40000000</i>
    </separator>
   </separator>
   <separator name="electronic mixer" >
    <i name="AMIX">      0.40000000</i>
    <i name="BMIX">      1.00000000</i>
    <i name="AMIN">      0.10000000</i>
    <i name="AMIX_MAG">      1.60000000</i>
    <i name="BMIX_MAG">      1.00000000</i>
    <separator name="electronic mixer details" >
     <i type="int" name="IMIX">     4</i>
     <i type="int" name="MAXMIX">   -45</i>
     <i name="WC">    100.00000000</i>
     <i type="int" name="INIMIX">     1</i>
     <i type="int" name="MIXPRE">     1</i>
     <i type="int" name="MREMOVE">     5</i>
    </separator>
   </separator>
   <separator name="electronic dipolcorrection" >
    <i type="logical" name="LDIPOL"> F  </i>
    <i type="logical" name="LMONO"> F  </i>
    <i type="int" name="IDIPOL">     0</i>
    <i name="EPSILON">      1.00000000</i>
    <v name="DIPOL">   -100.00000000   -100.00000000   -100.00000000</v>
    <i name="EFIELD">      0.00000000</i>
   </separator>
  </separator>
  <separator name="grids" >
   <i type="int" name="NGX">    20</i>
   <i type="int" name="NGY">    60</i>
   <i type="int" name="NGZ">   160</i>
   <i type="int" name="NGXF">    40</i>
   <i type="int" name="NGYF">   120</i>
   <i type="int" name="NGZF">   320</i>
   <i type="logical" name="ADDGRID"> F  </i>
  </separator>
  <separator name="ionic" >
   <i type="int" name="NSW">     0</i>
   <i type="int" name="IBRION">    -1</i>
   <i type="int" name="ISIF">     3</i>
   <i name="PSTRESS">      0.00000000</i>
   <i name="EDIFFG">      0.00001000</i>
   <i type="int" name="NFREE">     1</i>
   <i name="POTIM">      0.50000000</i>
   <i name="SMASS">     -3.00000000</i>
   <i name="SCALEE">      1.00000000</i>
  </separator>
  <separator name="ionic md" >
   <i name="TEBEG">      0.00010000</i>
   <i name="TEEND">      0.00010000</i>
   <i type="int" name="NBLOCK">     1</i>
   <i type="int" name="KBLOCK">     1</i>
   <i type="int" name="NPACO">   256</i>
   <i name="APACO">     16.00000000</i>
  </separator>
  <separator name="symmetry" >
   <i type="int" name="ISYM">     2</i>
   <i name="SYMPREC">      0.00001000</i>
  </separator>
  <separator name="dos" >
   <i type="logical" name="LORBIT"> F  </i>
   <v name="RWIGS">     -1.00000000     -1.00000000</v>
   <i type="int" name="NEDOS">   301</i>
   <i name="EMIN">     10.00000000</i>
   <i name="EMAX">    -10.00000000</i>
   <i name="EFERMI">      0.00000000</i>
  </separator>
  <separator name="writing" >
   <i type="int" name="NWRITE">     2</i>
   <i type="logical" name="LWAVE"> F  </i>
   <i type="logical" name="LCHARG"> F  </i>
   <i type="logical" name="LPARD"> F  </i>
   <i type="logical" name="LVTOT"> F  </i>
   <i type="logical" name="LVHAR"> F  </i>
   <i type="logical" name="LELF"> F  </i>
   <i type="logical" name="LOPTICS"> F  </i>
   <v name="STM">      0.00000000      0.00000000      0.00000000      0.00000000      0.00000000      0.00000000      0.00000000</v>
  </separator>
  <separator name="performance" >
   <i type="int" name="NPAR">     4</i>
   <i type="int" name="NSIM">     4</i>
   <i type="int" name="NBLK">    -1</i>
   <i type="logical" name="LPLANE"> T  </i>
   <i type="logical" name="LSCALAPACK"> T  </i>
   <i type="logical" name="LSCAAWARE"> F  </i>
   <i type="logical" name="LSCALU"> F  </i>
   <i type="logical" name="LASYNC"> F  </i>
   <i type="logical" name="LORBITALREAL"> F  </i>
  </separator>
  <separator name="miscellaneous" >
   <i type="int" name="IDIOT">     3</i>
   <i type="logical" name="LMUSIC"> F  </i>
   <v name="POMASS">     30.97400000     28.08500000</v>
   <v name="DARWINR">      0.00000000      0.00000000</v>
   <v name="DARWINV">      1.00000000      1.00000000</v>
   <i type="logical" name="LCORR"> T  </i>
  </separator>
  <i type="logical" name="GGA_COMPAT"> T  </i>
  <i type="logical" name="LBERRY"> F  </i>
  <i type="int" name="ICORELEVEL">     0</i>
  <i type="logical" name="LDAU"> F  </i>
  <i type="int" name="I_CONSTRAINED_M">     0</i>
  <separator name="electronic exchange-correlation" >
   <i type="string" name="GGA">BO</i>
   <i type="int" name="VOSKOWN">     0</i>
   <i type="logical" name="LHFCALC"> F  </i>
   <i type="string" name="PRECFOCK"></i>
   <i type="logical" name="LSYMGRAD"> F  </i>
   <i type="logical" name="LHFONE"> F  </i>
   <i type="logical" name="LRHFCALC"> F  </i>
   <i type="logical" name="LTHOMAS"> F  </i>
   <i type="logical" name="LMODELHF"> F  </i>
   <i name="ENCUT4O">     -1.00000000</i>
   <i type="int" name="EXXOEP">     0</i>
   <i type="int" name="FOURORBIT">     0</i>
   <i name="AEXX">      0.00000000</i>
   <i name="HFALPHA">      0.00000000</i>
   <i name="MCALPHA">      0.00000000</i>
   <i name="ALDAX">      1.00000000</i>
   <i name="AGGAX">      1.00000000</i>
   <i name="ALDAC">      1.00000000</i>
   <i name="AGGAC">      0.00000000</i>
   <i type="int" name="NKREDX">     1</i>
   <i type="int" name="NKREDY">     1</i>
   <i type="int" name="NKREDZ">     1</i>
   <i type="logical" name="SHIFTRED"> F  </i>
   <i type="logical" name="ODDONLY"> F  </i>
   <i type="logical" name="EVENONLY"> F  </i>
   <i type="int" name="LMAXFOCK">     0</i>
   <i type="int" name="NMAXFOCKAE">     0</i>
   <i type="logical" name="LFOCKAEDFT"> F  </i>
   <i name="HFSCREEN">      0.00000000</i>
   <i name="HFSCREENC">      0.00000000</i>
   <i type="int" name="NBANDSGWLOW">     0</i>
  </separator>
  <separator name="vdW DFT" >
   <i type="logical" name="LUSE_VDW"> T  </i>
   <i name="Zab_VDW">     -0.84910000</i>
   <i name="PARAM1">      0.18333333</i>
   <i name="PARAM2">      0.22000000</i>
   <i name="PARAM3">      0.00000000</i>
  </separator>
  <separator name="model GW" >
   <i type="int" name="MODEL_GW">     0</i>
   <i name="MODEL_EPS0">     25.05800243</i>
   <i name="MODEL_ALPHA">      1.00000000</i>
  </separator>
  <separator name="linear response parameters" >
   <i type="logical" name="LEPSILON"> F  </i>
   <i type="logical" name="LRPA"> F  </i>
   <i type="logical" name="LNABLA"> F  </i>
   <i type="logical" name="LVEL"> F  </i>
   <i type="int" name="KINTER">     0</i>
   <i name="CSHIFT">      0.10000000</i>
   <i name="OMEGAMAX">     -1.00000000</i>
   <i name="DEG_THRESHOLD">      0.00200000</i>
  </separator>
  <separator name="orbital magnetization" >
   <i type="logical" name="NUCIND"> F  </i>
   <v name="MAGPOS">      0.00000000      0.00000000      0.00000000</v>
   <i type="logical" name="LNICSALL"> T  </i>
   <i type="logical" name="ORBITALMAG"> F  </i>
   <i type="logical" name="LMAGBLOCH"> F  </i>
   <i type="logical" name="LCHIMAG"> F  </i>
   <i type="logical" name="LGAUGE"> T  </i>
   <i type="int" name="MAGATOM">     0</i>
   <v name="MAGDIPOL">      0.00000000      0.00000000      0.00000000</v>
   <v name="AVECCONST">      0.00000000      0.00000000      0.00000000</v>
  </separator>
  <separator name="response functions" >
   <i type="logical" name="LADDER"> F  </i>
   <i type="logical" name="LFXC"> F  </i>
   <i type="logical" name="LHARTREE"> T  </i>
   <i type="int" name="IBSE">     0</i>
   <i type="logical" name="LTCTE"> F  </i>
   <i type="logical" name="LTETE"> F  </i>
   <i type="logical" name="LTRIPLET"> F  </i>
   <i type="logical" name="LFXCEPS"> F  </i>
   <i type="logical" name="LFXHEG"> F  </i>
   <i type="logical" name="L2ORDER"> F  </i>
   <i type="logical" name="LUSEW"> F  </i>
   <i name="ENCUTGW">     -2.00000000</i>
   <i name="ENCUTGWSOFT">     -2.00000000</i>
   <i name="ENCUTLF">     -1.00000000</i>
   <i type="int" name="LMAXMP2">    -1</i>
   <i name="SCISSOR">      0.00000000</i>
   <i type="int" name="NOMEGA">     0</i>
   <i type="int" name="NOMEGAR">     0</i>
   <i type="int" name="NBANDSGW">    -1</i>
   <i type="int" name="NBANDSO">    -1</i>
   <i type="int" name="NBANDSV">    -1</i>
   <i type="int" name="NELM">     1</i>
   <i type="int" name="DIM">     3</i>
   <i type="int" name="ANTIRES">     0</i>
   <i name="OMEGAMAX">    -30.00000000</i>
   <i name="OMEGAMIN">    -30.00000000</i>
   <i name="OMEGATL">   -200.00000000</i>
   <i type="int" name="OMEGAGRID">     0</i>
   <i name="CSHIFT">     -0.10000000</i>
   <i type="logical" name="SELFENERGY"> F  </i>
   <i type="logical" name="LSPECTRAL"> F  </i>
   <i type="logical" name="ODDONLYGW"> F  </i>
   <i type="logical" name="EVENONLYGW"> F  </i>
   <i type="int" name="NKREDLFX">     1</i>
   <i type="int" name="NKREDLFY">     1</i>
   <i type="int" name="NKREDLFZ">     1</i>
   <i type="int" name="MAXMEM">  1800</i>
   <i type="int" name="TELESCOPE">     0</i>
   <i type="int" name="TAUPAR">     1</i>
  </separator>
  <separator name="External order field" >
   <i name="OFIELD_KAPPA">      0.00000000</i>
   <v name="OFIELD_K">      0.00000000      0.00000000      0.00000000</v>
   <i name="OFIELD_Q6_NEAR">      0.00000000</i>
   <i name="OFIELD_Q6_FAR">      0.00000000</i>
   <i name="OFIELD_A">      0.00000000</i>
  </separator>
 </parameters>
 <atominfo>
  <atoms>      24 </atoms>
  <types>       2 </types>
  <array name="atoms" >
   <dimension dim="1">ion</dimension>
   <field type="string">element</field>
   <field type="int">atomtype</field>
   <set>
    <rc><c>P </c><c>   1</c></rc>
    <rc><c>P </c><c>   1</c></rc>
    <rc><c>P </c><c>   1</c></rc>
    <rc><c>P </c><c>   1</c></rc>
    <rc><c>P </c><c>   1</c></rc>
    <rc><c>P </c><c>   1</c></rc>
    <rc><c>P </c><c>   1</c></rc>
    <rc><c>P </c><c>   1</c></rc>
    <rc><c>P </c><c>   1</c></rc>
    <rc><c>P </c><c>   1</c></rc>
    <rc><c>P </c><c>   1</c></rc>
    <rc><c>P </c><c>   1</c></rc>
    <rc><c>Si</c><c>   2</c></rc>
    <rc><c>Si</c><c>   2</c></rc>
    <rc><c>Si</c><c>   2</c></rc>
    <rc><c>Si</c><c>   2</c></rc>
    <rc><c>Si</c><c>   2</c></rc>
    <rc><c>Si</c><c>   2</c></rc>
    <rc><c>Si</c><c>   2</c></rc>
    <rc><c>Si</c><c>   2</c></rc>
    <rc><c>Si</c><c>   2</c></rc>
    <rc><c>Si</c><c>   2</c></rc>
    <rc><c>Si</c><c>   2</c></rc>
    <rc><c>Si</c><c>   2</c></rc>
   </set>
  </array>
  <array name="atomtypes" >
   <dimension dim="1">type</dimension>
   <field type="int">atomspertype</field>
   <field type="string">element</field>
   <field>mass</field>
   <field>valence</field>
   <field type="string">pseudopotential</field>
   <set>
    <rc><c>  12</c><c>P </c><c>     30.97400000</c><c>      5.00000000</c><c>  PAW_PBE P 17Jan2003                   </c></rc>
    <rc><c>  12</c><c>Si</c><c>     28.08500000</c><c>      4.00000000</c><c> PAW_PBE Si 05Jan2001                   </c></rc>
   </set>
  </array>
 </atominfo>
 <structure name="initialpos" >
  <crystal>
   <varray name="basis" >
    <v>       3.54040000       0.00000000       0.00000000 </v>
    <v>      -1.77020000      10.29434800       0.00000000 </v>
    <v>       0.00000000       0.00000000      27.50142900 </v>
   </varray>
   <i name="volume">   1002.32009712 </i>
   <varray name="rec_basis" >
    <v>       0.28245396       0.04857034       0.00000000 </v>
    <v>       0.00000000       0.09714068       0.00000000 </v>
    <v>       0.00000000       0.00000000       0.03636175 </v>
   </varray>
  </crystal>
  <varray name="positions" >
   <v>       0.11402300       0.22804500       0.23316207 </v>
   <v>       0.31402300       0.62804500       0.51499159 </v>
   <v>       0.45808900       0.91617900       0.20939482 </v>
   <v>       0.65808900       0.31617900       0.49122434 </v>
   <v>       0.31085400       0.62170900       0.08414979 </v>
   <v>       0.31085400       0.62170900       0.36597930 </v>
   <v>       0.99923000       0.99846000       0.08631254 </v>
   <v>       0.99923000       0.99846000       0.36814206 </v>
   <v>       0.65492700       0.30985400       0.06041748 </v>
   <v>       0.65492700       0.30985400       0.34224700 </v>
   <v>       0.76973800       0.53947500       0.20725292 </v>
   <v>       0.96973800       0.93947500       0.48908244 </v>
   <v>       0.93971600       0.87943300       0.15783749 </v>
   <v>       0.13971600       0.27943300       0.43966701 </v>
   <v>       0.20515200       0.41030300       0.18578822 </v>
   <v>       0.40515200       0.81030300       0.46761774 </v>
   <v>       0.20184900       0.40369900       0.09969156 </v>
   <v>       0.20184900       0.40369900       0.38152107 </v>
   <v>       0.56380500       0.12761000       0.10779021 </v>
   <v>       0.56380500       0.12761000       0.38961973 </v>
   <v>       0.56710600       0.13421200       0.19387616 </v>
   <v>       0.76710600       0.53421200       0.47570568 </v>
   <v>       0.82923400       0.65846800       0.13571444 </v>
   <v>       0.02923400       0.05846800       0.41754396 </v>
  </varray>
 </structure>
 <calculation>
  <scstep>
   <time name="dav">   58.71   58.74</time>
   <time name="total">   74.65   74.69</time>
   <energy>
    <i name="alphaZ">     36.80884744 </i>
    <i name="ewald">  12030.25494063 </i>
    <i name="hartreedc"> -15047.06083829 </i>
    <i name="XCdc">    -86.85943936 </i>
    <i name="pawpsdc">   1056.43050070 </i>
    <i name="pawaedc">   -732.41190547 </i>
    <i name="eentropy">     -0.04390589 </i>
    <i name="bandstr">    -99.38884145 </i>
    <i name="atom">   3354.04126044 </i>
    <i name="e_fr_energy">    511.77061875 </i>
    <i name="e_wo_entrp">    511.81452464 </i>
    <i name="e_0_energy">    511.79257169 </i>
   </energy>
  </scstep>
  <scstep>
   <time name="dav">   73.01   73.03</time>
   <time name="total">   73.02   73.05</time>
   <energy>
    <i name="e_fr_energy">    -58.02537058 </i>
    <i name="e_wo_entrp">    -58.01122698 </i>
    <i name="e_0_energy">    -58.01829878 </i>
   </energy>
  </scstep>
  <scstep>
   <time name="dav">   67.88   67.90</time>
   <time name="total">   67.89   67.92</time>
   <energy>
    <i name="e_fr_energy">   -116.77000848 </i>
    <i name="e_wo_entrp">   -116.75778794 </i>
    <i name="e_0_energy">   -116.76389821 </i>
   </energy>
  </scstep>
  <scstep>
   <time name="dav">   81.48   81.52</time>
   <time name="total">   81.50   81.53</time>
   <energy>
    <i name="e_fr_energy">   -119.55731446 </i>
    <i name="e_wo_entrp">   -119.54263112 </i>
    <i name="e_0_energy">   -119.54997279 </i>
   </energy>
  </scstep>
  <scstep>
   <time name="dav">   74.66   74.70</time>
   <time name="total">   78.77   78.81</time>
   <energy>
    <i name="e_fr_energy">   -119.61451908 </i>
    <i name="e_wo_entrp">   -119.59977401 </i>
    <i name="e_0_energy">   -119.60714655 </i>
   </energy>
  </scstep>
  <scstep>
   <time name="dav">   69.59   69.62</time>
   <time name="total">   88.10   88.15</time>
   <energy>
    <i name="e_fr_energy">   -114.31361865 </i>
    <i name="e_wo_entrp">   -114.29040372 </i>
    <i name="e_0_energy">   -114.30201118 </i>
   </energy>
  </scstep>
  <scstep>
   <time name="dav">   64.66   64.68</time>
   <time name="total">   83.20   83.23</time>
   <energy>
    <i name="e_fr_energy">   -114.28379842 </i>
    <i name="e_wo_entrp">   -114.26205723 </i>
    <i name="e_0_energy">   -114.27292783 </i>
   </energy>
  </scstep>
  <scstep>
   <time name="dav">   68.83   68.86</time>
   <time name="total">   87.35   87.39</time>
   <energy>
    <i name="e_fr_energy">   -114.31528807 </i>
    <i name="e_wo_entrp">   -114.29561988 </i>
    <i name="e_0_energy">   -114.30545398 </i>
   </energy>
  </scstep>
  <scstep>
   <time name="dav">   69.69   69.71</time>
   <time name="total">   88.21   88.24</time>
   <energy>
    <i name="e_fr_energy">   -114.32018905 </i>
    <i name="e_wo_entrp">   -114.30031197 </i>
    <i name="e_0_energy">   -114.31025051 </i>
   </energy>
  </scstep>
  <scstep>
   <time name="dav">   69.73   69.75</time>
   <time name="total">   88.26   88.29</time>
   <energy>
    <i name="e_fr_energy">   -114.31756721 </i>
    <i name="e_wo_entrp">   -114.29750435 </i>
    <i name="e_0_energy">   -114.30753578 </i>
   </energy>
  </scstep>
  <scstep>
   <time name="dav">   73.07   73.09</time>
   <time name="total">   91.60   91.62</time>
   <energy>
    <i name="e_fr_energy">   -114.31216474 </i>
    <i name="e_wo_entrp">   -114.29272431 </i>
    <i name="e_0_energy">   -114.30244452 </i>
   </energy>
  </scstep>
  <scstep>
   <time name="dav">   67.67   67.70</time>
   <time name="total">   86.16   86.19</time>
   <energy>
    <i name="e_fr_energy">   -114.30495893 </i>
    <i name="e_wo_entrp">   -114.28542329 </i>
    <i name="e_0_energy">   -114.29519111 </i>
   </energy>
  </scstep>
  <scstep>
   <time name="dav">   68.98   69.00</time>
   <time name="total">   87.50   87.53</time>
   <energy>
    <i name="e_fr_energy">   -114.29872624 </i>
    <i name="e_wo_entrp">   -114.27920643 </i>
    <i name="e_0_energy">   -114.28896634 </i>
   </energy>
  </scstep>
  <scstep>
   <time name="dav">   69.65   69.67</time>
   <time name="total">   88.21   88.23</time>
   <energy>
    <i name="e_fr_energy">   -114.29630407 </i>
    <i name="e_wo_entrp">   -114.27679869 </i>
    <i name="e_0_energy">   -114.28655138 </i>
   </energy>
  </scstep>
  <scstep>
   <time name="dav">   68.43   68.45</time>
   <time name="total">   86.93   86.96</time>
   <energy>
    <i name="e_fr_energy">   -114.29515009 </i>
    <i name="e_wo_entrp">   -114.27563471 </i>
    <i name="e_0_energy">   -114.28539240 </i>
   </energy>
  </scstep>
  <scstep>
   <time name="dav">   63.92   63.94</time>
   <time name="total">   82.46   82.49</time>
   <energy>
    <i name="e_fr_energy">   -114.29490940 </i>
    <i name="e_wo_entrp">   -114.27539475 </i>
    <i name="e_0_energy">   -114.28515207 </i>
   </energy>
  </scstep>
  <scstep>
   <time name="dav">   64.53   64.55</time>
   <time name="total">   83.08   83.11</time>
   <energy>
    <i name="e_fr_energy">   -114.29550842 </i>
    <i name="e_wo_entrp">   -114.27599283 </i>
    <i name="e_0_energy">   -114.28575063 </i>
   </energy>
  </scstep>
  <scstep>
   <time name="dav">   62.75   62.77</time>
   <time name="total">   81.29   81.33</time>
   <energy>
    <i name="e_fr_energy">   -114.29570062 </i>
    <i name="e_wo_entrp">   -114.27618480 </i>
    <i name="e_0_energy">   -114.28594271 </i>
   </energy>
  </scstep>
  <scstep>
   <time name="dav">   58.58   58.60</time>
   <time name="total">   77.14   77.16</time>
   <energy>
    <i name="e_fr_energy">   -114.29580107 </i>
    <i name="e_wo_entrp">   -114.27628460 </i>
    <i name="e_0_energy">   -114.28604284 </i>
   </energy>
  </scstep>
  <scstep>
   <time name="dav">   51.96   51.97</time>
   <time name="total">   70.59   70.61</time>
   <energy>
    <i name="e_fr_energy">   -114.29583592 </i>
    <i name="e_wo_entrp">   -114.27632006 </i>
    <i name="e_0_energy">   -114.28607799 </i>
   </energy>
  </scstep>
  <scstep>
   <time name="dav">   58.16   58.17</time>
   <time name="total">   76.71   76.73</time>
   <energy>
    <i name="e_fr_energy">   -114.29580082 </i>
    <i name="e_wo_entrp">   -114.27628364 </i>
    <i name="e_0_energy">   -114.28604223 </i>
   </energy>
  </scstep>
  <scstep>
   <time name="dav">   53.44   53.45</time>
   <time name="total">   71.99   72.01</time>
   <energy>
    <i name="e_fr_energy">   -114.29577592 </i>
    <i name="e_wo_entrp">   -114.27625833 </i>
    <i name="e_0_energy">   -114.28601712 </i>
   </energy>
  </scstep>
  <scstep>
   <time name="dav">   51.91   51.93</time>
   <time name="total">   70.48   70.50</time>
   <energy>
    <i name="e_fr_energy">   -114.29570985 </i>
    <i name="e_wo_entrp">   -114.27619260 </i>
    <i name="e_0_energy">   -114.28595122 </i>
   </energy>
  </scstep>
  <scstep>
   <time name="dav">   51.03   51.04</time>
   <time name="total">   69.58   69.60</time>
   <energy>
    <i name="e_fr_energy">   -114.29570598 </i>
    <i name="e_wo_entrp">   -114.27618894 </i>
    <i name="e_0_energy">   -114.28594746 </i>
   </energy>
  </scstep>
  <scstep>
   <time name="dav">   53.77   53.79</time>
   <time name="total">   72.32   72.34</time>
   <energy>
    <i name="e_fr_energy">   -114.29569798 </i>
    <i name="e_wo_entrp">   -114.27618100 </i>
    <i name="e_0_energy">   -114.28593949 </i>
   </energy>
  </scstep>
  <scstep>
   <time name="dav">   48.70   48.71</time>
   <time name="total">   67.27   67.29</time>
   <energy>
    <i name="e_fr_energy">   -114.29570209 </i>
    <i name="e_wo_entrp">   -114.27618507 </i>
    <i name="e_0_energy">   -114.28594358 </i>
   </energy>
  </scstep>
  <scstep>
   <time name="dav">   50.74   50.75</time>
   <time name="total">   65.21   65.23</time>
   <energy>
    <i name="alphaZ">     36.80884744 </i>
    <i name="ewald">  12030.25494063 </i>
    <i name="hartreedc"> -15153.02406158 </i>
    <i name="XCdc">    -78.56721241 </i>
    <i name="pawpsdc">   1196.90630076 </i>
    <i name="pawaedc">   -876.92103234 </i>
    <i name="eentropy">     -0.01951699 </i>
    <i name="bandstr">   -623.77522787 </i>
    <i name="atom">   3354.04126044 </i>
    <i name="e_fr_energy">   -114.29570191 </i>
    <i name="e_wo_entrp">   -114.27618492 </i>
    <i name="e_0_energy">   -114.28594341 </i>
   </energy>
  </scstep>
  <structure>
   <crystal>
    <varray name="basis" >
     <v>       3.54040000       0.00000000       0.00000000 </v>
     <v>      -1.77020000      10.29434800       0.00000000 </v>
     <v>       0.00000000       0.00000000      27.50142900 </v>
    </varray>
    <i name="volume">   1002.32009712 </i>
    <varray name="rec_basis" >
     <v>       0.28245396       0.04857034       0.00000000 </v>
     <v>       0.00000000       0.09714068       0.00000000 </v>
     <v>       0.00000000       0.00000000       0.03636175 </v>
    </varray>
   </crystal>
   <varray name="positions" >
    <v>       0.11402300       0.22804500       0.23316207 </v>
    <v>       0.31402300       0.62804500       0.51499159 </v>
    <v>       0.45808900       0.91617900       0.20939482 </v>
    <v>       0.65808900       0.31617900       0.49122434 </v>
    <v>       0.31085400       0.62170900       0.08414979 </v>
    <v>       0.31085400       0.62170900       0.36597930 </v>
    <v>       0.99923000       0.99846000       0.08631254 </v>
    <v>       0.99923000       0.99846000       0.36814206 </v>
    <v>       0.65492700       0.30985400       0.06041748 </v>
    <v>       0.65492700       0.30985400       0.34224700 </v>
    <v>       0.76973800       0.53947500       0.20725292 </v>
    <v>       0.96973800       0.93947500       0.48908244 </v>
    <v>       0.93971600       0.87943300       0.15783749 </v>
    <v>       0.13971600       0.27943300       0.43966701 </v>
    <v>       0.20515200       0.41030300       0.18578822 </v>
    <v>       0.40515200       0.81030300       0.46761774 </v>
    <v>       0.20184900       0.40369900       0.09969156 </v>
    <v>       0.20184900       0.40369900       0.38152107 </v>
    <v>       0.56380500       0.12761000       0.10779021 </v>
    <v>       0.56380500       0.12761000       0.38961973 </v>
    <v>       0.56710600       0.13421200       0.19387616 </v>
    <v>       0.76710600       0.53421200       0.47570568 </v>
    <v>       0.82923400       0.65846800       0.13571444 </v>
    <v>       0.02923400       0.05846800       0.41754396 </v>
   </varray>
  </structure>
  <varray name="forces" >
   <v>      -0.00000000      -0.04363879      -0.02739214 </v>
   <v>      -0.00000000      -0.04247242       0.17206633 </v>
   <v>      -0.00000000      -0.01640533       0.07643271 </v>
   <v>      -0.00000000       0.25310100       0.30961917 </v>
   <v>      -0.00000000      -0.00549076       0.01030875 </v>
   <v>      -0.00000000      -0.05601347       0.83410302 </v>
   <v>      -0.00000000      -0.00143018      -0.00154197 </v>
   <v>      -0.00000000     -18.89897892     -41.88698020 </v>
   <v>      -0.00000000       0.00176548       0.00900269 </v>
   <v>      -0.00000000      -0.22430803      -0.68430646 </v>
   <v>      -0.00000000       0.00487774       0.08898631 </v>
   <v>      -0.00000000      -0.29691736       0.14013628 </v>
   <v>      -0.00000000       0.00337461       0.00886471 </v>
   <v>      -0.00000000      -1.42482230       4.79611214 </v>
   <v>      -0.00000000      -0.00044625       0.04602928 </v>
   <v>      -0.00000000      -0.13742167      -0.24399695 </v>
   <v>      -0.00000000       0.00147955      -0.02090512 </v>
   <v>      -0.00000000       3.38036816      -3.64377987 </v>
   <v>      -0.00000000      -0.01772059      -0.00815786 </v>
   <v>      -0.00000000       3.36709233      -3.87233670 </v>
   <v>      -0.00000000      -0.00869371      -0.00724715 </v>
   <v>      -0.00000000       0.07595793      -0.07889678 </v>
   <v>      -0.00000000       0.01490077      -0.00372248 </v>
   <v>       0.00000000      14.07184223      43.98760232 </v>
  </varray>
  <varray name="stress" >
   <v>      23.42315819       0.00000000       0.00000000 </v>
   <v>       0.00000000      23.14070039      31.27971086 </v>
   <v>       0.00000000      31.27971100     104.54687998 </v>
  </varray>
  <energy>
   <i name="e_fr_energy">   -114.29570191 </i>
   <i name="e_wo_entrp">   -114.28594341 </i>
   <i name="e_0_energy">     -0.01951699 </i>
  </energy>
  <time name="totalsc"> 2242.62 2243.43</time>
  <eigenvalues>
   <array>
    <dimension dim="1">band</dimension>
    <dimension dim="2">kpoint</dimension>
    <dimension dim="3">spin</dimension>
    <field>eigene</field>
    <field>occ</field>
    <set>
     <set comment="spin 1">
      <set comment="kpoint 1">
       <r>  -15.7500    1.0000 </r>
       <r>  -13.4955    1.0000 </r>
       <r>  -13.2203    1.0000 </r>
       <r>  -12.7776    1.0000 </r>
       <r>  -12.7544    1.0000 </r>
       <r>  -12.4351    1.0000 </r>
       <r>  -12.0439    1.0000 </r>
       <r>  -11.8864    1.0000 </r>
       <r>  -11.5258    1.0000 </r>
       <r>  -11.3884    1.0000 </r>
       <r>  -10.9457    1.0000 </r>
       <r>  -10.0844    1.0000 </r>
       <r>   -8.9181    1.0000 </r>
       <r>   -7.9891    1.0000 </r>
       <r>   -7.7839    1.0000 </r>
       <r>   -7.3218    1.0000 </r>
       <r>   -7.2653    1.0000 </r>
       <r>   -6.7749    1.0000 </r>
       <r>   -6.4589    1.0000 </r>
       <r>   -6.3897    1.0000 </r>
       <r>   -6.2221    1.0000 </r>
       <r>   -5.7827    1.0000 </r>
       <r>   -5.4733    1.0000 </r>
       <r>   -4.8807    1.0000 </r>
       <r>   -4.6970    1.0000 </r>
       <r>   -4.0427    1.0000 </r>
       <r>   -3.7015    1.0000 </r>
       <r>   -3.6015    1.0000 </r>
       <r>   -3.1947    1.0000 </r>
       <r>   -3.0348    1.0000 </r>
       <r>   -3.0164    1.0000 </r>
       <r>   -2.9871    1.0000 </r>
       <r>   -2.9218    1.0000 </r>
       <r>   -2.7993    1.0000 </r>
       <r>   -2.6074    1.0000 </r>
       <r>   -2.5364    1.0000 </r>
       <r>   -2.4033    1.0000 </r>
       <r>   -2.3425    1.0000 </r>
       <r>   -2.3093    1.0000 </r>
       <r>   -2.0843    1.0000 </r>
       <r>   -2.0688    1.0000 </r>
       <r>   -1.9945    1.0000 </r>
       <r>   -1.7984    1.0000 </r>
       <r>   -1.6846    1.0000 </r>
       <r>   -1.5982    1.0000 </r>
       <r>   -1.5468    1.0000 </r>
       <r>   -1.5317    1.0000 </r>
       <r>   -1.4490    1.0000 </r>
       <r>   -1.3862    1.0000 </r>
       <r>   -1.3612    1.0000 </r>
       <r>   -1.1094    1.0000 </r>
       <r>   -1.0743    1.0000 </r>
       <r>   -0.4288    0.9999 </r>
       <r>    0.1536    0.0000 </r>
       <r>    0.9133    0.0000 </r>
       <r>    0.9707    0.0000 </r>
       <r>    1.1688    0.0000 </r>
       <r>    1.2280    0.0000 </r>
       <r>    1.3262    0.0000 </r>
       <r>    1.3706    0.0000 </r>
       <r>    1.6721    0.0000 </r>
       <r>    1.7647    0.0000 </r>
       <r>    1.9573    0.0000 </r>
       <r>    2.0241    0.0000 </r>
       <r>    2.2118    0.0000 </r>
       <r>    2.3186    0.0000 </r>
       <r>    2.4821    0.0000 </r>
       <r>    2.6051    0.0000 </r>
      </set>
      <set comment="kpoint 2">
       <r>  -15.6971    1.0000 </r>
       <r>  -13.4341    1.0000 </r>
       <r>  -13.1642    1.0000 </r>
       <r>  -12.7189    1.0000 </r>
       <r>  -12.7016    1.0000 </r>
       <r>  -12.3795    1.0000 </r>
       <r>  -11.9820    1.0000 </r>
       <r>  -11.8382    1.0000 </r>
       <r>  -11.4706    1.0000 </r>
       <r>  -11.3395    1.0000 </r>
       <r>  -10.8973    1.0000 </r>
       <r>  -10.0548    1.0000 </r>
       <r>   -8.8951    1.0000 </r>
       <r>   -8.0254    1.0000 </r>
       <r>   -7.7474    1.0000 </r>
       <r>   -7.4119    1.0000 </r>
       <r>   -7.2371    1.0000 </r>
       <r>   -6.7524    1.0000 </r>
       <r>   -6.5632    1.0000 </r>
       <r>   -6.4427    1.0000 </r>
       <r>   -6.3103    1.0000 </r>
       <r>   -5.7488    1.0000 </r>
       <r>   -5.4435    1.0000 </r>
       <r>   -4.8644    1.0000 </r>
       <r>   -4.7012    1.0000 </r>
       <r>   -4.0099    1.0000 </r>
       <r>   -3.7386    1.0000 </r>
       <r>   -3.6283    1.0000 </r>
       <r>   -3.4785    1.0000 </r>
       <r>   -3.3903    1.0000 </r>
       <r>   -3.2400    1.0000 </r>
       <r>   -3.2050    1.0000 </r>
       <r>   -3.1292    1.0000 </r>
       <r>   -2.9250    1.0000 </r>
       <r>   -2.8667    1.0000 </r>
       <r>   -2.7044    1.0000 </r>
       <r>   -2.5812    1.0000 </r>
       <r>   -2.4553    1.0000 </r>
       <r>   -2.4103    1.0000 </r>
       <r>   -2.1884    1.0000 </r>
       <r>   -2.1409    1.0000 </r>
       <r>   -2.0025    1.0000 </r>
       <r>   -1.9485    1.0000 </r>
       <r>   -1.9213    1.0000 </r>
       <r>   -1.9003    1.0000 </r>
       <r>   -1.7959    1.0000 </r>
       <r>   -1.6900    1.0000 </r>
       <r>   -1.4713    1.0000 </r>
       <r>   -1.3591    1.0000 </r>
       <r>   -1.1842    1.0000 </r>
       <r>   -1.0649    1.0000 </r>
       <r>   -0.9212    1.0000 </r>
       <r>   -0.3445    0.9954 </r>
       <r>    0.1601    0.0000 </r>
       <r>    0.5895    0.0000 </r>
       <r>    0.8476    0.0000 </r>
       <r>    1.0701    0.0000 </r>
       <r>    1.4928    0.0000 </r>
       <r>    1.6175    0.0000 </r>
       <r>    1.8095    0.0000 </r>
       <r>    2.0612    0.0000 </r>
       <r>    2.1800    0.0000 </r>
       <r>    2.2535    0.0000 </r>
       <r>    2.3401    0.0000 </r>
       <r>    2.4047    0.0000 </r>
       <r>    2.5840    0.0000 </r>
       <r>    2.6611    0.0000 </r>
       <r>    2.8113    0.0000 </r>
      </set>
      <set comment="kpoint 3">
       <r>  -15.5414    1.0000 </r>
       <r>  -13.2511    1.0000 </r>
       <r>  -12.9974    1.0000 </r>
       <r>  -12.5510    1.0000 </r>
       <r>  -12.5382    1.0000 </r>
       <r>  -12.2147    1.0000 </r>
       <r>  -11.8008    1.0000 </r>
       <r>  -11.6956    1.0000 </r>
       <r>  -11.3102    1.0000 </r>
       <r>  -11.1976    1.0000 </r>
       <r>  -10.7585    1.0000 </r>
       <r>   -9.9772    1.0000 </r>
       <r>   -8.8444    1.0000 </r>
       <r>   -8.1214    1.0000 </r>
       <r>   -7.9159    1.0000 </r>
       <r>   -7.7025    1.0000 </r>
       <r>   -7.1875    1.0000 </r>
       <r>   -6.8626    1.0000 </r>
       <r>   -6.6614    1.0000 </r>
       <r>   -6.4559    1.0000 </r>
       <r>   -6.2657    1.0000 </r>
       <r>   -5.6743    1.0000 </r>
       <r>   -5.4503    1.0000 </r>
       <r>   -4.8755    1.0000 </r>
       <r>   -4.8223    1.0000 </r>
       <r>   -4.2635    1.0000 </r>
       <r>   -4.1576    1.0000 </r>
       <r>   -4.0373    1.0000 </r>
       <r>   -3.9773    1.0000 </r>
       <r>   -3.9141    1.0000 </r>
       <r>   -3.7801    1.0000 </r>
       <r>   -3.6430    1.0000 </r>
       <r>   -3.3815    1.0000 </r>
       <r>   -3.3149    1.0000 </r>
       <r>   -3.2526    1.0000 </r>
       <r>   -3.1042    1.0000 </r>
       <r>   -2.9242    1.0000 </r>
       <r>   -2.8669    1.0000 </r>
       <r>   -2.6712    1.0000 </r>
       <r>   -2.5494    1.0000 </r>
       <r>   -2.3968    1.0000 </r>
       <r>   -2.2888    1.0000 </r>
       <r>   -2.2168    1.0000 </r>
       <r>   -2.0998    1.0000 </r>
       <r>   -1.9073    1.0000 </r>
       <r>   -1.8579    1.0000 </r>
       <r>   -1.7142    1.0000 </r>
       <r>   -1.6113    1.0000 </r>
       <r>   -1.3186    1.0000 </r>
       <r>   -1.1257    1.0000 </r>
       <r>   -0.9818    1.0000 </r>
       <r>   -0.6359    1.0000 </r>
       <r>   -0.3360    0.9935 </r>
       <r>   -0.1263    0.3142 </r>
       <r>    0.2628    0.0000 </r>
       <r>    0.4775    0.0000 </r>
       <r>    1.0978    0.0000 </r>
       <r>    1.7687    0.0000 </r>
       <r>    1.9837    0.0000 </r>
       <r>    2.2670    0.0000 </r>
       <r>    2.3584    0.0000 </r>
       <r>    2.5036    0.0000 </r>
       <r>    2.6657    0.0000 </r>
       <r>    2.7028    0.0000 </r>
       <r>    2.7745    0.0000 </r>
       <r>    2.9599    0.0000 </r>
       <r>    2.9931    0.0000 </r>
       <r>    3.0606    0.0000 </r>
      </set>
      <set comment="kpoint 4">
       <r>  -15.2932    1.0000 </r>
       <r>  -12.9502    1.0000 </r>
       <r>  -12.7266    1.0000 </r>
       <r>  -12.2925    1.0000 </r>
       <r>  -12.2568    1.0000 </r>
       <r>  -11.9479    1.0000 </r>
       <r>  -11.5190    1.0000 </r>
       <r>  -11.4644    1.0000 </r>
       <r>  -11.0639    1.0000 </r>
       <r>  -10.9810    1.0000 </r>
       <r>  -10.5554    1.0000 </r>
       <r>   -9.9037    1.0000 </r>
       <r>   -8.8489    1.0000 </r>
       <r>   -8.6928    1.0000 </r>
       <r>   -8.3125    1.0000 </r>
       <r>   -7.7767    1.0000 </r>
       <r>   -7.2398    1.0000 </r>
       <r>   -6.9287    1.0000 </r>
       <r>   -6.6446    1.0000 </r>
       <r>   -6.5882    1.0000 </r>
       <r>   -6.2405    1.0000 </r>
       <r>   -5.6993    1.0000 </r>
       <r>   -5.6322    1.0000 </r>
       <r>   -5.2942    1.0000 </r>
       <r>   -5.1258    1.0000 </r>
       <r>   -4.8232    1.0000 </r>
       <r>   -4.7280    1.0000 </r>
       <r>   -4.5584    1.0000 </r>
       <r>   -4.4643    1.0000 </r>
       <r>   -4.4070    1.0000 </r>
       <r>   -4.1341    1.0000 </r>
       <r>   -4.0321    1.0000 </r>
       <r>   -3.7840    1.0000 </r>
       <r>   -3.7366    1.0000 </r>
       <r>   -3.4426    1.0000 </r>
       <r>   -3.3748    1.0000 </r>
       <r>   -3.0737    1.0000 </r>
       <r>   -2.9581    1.0000 </r>
       <r>   -2.8184    1.0000 </r>
       <r>   -2.7485    1.0000 </r>
       <r>   -2.5690    1.0000 </r>
       <r>   -2.4196    1.0000 </r>
       <r>   -2.3368    1.0000 </r>
       <r>   -2.1486    1.0000 </r>
       <r>   -1.9273    1.0000 </r>
       <r>   -1.8639    1.0000 </r>
       <r>   -1.7748    1.0000 </r>
       <r>   -1.6850    1.0000 </r>
       <r>   -1.4335    1.0000 </r>
       <r>   -1.4211    1.0000 </r>
       <r>   -1.0513    1.0000 </r>
       <r>   -0.9485    1.0000 </r>
       <r>   -0.8190    1.0000 </r>
       <r>   -0.5213    1.0000 </r>
       <r>    0.2630    0.0000 </r>
       <r>    0.9620    0.0000 </r>
       <r>    1.0829    0.0000 </r>
       <r>    1.7222    0.0000 </r>
       <r>    1.8933    0.0000 </r>
       <r>    2.0253    0.0000 </r>
       <r>    2.1264    0.0000 </r>
       <r>    2.3421    0.0000 </r>
       <r>    2.4167    0.0000 </r>
       <r>    2.6696    0.0000 </r>
       <r>    2.7210    0.0000 </r>
       <r>    2.7446    0.0000 </r>
       <r>    2.9237    0.0000 </r>
       <r>    2.9934    0.0000 </r>
      </set>
      <set comment="kpoint 5">
       <r>  -14.9767    1.0000 </r>
       <r>  -12.5386    1.0000 </r>
       <r>  -12.3698    1.0000 </r>
       <r>  -11.9438    1.0000 </r>
       <r>  -11.8846    1.0000 </r>
       <r>  -11.5960    1.0000 </r>
       <r>  -11.2022    1.0000 </r>
       <r>  -11.1407    1.0000 </r>
       <r>  -10.7801    1.0000 </r>
       <r>  -10.7370    1.0000 </r>
       <r>  -10.3695    1.0000 </r>
       <r>  -10.0405    1.0000 </r>
       <r>   -9.2815    1.0000 </r>
       <r>   -8.9837    1.0000 </r>
       <r>   -8.6077    1.0000 </r>
       <r>   -8.0376    1.0000 </r>
       <r>   -7.4553    1.0000 </r>
       <r>   -7.0706    1.0000 </r>
       <r>   -6.9494    1.0000 </r>
       <r>   -6.8537    1.0000 </r>
       <r>   -6.4331    1.0000 </r>
       <r>   -6.1189    1.0000 </r>
       <r>   -5.9199    1.0000 </r>
       <r>   -5.8206    1.0000 </r>
       <r>   -5.6374    1.0000 </r>
       <r>   -5.1919    1.0000 </r>
       <r>   -5.0869    1.0000 </r>
       <r>   -4.7356    1.0000 </r>
       <r>   -4.6552    1.0000 </r>
       <r>   -4.5479    1.0000 </r>
       <r>   -4.2639    1.0000 </r>
       <r>   -4.1745    1.0000 </r>
       <r>   -4.0666    1.0000 </r>
       <r>   -3.8632    1.0000 </r>
       <r>   -3.3484    1.0000 </r>
       <r>   -3.2492    1.0000 </r>
       <r>   -3.2039    1.0000 </r>
       <r>   -3.0436    1.0000 </r>
       <r>   -2.9763    1.0000 </r>
       <r>   -2.9306    1.0000 </r>
       <r>   -2.7348    1.0000 </r>
       <r>   -2.5560    1.0000 </r>
       <r>   -2.2812    1.0000 </r>
       <r>   -2.2083    1.0000 </r>
       <r>   -2.0480    1.0000 </r>
       <r>   -1.9874    1.0000 </r>
       <r>   -1.8512    1.0000 </r>
       <r>   -1.8223    1.0000 </r>
       <r>   -1.7728    1.0000 </r>
       <r>   -1.6664    1.0000 </r>
       <r>   -1.3480    1.0000 </r>
       <r>   -1.2996    1.0000 </r>
       <r>   -1.1096    1.0000 </r>
       <r>   -0.7464    1.0000 </r>
       <r>   -0.0102    0.0168 </r>
       <r>    0.7042    0.0000 </r>
       <r>    1.3900    0.0000 </r>
       <r>    1.5295    0.0000 </r>
       <r>    1.6349    0.0000 </r>
       <r>    1.8125    0.0000 </r>
       <r>    1.9996    0.0000 </r>
       <r>    2.1459    0.0000 </r>
       <r>    2.2704    0.0000 </r>
       <r>    2.3854    0.0000 </r>
       <r>    2.5213    0.0000 </r>
       <r>    2.6931    0.0000 </r>
       <r>    2.8423    0.0000 </r>
       <r>    3.0079    0.0000 </r>
      </set>
      <set comment="kpoint 6">
       <r>  -14.6451    1.0000 </r>
       <r>  -12.0336    1.0000 </r>
       <r>  -11.9860    1.0000 </r>
       <r>  -11.5246    1.0000 </r>
       <r>  -11.4715    1.0000 </r>
       <r>  -11.1980    1.0000 </r>
       <r>  -10.9322    1.0000 </r>
       <r>  -10.8033    1.0000 </r>
       <r>  -10.5832    1.0000 </r>
       <r>  -10.5799    1.0000 </r>
       <r>  -10.4230    1.0000 </r>
       <r>  -10.4068    1.0000 </r>
       <r>   -9.5146    1.0000 </r>
       <r>   -9.2367    1.0000 </r>
       <r>   -8.7844    1.0000 </r>
       <r>   -8.3302    1.0000 </r>
       <r>   -7.7616    1.0000 </r>
       <r>   -7.4135    1.0000 </r>
       <r>   -7.3690    1.0000 </r>
       <r>   -7.2541    1.0000 </r>
       <r>   -6.8749    1.0000 </r>
       <r>   -6.7155    1.0000 </r>
       <r>   -6.6157    1.0000 </r>
       <r>   -6.2593    1.0000 </r>
       <r>   -5.5808    1.0000 </r>
       <r>   -5.1850    1.0000 </r>
       <r>   -5.0432    1.0000 </r>
       <r>   -4.5822    1.0000 </r>
       <r>   -4.4834    1.0000 </r>
       <r>   -4.3746    1.0000 </r>
       <r>   -4.1845    1.0000 </r>
       <r>   -4.1744    1.0000 </r>
       <r>   -4.0286    1.0000 </r>
       <r>   -3.8910    1.0000 </r>
       <r>   -3.6101    1.0000 </r>
       <r>   -3.4173    1.0000 </r>
       <r>   -3.2256    1.0000 </r>
       <r>   -3.1897    1.0000 </r>
       <r>   -3.0550    1.0000 </r>
       <r>   -3.0217    1.0000 </r>
       <r>   -2.7538    1.0000 </r>
       <r>   -2.6684    1.0000 </r>
       <r>   -2.4633    1.0000 </r>
       <r>   -2.3092    1.0000 </r>
       <r>   -2.2275    1.0000 </r>
       <r>   -2.1514    1.0000 </r>
       <r>   -2.0531    1.0000 </r>
       <r>   -1.9836    1.0000 </r>
       <r>   -1.8923    1.0000 </r>
       <r>   -1.7787    1.0000 </r>
       <r>   -1.6149    1.0000 </r>
       <r>   -1.4888    1.0000 </r>
       <r>   -1.3234    1.0000 </r>
       <r>   -0.6987    1.0000 </r>
       <r>   -0.2705    0.9401 </r>
       <r>    0.3412    0.0000 </r>
       <r>    1.2947    0.0000 </r>
       <r>    1.4488    0.0000 </r>
       <r>    1.5380    0.0000 </r>
       <r>    1.7474    0.0000 </r>
       <r>    1.7633    0.0000 </r>
       <r>    1.9935    0.0000 </r>
       <r>    2.0952    0.0000 </r>
       <r>    2.2587    0.0000 </r>
       <r>    2.3173    0.0000 </r>
       <r>    2.4392    0.0000 </r>
       <r>    2.7254    0.0000 </r>
       <r>    2.8226    0.0000 </r>
      </set>
      <set comment="kpoint 7">
       <r>  -14.4086    1.0000 </r>
       <r>  -11.7859    1.0000 </r>
       <r>  -11.4547    1.0000 </r>
       <r>  -11.1039    1.0000 </r>
       <r>  -11.1000    1.0000 </r>
       <r>  -10.8977    1.0000 </r>
       <r>  -10.7990    1.0000 </r>
       <r>  -10.7427    1.0000 </r>
       <r>  -10.6836    1.0000 </r>
       <r>  -10.6502    1.0000 </r>
       <r>  -10.5898    1.0000 </r>
       <r>  -10.5168    1.0000 </r>
       <r>   -9.8528    1.0000 </r>
       <r>   -9.2658    1.0000 </r>
       <r>   -8.6430    1.0000 </r>
       <r>   -8.3927    1.0000 </r>
       <r>   -8.0330    1.0000 </r>
       <r>   -7.8665    1.0000 </r>
       <r>   -7.6181    1.0000 </r>
       <r>   -7.5244    1.0000 </r>
       <r>   -7.2406    1.0000 </r>
       <r>   -7.1458    1.0000 </r>
       <r>   -7.1238    1.0000 </r>
       <r>   -6.4514    1.0000 </r>
       <r>   -5.3012    1.0000 </r>
       <r>   -5.0196    1.0000 </r>
       <r>   -4.8658    1.0000 </r>
       <r>   -4.5074    1.0000 </r>
       <r>   -4.4548    1.0000 </r>
       <r>   -4.2309    1.0000 </r>
       <r>   -4.0875    1.0000 </r>
       <r>   -3.9964    1.0000 </r>
       <r>   -3.9072    1.0000 </r>
       <r>   -3.7963    1.0000 </r>
       <r>   -3.7615    1.0000 </r>
       <r>   -3.5696    1.0000 </r>
       <r>   -3.4700    1.0000 </r>
       <r>   -3.2333    1.0000 </r>
       <r>   -3.2040    1.0000 </r>
       <r>   -3.0318    1.0000 </r>
       <r>   -2.9319    1.0000 </r>
       <r>   -2.9069    1.0000 </r>
       <r>   -2.6374    1.0000 </r>
       <r>   -2.4540    1.0000 </r>
       <r>   -2.3084    1.0000 </r>
       <r>   -2.1720    1.0000 </r>
       <r>   -2.1216    1.0000 </r>
       <r>   -2.0776    1.0000 </r>
       <r>   -1.9326    1.0000 </r>
       <r>   -1.8668    1.0000 </r>
       <r>   -1.6417    1.0000 </r>
       <r>   -1.4939    1.0000 </r>
       <r>   -1.3984    1.0000 </r>
       <r>   -0.7363    1.0000 </r>
       <r>   -0.2918    0.9683 </r>
       <r>    0.0456    0.0018 </r>
       <r>    1.2090    0.0000 </r>
       <r>    1.4093    0.0000 </r>
       <r>    1.4786    0.0000 </r>
       <r>    1.6175    0.0000 </r>
       <r>    1.6854    0.0000 </r>
       <r>    1.8800    0.0000 </r>
       <r>    2.0143    0.0000 </r>
       <r>    2.1063    0.0000 </r>
       <r>    2.3999    0.0000 </r>
       <r>    2.4255    0.0000 </r>
       <r>    2.5185    0.0000 </r>
       <r>    2.7039    0.0000 </r>
      </set>
      <set comment="kpoint 8">
       <r>  -15.7494    1.0000 </r>
       <r>  -13.4403    1.0000 </r>
       <r>  -13.2545    1.0000 </r>
       <r>  -12.9296    1.0000 </r>
       <r>  -12.6971    1.0000 </r>
       <r>  -12.4338    1.0000 </r>
       <r>  -12.0314    1.0000 </r>
       <r>  -11.8244    1.0000 </r>
       <r>  -11.4349    1.0000 </r>
       <r>  -11.4062    1.0000 </r>
       <r>  -10.9545    1.0000 </r>
       <r>  -10.0560    1.0000 </r>
       <r>   -9.0285    1.0000 </r>
       <r>   -8.4705    1.0000 </r>
       <r>   -7.4250    1.0000 </r>
       <r>   -7.2808    1.0000 </r>
       <r>   -7.2298    1.0000 </r>
       <r>   -6.6263    1.0000 </r>
       <r>   -6.5578    1.0000 </r>
       <r>   -6.2787    1.0000 </r>
       <r>   -6.2222    1.0000 </r>
       <r>   -5.7047    1.0000 </r>
       <r>   -5.5291    1.0000 </r>
       <r>   -4.6900    1.0000 </r>
       <r>   -4.5883    1.0000 </r>
       <r>   -4.0289    1.0000 </r>
       <r>   -3.9644    1.0000 </r>
       <r>   -3.5630    1.0000 </r>
       <r>   -3.3316    1.0000 </r>
       <r>   -3.2902    1.0000 </r>
       <r>   -3.0830    1.0000 </r>
       <r>   -3.0382    1.0000 </r>
       <r>   -2.9787    1.0000 </r>
       <r>   -2.6642    1.0000 </r>
       <r>   -2.6540    1.0000 </r>
       <r>   -2.5776    1.0000 </r>
       <r>   -2.3442    1.0000 </r>
       <r>   -2.3343    1.0000 </r>
       <r>   -2.2347    1.0000 </r>
       <r>   -2.1048    1.0000 </r>
       <r>   -2.0255    1.0000 </r>
       <r>   -1.9583    1.0000 </r>
       <r>   -1.9160    1.0000 </r>
       <r>   -1.8368    1.0000 </r>
       <r>   -1.5866    1.0000 </r>
       <r>   -1.5687    1.0000 </r>
       <r>   -1.4980    1.0000 </r>
       <r>   -1.4094    1.0000 </r>
       <r>   -1.3171    1.0000 </r>
       <r>   -1.2679    1.0000 </r>
       <r>   -1.0941    1.0000 </r>
       <r>   -1.0196    1.0000 </r>
       <r>   -0.4001    0.9996 </r>
       <r>   -0.0221    0.0252 </r>
       <r>    0.9404    0.0000 </r>
       <r>    1.0135    0.0000 </r>
       <r>    1.2359    0.0000 </r>
       <r>    1.2809    0.0000 </r>
       <r>    1.3009    0.0000 </r>
       <r>    1.4472    0.0000 </r>
       <r>    1.6750    0.0000 </r>
       <r>    1.7727    0.0000 </r>
       <r>    1.9466    0.0000 </r>
       <r>    2.1205    0.0000 </r>
       <r>    2.2601    0.0000 </r>
       <r>    2.3429    0.0000 </r>
       <r>    2.5902    0.0000 </r>
       <r>    2.6821    0.0000 </r>
      </set>
      <set comment="kpoint 9">
       <r>  -15.6964    1.0000 </r>
       <r>  -13.3636    1.0000 </r>
       <r>  -13.2038    1.0000 </r>
       <r>  -12.9106    1.0000 </r>
       <r>  -12.6211    1.0000 </r>
       <r>  -12.3769    1.0000 </r>
       <r>  -12.0065    1.0000 </r>
       <r>  -11.7251    1.0000 </r>
       <r>  -11.3929    1.0000 </r>
       <r>  -11.3335    1.0000 </r>
       <r>  -10.9101    1.0000 </r>
       <r>  -10.0214    1.0000 </r>
       <r>   -9.0235    1.0000 </r>
       <r>   -8.5290    1.0000 </r>
       <r>   -7.4742    1.0000 </r>
       <r>   -7.2881    1.0000 </r>
       <r>   -7.1979    1.0000 </r>
       <r>   -6.6349    1.0000 </r>
       <r>   -6.5197    1.0000 </r>
       <r>   -6.4806    1.0000 </r>
       <r>   -6.2117    1.0000 </r>
       <r>   -5.6560    1.0000 </r>
       <r>   -5.5295    1.0000 </r>
       <r>   -4.6595    1.0000 </r>
       <r>   -4.6044    1.0000 </r>
       <r>   -4.0743    1.0000 </r>
       <r>   -3.9737    1.0000 </r>
       <r>   -3.6227    1.0000 </r>
       <r>   -3.5229    1.0000 </r>
       <r>   -3.4021    1.0000 </r>
       <r>   -3.3396    1.0000 </r>
       <r>   -3.2749    1.0000 </r>
       <r>   -3.0859    1.0000 </r>
       <r>   -2.9816    1.0000 </r>
       <r>   -2.9733    1.0000 </r>
       <r>   -2.7099    1.0000 </r>
       <r>   -2.5927    1.0000 </r>
       <r>   -2.4615    1.0000 </r>
       <r>   -2.4364    1.0000 </r>
       <r>   -2.2509    1.0000 </r>
       <r>   -2.1408    1.0000 </r>
       <r>   -2.0905    1.0000 </r>
       <r>   -1.9911    1.0000 </r>
       <r>   -1.9508    1.0000 </r>
       <r>   -1.7891    1.0000 </r>
       <r>   -1.7621    1.0000 </r>
       <r>   -1.6972    1.0000 </r>
       <r>   -1.4067    1.0000 </r>
       <r>   -1.2263    1.0000 </r>
       <r>   -1.1837    1.0000 </r>
       <r>   -1.0040    1.0000 </r>
       <r>   -0.8969    1.0000 </r>
       <r>   -0.3311    0.9921 </r>
       <r>   -0.0287    0.0311 </r>
       <r>    0.5992    0.0000 </r>
       <r>    0.8783    0.0000 </r>
       <r>    1.1514    0.0000 </r>
       <r>    1.5383    0.0000 </r>
       <r>    1.6478    0.0000 </r>
       <r>    1.8235    0.0000 </r>
       <r>    1.9856    0.0000 </r>
       <r>    2.0996    0.0000 </r>
       <r>    2.2821    0.0000 </r>
       <r>    2.5234    0.0000 </r>
       <r>    2.5557    0.0000 </r>
       <r>    2.6155    0.0000 </r>
       <r>    2.7042    0.0000 </r>
       <r>    2.8009    0.0000 </r>
      </set>
      <set comment="kpoint 10">
       <r>  -15.5407    1.0000 </r>
       <r>  -13.1672    1.0000 </r>
       <r>  -13.0381    1.0000 </r>
       <r>  -12.7741    1.0000 </r>
       <r>  -12.4364    1.0000 </r>
       <r>  -12.2107    1.0000 </r>
       <r>  -11.8756    1.0000 </r>
       <r>  -11.5273    1.0000 </r>
       <r>  -11.2533    1.0000 </r>
       <r>  -11.1669    1.0000 </r>
       <r>  -10.7689    1.0000 </r>
       <r>   -9.9443    1.0000 </r>
       <r>   -8.9702    1.0000 </r>
       <r>   -8.5945    1.0000 </r>
       <r>   -7.9323    1.0000 </r>
       <r>   -7.2896    1.0000 </r>
       <r>   -7.1811    1.0000 </r>
       <r>   -6.8001    1.0000 </r>
       <r>   -6.6120    1.0000 </r>
       <r>   -6.4534    1.0000 </r>
       <r>   -6.1472    1.0000 </r>
       <r>   -5.6091    1.0000 </r>
       <r>   -5.5614    1.0000 </r>
       <r>   -4.8003    1.0000 </r>
       <r>   -4.6573    1.0000 </r>
       <r>   -4.3385    1.0000 </r>
       <r>   -4.2644    1.0000 </r>
       <r>   -4.2074    1.0000 </r>
       <r>   -4.0272    1.0000 </r>
       <r>   -3.9165    1.0000 </r>
       <r>   -3.7578    1.0000 </r>
       <r>   -3.5698    1.0000 </r>
       <r>   -3.3783    1.0000 </r>
       <r>   -3.2723    1.0000 </r>
       <r>   -3.2221    1.0000 </r>
       <r>   -3.0085    1.0000 </r>
       <r>   -2.9184    1.0000 </r>
       <r>   -2.8429    1.0000 </r>
       <r>   -2.7464    1.0000 </r>
       <r>   -2.6954    1.0000 </r>
       <r>   -2.5595    1.0000 </r>
       <r>   -2.4067    1.0000 </r>
       <r>   -2.2814    1.0000 </r>
       <r>   -2.0769    1.0000 </r>
       <r>   -1.9186    1.0000 </r>
       <r>   -1.8275    1.0000 </r>
       <r>   -1.7096    1.0000 </r>
       <r>   -1.4649    1.0000 </r>
       <r>   -1.2784    1.0000 </r>
       <r>   -1.0707    1.0000 </r>
       <r>   -0.9474    1.0000 </r>
       <r>   -0.6319    1.0000 </r>
       <r>   -0.3506    0.9964 </r>
       <r>   -0.1499    0.4408 </r>
       <r>    0.2492    0.0000 </r>
       <r>    0.4144    0.0000 </r>
       <r>    1.1291    0.0000 </r>
       <r>    1.6762    0.0000 </r>
       <r>    1.8081    0.0000 </r>
       <r>    2.1599    0.0000 </r>
       <r>    2.2908    0.0000 </r>
       <r>    2.4270    0.0000 </r>
       <r>    2.7452    0.0000 </r>
       <r>    2.8105    0.0000 </r>
       <r>    2.8762    0.0000 </r>
       <r>    2.9178    0.0000 </r>
       <r>    3.0529    0.0000 </r>
       <r>    3.1387    0.0000 </r>
      </set>
      <set comment="kpoint 11">
       <r>  -15.2926    1.0000 </r>
       <r>  -12.8565    1.0000 </r>
       <r>  -12.7631    1.0000 </r>
       <r>  -12.5228    1.0000 </r>
       <r>  -12.1537    1.0000 </r>
       <r>  -11.9433    1.0000 </r>
       <r>  -11.6468    1.0000 </r>
       <r>  -11.2506    1.0000 </r>
       <r>  -11.0315    1.0000 </r>
       <r>  -10.9269    1.0000 </r>
       <r>  -10.5516    1.0000 </r>
       <r>   -9.8801    1.0000 </r>
       <r>   -8.9302    1.0000 </r>
       <r>   -8.7258    1.0000 </r>
       <r>   -8.7022    1.0000 </r>
       <r>   -7.3707    1.0000 </r>
       <r>   -7.3158    1.0000 </r>
       <r>   -6.8223    1.0000 </r>
       <r>   -6.6511    1.0000 </r>
       <r>   -6.5985    1.0000 </r>
       <r>   -6.1737    1.0000 </r>
       <r>   -5.7783    1.0000 </r>
       <r>   -5.7285    1.0000 </r>
       <r>   -5.1666    1.0000 </r>
       <r>   -5.0133    1.0000 </r>
       <r>   -4.9852    1.0000 </r>
       <r>   -4.7815    1.0000 </r>
       <r>   -4.6186    1.0000 </r>
       <r>   -4.5086    1.0000 </r>
       <r>   -4.4485    1.0000 </r>
       <r>   -4.0312    1.0000 </r>
       <r>   -3.9702    1.0000 </r>
       <r>   -3.6958    1.0000 </r>
       <r>   -3.6801    1.0000 </r>
       <r>   -3.2919    1.0000 </r>
       <r>   -3.1688    1.0000 </r>
       <r>   -3.0625    1.0000 </r>
       <r>   -3.0419    1.0000 </r>
       <r>   -2.9199    1.0000 </r>
       <r>   -2.8036    1.0000 </r>
       <r>   -2.6057    1.0000 </r>
       <r>   -2.4919    1.0000 </r>
       <r>   -2.4745    1.0000 </r>
       <r>   -2.0911    1.0000 </r>
       <r>   -1.9357    1.0000 </r>
       <r>   -1.8704    1.0000 </r>
       <r>   -1.7910    1.0000 </r>
       <r>   -1.7210    1.0000 </r>
       <r>   -1.5021    1.0000 </r>
       <r>   -1.3505    1.0000 </r>
       <r>   -1.0651    1.0000 </r>
       <r>   -0.9211    1.0000 </r>
       <r>   -0.8695    1.0000 </r>
       <r>   -0.4357    1.0000 </r>
       <r>    0.1591    0.0000 </r>
       <r>    0.9176    0.0000 </r>
       <r>    1.1579    0.0000 </r>
       <r>    1.4890    0.0000 </r>
       <r>    1.6337    0.0000 </r>
       <r>    1.7258    0.0000 </r>
       <r>    1.9141    0.0000 </r>
       <r>    2.2671    0.0000 </r>
       <r>    2.5588    0.0000 </r>
       <r>    2.6350    0.0000 </r>
       <r>    2.7374    0.0000 </r>
       <r>    2.8531    0.0000 </r>
       <r>    3.0006    0.0000 </r>
       <r>    3.0873    0.0000 </r>
      </set>
      <set comment="kpoint 12">
       <r>  -14.9762    1.0000 </r>
       <r>  -12.4425    1.0000 </r>
       <r>  -12.3941    1.0000 </r>
       <r>  -12.1638    1.0000 </r>
       <r>  -11.7974    1.0000 </r>
       <r>  -11.5923    1.0000 </r>
       <r>  -11.3424    1.0000 </r>
       <r>  -10.9369    1.0000 </r>
       <r>  -10.7677    1.0000 </r>
       <r>  -10.6656    1.0000 </r>
       <r>  -10.3461    1.0000 </r>
       <r>  -10.0385    1.0000 </r>
       <r>   -9.2598    1.0000 </r>
       <r>   -9.0144    1.0000 </r>
       <r>   -8.9248    1.0000 </r>
       <r>   -7.6599    1.0000 </r>
       <r>   -7.6040    1.0000 </r>
       <r>   -7.0674    1.0000 </r>
       <r>   -6.9602    1.0000 </r>
       <r>   -6.9147    1.0000 </r>
       <r>   -6.3953    1.0000 </r>
       <r>   -6.1478    1.0000 </r>
       <r>   -5.9152    1.0000 </r>
       <r>   -5.8698    1.0000 </r>
       <r>   -5.6351    1.0000 </r>
       <r>   -5.3405    1.0000 </r>
       <r>   -5.0705    1.0000 </r>
       <r>   -4.8936    1.0000 </r>
       <r>   -4.5473    1.0000 </r>
       <r>   -4.3765    1.0000 </r>
       <r>   -4.2793    1.0000 </r>
       <r>   -4.0917    1.0000 </r>
       <r>   -3.9670    1.0000 </r>
       <r>   -3.7514    1.0000 </r>
       <r>   -3.2962    1.0000 </r>
       <r>   -3.2592    1.0000 </r>
       <r>   -3.0932    1.0000 </r>
       <r>   -2.9620    1.0000 </r>
       <r>   -2.8639    1.0000 </r>
       <r>   -2.8022    1.0000 </r>
       <r>   -2.7672    1.0000 </r>
       <r>   -2.5320    1.0000 </r>
       <r>   -2.4513    1.0000 </r>
       <r>   -2.3019    1.0000 </r>
       <r>   -2.2080    1.0000 </r>
       <r>   -2.0275    1.0000 </r>
       <r>   -1.9252    1.0000 </r>
       <r>   -1.8417    1.0000 </r>
       <r>   -1.8013    1.0000 </r>
       <r>   -1.6993    1.0000 </r>
       <r>   -1.4505    1.0000 </r>
       <r>   -1.2605    1.0000 </r>
       <r>   -1.0856    1.0000 </r>
       <r>   -0.7185    1.0000 </r>
       <r>   -0.0873    0.1505 </r>
       <r>    0.6354    0.0000 </r>
       <r>    1.2703    0.0000 </r>
       <r>    1.3208    0.0000 </r>
       <r>    1.5044    0.0000 </r>
       <r>    1.5802    0.0000 </r>
       <r>    1.9596    0.0000 </r>
       <r>    2.1787    0.0000 </r>
       <r>    2.2630    0.0000 </r>
       <r>    2.4254    0.0000 </r>
       <r>    2.4776    0.0000 </r>
       <r>    2.6602    0.0000 </r>
       <r>    2.9024    0.0000 </r>
       <r>    2.9845    0.0000 </r>
      </set>
      <set comment="kpoint 13">
       <r>  -14.6448    1.0000 </r>
       <r>  -12.0048    1.0000 </r>
       <r>  -11.9299    1.0000 </r>
       <r>  -11.7140    1.0000 </r>
       <r>  -11.4311    1.0000 </r>
       <r>  -11.1976    1.0000 </r>
       <r>  -11.0189    1.0000 </r>
       <r>  -10.6794    1.0000 </r>
       <r>  -10.5567    1.0000 </r>
       <r>  -10.5106    1.0000 </r>
       <r>  -10.4315    1.0000 </r>
       <r>  -10.4180    1.0000 </r>
       <r>   -9.4968    1.0000 </r>
       <r>   -9.2243    1.0000 </r>
       <r>   -8.9149    1.0000 </r>
       <r>   -8.0648    1.0000 </r>
       <r>   -7.8464    1.0000 </r>
       <r>   -7.7338    1.0000 </r>
       <r>   -7.3114    1.0000 </r>
       <r>   -7.1822    1.0000 </r>
       <r>   -6.9311    1.0000 </r>
       <r>   -6.6503    1.0000 </r>
       <r>   -6.6148    1.0000 </r>
       <r>   -6.2537    1.0000 </r>
       <r>   -5.6320    1.0000 </r>
       <r>   -5.3037    1.0000 </r>
       <r>   -5.0049    1.0000 </r>
       <r>   -4.7383    1.0000 </r>
       <r>   -4.4803    1.0000 </r>
       <r>   -4.3632    1.0000 </r>
       <r>   -4.1855    1.0000 </r>
       <r>   -4.0704    1.0000 </r>
       <r>   -3.8155    1.0000 </r>
       <r>   -3.6683    1.0000 </r>
       <r>   -3.4724    1.0000 </r>
       <r>   -3.3083    1.0000 </r>
       <r>   -3.2422    1.0000 </r>
       <r>   -3.0848    1.0000 </r>
       <r>   -3.0452    1.0000 </r>
       <r>   -2.9069    1.0000 </r>
       <r>   -2.8225    1.0000 </r>
       <r>   -2.7091    1.0000 </r>
       <r>   -2.5951    1.0000 </r>
       <r>   -2.4234    1.0000 </r>
       <r>   -2.2960    1.0000 </r>
       <r>   -2.2170    1.0000 </r>
       <r>   -2.1569    1.0000 </r>
       <r>   -2.0297    1.0000 </r>
       <r>   -1.8705    1.0000 </r>
       <r>   -1.7709    1.0000 </r>
       <r>   -1.6197    1.0000 </r>
       <r>   -1.5298    1.0000 </r>
       <r>   -1.3850    1.0000 </r>
       <r>   -0.7021    1.0000 </r>
       <r>   -0.2835    0.9590 </r>
       <r>    0.3068    0.0000 </r>
       <r>    1.2359    0.0000 </r>
       <r>    1.3316    0.0000 </r>
       <r>    1.3881    0.0000 </r>
       <r>    1.5218    0.0000 </r>
       <r>    1.8573    0.0000 </r>
       <r>    1.9994    0.0000 </r>
       <r>    2.0768    0.0000 </r>
       <r>    2.1659    0.0000 </r>
       <r>    2.2248    0.0000 </r>
       <r>    2.6215    0.0000 </r>
       <r>    2.6831    0.0000 </r>
       <r>    2.7623    0.0000 </r>
      </set>
      <set comment="kpoint 14">
       <r>  -14.4085    1.0000 </r>
       <r>  -11.7834    1.0000 </r>
       <r>  -11.3833    1.0000 </r>
       <r>  -11.2189    1.0000 </r>
       <r>  -11.1178    1.0000 </r>
       <r>  -10.9107    1.0000 </r>
       <r>  -10.8191    1.0000 </r>
       <r>  -10.7465    1.0000 </r>
       <r>  -10.6548    1.0000 </r>
       <r>  -10.6318    1.0000 </r>
       <r>  -10.5374    1.0000 </r>
       <r>  -10.5146    1.0000 </r>
       <r>   -9.8529    1.0000 </r>
       <r>   -9.2555    1.0000 </r>
       <r>   -8.5093    1.0000 </r>
       <r>   -8.3540    1.0000 </r>
       <r>   -8.2810    1.0000 </r>
       <r>   -7.8794    1.0000 </r>
       <r>   -7.6030    1.0000 </r>
       <r>   -7.4702    1.0000 </r>
       <r>   -7.2703    1.0000 </r>
       <r>   -7.1691    1.0000 </r>
       <r>   -7.0941    1.0000 </r>
       <r>   -6.4462    1.0000 </r>
       <r>   -5.2998    1.0000 </r>
       <r>   -5.0263    1.0000 </r>
       <r>   -4.9637    1.0000 </r>
       <r>   -4.5317    1.0000 </r>
       <r>   -4.4241    1.0000 </r>
       <r>   -4.1831    1.0000 </r>
       <r>   -4.1039    1.0000 </r>
       <r>   -4.0320    1.0000 </r>
       <r>   -3.8845    1.0000 </r>
       <r>   -3.7833    1.0000 </r>
       <r>   -3.6163    1.0000 </r>
       <r>   -3.4628    1.0000 </r>
       <r>   -3.3591    1.0000 </r>
       <r>   -3.2371    1.0000 </r>
       <r>   -3.2046    1.0000 </r>
       <r>   -3.0685    1.0000 </r>
       <r>   -2.9461    1.0000 </r>
       <r>   -2.9057    1.0000 </r>
       <r>   -2.5846    1.0000 </r>
       <r>   -2.5480    1.0000 </r>
       <r>   -2.3965    1.0000 </r>
       <r>   -2.2429    1.0000 </r>
       <r>   -2.1530    1.0000 </r>
       <r>   -2.0768    1.0000 </r>
       <r>   -1.9027    1.0000 </r>
       <r>   -1.8482    1.0000 </r>
       <r>   -1.6511    1.0000 </r>
       <r>   -1.5211    1.0000 </r>
       <r>   -1.4362    1.0000 </r>
       <r>   -0.7453    1.0000 </r>
       <r>   -0.2755    0.9480 </r>
       <r>    0.0308    0.0034 </r>
       <r>    1.2435    0.0000 </r>
       <r>    1.4582    0.0000 </r>
       <r>    1.5220    0.0000 </r>
       <r>    1.5626    0.0000 </r>
       <r>    1.6160    0.0000 </r>
       <r>    1.7659    0.0000 </r>
       <r>    2.0267    0.0000 </r>
       <r>    2.0946    0.0000 </r>
       <r>    2.2378    0.0000 </r>
       <r>    2.4794    0.0000 </r>
       <r>    2.5057    0.0000 </r>
       <r>    2.5954    0.0000 </r>
      </set>
      <set comment="kpoint 15">
       <r>  -14.4086    1.0000 </r>
       <r>  -11.7877    1.0000 </r>
       <r>  -11.4885    1.0000 </r>
       <r>  -11.0894    1.0000 </r>
       <r>  -11.0254    1.0000 </r>
       <r>  -10.8838    1.0000 </r>
       <r>  -10.7640    1.0000 </r>
       <r>  -10.7335    1.0000 </r>
       <r>  -10.7105    1.0000 </r>
       <r>  -10.6722    1.0000 </r>
       <r>  -10.6584    1.0000 </r>
       <r>  -10.5157    1.0000 </r>
       <r>   -9.8526    1.0000 </r>
       <r>   -9.2740    1.0000 </r>
       <r>   -8.7115    1.0000 </r>
       <r>   -8.3866    1.0000 </r>
       <r>   -7.8979    1.0000 </r>
       <r>   -7.8546    1.0000 </r>
       <r>   -7.6298    1.0000 </r>
       <r>   -7.5575    1.0000 </r>
       <r>   -7.2351    1.0000 </r>
       <r>   -7.1771    1.0000 </r>
       <r>   -7.1077    1.0000 </r>
       <r>   -6.4568    1.0000 </r>
       <r>   -5.2793    1.0000 </r>
       <r>   -5.0436    1.0000 </r>
       <r>   -4.6880    1.0000 </r>
       <r>   -4.5336    1.0000 </r>
       <r>   -4.4750    1.0000 </r>
       <r>   -4.3164    1.0000 </r>
       <r>   -4.0683    1.0000 </r>
       <r>   -3.9650    1.0000 </r>
       <r>   -3.9568    1.0000 </r>
       <r>   -3.8479    1.0000 </r>
       <r>   -3.8380    1.0000 </r>
       <r>   -3.6441    1.0000 </r>
       <r>   -3.5334    1.0000 </r>
       <r>   -3.3082    1.0000 </r>
       <r>   -3.1087    1.0000 </r>
       <r>   -3.0865    1.0000 </r>
       <r>   -2.9208    1.0000 </r>
       <r>   -2.7422    1.0000 </r>
       <r>   -2.6310    1.0000 </r>
       <r>   -2.3810    1.0000 </r>
       <r>   -2.3300    1.0000 </r>
       <r>   -2.1894    1.0000 </r>
       <r>   -2.1208    1.0000 </r>
       <r>   -2.1101    1.0000 </r>
       <r>   -1.9370    1.0000 </r>
       <r>   -1.8616    1.0000 </r>
       <r>   -1.6197    1.0000 </r>
       <r>   -1.4677    1.0000 </r>
       <r>   -1.3692    1.0000 </r>
       <r>   -0.7338    1.0000 </r>
       <r>   -0.3078    0.9814 </r>
       <r>    0.0628    0.0008 </r>
       <r>    1.2070    0.0000 </r>
       <r>    1.4020    0.0000 </r>
       <r>    1.5339    0.0000 </r>
       <r>    1.6920    0.0000 </r>
       <r>    1.7894    0.0000 </r>
       <r>    1.8040    0.0000 </r>
       <r>    2.0395    0.0000 </r>
       <r>    2.2546    0.0000 </r>
       <r>    2.3651    0.0000 </r>
       <r>    2.4034    0.0000 </r>
       <r>    2.5693    0.0000 </r>
       <r>    2.6145    0.0000 </r>
      </set>
      <set comment="kpoint 16">
       <r>  -14.6452    1.0000 </r>
       <r>  -12.0583    1.0000 </r>
       <r>  -11.9830    1.0000 </r>
       <r>  -11.4883    1.0000 </r>
       <r>  -11.4395    1.0000 </r>
       <r>  -11.1956    1.0000 </r>
       <r>  -10.8940    1.0000 </r>
       <r>  -10.8726    1.0000 </r>
       <r>  -10.6244    1.0000 </r>
       <r>  -10.5856    1.0000 </r>
       <r>  -10.4188    1.0000 </r>
       <r>  -10.4025    1.0000 </r>
       <r>   -9.5225    1.0000 </r>
       <r>   -9.2421    1.0000 </r>
       <r>   -8.6963    1.0000 </r>
       <r>   -8.4438    1.0000 </r>
       <r>   -7.7178    1.0000 </r>
       <r>   -7.3943    1.0000 </r>
       <r>   -7.3013    1.0000 </r>
       <r>   -7.2744    1.0000 </r>
       <r>   -6.8463    1.0000 </r>
       <r>   -6.7651    1.0000 </r>
       <r>   -6.6198    1.0000 </r>
       <r>   -6.2644    1.0000 </r>
       <r>   -5.5584    1.0000 </r>
       <r>   -5.1250    1.0000 </r>
       <r>   -4.9696    1.0000 </r>
       <r>   -4.7886    1.0000 </r>
       <r>   -4.3712    1.0000 </r>
       <r>   -4.3280    1.0000 </r>
       <r>   -4.2121    1.0000 </r>
       <r>   -4.1685    1.0000 </r>
       <r>   -4.0397    1.0000 </r>
       <r>   -3.9842    1.0000 </r>
       <r>   -3.6770    1.0000 </r>
       <r>   -3.3885    1.0000 </r>
       <r>   -3.3443    1.0000 </r>
       <r>   -3.2422    1.0000 </r>
       <r>   -3.1334    1.0000 </r>
       <r>   -3.0479    1.0000 </r>
       <r>   -2.7328    1.0000 </r>
       <r>   -2.6315    1.0000 </r>
       <r>   -2.4728    1.0000 </r>
       <r>   -2.2383    1.0000 </r>
       <r>   -2.1805    1.0000 </r>
       <r>   -2.1539    1.0000 </r>
       <r>   -1.9881    1.0000 </r>
       <r>   -1.9038    1.0000 </r>
       <r>   -1.8977    1.0000 </r>
       <r>   -1.7732    1.0000 </r>
       <r>   -1.6437    1.0000 </r>
       <r>   -1.4460    1.0000 </r>
       <r>   -1.2998    1.0000 </r>
       <r>   -0.6959    1.0000 </r>
       <r>   -0.2648    0.9300 </r>
       <r>    0.3552    0.0000 </r>
       <r>    1.2426    0.0000 </r>
       <r>    1.4332    0.0000 </r>
       <r>    1.4884    0.0000 </r>
       <r>    1.8087    0.0000 </r>
       <r>    1.9426    0.0000 </r>
       <r>    2.1113    0.0000 </r>
       <r>    2.1518    0.0000 </r>
       <r>    2.3098    0.0000 </r>
       <r>    2.4428    0.0000 </r>
       <r>    2.5400    0.0000 </r>
       <r>    2.6235    0.0000 </r>
       <r>    2.7270    0.0000 </r>
      </set>
      <set comment="kpoint 17">
       <r>  -14.9768    1.0000 </r>
       <r>  -12.5508    1.0000 </r>
       <r>  -12.3641    1.0000 </r>
       <r>  -11.9056    1.0000 </r>
       <r>  -11.8956    1.0000 </r>
       <r>  -11.5955    1.0000 </r>
       <r>  -11.2041    1.0000 </r>
       <r>  -11.1537    1.0000 </r>
       <r>  -10.8077    1.0000 </r>
       <r>  -10.7288    1.0000 </r>
       <r>  -10.3756    1.0000 </r>
       <r>  -10.0409    1.0000 </r>
       <r>   -9.2849    1.0000 </r>
       <r>   -8.9789    1.0000 </r>
       <r>   -8.5088    1.0000 </r>
       <r>   -8.1403    1.0000 </r>
       <r>   -7.4124    1.0000 </r>
       <r>   -7.1085    1.0000 </r>
       <r>   -6.9542    1.0000 </r>
       <r>   -6.8241    1.0000 </r>
       <r>   -6.4351    1.0000 </r>
       <r>   -6.1119    1.0000 </r>
       <r>   -5.9284    1.0000 </r>
       <r>   -5.8055    1.0000 </r>
       <r>   -5.6410    1.0000 </r>
       <r>   -5.1631    1.0000 </r>
       <r>   -5.0606    1.0000 </r>
       <r>   -4.8277    1.0000 </r>
       <r>   -4.6010    1.0000 </r>
       <r>   -4.5448    1.0000 </r>
       <r>   -4.2653    1.0000 </r>
       <r>   -4.1963    1.0000 </r>
       <r>   -4.0705    1.0000 </r>
       <r>   -3.8747    1.0000 </r>
       <r>   -3.4124    1.0000 </r>
       <r>   -3.2489    1.0000 </r>
       <r>   -3.2081    1.0000 </r>
       <r>   -3.0454    1.0000 </r>
       <r>   -3.0198    1.0000 </r>
       <r>   -2.9287    1.0000 </r>
       <r>   -2.7388    1.0000 </r>
       <r>   -2.5497    1.0000 </r>
       <r>   -2.2592    1.0000 </r>
       <r>   -2.1921    1.0000 </r>
       <r>   -2.0308    1.0000 </r>
       <r>   -1.9710    1.0000 </r>
       <r>   -1.8432    1.0000 </r>
       <r>   -1.8042    1.0000 </r>
       <r>   -1.7577    1.0000 </r>
       <r>   -1.6593    1.0000 </r>
       <r>   -1.3386    1.0000 </r>
       <r>   -1.3077    1.0000 </r>
       <r>   -1.1099    1.0000 </r>
       <r>   -0.7498    1.0000 </r>
       <r>    0.0014    0.0110 </r>
       <r>    0.7146    0.0000 </r>
       <r>    1.3772    0.0000 </r>
       <r>    1.4814    0.0000 </r>
       <r>    1.6697    0.0000 </r>
       <r>    1.9215    0.0000 </r>
       <r>    2.0246    0.0000 </r>
       <r>    2.2441    0.0000 </r>
       <r>    2.3005    0.0000 </r>
       <r>    2.4064    0.0000 </r>
       <r>    2.5529    0.0000 </r>
       <r>    2.6963    0.0000 </r>
       <r>    2.7618    0.0000 </r>
       <r>    2.9838    0.0000 </r>
      </set>
      <set comment="kpoint 18">
       <r>  -15.2932    1.0000 </r>
       <r>  -12.9459    1.0000 </r>
       <r>  -12.7292    1.0000 </r>
       <r>  -12.3068    1.0000 </r>
       <r>  -12.2513    1.0000 </r>
       <r>  -11.9480    1.0000 </r>
       <r>  -11.5116    1.0000 </r>
       <r>  -11.4662    1.0000 </r>
       <r>  -11.0536    1.0000 </r>
       <r>  -10.9846    1.0000 </r>
       <r>  -10.5540    1.0000 </r>
       <r>   -9.9023    1.0000 </r>
       <r>   -8.8537    1.0000 </r>
       <r>   -8.6934    1.0000 </r>
       <r>   -8.3528    1.0000 </r>
       <r>   -7.7352    1.0000 </r>
       <r>   -7.2500    1.0000 </r>
       <r>   -6.9164    1.0000 </r>
       <r>   -6.6432    1.0000 </r>
       <r>   -6.5919    1.0000 </r>
       <r>   -6.2397    1.0000 </r>
       <r>   -5.7009    1.0000 </r>
       <r>   -5.6372    1.0000 </r>
       <r>   -5.2895    1.0000 </r>
       <r>   -5.1184    1.0000 </r>
       <r>   -4.8321    1.0000 </r>
       <r>   -4.7402    1.0000 </r>
       <r>   -4.5525    1.0000 </r>
       <r>   -4.4674    1.0000 </r>
       <r>   -4.4097    1.0000 </r>
       <r>   -4.1296    1.0000 </r>
       <r>   -4.0311    1.0000 </r>
       <r>   -3.7796    1.0000 </r>
       <r>   -3.7317    1.0000 </r>
       <r>   -3.4254    1.0000 </r>
       <r>   -3.3658    1.0000 </r>
       <r>   -3.0732    1.0000 </r>
       <r>   -2.9551    1.0000 </r>
       <r>   -2.8240    1.0000 </r>
       <r>   -2.7504    1.0000 </r>
       <r>   -2.5931    1.0000 </r>
       <r>   -2.4213    1.0000 </r>
       <r>   -2.3467    1.0000 </r>
       <r>   -2.1415    1.0000 </r>
       <r>   -1.9231    1.0000 </r>
       <r>   -1.8553    1.0000 </r>
       <r>   -1.7755    1.0000 </r>
       <r>   -1.6972    1.0000 </r>
       <r>   -1.4346    1.0000 </r>
       <r>   -1.4181    1.0000 </r>
       <r>   -1.0504    1.0000 </r>
       <r>   -0.9461    1.0000 </r>
       <r>   -0.8251    1.0000 </r>
       <r>   -0.5143    1.0000 </r>
       <r>    0.2573    0.0000 </r>
       <r>    0.9588    0.0000 </r>
       <r>    1.0875    0.0000 </r>
       <r>    1.7261    0.0000 </r>
       <r>    1.8534    0.0000 </r>
       <r>    2.0054    0.0000 </r>
       <r>    2.1025    0.0000 </r>
       <r>    2.3197    0.0000 </r>
       <r>    2.4181    0.0000 </r>
       <r>    2.6680    0.0000 </r>
       <r>    2.7490    0.0000 </r>
       <r>    2.7567    0.0000 </r>
       <r>    2.9505    0.0000 </r>
[...]
       <r>    2.8122    0.0000 </r>
      </set>
      <set comment="kpoint 54">
       <r>  -14.4085    1.0000 </r>
       <r>  -11.7853    1.0000 </r>
       <r>  -11.4432    1.0000 </r>
       <r>  -11.1241    1.0000 </r>
       <r>  -11.1053    1.0000 </r>
       <r>  -10.9007    1.0000 </r>
       <r>  -10.8047    1.0000 </r>
       <r>  -10.7440    1.0000 </r>
       <r>  -10.6769    1.0000 </r>
       <r>  -10.6455    1.0000 </r>
       <r>  -10.5764    1.0000 </r>
       <r>  -10.5168    1.0000 </r>
       <r>   -9.8528    1.0000 </r>
       <r>   -9.2636    1.0000 </r>
       <r>   -8.6201    1.0000 </r>
       <r>   -8.3933    1.0000 </r>
       <r>   -8.0730    1.0000 </r>
       <r>   -7.8695    1.0000 </r>
       <r>   -7.6149    1.0000 </r>
       <r>   -7.5141    1.0000 </r>
       <r>   -7.2451    1.0000 </r>
       <r>   -7.1465    1.0000 </r>
       <r>   -7.1203    1.0000 </r>
       <r>   -6.4501    1.0000 </r>
       <r>   -5.3033    1.0000 </r>
       <r>   -5.0178    1.0000 </r>
       <r>   -4.8944    1.0000 </r>
       <r>   -4.5125    1.0000 </r>
       <r>   -4.4334    1.0000 </r>
       <r>   -4.2367    1.0000 </r>
       <r>   -4.0977    1.0000 </r>
       <r>   -4.0072    1.0000 </r>
       <r>   -3.9057    1.0000 </r>
       <r>   -3.7674    1.0000 </r>
       <r>   -3.7205    1.0000 </r>
       <r>   -3.5450    1.0000 </r>
       <r>   -3.4484    1.0000 </r>
       <r>   -3.2456    1.0000 </r>
       <r>   -3.2125    1.0000 </r>
       <r>   -3.0263    1.0000 </r>
       <r>   -2.9467    1.0000 </r>
       <r>   -2.9174    1.0000 </r>
       <r>   -2.6397    1.0000 </r>
       <r>   -2.4559    1.0000 </r>
       <r>   -2.3265    1.0000 </r>
       <r>   -2.1706    1.0000 </r>
       <r>   -2.1303    1.0000 </r>
       <r>   -2.0776    1.0000 </r>
       <r>   -1.9253    1.0000 </r>
       <r>   -1.8662    1.0000 </r>
       <r>   -1.6461    1.0000 </r>
       <r>   -1.5001    1.0000 </r>
       <r>   -1.4063    1.0000 </r>
       <r>   -0.7379    1.0000 </r>
       <r>   -0.2882    0.9645 </r>
       <r>    0.0422    0.0021 </r>
       <r>    1.2132    0.0000 </r>
       <r>    1.3914    0.0000 </r>
       <r>    1.4765    0.0000 </r>
       <r>    1.6301    0.0000 </r>
       <r>    1.6701    0.0000 </r>
       <r>    1.8961    0.0000 </r>
       <r>    2.0224    0.0000 </r>
       <r>    2.0815    0.0000 </r>
       <r>    2.3471    0.0000 </r>
       <r>    2.4026    0.0000 </r>
       <r>    2.5129    0.0000 </r>
       <r>    2.7136    0.0000 </r>
      </set>
     </set>
    </set>
   </array>
  </eigenvalues>
  <separator name="orbital magnetization" >
   <v name="MAGDIPOLOUT">      0.00000000      0.00000000      0.00000000</v>
  </separator>
  <dos>
   <i name="efermi">     -0.16047533 </i>
   <total>
    <array>
     <dimension dim="1">gridpoints</dimension>
     <dimension dim="2">spin</dimension>
     <field>energy</field>
     <field>total</field>
     <field>integrated</field>
     <set>
      <set comment="spin 1">
       <r>   -16.7500     0.0000     0.0000 </r>
       <r>   -16.6804     0.0000     0.0000 </r>
       <r>   -16.6107     0.0000     0.0000 </r>
       <r>   -16.5411     0.0000     0.0000 </r>
       <r>   -16.4715     0.0000     0.0000 </r>
       <r>   -16.4018     0.0000     0.0000 </r>
       <r>   -16.3322     0.0000     0.0000 </r>
       <r>   -16.2626     0.0000     0.0000 </r>
       <r>   -16.1929     0.0000     0.0000 </r>
       <r>   -16.1233     0.0000     0.0000 </r>
       <r>   -16.0537     0.0000     0.0000 </r>
       <r>   -15.9840     0.0011     0.0001 </r>
       <r>   -15.9144     0.0251     0.0018 </r>
       <r>   -15.8448     0.2496     0.0192 </r>
       <r>   -15.7751     1.1060     0.0962 </r>
       <r>   -15.7055     2.2682     0.2542 </r>
       <r>   -15.6359     2.3913     0.4207 </r>
       <r>   -15.5662     2.0231     0.5616 </r>
       <r>   -15.4966     1.8072     0.6874 </r>
       <r>   -15.4270     1.0662     0.7616 </r>
       <r>   -15.3573     0.8878     0.8235 </r>
       <r>   -15.2877     1.5585     0.9320 </r>
       <r>   -15.2181     1.4419     1.0324 </r>
       <r>   -15.1484     0.5821     1.0729 </r>
       <r>   -15.0788     0.3789     1.0993 </r>
       <r>   -15.0092     1.1012     1.1760 </r>
       <r>   -14.9395     1.6678     1.2921 </r>
       <r>   -14.8699     1.0407     1.3646 </r>
       <r>   -14.8003     0.3219     1.3870 </r>
       <r>   -14.7306     0.4639     1.4193 </r>
       <r>   -14.6610     1.3167     1.5110 </r>
       <r>   -14.5914     1.6354     1.6249 </r>
       <r>   -14.5217     1.0309     1.6966 </r>
       <r>   -14.4521     1.1123     1.7741 </r>
       <r>   -14.3825     1.6702     1.8904 </r>
       <r>   -14.3128     1.1854     1.9729 </r>
       <r>   -14.2432     0.3457     1.9970 </r>
       <r>   -14.1736     0.0408     1.9999 </r>
       <r>   -14.1039     0.0019     2.0000 </r>
       <r>   -14.0343     0.0000     2.0000 </r>
       <r>   -13.9647     0.0000     2.0000 </r>
       <r>   -13.8950     0.0000     2.0000 </r>
       <r>   -13.8254     0.0000     2.0000 </r>
       <r>   -13.7558     0.0001     2.0000 </r>
       <r>   -13.6861     0.0024     2.0002 </r>
       <r>   -13.6165     0.0353     2.0026 </r>
       <r>   -13.5469     0.2498     2.0200 </r>
       <r>   -13.4772     0.8984     2.0826 </r>
       <r>   -13.4076     1.7705     2.2059 </r>
       <r>   -13.3380     2.3695     2.3709 </r>
       <r>   -13.2683     3.1604     2.5909 </r>
       <r>   -13.1987     4.0487     2.8729 </r>
       <r>   -13.1291     3.8592     3.1416 </r>
       <r>   -13.0594     3.3080     3.3719 </r>
       <r>   -12.9898     3.3906     3.6080 </r>
       <r>   -12.9202     3.5610     3.8560 </r>
       <r>   -12.8505     3.7432     4.1166 </r>
       <r>   -12.7809     4.2656     4.4137 </r>
       <r>   -12.7113     4.7158     4.7420 </r>
       <r>   -12.6416     4.4854     5.0544 </r>
       <r>   -12.5720     4.6073     5.3752 </r>
       <r>   -12.5024     5.4066     5.7517 </r>
       <r>   -12.4327     6.1536     6.1802 </r>
       <r>   -12.3631     6.4698     6.6307 </r>
       <r>   -12.2935     5.4632     7.0111 </r>
       <r>   -12.2238     4.6493     7.3349 </r>
       <r>   -12.1542     4.6238     7.6568 </r>
       <r>   -12.0846     4.7817     7.9898 </r>
       <r>   -12.0149     6.2249     8.4233 </r>
       <r>   -11.9453     8.2241     8.9959 </r>
       <r>   -11.8757     8.3450     9.5770 </r>
       <r>   -11.8060     7.4394    10.0951 </r>
       <r>   -11.7364     6.4931    10.5472 </r>
       <r>   -11.6668     5.5115    10.9310 </r>
       <r>   -11.5971     5.6205    11.3224 </r>
       <r>   -11.5275     6.9573    11.8068 </r>
       <r>   -11.4579     8.9973    12.4333 </r>
       <r>   -11.3882     9.5300    13.0969 </r>
       <r>   -11.3186     8.2940    13.6745 </r>
       <r>   -11.2490     8.0925    14.2380 </r>
       <r>   -11.1793     8.8779    14.8562 </r>
       <r>   -11.1097     8.6060    15.4554 </r>
       <r>   -11.0401     7.9371    16.0081 </r>
       <r>   -10.9704     8.4630    16.5974 </r>
       <r>   -10.9008     9.4339    17.2543 </r>
       <r>   -10.8312     9.5649    17.9204 </r>
       <r>   -10.7615    10.5374    18.6541 </r>
       <r>   -10.6919    11.4881    19.4541 </r>
       <r>   -10.6223    10.9747    20.2183 </r>
       <r>   -10.5526    10.2933    20.9350 </r>
       <r>   -10.4830     8.8521    21.5514 </r>
       <r>   -10.4134     6.9679    22.0366 </r>
       <r>   -10.3437     5.1112    22.3925 </r>
       <r>   -10.2741     2.4975    22.5665 </r>
       <r>   -10.2045     0.7517    22.6188 </r>
       <r>   -10.1348     1.0072    22.6889 </r>
       <r>   -10.0652     3.2075    22.9123 </r>
       <r>    -9.9956     5.3993    23.2883 </r>
       <r>    -9.9259     5.6563    23.6821 </r>
       <r>    -9.8563     4.8496    24.0198 </r>
       <r>    -9.7867     2.9935    24.2283 </r>
       <r>    -9.7170     0.9919    24.2973 </r>
       <r>    -9.6474     0.2580    24.3153 </r>
       <r>    -9.5778     0.6429    24.3601 </r>
       <r>    -9.5081     1.5004    24.4645 </r>
       <r>    -9.4385     1.5483    24.5723 </r>
       <r>    -9.3689     1.3445    24.6660 </r>
       <r>    -9.2992     3.0072    24.8754 </r>
       <r>    -9.2296     4.9099    25.2173 </r>
       <r>    -9.1600     3.9218    25.4903 </r>
       <r>    -9.0903     2.6553    25.6752 </r>
       <r>    -9.0207     3.8890    25.9461 </r>
       <r>    -8.9511     5.8931    26.3564 </r>
       <r>    -8.8814     6.3444    26.7982 </r>
       <r>    -8.8118     5.3199    27.1686 </r>
       <r>    -8.7422     4.9463    27.5131 </r>
       <r>    -8.6725     5.6665    27.9076 </r>
       <r>    -8.6029     4.9566    28.2528 </r>
       <r>    -8.5333     3.5478    28.4998 </r>
       <r>    -8.4636     3.2985    28.7295 </r>
       <r>    -8.3940     3.9655    29.0056 </r>
       <r>    -8.3244     4.2317    29.3003 </r>
       <r>    -8.2547     3.1067    29.5166 </r>
       <r>    -8.1851     1.9840    29.6548 </r>
       <r>    -8.1155     2.1456    29.8042 </r>
       <r>    -8.0458     2.9412    30.0090 </r>
       <r>    -7.9762     3.5503    30.2562 </r>
       <r>    -7.9066     4.3408    30.5585 </r>
       <r>    -7.8369     5.0058    30.9071 </r>
       <r>    -7.7673     5.0947    31.2618 </r>
       <r>    -7.6977     5.0827    31.6157 </r>
       <r>    -7.6280     5.0506    31.9674 </r>
       <r>    -7.5584     5.3759    32.3418 </r>
       <r>    -7.4888     5.9811    32.7583 </r>
       <r>    -7.4191     6.8943    33.2383 </r>
       <r>    -7.3495     8.3577    33.8203 </r>
       <r>    -7.2799    10.8617    34.5766 </r>
       <r>    -7.2102    12.4854    35.4460 </r>
       <r>    -7.1406    11.0708    36.2169 </r>
       <r>    -7.0710     7.8162    36.7612 </r>
       <r>    -7.0013     5.4087    37.1378 </r>
       <r>    -6.9317     5.7223    37.5363 </r>
       <r>    -6.8621     6.8657    38.0144 </r>
       <r>    -6.7924     6.8888    38.4941 </r>
       <r>    -6.7228     6.7848    38.9665 </r>
       <r>    -6.6532     8.7625    39.5767 </r>
       <r>    -6.5835    10.7634    40.3262 </r>
       <r>    -6.5139     9.7501    41.0051 </r>
       <r>    -6.4443     8.2363    41.5786 </r>
       <r>    -6.3746     6.7166    42.0463 </r>
       <r>    -6.3050     6.0523    42.4678 </r>
       <r>    -6.2354     7.4221    42.9846 </r>
       <r>    -6.1657     7.3525    43.4966 </r>
       <r>    -6.0961     5.2589    43.8628 </r>
       <r>    -6.0265     3.1658    44.0832 </r>
       <r>    -5.9568     2.3534    44.2471 </r>
       <r>    -5.8872     3.0607    44.4602 </r>
       <r>    -5.8176     4.0235    44.7404 </r>
       <r>    -5.7479     5.3912    45.1158 </r>
       <r>    -5.6783     7.8240    45.6606 </r>
       <r>    -5.6087     9.5180    46.3234 </r>
       <r>    -5.5390     8.1891    46.8936 </r>
       <r>    -5.4694     5.4841    47.2755 </r>
       <r>    -5.3998     3.6338    47.5285 </r>
       <r>    -5.3301     3.7814    47.7918 </r>
       <r>    -5.2605     4.8128    48.1269 </r>
       <r>    -5.1909     4.9088    48.4688 </r>
       <r>    -5.1212     5.5701    48.8566 </r>
       <r>    -5.0516     7.1469    49.3543 </r>
       <r>    -4.9820     7.9370    49.9070 </r>
       <r>    -4.9123     7.4357    50.4247 </r>
       <r>    -4.8427     7.8052    50.9682 </r>
       <r>    -4.7731     8.4689    51.5580 </r>
       <r>    -4.7034     8.2804    52.1346 </r>
       <r>    -4.6338     8.6282    52.7354 </r>
       <r>    -4.5642    10.0618    53.4360 </r>
       <r>    -4.4945    11.4555    54.2337 </r>
       <r>    -4.4249    11.3484    55.0239 </r>
       <r>    -4.3553     9.7582    55.7034 </r>
       <r>    -4.2856     8.9588    56.3272 </r>
       <r>    -4.2160    10.0675    57.0283 </r>
       <r>    -4.1464    11.8249    57.8517 </r>
       <r>    -4.0767    14.3139    58.8484 </r>
       <r>    -4.0071    16.6428    60.0073 </r>
       <r>    -3.9375    15.4446    61.0827 </r>
       <r>    -3.8678    11.9645    61.9159 </r>
       <r>    -3.7982    10.4951    62.6467 </r>
       <r>    -3.7286    10.9648    63.4102 </r>
       <r>    -3.6589    10.6119    64.1491 </r>
       <r>    -3.5893     9.5575    64.8147 </r>
       <r>    -3.5197     9.0428    65.4443 </r>
       <r>    -3.4500    10.2899    66.1609 </r>
       <r>    -3.3804    13.1518    67.0767 </r>
       <r>    -3.3108    16.2138    68.2057 </r>
       <r>    -3.2411    18.1192    69.4674 </r>
       <r>    -3.1715    17.3491    70.6755 </r>
       <r>    -3.1019    16.4455    71.8206 </r>
       <r>    -3.0322    18.5942    73.1154 </r>
       <r>    -2.9626    20.0170    74.5092 </r>
       <r>    -2.8930    18.5241    75.7991 </r>
       <r>    -2.8233    15.4453    76.8746 </r>
       <r>    -2.7537    13.8606    77.8398 </r>
       <r>    -2.6841    13.8367    78.8033 </r>
       <r>    -2.6144    14.2041    79.7924 </r>
       <r>    -2.5448    14.9972    80.8367 </r>
       <r>    -2.4752    15.3493    81.9055 </r>
       <r>    -2.4055    15.2856    82.9699 </r>
       <r>    -2.3359    14.8385    84.0031 </r>
       <r>    -2.2663    14.7390    85.0295 </r>
       <r>    -2.1966    16.2726    86.1626 </r>
       <r>    -2.1270    18.5467    87.4540 </r>
       <r>    -2.0574    18.9137    88.7711 </r>
       <r>    -1.9877    18.6111    90.0670 </r>
       <r>    -1.9181    20.6731    91.5066 </r>
       <r>    -1.8485    22.1642    93.0499 </r>
       <r>    -1.7788    20.4773    94.4758 </r>
       <r>    -1.7092    17.4735    95.6926 </r>
       <r>    -1.6396    14.3339    96.6907 </r>
       <r>    -1.5699    11.6753    97.5037 </r>
       <r>    -1.5003    11.2945    98.2901 </r>
       <r>    -1.4307    12.9886    99.1946 </r>
       <r>    -1.3610    13.7126   100.1494 </r>
       <r>    -1.2914    12.1815   100.9977 </r>
       <r>    -1.2218     9.2100   101.6390 </r>
       <r>    -1.1521     7.5331   102.1635 </r>
       <r>    -1.0825     8.5209   102.7569 </r>
       <r>    -1.0129     9.0864   103.3896 </r>
       <r>    -0.9432     8.2957   103.9673 </r>
       <r>    -0.8736     7.2825   104.4744 </r>
       <r>    -0.8040     6.0917   104.8986 </r>
       <r>    -0.7343     6.1715   105.3283 </r>
       <r>    -0.6647     6.1408   105.7559 </r>
       <r>    -0.5951     4.2471   106.0516 </r>
       <r>    -0.5254     2.5201   106.2271 </r>
       <r>    -0.4558     2.5987   106.4081 </r>
       <r>    -0.3862     4.4054   106.7148 </r>
       <r>    -0.3165     6.5975   107.1742 </r>
       <r>    -0.2469     6.4120   107.6207 </r>
       <r>    -0.1773     4.5017   107.9342 </r>
       <r>    -0.1076     3.9733   108.2109 </r>
       <r>    -0.0380     4.2779   108.5088 </r>
       <r>     0.0316     4.3964   108.8149 </r>
       <r>     0.1013     3.8444   109.0826 </r>
       <r>     0.1709     3.3321   109.3146 </r>
       <r>     0.2405     3.7953   109.5789 </r>
       <r>     0.3101     4.2237   109.8730 </r>
       <r>     0.3798     3.6413   110.1266 </r>
       <r>     0.4494     2.7212   110.3160 </r>
       <r>     0.5190     2.1524   110.4659 </r>
       <r>     0.5887     2.4582   110.6371 </r>
       <r>     0.6583     2.8852   110.8380 </r>
       <r>     0.7279     2.2895   110.9974 </r>
       <r>     0.7976     1.7495   111.1192 </r>
       <r>     0.8672     2.6723   111.3053 </r>
       <r>     0.9368     4.0891   111.5901 </r>
       <r>     1.0065     4.2573   111.8865 </r>
       <r>     1.0761     4.6246   112.2085 </r>
       <r>     1.1457     6.2872   112.6463 </r>
       <r>     1.2154     7.6873   113.1816 </r>
       <r>     1.2850     8.3491   113.7630 </r>
       <r>     1.3546     8.6746   114.3671 </r>
       <r>     1.4243     9.4905   115.0279 </r>
       <r>     1.4939    11.1626   115.8052 </r>
       <r>     1.5635    12.1251   116.6495 </r>
       <r>     1.6332    12.0386   117.4878 </r>
       <r>     1.7028    11.9918   118.3228 </r>
       <r>     1.7724    11.7686   119.1423 </r>
       <r>     1.8421    11.1872   119.9213 </r>
       <r>     1.9117    10.4910   120.6518 </r>
       <r>     1.9813    11.0812   121.4234 </r>
       <r>     2.0510    12.2964   122.2797 </r>
       <r>     2.1206    12.6568   123.1610 </r>
       <r>     2.1902    12.7228   124.0470 </r>
       <r>     2.2599    14.0012   125.0219 </r>
       <r>     2.3295    15.2063   126.0808 </r>
       <r>     2.3991    14.5479   127.0938 </r>
       <r>     2.4688    13.6832   128.0466 </r>
       <r>     2.5384    13.6524   128.9973 </r>
       <r>     2.6080    14.0333   129.9744 </r>
       <r>     2.6777    15.1839   131.0317 </r>
       <r>     2.7473    16.3165   132.1679 </r>
       <r>     2.8169    14.5906   133.1839 </r>
       <r>     2.8866    11.2627   133.9682 </r>
       <r>     2.9562     9.3750   134.6210 </r>
       <r>     3.0258     8.4031   135.2061 </r>
       <r>     3.0955     6.2284   135.6398 </r>
       <r>     3.1651     3.5209   135.8850 </r>
       <r>     3.2347     1.3497   135.9790 </r>
       <r>     3.3044     0.2754   135.9981 </r>
       <r>     3.3740     0.0256   135.9999 </r>
       <r>     3.4436     0.0010   136.0000 </r>
       <r>     3.5133     0.0000   136.0000 </r>
       <r>     3.5829     0.0000   136.0000 </r>
       <r>     3.6525     0.0000   136.0000 </r>
       <r>     3.7222     0.0000   136.0000 </r>
       <r>     3.7918     0.0000   136.0000 </r>
       <r>     3.8614     0.0000   136.0000 </r>
       <r>     3.9311     0.0000   136.0000 </r>
       <r>     4.0007     0.0000   136.0000 </r>
       <r>     4.0703     0.0000   136.0000 </r>
       <r>     4.1400     0.0000   136.0000 </r>
      </set>
     </set>
    </array>
   </total>
  </dos>
 </calculation>
 <structure name="finalpos" >
  <crystal>
   <varray name="basis" >
    <v>       3.54040000       0.00000000       0.00000000 </v>
    <v>      -1.77020000      10.29434800       0.00000000 </v>
    <v>       0.00000000       0.00000000      27.50142900 </v>
   </varray>
   <i name="volume">   1002.32009712 </i>
   <varray name="rec_basis" >
    <v>       0.28245396       0.04857034       0.00000000 </v>
    <v>       0.00000000       0.09714068       0.00000000 </v>
    <v>       0.00000000       0.00000000       0.03636175 </v>
   </varray>
  </crystal>
  <varray name="positions" >
   <v>       0.11402300       0.22804500       0.23316207 </v>
   <v>       0.31402300       0.62804500       0.51499159 </v>
   <v>       0.45808900       0.91617900       0.20939482 </v>
   <v>       0.65808900       0.31617900       0.49122434 </v>
   <v>       0.31085400       0.62170900       0.08414979 </v>
   <v>       0.31085400       0.62170900       0.36597930 </v>
   <v>       0.99923000       0.99846000       0.08631254 </v>
   <v>       0.99923000       0.99846000       0.36814206 </v>
   <v>       0.65492700       0.30985400       0.06041748 </v>
   <v>       0.65492700       0.30985400       0.34224700 </v>
   <v>       0.76973800       0.53947500       0.20725292 </v>
   <v>       0.96973800       0.93947500       0.48908244 </v>
   <v>       0.93971600       0.87943300       0.15783749 </v>
   <v>       0.13971600       0.27943300       0.43966701 </v>
   <v>       0.20515200       0.41030300       0.18578822 </v>
   <v>       0.40515200       0.81030300       0.46761774 </v>
   <v>       0.20184900       0.40369900       0.09969156 </v>
   <v>       0.20184900       0.40369900       0.38152107 </v>
   <v>       0.56380500       0.12761000       0.10779021 </v>
   <v>       0.56380500       0.12761000       0.38961973 </v>
   <v>       0.56710600       0.13421200       0.19387616 </v>
   <v>       0.76710600       0.53421200       0.47570568 </v>
   <v>       0.82923400       0.65846800       0.13571444 </v>
   <v>       0.02923400       0.05846800       0.41754396 </v>
  </varray>
 </structure>
</modeling>
