    3    3   50    1
  0.6796202E+02  0.3189484E-09  0.3189484E-09  0.2314280E-08  0.5000000E-15
  1.000000000000000E-004
  CAR 
 unknown system                          
     18     21     16
 
  0.0000000E+00  0.0000000E+00  0.0000000E+00  0.5917160E-02
    1      -17.163427   1.000000
    2      -15.964366   1.000000
    3       -8.749177   1.000000
    4       -5.853328   1.000000
    5       -5.853320   1.000000
    6       -5.041118   1.000000
    7       -4.755927   1.000000
    8       -4.755874   1.000000
    9       -3.313686   0.801633
   10       -0.517210   0.000000
   11       -0.517158   0.000000
   12       -0.337899   0.000000
   13       -0.337875   0.000000
   14        1.880423   0.000000
   15        2.060811   0.000000
   16        2.387224   0.000000
 
  0.7692308E-01 -0.6938894E-17  0.0000000E+00  0.3550296E-01
    1      -17.081099   1.000000
    2      -15.925484   1.000000
    3       -8.651485   1.000000
    4       -6.038844   1.000000
    5       -5.762527   1.000000
    6       -5.463059   1.000000
    7       -4.893169   1.000000
    8       -4.461523   1.000000
    9       -3.352974   0.984607
   10       -0.629123  -0.000000
   11       -0.570775  -0.000000
   12       -0.431917   0.000000
   13       -0.371606   0.000000
   14        2.019159   0.000000
   15        2.178132   0.000000
   16        2.521727   0.000000
 
  0.1538462E+00  0.0000000E+00  0.0000000E+00  0.3550296E-01
    1      -16.844329   1.000000
    2      -15.814104   1.000000
    3       -8.397497   1.000000
    4       -6.484907   1.000000
    5       -6.037636   1.000000
    6       -5.506416   1.000000
    7       -5.228103   1.000000
    8       -4.334296   1.000000
    9       -3.529949   1.000927
   10       -0.973733  -0.000000
   11       -0.712368  -0.000000
   12       -0.660993  -0.000000
   13       -0.025840   0.000000
   14        2.375911   0.000000
   15        2.519339   0.000000
   16        2.878954   0.000000
 
  0.2307692E+00 -0.2775558E-16  0.0000000E+00  0.3550296E-01
    1      -16.485039   1.000000
    2      -15.646783   1.000000
    3       -8.159763   1.000000
    4       -6.925059   1.000000
    5       -6.627173   1.000000
    6       -5.623301   1.000000
    7       -5.135675   1.000000
    8       -4.511417   1.000000
    9       -3.890184   1.000000
   10       -1.155118  -0.000000
   11       -0.912844  -0.000000
   12       -0.484642   0.000000
   13        0.354492   0.000000
   14        2.910515   0.000000
   15        3.062905   0.000000
   16        3.427124   0.000000
 
  0.3076923E+00  0.0000000E+00  0.0000000E+00  0.3550296E-01
    1      -16.061386   1.000000
    2      -15.453390   1.000000
    3       -8.276593   1.000000
    4       -7.193351   1.000000
    5       -7.066866   1.000000
    6       -5.979055   1.000000
    7       -4.794264   1.000000
    8       -4.737033   1.000000
    9       -4.191956   1.000000
   10       -1.086578  -0.000000
   11       -1.063135  -0.000000
   12       -0.045656   0.000000
   13        0.657116   0.000000
   14        3.566310   0.000000
   15        3.764616   0.000000
   16        4.167910   0.000000
 
  0.3846154E+00 -0.5551115E-16  0.0000000E+00  0.3550296E-01
    1      -15.664655   1.000000
    2      -15.277820   1.000000
    3       -8.625706   1.000000
    4       -7.659358   1.000000
    5       -7.125312   1.000000
    6       -6.239383   1.000000
    7       -5.012348   1.000000
    8       -4.415539   1.000000
    9       -4.138109   1.000000
   10       -1.138878  -0.000000
   11       -0.840895  -0.000000
   12        0.370110   0.000000
   13        0.846623   0.000000
   14        3.736092   0.000000
   15        4.446316   0.000000
   16        4.462705   0.000000
 
  0.4615385E+00 -0.5551115E-16  0.0000000E+00  0.3550296E-01
    1      -15.415604   1.000000
    2      -15.171230   1.000000
    3       -8.873534   1.000000
    4       -7.926564   1.000000
    5       -7.228973   1.000000
    6       -6.375608   1.000000
    7       -5.120101   1.000000
    8       -4.245193   1.000000
    9       -3.912470   1.000000
   10       -1.118718  -0.000000
   11       -0.641510  -0.000000
   12        0.599854   0.000000
   13        0.933224   0.000000
   14        3.032233   0.000000
   15        4.769935   0.000000
   16        4.919419   0.000000
 
  0.7692308E-01  0.7692308E-01  0.0000000E+00  0.3550296E-01
    1      -16.921481   1.000000
    2      -15.850275   1.000000
    3       -8.473490   1.000000
    4       -6.350030   1.000000
    5       -5.851882   1.000000
    6       -5.594248   1.000000
    7       -5.205777   1.000000
    8       -4.274202   1.000000
    9       -3.461419   1.012098
   10       -0.873944  -0.000000
   11       -0.760878  -0.000000
   12       -0.603137  -0.000000
   13       -0.096830   0.000000
   14        2.263756   0.000000
   15        2.407560   0.000000
   16        2.765906   0.000000
 
  0.1538462E+00  0.7692308E-01  0.0000000E+00  0.7100592E-01
    1      -16.622850   1.000000
    2      -15.710300   1.000000
    3       -8.208038   1.000000
    4       -6.782779   1.000000
    5       -6.339127   1.000000
    6       -5.686133   1.000000
    7       -5.309188   1.000000
    8       -4.259800   1.000000
    9       -3.739418   1.000000
   10       -1.166730  -0.000000
   11       -0.821735  -0.000000
   12       -0.739739  -0.000000
   13        0.306332   0.000000
   14        2.710640   0.000000
   15        2.851683   0.000000
   16        3.218020   0.000000
 
  0.2307692E+00  0.7692308E-01  0.0000000E+00  0.7100592E-01
    1      -16.229248   1.000000
    2      -15.527993   1.000000
    3       -8.134904   1.000000
    4       -7.026252   1.000000
    5       -6.909221   1.000000
    6       -6.065023   1.000000
    7       -5.023889   1.000000
    8       -4.492170   1.000000
    9       -4.066162   1.000000
   10       -1.268446  -0.000000
   11       -0.925814  -0.000000
   12       -0.426898   0.000000
   13        0.659670   0.000000
   14        3.324217   0.000000
   15        3.482275   0.000000
   16        3.865134   0.000000
 
  0.3076923E+00  0.7692308E-01  0.0000000E+00  0.7100592E-01
    1      -15.814008   1.000000
    2      -15.339739   1.000000
    3       -8.406320   1.000000
    4       -7.472396   1.000000
    5       -7.043980   1.000000
    6       -6.278500   1.000000
    7       -4.860743   1.000000
    8       -4.799225   1.000000
    9       -4.088685   1.000000
   10       -1.199570  -0.000000
   11       -0.876989  -0.000000
   12        0.017284   0.000000
   13        0.869016   0.000000
   14        3.951206   0.000000
   15        4.231118   0.000000
   16        4.599876   0.000000
 
  0.3846154E+00  0.7692308E-01  0.0000000E+00  0.7100592E-01
    1      -15.483485   1.000000
    2      -15.194130   1.000000
    3       -8.703208   1.000000
    4       -7.879728   1.000000
    5       -7.146141   1.000000
    6       -6.376091   1.000000
    7       -5.033357   1.000000
    8       -4.715199   1.000000
    9       -3.867055   1.000000
   10       -1.107185  -0.000000
   11       -0.702190  -0.000000
   12        0.421541   0.000000
   13        0.891959   0.000000
   14        3.431737   0.000000
   15        4.895368   0.000000
   16        4.906128   0.000000
 
  0.4615385E+00  0.7692308E-01  0.0000000E+00  0.3550296E-01
    1      -15.354645   1.000000
    2      -15.138646   1.000000
    3       -8.823258   1.000000
    4       -8.027937   1.000000
    5       -7.217723   1.000000
    6       -6.402510   1.000000
    7       -5.119439   1.000000
    8       -4.645260   1.000000
    9       -3.729117   1.000000
   10       -1.094867  -0.000000
   11       -0.568156  -0.000000
   12        0.672561   0.000000
   13        0.779386   0.000000
   14        3.018966   0.000000
   15        5.211914   0.000000
   16        5.265214   0.000000
 
  0.1538462E+00  0.1538462E+00  0.0000000E+00  0.3550296E-01
    1      -16.288355   1.000000
    2      -15.553833   1.000000
    3       -8.074184   1.000000
    4       -6.992172   1.000000
    5       -6.685970   1.000000
    6       -6.285676   1.000000
    7       -5.177329   1.000000
    8       -4.266531   1.000000
    9       -4.004340   1.000000
   10       -1.353654  -0.000000
   11       -0.874793  -0.000000
   12       -0.672969  -0.000000
   13        0.704283   0.000000
   14        3.244848   0.000000
   15        3.387658   0.000000
   16        3.770349   0.000000
 
  0.2307692E+00  0.1538462E+00  0.0000000E+00  0.7100592E-01
    1      -15.897561   1.000000
    2      -15.372065   1.000000
    3       -8.203308   1.000000
    4       -7.298522   1.000000
    5       -6.943107   1.000000
    6       -6.479981   1.000000
    7       -5.302101   1.000000
    8       -4.505395   1.000000
    9       -4.063986   1.000000
   10       -1.314240  -0.000000
   11       -0.828945  -0.000000
   12       -0.391804   0.000000
   13        0.972717   0.000000
   14        3.912223   0.000000
   15        4.088786   0.000000
   16        4.519598   0.000000
 
  0.3076923E+00  0.1538462E+00  0.0000000E+00  0.7100592E-01
    1      -15.536864   1.000000
    2      -15.206042   1.000000
    3       -8.424487   1.000000
    4       -7.854028   1.000000
    5       -6.967432   1.000000
    6       -6.461067   1.000000
    7       -5.429400   1.000000
    8       -4.844056   1.000000
    9       -3.887233   1.000000
   10       -1.119694  -0.000000
   11       -0.719157  -0.000000
   12       -0.038230   0.000000
   13        1.068522   0.000000
   14        4.020965   0.000000
   15        4.877822   0.000000
   16        4.949452   0.000000
 
  0.3846154E+00  0.1538462E+00  0.0000000E+00  0.7100592E-01
    1      -15.314015   1.000000
    2      -15.104708   1.000000
    3       -8.560832   1.000000
    4       -8.165673   1.000000
    5       -7.117253   1.000000
    6       -6.388161   1.000000
    7       -5.420609   1.000000
    8       -5.096852   1.000000
    9       -3.653236   1.000001
   10       -1.155889  -0.000000
   11       -0.432336   0.000000
   12        0.214152   0.000000
   13        1.045183   0.000000
   14        3.372012   0.000000
   15        5.615598   0.000000
   16        5.659199   0.000000
 
  0.2307692E+00  0.2307692E+00  0.0000000E+00  0.3550296E-01
    1      -15.557053   1.000000
    2      -15.209484   1.000000
    3       -8.277057   1.000000
    4       -7.841891   1.000000
    5       -6.804519   1.000000
    6       -6.516484   1.000000
    7       -5.835363   1.000000
    8       -4.737496   1.000000
    9       -3.914737   1.000000
   10       -1.139767  -0.000000
   11       -0.712574  -0.000000
   12       -0.257996   0.000000
   13        1.168325   0.000000
   14        4.352297   0.000000
   15        4.832907   0.000000
   16        4.983436   0.000000
 
  0.3076923E+00  0.2307692E+00  0.0000000E+00  0.7100592E-01
    1      -15.295348   1.000000
    2      -15.082563   1.000000
    3       -8.263442   1.000000
    4       -8.256997   1.000000
    5       -6.904391   1.000000
    6       -6.367218   1.000000
    7       -6.180944   1.000000
    8       -5.067776   1.000000
    9       -3.645810   1.000001
   10       -1.253030  -0.000000
   11       -0.321676   0.000000
   12       -0.135447   0.000000
   13        1.289810   0.000000
   14        3.923298   0.000000
   15        5.231918   0.000000
   16        5.603448   0.000000
 
  0.3846154E+00  0.2307692E+00  0.0000000E+00  0.3550296E-01
    1      -15.196098   1.000000
    2      -15.033920   1.000000
    3       -8.417441   1.000000
    4       -8.206662   1.000000
    5       -7.076399   1.000000
    6       -6.256177   1.000000
    7       -6.232939   1.000000
    8       -5.246335   1.000000
    9       -3.471440   1.008962
   10       -1.403940  -0.000000
   11       -0.093180   0.000000
   12       -0.075420   0.000000
   13        1.335814   0.000000
   14        3.605449   0.000000
   15        5.231786   0.000000
   16        6.051960   0.000000
 
  0.3076923E+00  0.3076923E+00  0.0000000E+00  0.3550296E-01
    1      -15.154282   1.000000
    2      -15.006672   1.000000
    3       -8.515893   1.000000
    4       -7.914247   1.000000
    5       -7.062160   1.000000
    6       -6.694013   1.000000
    7       -6.161934   1.000000
    8       -5.341653   1.000000
    9       -3.376369   1.026464
   10       -1.553240  -0.000000
   11       -0.222641   0.000000
   12        0.079635   0.000000
   13        1.474342   0.000000
   14        3.953082   0.000000
   15        4.589050   0.000000
   16        6.186131   0.000000
