 vasp.5.4.1 24Jun15 (build Mar 10 2016 20:02:15) complex                        
  
 executed on           IFC91_ompi date 2016.05.04  15:27:17
 running on   16 total cores
 distrk:  each k-point on   16 cores,    1 groups
 distr:  one band on NCORES_PER_BAND=   4 cores,    4 groups


--------------------------------------------------------------------------------------------------------


 INCAR:
 POTCAR:   PAW_PBE Mo 08Apr2002                   
 POTCAR:    PAW_PBE S 17Jan2003                   

 ----------------------------------------------------------------------------- 
|                                                                             |
|  ADVICE TO THIS USER RUNNING 'VASP/VAMP'   (HEAR YOUR MASTER'S VOICE ...):  |
|                                                                             |
|      You have switched on vdW-DFT.                                          |
|      This routine was written and supplied by Jiri Klimes.                  |
|      We recommed that you carefully read and cite the following             |
|      publication                                                            |
|      J. Klimes, D.R. Bowler, A. Michelides                                  |
|        J. Phys.: Cond Matt. 22 022201 (2010)                                |
|      J. Klimes, D.R. Bowler, A. Michelides                                  |
|        Phys. Rev. B. 83, 195131 (2011)                                      |
|      and references therein.                                                |
|                                                                             |
 ----------------------------------------------------------------------------- 

 POTCAR:   PAW_PBE Mo 08Apr2002                   
   VRHFIN =Mo: 4p5s4d                                                           
   LEXCH  = PE                                                                  
   EATOM  =   217.5180 eV,   15.9871 Ry                                         
                                                                                
   TITEL  = PAW_PBE Mo 08Apr2002                                                
   LULTRA =        F    use ultrasoft PP ?                                      
   IUNSCR =        1    unscreen: 0-lin 1-nonlin 2-no                           
   RPACOR =    2.200    partial core radius                                     
   POMASS =   95.940; ZVAL   =    6.000    mass and valenz                      
   RCORE  =    2.750    outmost cutoff radius                                   
   RWIGS  =    2.750; RWIGS  =    1.455    wigner-seitz radius (au A)           
   ENMAX  =  224.584; ENMIN  =  168.438 eV                                      
   RCLOC  =    2.111    cutoff for local pot                                    
   LCOR   =        T    correct aug charges                                     
   LPAW   =        T    paw PP                                                  
   EAUG   =  345.278                                                            
   DEXC   =    -.088                                                            
   RMAX   =    3.077    core radius for proj-oper                               
   RAUG   =    1.300    factor for augmentation sphere                          
   RDEP   =    2.815    radius for radial grids                                 
   QCUT   =   -4.063; QGAM   =    8.126    optimization parameters              
                                                                                
   Description                                                                  
     l     E      TYP  RCUT    TYP  RCUT                                        
     2   .000     23  2.500                                                     
     2   .000     23  2.500                                                     
     0   .000     23  2.600                                                     
     0  1.000     23  2.600                                                     
     1   .400     23  2.750                                                     
     1  2.000     23  2.750                                                     
     3   .000      7   .000                                                     
  local pseudopotential read in
  partial core-charges read in
  atomic valenz-charges read in
  non local Contribution for L=           2  read in
    real space projection operators read in
  non local Contribution for L=           2  read in
    real space projection operators read in
  non local Contribution for L=           0  read in
    real space projection operators read in
  non local Contribution for L=           0  read in
    real space projection operators read in
  non local Contribution for L=           1  read in
    real space projection operators read in
  non local Contribution for L=           1  read in
    real space projection operators read in
    PAW grid and wavefunctions read in
 
   number of l-projection  operators is LMAX  =           6
   number of lm-projection operators is LMMAX =          18
 
 POTCAR:    PAW_PBE S 17Jan2003                   
   VRHFIN =S : s2p4                                                             
   LEXCH  = PE                                                                  
   EATOM  =   276.8230 eV,   20.3459 Ry                                         
                                                                                
   TITEL  = PAW_PBE S 17Jan2003                                                 
   LULTRA =        F    use ultrasoft PP ?                                      
   IUNSCR =        1    unscreen: 0-lin 1-nonlin 2-no                           
   RPACOR =    1.500    partial core radius                                     
   POMASS =   32.066; ZVAL   =    6.000    mass and valenz                      
   RCORE  =    1.900    outmost cutoff radius                                   
   RWIGS  =    2.200; RWIGS  =    1.164    wigner-seitz radius (au A)           
   ENMAX  =  280.000; ENMIN  =  194.016 eV                                      
   ICORE  =        2    local potential                                         
   LCOR   =        T    correct aug charges                                     
   LPAW   =        T    paw PP                                                  
   EAUG   =  335.092                                                            
   DEXC   =     .000                                                            
   RMAX   =    2.867    core radius for proj-oper                               
   RAUG   =    1.300    factor for augmentation sphere                          
   RDEP   =    1.954    radius for radial grids                                 
   QCUT   =   -4.360; QGAM   =    8.721    optimization parameters              
                                                                                
   Description                                                                  
     l     E      TYP  RCUT    TYP  RCUT                                        
     0   .000     23  1.900                                                     
     0   .000     23  1.900                                                     
     1   .000     23  1.900                                                     
     1   .000     23  1.900                                                     
     2   .000     23  1.900                                                     
  local pseudopotential read in
  partial core-charges read in
  atomic valenz-charges read in
  non local Contribution for L=           0  read in
    real space projection operators read in
  non local Contribution for L=           0  read in
    real space projection operators read in
  non local Contribution for L=           1  read in
    real space projection operators read in
  non local Contribution for L=           1  read in
    real space projection operators read in
    PAW grid and wavefunctions read in
 
   number of l-projection  operators is LMAX  =           4
   number of lm-projection operators is LMMAX =           8
 

 ----------------------------------------------------------------------------- 
|                                                                             |
|  ADVICE TO THIS USER RUNNING 'VASP/VAMP'   (HEAR YOUR MASTER'S VOICE ...):  |
|                                                                             |
|      You have a (more or less) 'small supercell' and for smaller cells      |
|      it is recommended  to use the reciprocal-space projection scheme!      |
|      The real space optimization is not  efficient for small cells and it   |
|      is also less accurate ...                                              |
|      Therefore set LREAL=.FALSE. in the  INCAR file                         |
|                                                                             |
 ----------------------------------------------------------------------------- 

 Optimization of the real space projectors (new method)

 maximal supplied QI-value         = 13.61
 optimisation between [QCUT,QGAM] = [ 11.43, 22.86] = [ 36.58,146.31] Ry 
 Optimized for a Real-space Cutoff    1.61 Angstroem

   l    n(q)    QCUT    max X(q) W(low)/X(q) W(high)/X(q)  e(spline) 
   2     10    11.429     3.671    0.34E-05    0.78E-05    0.63E-07
   2     10    11.429    29.382    0.94E-04    0.31E-03    0.10E-05
   0     11    11.429    26.379    0.16E-04    0.40E-05    0.39E-07
   0     11    11.429    49.709    0.13E-04    0.36E-04    0.47E-06
   1     11    11.429     7.852    0.22E-04    0.23E-04    0.47E-07
   1     11    11.429    10.693    0.67E-04    0.90E-04    0.26E-06
 Optimization of the real space projectors (new method)

 maximal supplied QI-value         = 19.84
 optimisation between [QCUT,QGAM] = [ 11.31, 22.82] = [ 35.82,145.81] Ry 
 Optimized for a Real-space Cutoff    1.20 Angstroem

   l    n(q)    QCUT    max X(q) W(low)/X(q) W(high)/X(q)  e(spline) 
   0      8    11.310     5.487    0.16E-04    0.16E-05    0.46E-08
   0      8    11.310    85.627    0.16E-03    0.19E-03    0.53E-07
   1      8    11.310     3.530    0.26E-04    0.29E-04    0.19E-07
   1      8    11.310    42.714    0.18E-03    0.19E-03    0.90E-07

 ----------------------------------------------------------------------------- 
|                                                                             |
|  ADVICE TO THIS USER RUNNING 'VASP/VAMP'   (HEAR YOUR MASTER'S VOICE ...):  |
|                                                                             |
|      You enforced a specific xc-type in the INCAR file,                     |
|      a different type was found on the POTCAR file                          |
|          I HOPE YOU KNOW, WHAT YOU ARE  DOING                               |
|                                                                             |
 ----------------------------------------------------------------------------- 

 PAW_PBE Mo 08Apr2002                   :
 energy of atom  1       EATOM= -217.5180
 kinetic energy error for atom=    0.0017 (will be added to EATOM!!)
  PAW_PBE S 17Jan2003                   :
 energy of atom  2       EATOM= -276.8230
 kinetic energy error for atom=    0.0020 (will be added to EATOM!!)
 
 
 POSCAR: Mo1                                     
  positions in direct lattice
  No initial velocities read in
 exchange correlation table for  LEXCH =       42
   RHO(1)=    0.500       N(1)  =     2000
   RHO(2)=  100.500       N(2)  =     4000
 


--------------------------------------------------------------------------------------------------------


 ion  position               nearest neighbor table
   1  0.667  0.333  0.500-   3 2.42   3 2.42   3 2.42   2 2.42   2 2.42   2 2.42
   2  0.333  0.667  0.432-   1 2.42   1 2.42   1 2.42
   3  0.333  0.667  0.568-   1 2.42   1 2.42   1 2.42
 
  LATTYP: Found a hexagonal cell.
 ALAT       =     3.1894849011
 C/A-ratio  =     7.2559685626
  
  Lattice vectors:
  
 A1 = (   3.1894836930,   0.0000000000,   0.0000000000)
 A2 = (  -1.5947413467,   2.7621750096,   0.0000000000)
 A3 = (   0.0000000000,   0.0000000000,  23.1428021737)


Analysis of symmetry for initial positions (statically):
=====================================================================
 Subroutine PRICEL returns:
 Original cell was already a primitive cell.
 

 Routine SETGRP: Setting up the symmetry group for a 
 hexagonal supercell.


 Subroutine GETGRP returns: Found 12 space group operations
 (whereof  6 operations were pure point group operations)
 out of a pool of 24 trial point group operations.


The static configuration has the point symmetry C_3v.
 The point group associated with its full space group is D_3h.


Analysis of symmetry for dynamics (positions and initial velocities):
=====================================================================
 Subroutine PRICEL returns:
 Original cell was already a primitive cell.
 

 Routine SETGRP: Setting up the symmetry group for a 
 hexagonal supercell.


 Subroutine GETGRP returns: Found 12 space group operations
 (whereof  6 operations were pure point group operations)
 out of a pool of 24 trial point group operations.


The dynamic configuration has the point symmetry C_3v.
 The point group associated with its full space group is D_3h.
 
 
 KPOINTS: pymatgen generated KPOINTS with grid den

Automatic generation of k-mesh.
Space group operators:
 irot       det(A)        alpha          n_x          n_y          n_z        tau_x        tau_y        tau_z
    1     1.000000     0.000000     1.000000     0.000000     0.000000     0.000000     0.000000     0.000000
    2     1.000000   120.000000     0.000000     0.000000    -1.000000     0.000000     0.000000     0.000000
    3     1.000000   120.000000     0.000000     0.000000     1.000000     0.000000     0.000000     0.000000
    4    -1.000000   179.999999     1.000000    -0.000000     0.000000     0.000000     0.000000     0.000000
    5    -1.000000   180.000000     0.500000    -0.866025     0.000000     0.000000     0.000000     0.000000
    6    -1.000000   180.000000    -0.500000    -0.866025     0.000000     0.000000     0.000000     0.000000
    7    -1.000000    60.000000     0.000000     0.000000    -1.000000     0.000001     0.000000     0.999471
    8    -1.000000   180.000000     0.000000     0.000000     1.000000     0.000000     0.000000     0.999471
    9    -1.000000    60.000000     0.000000     0.000000     1.000000     0.000000     0.000000     0.999471
   10     1.000000   180.000000     0.866025    -0.500000     0.000000     0.000000     0.000000     0.999471
   11     1.000000   180.000000     0.000000     1.000000     0.000000     0.000001     0.000000     0.999471
   12     1.000000   180.000000     0.866026     0.500000     0.000000     0.000000     0.000000     0.999471
 
 Subroutine IBZKPT returns following result:
 ===========================================
 
 Found     21 irreducible k-points:
 
 Following reciprocal coordinates:
            Coordinates               Weight
  0.000000  0.000000  0.000000      1.000000
  0.076923 -0.000000  0.000000      6.000000
  0.153846  0.000000  0.000000      6.000000
  0.230769 -0.000000  0.000000      6.000000
  0.307692  0.000000  0.000000      6.000000
  0.384615 -0.000000  0.000000      6.000000
  0.461538 -0.000000  0.000000      6.000000
  0.076923  0.076923  0.000000      6.000000
  0.153846  0.076923  0.000000     12.000000
  0.230769  0.076923  0.000000     12.000000
  0.307692  0.076923  0.000000     12.000000
  0.384615  0.076923  0.000000     12.000000
  0.461538  0.076923  0.000000      6.000000
  0.153846  0.153846  0.000000      6.000000
  0.230769  0.153846  0.000000     12.000000
  0.307692  0.153846  0.000000     12.000000
  0.384615  0.153846  0.000000     12.000000
  0.230769  0.230769  0.000000      6.000000
  0.307692  0.230769  0.000000     12.000000
  0.384615  0.230769  0.000000      6.000000
  0.307692  0.307692  0.000000      6.000000
 
 Following cartesian coordinates:
            Coordinates               Weight
  0.000000  0.000000  0.000000      1.000000
  0.024118  0.013924  0.000000      6.000000
  0.048235  0.027849  0.000000      6.000000
  0.072353  0.041773  0.000000      6.000000
  0.096471  0.055697  0.000000      6.000000
  0.120589  0.069622  0.000000      6.000000
  0.144706  0.083546  0.000000      6.000000
  0.024118  0.041773  0.000000      6.000000
  0.048235  0.055697  0.000000     12.000000
  0.072353  0.069622  0.000000     12.000000
  0.096471  0.083546  0.000000     12.000000
  0.120589  0.097471  0.000000     12.000000
  0.144706  0.111395  0.000000      6.000000
  0.048235  0.083546  0.000000      6.000000
  0.072353  0.097471  0.000000     12.000000
  0.096471  0.111395  0.000000     12.000000
  0.120589  0.125319  0.000000     12.000000
  0.072353  0.125319  0.000000      6.000000
  0.096471  0.139244  0.000000     12.000000
  0.120589  0.153168  0.000000      6.000000
  0.096471  0.167092  0.000000      6.000000
 


--------------------------------------------------------------------------------------------------------




 Dimension of arrays:
   k-points           NKPTS =     21   k-points in BZ     NKDIM =     21   number of bands    NBANDS=     16
   number of dos      NEDOS =    301   number of ions     NIONS =      3
   non local maximal  LDIM  =      6   non local SUM 2l+1 LMDIM =     18
   total plane-waves  NPLWV = 103680
   max r-space proj   IRMAX =   8957   max aug-charges    IRDMAX=  32845
   dimension x,y,z NGX =    24 NGY =   24 NGZ =  180
   dimension x,y,z NGXF=    48 NGYF=   48 NGZF=  360
   support grid    NGXF=    48 NGYF=   48 NGZF=  360
   ions per type =               1   2
 NGX,Y,Z   is equivalent  to a cutoff of  12.51, 12.51, 12.93 a.u.
 NGXF,Y,Z  is equivalent  to a cutoff of  25.02, 25.02, 25.86 a.u.


 I would recommend the setting:
   dimension x,y,z NGX =    23 NGY =   23 NGZ =  169
 SYSTEM =  unknown system                          
 POSCAR =  Mo1                                     

 Startparameter for this run:
   NWRITE =      2    write-flag & timer
   PREC   = accura    normal or accurate (medium, high low for compatibility)
   ISTART =      0    job   : 0-new  1-cont  2-samecut
   ICHARG =      2    charge: 1-file 2-atom 10-const
   ISPIN  =      1    spin polarized calculation?
   LNONCOLLINEAR =      F non collinear calculations
   LSORBIT =      F    spin-orbit coupling
   INIWAV =      1    electr: 0-lowe 1-rand  2-diag
   LASPH  =      F    aspherical Exc in radial PAW
   METAGGA=      F    non-selfconsistent MetaGGA calc.

 Electronic Relaxation 1
   ENCUT  =  500.0 eV  36.75 Ry    6.06 a.u.   5.82  5.82 42.19*2*pi/ulx,y,z
   ENINI  =  500.0     initial cutoff
   ENAUG  =  345.3 eV  augmentation charge cutoff
   NELM   =     60;   NELMIN=  2; NELMDL= -5     # of ELM steps 
   EDIFF  = 0.1E-05   stopping-criterion for ELM
   LREAL  =      T    real-space projection
   NLSPLINE    = F    spline interpolate recip. space projectors
   LCOMPAT=      F    compatible to vasp.4.4
   GGA_COMPAT  = T    GGA compatible to vasp.4.4-vasp.4.6
   LMAXPAW     = -100 max onsite density
   LMAXMIX     =    2 max onsite mixed and CHGCAR
   VOSKOWN=      0    Vosko Wilk Nusair interpolation
   ROPT   =   -0.00025  -0.00025
 Ionic relaxation
   EDIFFG = 0.1E-04   stopping-criterion for IOM
   NSW    =     50    number of steps for IOM
   NBLOCK =      1;   KBLOCK =     50    inner block; outer block 
   IBRION =      2    ionic relax: 0-MD 1-quasi-New 2-CG
   NFREE  =      1    steps in history (QN), initial steepest desc. (CG)
   ISIF   =      3    stress and relaxation
   IWAVPR =     11    prediction:  0-non 1-charg 2-wave 3-comb
   ISYM   =      2    0-nonsym 1-usesym 2-fastsym
   LCORR  =      T    Harris-Foulkes like correction to forces

   POTIM  = 0.5000    time-step for ionic-motion
   TEIN   =    0.0    initial temperature
   TEBEG  =    0.0;   TEEND  =   0.0 temperature during run
   SMASS  =  -3.00    Nose mass-parameter (am)
   estimated Nose-frequenzy (Omega)   =  0.10E-29 period in steps =****** mass=  -0.232E-27a.u.
   SCALEE = 1.0000    scale energy and forces
   NPACO  =    256;   APACO  = 16.0  distance and # of slots for P.C.
   PSTRESS=    0.0 pullay stress

  Mass of Ions in am
   POMASS =  95.94 32.07
  Ionic Valenz
   ZVAL   =   6.00  6.00
  Atomic Wigner-Seitz radii
   RWIGS  =  -1.00 -1.00
  virtual crystal weights 
   VCA    =   1.00  1.00
   NELECT =      18.0000    total number of electrons
   NUPDOWN=      -1.0000    fix difference up-down

 DOS related values:
   EMIN   =  10.00;   EMAX   =-10.00  energy-range for DOS
   EFERMI =   0.00
   ISMEAR =     1;   SIGMA  =   0.10  broadening in eV -4-tet -1-fermi 0-gaus

 Electronic relaxation 2 (details)
   IALGO  =     68    algorithm
   LDIAG  =      T    sub-space diagonalisation (order eigenvalues)
   LSUBROT=      F    optimize rotation matrix (better conditioning)
   TURBO    =      0    0=normal 1=particle mesh
   IRESTART =      0    0=no restart 2=restart with 2 vectors
   NREBOOT  =      0    no. of reboots
   NMIN     =      0    reboot dimension
   EREF     =   0.00    reference energy to select bands
   IMIX   =      4    mixing-type and parameters
     AMIX     =   0.40;   BMIX     =  1.00
     AMIX_MAG =   1.60;   BMIX_MAG =  1.00
     AMIN     =   0.10
     WC   =   100.;   INIMIX=   1;  MIXPRE=   1;  MAXMIX= -45

 Intra band minimization:
   WEIMIN = 0.0010     energy-eigenvalue tresh-hold
   EBREAK =  0.16E-07  absolut break condition
   DEPER  =   0.30     relativ break condition  

   TIME   =   0.40     timestep for ELM

  volume/ion in A,a.u.               =      67.96       458.63
  Fermi-wavevector in a.u.,A,eV,Ry     =   0.728959  1.377533  7.229882  0.531381
  Thomas-Fermi vector in A             =   1.820562
 
 Write flags
   LWAVE  =      T    write WAVECAR
   LCHARG =      T    write CHGCAR
   LVTOT  =      F    write LOCPOT, total local potential
   LVHAR  =      T    write LOCPOT, Hartree potential only
   LELF   =      F    write electronic localiz. function (ELF)
   LORBIT =      0    0 simple, 1 ext, 2 COOP (PROOUT)


 Dipole corrections
   LMONO  =      F    monopole corrections only (constant potential shift)
   LDIPOL =      F    correct potential (dipole corrections)
   IDIPOL =      0    1-x, 2-y, 3-z, 4-all directions 
   EPSILON=  1.0000000 bulk dielectric constant

 Exchange correlation treatment:
   GGA     =    BO    GGA type
   LEXCH   =    42    internal setting for exchange type
   VOSKOWN=      0    Vosko Wilk Nusair interpolation
   LHFCALC =     F    Hartree Fock is set to
   LHFONE  =     F    Hartree Fock one center treatment
   AEXX    =    0.0000 exact exchange contribution

 vdW DFT:
   LUSE_VDW   =     T    switch on vdW DFT
   Zab_VDW    =-.8491    correlation parameter
   PARAM1     =0.1833
   PARAM2     =0.2200
   PARAM3     =0.0000

 Linear response parameters
   LEPSILON=     F    determine dielectric tensor
   LRPA    =     F    only Hartree local field effects (RPA)
   LNABLA  =     F    use nabla operator in PAW spheres
   LVEL    =     F    velocity operator in full k-point grid
   LINTERFAST=   F  fast interpolation
   KINTER  =     0    interpolate to denser k-point grid
   CSHIFT  =0.1000    complex shift for real part using Kramers Kronig
   OMEGAMAX=  -1.0    maximum frequency
   DEG_THRESHOLD= 0.2000000E-02 threshold for treating states as degnerate
   RTIME   =    0.100 relaxation time in fs

 Orbital magnetization related:
   ORBITALMAG=     F  switch on orbital magnetization
   LCHIMAG   =     F  perturbation theory with respect to B field
   DQ        =  0.001000  dq finite difference perturbation B field



--------------------------------------------------------------------------------------------------------


 conjugate gradient relaxation of ions
 charge density and potential will be updated during run
 non-spin polarized calculation
 RMM-DIIS sequential band-by-band and
  variant of blocked Davidson during initial phase
 perform sub-space diagonalisation
    before iterative eigenvector-optimisation
 modified Broyden-mixing scheme, WC =      100.0
 initial mixing is a Kerker type mixing with AMIX =  0.4000 and BMIX =      1.0000
 Hartree-type preconditioning will be used
 using additional bands            7
 real space projection scheme for non local part
 use partial core corrections
 calculate Harris-corrections to forces 
   (improved forces if not selfconsistent)
 use gradient corrections 
 use of overlap-Matrix (Vanderbilt PP)
 Methfessel and Paxton  Order N= 1 SIGMA  =   0.10


--------------------------------------------------------------------------------------------------------


  energy-cutoff  :      500.00
  volume of cell :      203.89
      direct lattice vectors                 reciprocal lattice vectors
     3.189483693  0.000000000  0.000000000     0.313530369  0.181016714  0.000000000
    -1.594741347  2.762175010  0.000000000     0.000000000  0.362033541  0.000000000
     0.000000000  0.000000000 23.142802174     0.000000000  0.000000000  0.043209979

  length of vectors
     3.189483693  3.189484401 23.142802174     0.362033622  0.362033541  0.043209979


 
 k-points in units of 2pi/SCALE and weight: pymatgen generated KPOINTS with grid den
   0.00000000  0.00000000  0.00000000       0.006
   0.02411772  0.01392436  0.00000000       0.036
   0.04823544  0.02784873  0.00000000       0.036
   0.07235316  0.04177309  0.00000000       0.036
   0.09647088  0.05569745  0.00000000       0.036
   0.12058860  0.06962181  0.00000000       0.036
   0.14470632  0.08354618  0.00000000       0.036
   0.02411772  0.04177310  0.00000000       0.036
   0.04823544  0.05569746  0.00000000       0.071
   0.07235316  0.06962182  0.00000000       0.071
   0.09647088  0.08354618  0.00000000       0.071
   0.12058860  0.09747055  0.00000000       0.071
   0.14470632  0.11139491  0.00000000       0.036
   0.04823544  0.08354619  0.00000000       0.036
   0.07235316  0.09747056  0.00000000       0.071
   0.09647088  0.11139492  0.00000000       0.071
   0.12058860  0.12531928  0.00000000       0.071
   0.07235316  0.12531929  0.00000000       0.036
   0.09647088  0.13924365  0.00000000       0.071
   0.12058860  0.15316801  0.00000000       0.036
   0.09647088  0.16709239  0.00000000       0.036
 
 k-points in reciprocal lattice and weights: pymatgen generated KPOINTS with grid den
   0.00000000  0.00000000  0.00000000       0.006
   0.07692308 -0.00000000  0.00000000       0.036
   0.15384615  0.00000000  0.00000000       0.036
   0.23076923 -0.00000000  0.00000000       0.036
   0.30769231  0.00000000  0.00000000       0.036
   0.38461538 -0.00000000  0.00000000       0.036
   0.46153846 -0.00000000  0.00000000       0.036
   0.07692308  0.07692308  0.00000000       0.036
   0.15384615  0.07692308  0.00000000       0.071
   0.23076923  0.07692308  0.00000000       0.071
   0.30769231  0.07692308  0.00000000       0.071
   0.38461538  0.07692308  0.00000000       0.071
   0.46153846  0.07692308  0.00000000       0.036
   0.15384615  0.15384615  0.00000000       0.036
   0.23076923  0.15384615  0.00000000       0.071
   0.30769231  0.15384615  0.00000000       0.071
   0.38461538  0.15384615  0.00000000       0.071
   0.23076923  0.23076923  0.00000000       0.036
   0.30769231  0.23076923  0.00000000       0.071
   0.38461538  0.23076923  0.00000000       0.036
   0.30769231  0.30769231  0.00000000       0.036
 
 position of ions in fractional coordinates (direct lattice) 
   0.66666700  0.33333300  0.49973569
   0.33333300  0.66666700  0.43183398
   0.33333300  0.66666700  0.56763440
 
 position of ions in cartesian coordinates  (Angst):
   1.59474361  0.92072408 11.56528413
  -0.00000126  1.84145093  9.99384835
  -0.00000126  1.84145093 13.13665052
 


--------------------------------------------------------------------------------------------------------


 k-point  1 :   0.0000 0.0000 0.0000  plane waves:    5155
 k-point  2 :   0.0769-0.0000 0.0000  plane waves:    5146
 k-point  3 :   0.1538 0.0000 0.0000  plane waves:    5156
 k-point  4 :   0.2308-0.0000 0.0000  plane waves:    5154
 k-point  5 :   0.3077 0.0000 0.0000  plane waves:    5190
 k-point  6 :   0.3846-0.0000 0.0000  plane waves:    5208
 k-point  7 :   0.4615-0.0000 0.0000  plane waves:    5196
 k-point  8 :   0.0769 0.0769 0.0000  plane waves:    5155
 k-point  9 :   0.1538 0.0769 0.0000  plane waves:    5149
 k-point 10 :   0.2308 0.0769 0.0000  plane waves:    5171
 k-point 11 :   0.3077 0.0769 0.0000  plane waves:    5201
 k-point 12 :   0.3846 0.0769 0.0000  plane waves:    5194
 k-point 13 :   0.4615 0.0769 0.0000  plane waves:    5170
 k-point 14 :   0.1538 0.1538 0.0000  plane waves:    5156
 k-point 15 :   0.2308 0.1538 0.0000  plane waves:    5186
 k-point 16 :   0.3077 0.1538 0.0000  plane waves:    5199
 k-point 17 :   0.3846 0.1538 0.0000  plane waves:    5174
 k-point 18 :   0.2308 0.2308 0.0000  plane waves:    5190
 k-point 19 :   0.3077 0.2308 0.0000  plane waves:    5172
 k-point 20 :   0.3846 0.2308 0.0000  plane waves:    5160
 k-point 21 :   0.3077 0.3077 0.0000  plane waves:    5174

 maximum and minimum number of plane-waves per node :      1316     1274

 maximum number of plane-waves:      5208
 maximum index in each direction: 
   IXMAX=    5   IYMAX=    5   IZMAX=   42
   IXMIN=   -6   IYMIN=   -6   IZMIN=  -42

 NGX is ok and might be reduce to  24
 NGY is ok and might be reduce to  24
 NGZ is ok and might be reduce to 170

 real space projection operators:
  total allocation   :       1665.02 KBytes
  max/ min on nodes  :        419.92        407.78


 parallel 3D FFT for wavefunctions:
    minimum data exchange during FFTs selected (reduces bandwidth)
 parallel 3D FFT for charge:
    minimum data exchange during FFTs selected (reduces bandwidth)


 total amount of memory used by VASP on root node    39231. kBytes
========================================================================

   base      :      30000. kBytes
   nonlr-proj:        974. kBytes
   fftplans  :       2515. kBytes
   grid      :       3953. kBytes
   one-center:         15. kBytes
   wavefun   :       1774. kBytes
 
     INWAV:  cpu time    0.0010: real time    0.0001
 Broyden mixing: mesh for mixing (old mesh)
   NGX = 11   NGY = 11   NGZ = 85
  (NGX  = 48   NGY  = 48   NGZ  =360)
  gives a total of  10285 points

 initial charge density was supplied:
 charge density of overlapping atoms calculated
 number of electron      18.0000000 magnetization 
 keeping initial charge density in first step


--------------------------------------------------------------------------------------------------------


 Maximum index for non-local projection operator         2183
 Maximum index for augmentation-charges         2091 (set IRDMAX)


--------------------------------------------------------------------------------------------------------


 First call to EWALD:  gamma=   0.301
 Maximum number of real-space cells 5x 5x 1
 Maximum number of reciprocal cells 2x 2x 9

 FEWALD executed in parallel
    FEWALD:  cpu time    0.0030: real time    0.0032


----------------------------------------- Iteration    1(   1)  ---------------------------------------


vdW kernel read from vdw_kernel.bindat
  0.0000  0.2424  0.5071  0.7962  1.1119  1.4567  1.8333  2.2446  2.6937  3.1842
  3.7199  4.3049  4.9438  5.6415  6.4036  7.2358  8.1446  9.1372 10.2212 11.4050
 12.6979 14.1099 15.6519 17.3360 19.1751 21.1837 23.3773 25.7729 28.3892 31.2465
 34.3669 37.7748 41.4965 45.5611 50.0000
 
    POTLOK:  cpu time    5.5062: real time    5.5242
    SETDIJ:  cpu time    0.0070: real time    0.0067
     EDDAV:  cpu time    1.2808: real time    1.2824
       DOS:  cpu time    0.0010: real time    0.0008
    --------------------------------------------
      LOOP:  cpu time    6.7990: real time    6.8309

 eigenvalue-minimisations  :   672
 total energy-change (2. order) : 0.1268658E+03  (-0.5922966E+03)
 number of electron      18.0000000 magnetization 
 augmentation part       18.0000000 magnetization 

 Free energy of the ion-electron system (eV)
  ---------------------------------------------------
  alpha Z        PSCENC =        14.54174630
  Ewald energy   TEWEN  =      3278.07726918
  -Hartree energ DENC   =     -3969.72053449
  -exchange      EXHF   =         0.00000000
  -V(xc)+E(xc)   XCENC  =       -38.00826876
  PAW double counting   =       431.16684612     -351.56534114
  entropy T*S    EENTRO =        -0.00076150
  eigenvalues    EBANDS =       -11.64698979
  atomic energy  EATOM  =       774.02183170
  Solvation  Ediel_sol  =         0.00000000
  ---------------------------------------------------
  free energy    TOTEN  =       126.86579762 eV

  energy without entropy =      126.86655912  energy(sigma->0) =      126.86605146


--------------------------------------------------------------------------------------------------------




----------------------------------------- Iteration    1(   2)  ---------------------------------------


     EDDAV:  cpu time    1.8217: real time    1.8244
       DOS:  cpu time    0.0000: real time    0.0007
    --------------------------------------------
      LOOP:  cpu time    1.8267: real time    1.8302

 eigenvalue-minimisations  :  1048
 total energy-change (2. order) :-0.1344577E+03  (-0.1224021E+03)
 number of electron      18.0000000 magnetization 
 augmentation part       18.0000000 magnetization 

 Free energy of the ion-electron system (eV)
  ---------------------------------------------------
  alpha Z        PSCENC =        14.54174630
  Ewald energy   TEWEN  =      3278.07726918
  -Hartree energ DENC   =     -3969.72053449
  -exchange      EXHF   =         0.00000000
  -V(xc)+E(xc)   XCENC  =       -38.00826876
  PAW double counting   =       431.16684612     -351.56534114
  entropy T*S    EENTRO =         0.00020586
  eigenvalues    EBANDS =      -146.10561825
  atomic energy  EATOM  =       774.02183170
  Solvation  Ediel_sol  =         0.00000000
  ---------------------------------------------------
  free energy    TOTEN  =        -7.59186347 eV

  energy without entropy =       -7.59206933  energy(sigma->0) =       -7.59193209


--------------------------------------------------------------------------------------------------------




----------------------------------------- Iteration    1(   3)  ---------------------------------------


     EDDAV:  cpu time    1.7277: real time    1.7738
       DOS:  cpu time    0.0010: real time    0.0008
    --------------------------------------------
      LOOP:  cpu time    1.7327: real time    1.7889

 eigenvalue-minimisations  :   944
 total energy-change (2. order) :-0.1400897E+02  (-0.1377582E+02)
 number of electron      18.0000000 magnetization 
 augmentation part       18.0000000 magnetization 

 Free energy of the ion-electron system (eV)
  ---------------------------------------------------
  alpha Z        PSCENC =        14.54174630
  Ewald energy   TEWEN  =      3278.07726918
  -Hartree energ DENC   =     -3969.72053449
  -exchange      EXHF   =         0.00000000
  -V(xc)+E(xc)   XCENC  =       -38.00826876
  PAW double counting   =       431.16684612     -351.56534114
  entropy T*S    EENTRO =         0.00054646
  eigenvalues    EBANDS =      -160.11492923
  atomic energy  EATOM  =       774.02183170
  Solvation  Ediel_sol  =         0.00000000
  ---------------------------------------------------
  free energy    TOTEN  =       -21.60083387 eV

  energy without entropy =      -21.60138032  energy(sigma->0) =      -21.60101602


--------------------------------------------------------------------------------------------------------




----------------------------------------- Iteration    1(   4)  ---------------------------------------


     EDDAV:  cpu time    1.4938: real time    1.4949
       DOS:  cpu time    0.0010: real time    0.0007
    --------------------------------------------
      LOOP:  cpu time    1.4978: real time    1.5250

 eigenvalue-minimisations  :   824
 total energy-change (2. order) :-0.2666145E+00  (-0.2662651E+00)
 number of electron      18.0000000 magnetization 
 augmentation part       18.0000000 magnetization 

 Free energy of the ion-electron system (eV)
  ---------------------------------------------------
  alpha Z        PSCENC =        14.54174630
  Ewald energy   TEWEN  =      3278.07726918
  -Hartree energ DENC   =     -3969.72053449
  -exchange      EXHF   =         0.00000000
  -V(xc)+E(xc)   XCENC  =       -38.00826876
  PAW double counting   =       431.16684612     -351.56534114
  entropy T*S    EENTRO =         0.00053892
  eigenvalues    EBANDS =      -160.38153621
  atomic energy  EATOM  =       774.02183170
  Solvation  Ediel_sol  =         0.00000000
  ---------------------------------------------------
  free energy    TOTEN  =       -21.86744837 eV

  energy without entropy =      -21.86798729  energy(sigma->0) =      -21.86762801


--------------------------------------------------------------------------------------------------------




----------------------------------------- Iteration    1(   5)  ---------------------------------------


     EDDAV:  cpu time    1.6687: real time    1.6819
       DOS:  cpu time    0.0010: real time    0.0008
    CHARGE:  cpu time    0.1440: real time    0.1432
    MIXING:  cpu time    0.0020: real time    0.0026
    --------------------------------------------
      LOOP:  cpu time    1.8187: real time    1.8439

 eigenvalue-minimisations  :   936
 total energy-change (2. order) :-0.6952070E-02  (-0.6951128E-02)
 number of electron      18.0000003 magnetization 
 augmentation part       -0.9658835 magnetization 

 Broyden mixing:
  rms(total) = 0.72551E+00    rms(broyden)= 0.72550E+00
  rms(prec ) = 0.80854E+00
  weight for this iteration     100.00

 Free energy of the ion-electron system (eV)
  ---------------------------------------------------
  alpha Z        PSCENC =        14.54174630
  Ewald energy   TEWEN  =      3278.07726918
  -Hartree energ DENC   =     -3969.72053449
  -exchange      EXHF   =         0.00000000
  -V(xc)+E(xc)   XCENC  =       -38.00826876
  PAW double counting   =       431.16684612     -351.56534114
  entropy T*S    EENTRO =         0.00053880
  eigenvalues    EBANDS =      -160.38848815
  atomic energy  EATOM  =       774.02183170
  Solvation  Ediel_sol  =         0.00000000
  ---------------------------------------------------
  free energy    TOTEN  =       -21.87440044 eV

  energy without entropy =      -21.87493924  energy(sigma->0) =      -21.87458004


--------------------------------------------------------------------------------------------------------




----------------------------------------- Iteration    1(   6)  ---------------------------------------


    POTLOK:  cpu time    4.5933: real time    4.5987
    SETDIJ:  cpu time    0.0070: real time    0.0068
    EDDIAG:  cpu time    0.2790: real time    0.2791
  RMM-DIIS:  cpu time    0.8179: real time    0.8190
    ORTHCH:  cpu time    0.0130: real time    0.0139
       DOS:  cpu time    0.0000: real time    0.0008
    CHARGE:  cpu time    0.1320: real time    0.1312
    MIXING:  cpu time    0.0030: real time    0.0027
    --------------------------------------------
      LOOP:  cpu time    5.8491: real time    5.8573

 eigenvalue-minimisations  :   672
 total energy-change (2. order) : 0.1418371E+01  (-0.5907947E+00)
 number of electron      18.0000003 magnetization 
 augmentation part       -0.3667280 magnetization 

 Broyden mixing:
  rms(total) = 0.28139E+00    rms(broyden)= 0.28139E+00
  rms(prec ) = 0.34690E+00
  weight for this iteration     100.00

 eigenvalues of (default mixing * dielectric matrix)
  average eigenvalue GAMMA=   0.8099
  0.8099

 Free energy of the ion-electron system (eV)
  ---------------------------------------------------
  alpha Z        PSCENC =        14.54174630
  Ewald energy   TEWEN  =      3278.07726918
  -Hartree energ DENC   =     -3967.60060718
  -exchange      EXHF   =         0.00000000
  -V(xc)+E(xc)   XCENC  =       -36.96929509
  PAW double counting   =       447.02185980     -368.31714198
  entropy T*S    EENTRO =         0.00033351
  eigenvalues    EBANDS =      -161.23202600
  atomic energy  EATOM  =       774.02183170
  Solvation  Ediel_sol  =         0.00000000
  ---------------------------------------------------
  free energy    TOTEN  =       -20.45602974 eV

  energy without entropy =      -20.45636325  energy(sigma->0) =      -20.45614091


--------------------------------------------------------------------------------------------------------




----------------------------------------- Iteration    1(   7)  ---------------------------------------


    POTLOK:  cpu time    4.6753: real time    4.6807
    SETDIJ:  cpu time    0.0070: real time    0.0069
    EDDIAG:  cpu time    0.2780: real time    0.2781
  RMM-DIIS:  cpu time    0.8049: real time    0.8055
    ORTHCH:  cpu time    0.0140: real time    0.0140
       DOS:  cpu time    0.0010: real time    0.0008
    CHARGE:  cpu time    0.1510: real time    0.1517
    MIXING:  cpu time    0.0030: real time    0.0025
    --------------------------------------------
      LOOP:  cpu time    5.9381: real time    5.9610

 eigenvalue-minimisations  :   672
 total energy-change (2. order) : 0.4258099E+00  (-0.5241433E-01)
 number of electron      18.0000003 magnetization 
 augmentation part       -0.5937726 magnetization 

 Broyden mixing:
  rms(total) = 0.15582E+00    rms(broyden)= 0.15582E+00
  rms(prec ) = 0.16694E+00
  weight for this iteration     100.00

 eigenvalues of (default mixing * dielectric matrix)
  average eigenvalue GAMMA=   1.3669
  2.0821  0.6518

 Free energy of the ion-electron system (eV)
  ---------------------------------------------------
  alpha Z        PSCENC =        14.54174630
  Ewald energy   TEWEN  =      3278.07726918
  -Hartree energ DENC   =     -3972.63026596
  -exchange      EXHF   =         0.00000000
  -V(xc)+E(xc)   XCENC  =       -37.13244636
  PAW double counting   =       463.87794311     -385.39110929
  entropy T*S    EENTRO =         0.00068915
  eigenvalues    EBANDS =      -155.39587765
  atomic energy  EATOM  =       774.02183170
  Solvation  Ediel_sol  =         0.00000000
  ---------------------------------------------------
  free energy    TOTEN  =       -20.03021981 eV

  energy without entropy =      -20.03090896  energy(sigma->0) =      -20.03044952


--------------------------------------------------------------------------------------------------------




----------------------------------------- Iteration    1(   8)  ---------------------------------------


    POTLOK:  cpu time    4.6063: real time    4.6212
    SETDIJ:  cpu time    0.0070: real time    0.0071
    EDDIAG:  cpu time    0.2760: real time    0.2764
  RMM-DIIS:  cpu time    0.8049: real time    0.8053
    ORTHCH:  cpu time    0.0140: real time    0.0139
       DOS:  cpu time    0.0010: real time    0.0008
    CHARGE:  cpu time    0.1440: real time    0.1447
    MIXING:  cpu time    0.0030: real time    0.0025
    --------------------------------------------
      LOOP:  cpu time    5.8601: real time    5.8864

 eigenvalue-minimisations  :   672
 total energy-change (2. order) : 0.1019526E+00  (-0.2109199E-01)
 number of electron      18.0000003 magnetization 
 augmentation part       -0.5412650 magnetization 

 Broyden mixing:
  rms(total) = 0.36734E-01    rms(broyden)= 0.36734E-01
  rms(prec ) = 0.39395E-01
  weight for this iteration     100.00

 eigenvalues of (default mixing * dielectric matrix)
  average eigenvalue GAMMA=   1.4875
  1.9072  1.9072  0.6479

 Free energy of the ion-electron system (eV)
  ---------------------------------------------------
  alpha Z        PSCENC =        14.54174630
  Ewald energy   TEWEN  =      3278.07726918
  -Hartree energ DENC   =     -3975.95183240
  -exchange      EXHF   =         0.00000000
  -V(xc)+E(xc)   XCENC  =       -36.79612321
  PAW double counting   =       487.08832146     -409.12860771
  entropy T*S    EENTRO =         0.00072189
  eigenvalues    EBANDS =      -151.78159438
  atomic energy  EATOM  =       774.02183170
  Solvation  Ediel_sol  =         0.00000000
  ---------------------------------------------------
  free energy    TOTEN  =       -19.92826716 eV

  energy without entropy =      -19.92898905  energy(sigma->0) =      -19.92850779


--------------------------------------------------------------------------------------------------------




----------------------------------------- Iteration    1(   9)  ---------------------------------------


    POTLOK:  cpu time    4.6123: real time    4.6177
    SETDIJ:  cpu time    0.0070: real time    0.0067
    EDDIAG:  cpu time    0.2750: real time    0.2748
  RMM-DIIS:  cpu time    0.8059: real time    0.8073
    ORTHCH:  cpu time    0.0130: real time    0.0139
       DOS:  cpu time    0.0000: real time    0.0007
    CHARGE:  cpu time    0.1460: real time    0.1455
    MIXING:  cpu time    0.0030: real time    0.0026
    --------------------------------------------
      LOOP:  cpu time    5.8681: real time    5.8736

 eigenvalue-minimisations  :   672
 total energy-change (2. order) : 0.6876293E-02  (-0.6632953E-03)
 number of electron      18.0000003 magnetization 
 augmentation part       -0.5414493 magnetization 

 Broyden mixing:
  rms(total) = 0.96698E-02    rms(broyden)= 0.96695E-02
  rms(prec ) = 0.11481E-01
  weight for this iteration     100.00

 eigenvalues of (default mixing * dielectric matrix)
  average eigenvalue GAMMA=   1.5143
  0.6479  1.0748  2.5444  1.7902

 Free energy of the ion-electron system (eV)
  ---------------------------------------------------
  alpha Z        PSCENC =        14.54174630
  Ewald energy   TEWEN  =      3278.07726918
  -Hartree energ DENC   =     -3976.86294267
  -exchange      EXHF   =         0.00000000
  -V(xc)+E(xc)   XCENC  =       -36.73785253
  PAW double counting   =       492.46408522     -414.58422738
  entropy T*S    EENTRO =         0.00073753
  eigenvalues    EBANDS =      -150.84203822
  atomic energy  EATOM  =       774.02183170
  Solvation  Ediel_sol  =         0.00000000
  ---------------------------------------------------
  free energy    TOTEN  =       -19.92139087 eV

  energy without entropy =      -19.92212840  energy(sigma->0) =      -19.92163671


--------------------------------------------------------------------------------------------------------




----------------------------------------- Iteration    1(  10)  ---------------------------------------


    POTLOK:  cpu time    4.5953: real time    4.6002
    SETDIJ:  cpu time    0.0070: real time    0.0070
    EDDIAG:  cpu time    0.2770: real time    0.2770
  RMM-DIIS:  cpu time    0.8199: real time    0.8214
    ORTHCH:  cpu time    0.0130: real time    0.0140
       DOS:  cpu time    0.0000: real time    0.0007
    CHARGE:  cpu time    0.1450: real time    0.1449
    MIXING:  cpu time    0.0030: real time    0.0028
    --------------------------------------------
      LOOP:  cpu time    5.8661: real time    5.8736

 eigenvalue-minimisations  :   674
 total energy-change (2. order) : 0.9799183E-03  (-0.1075992E-03)
 number of electron      18.0000003 magnetization 
 augmentation part       -0.5425106 magnetization 

 Broyden mixing:
  rms(total) = 0.36551E-02    rms(broyden)= 0.36550E-02
  rms(prec ) = 0.54536E-02
  weight for this iteration     100.00

 eigenvalues of (default mixing * dielectric matrix)
  average eigenvalue GAMMA=   1.5859
  0.6481  1.0238  2.3741  1.9418  1.9418

 Free energy of the ion-electron system (eV)
  ---------------------------------------------------
  alpha Z        PSCENC =        14.54174630
  Ewald energy   TEWEN  =      3278.07726918
  -Hartree energ DENC   =     -3977.71029364
  -exchange      EXHF   =         0.00000000
  -V(xc)+E(xc)   XCENC  =       -36.70653900
  PAW double counting   =       494.85587613     -417.01246363
  entropy T*S    EENTRO =         0.00073938
  eigenvalues    EBANDS =      -149.98857738
  atomic energy  EATOM  =       774.02183170
  Solvation  Ediel_sol  =         0.00000000
  ---------------------------------------------------
  free energy    TOTEN  =       -19.92041095 eV

  energy without entropy =      -19.92115033  energy(sigma->0) =      -19.92065741


--------------------------------------------------------------------------------------------------------




----------------------------------------- Iteration    1(  11)  ---------------------------------------


    POTLOK:  cpu time    4.6153: real time    4.6189
    SETDIJ:  cpu time    0.0070: real time    0.0071
    EDDIAG:  cpu time    0.2780: real time    0.2779
  RMM-DIIS:  cpu time    0.8029: real time    0.8041
    ORTHCH:  cpu time    0.0140: real time    0.0140
       DOS:  cpu time    0.0000: real time    0.0007
    CHARGE:  cpu time    0.1450: real time    0.1447
    MIXING:  cpu time    0.0030: real time    0.0027
    --------------------------------------------
      LOOP:  cpu time    5.8691: real time    5.8957

 eigenvalue-minimisations  :   673
 total energy-change (2. order) : 0.3108612E-03  (-0.5654836E-04)
 number of electron      18.0000003 magnetization 
 augmentation part       -0.5410458 magnetization 

 Broyden mixing:
  rms(total) = 0.30669E-02    rms(broyden)= 0.30669E-02
  rms(prec ) = 0.42001E-02
  weight for this iteration     100.00

 eigenvalues of (default mixing * dielectric matrix)
  average eigenvalue GAMMA=   1.6812
  2.7883  2.7883  0.6482  0.9637  1.4494  1.4494

 Free energy of the ion-electron system (eV)
  ---------------------------------------------------
  alpha Z        PSCENC =        14.54174630
  Ewald energy   TEWEN  =      3278.07726918
  -Hartree energ DENC   =     -3978.41224440
  -exchange      EXHF   =         0.00000000
  -V(xc)+E(xc)   XCENC  =       -36.69899988
  PAW double counting   =       494.44251288     -416.59032207
  entropy T*S    EENTRO =         0.00073786
  eigenvalues    EBANDS =      -149.30263166
  atomic energy  EATOM  =       774.02183170
  Solvation  Ediel_sol  =         0.00000000
  ---------------------------------------------------
  free energy    TOTEN  =       -19.92010009 eV

  energy without entropy =      -19.92083794  energy(sigma->0) =      -19.92034604


--------------------------------------------------------------------------------------------------------




----------------------------------------- Iteration    1(  12)  ---------------------------------------


    POTLOK:  cpu time    4.6043: real time    4.6098
    SETDIJ:  cpu time    0.0070: real time    0.0067
    EDDIAG:  cpu time    0.2800: real time    0.2800
  RMM-DIIS:  cpu time    0.8019: real time    0.8024
    ORTHCH:  cpu time    0.0140: real time    0.0138
       DOS:  cpu time    0.0010: real time    0.0008
    CHARGE:  cpu time    0.1450: real time    0.1451
    MIXING:  cpu time    0.0030: real time    0.0028
    --------------------------------------------
      LOOP:  cpu time    5.8591: real time    5.8660

 eigenvalue-minimisations  :   672
 total energy-change (2. order) : 0.1746945E-02  (-0.3321521E-04)
 number of electron      18.0000003 magnetization 
 augmentation part       -0.5426113 magnetization 

 Broyden mixing:
  rms(total) = 0.21151E-02    rms(broyden)= 0.21151E-02
  rms(prec ) = 0.27018E-02
  weight for this iteration     100.00

 eigenvalues of (default mixing * dielectric matrix)
  average eigenvalue GAMMA=   1.8691
  3.1255  2.8335  2.8335  0.6482  0.9830  1.3301  1.3301

 Free energy of the ion-electron system (eV)
  ---------------------------------------------------
  alpha Z        PSCENC =        14.54174630
  Ewald energy   TEWEN  =      3278.07726918
  -Hartree energ DENC   =     -3979.08054987
  -exchange      EXHF   =         0.00000000
  -V(xc)+E(xc)   XCENC  =       -36.69197456
  PAW double counting   =       494.36454129     -416.50552225
  entropy T*S    EENTRO =         0.00073916
  eigenvalues    EBANDS =      -148.64643409
  atomic energy  EATOM  =       774.02183170
  Solvation  Ediel_sol  =         0.00000000
  ---------------------------------------------------
  free energy    TOTEN  =       -19.91835314 eV

  energy without entropy =      -19.91909230  energy(sigma->0) =      -19.91859953


--------------------------------------------------------------------------------------------------------




----------------------------------------- Iteration    1(  13)  ---------------------------------------


    POTLOK:  cpu time    4.6003: real time    4.6053
    SETDIJ:  cpu time    0.0070: real time    0.0069
    EDDIAG:  cpu time    0.2810: real time    0.2807
  RMM-DIIS:  cpu time    0.7999: real time    0.8003
    ORTHCH:  cpu time    0.0140: real time    0.0140
       DOS:  cpu time    0.0000: real time    0.0007
    CHARGE:  cpu time    0.1460: real time    0.1452
    MIXING:  cpu time    0.0030: real time    0.0029
    --------------------------------------------
      LOOP:  cpu time    5.8551: real time    5.8708

 eigenvalue-minimisations  :   672
 total energy-change (2. order) : 0.5415410E-03  (-0.2983002E-04)
 number of electron      18.0000003 magnetization 
 augmentation part       -0.5406698 magnetization 

 Broyden mixing:
  rms(total) = 0.24079E-02    rms(broyden)= 0.24079E-02
  rms(prec ) = 0.27174E-02
  weight for this iteration     100.00

 eigenvalues of (default mixing * dielectric matrix)
  average eigenvalue GAMMA=   1.9340
  4.9516  2.6621  2.3518  1.4720  1.4720  0.6483  0.9572  0.9572

 Free energy of the ion-electron system (eV)
  ---------------------------------------------------
  alpha Z        PSCENC =        14.54174630
  Ewald energy   TEWEN  =      3278.07726918
  -Hartree energ DENC   =     -3979.63762791
  -exchange      EXHF   =         0.00000000
  -V(xc)+E(xc)   XCENC  =       -36.68598905
  PAW double counting   =       494.34685286     -416.49325153
  entropy T*S    EENTRO =         0.00074025
  eigenvalues    EBANDS =      -148.08938340
  atomic energy  EATOM  =       774.02183170
  Solvation  Ediel_sol  =         0.00000000
  ---------------------------------------------------
  free energy    TOTEN  =       -19.91781160 eV

  energy without entropy =      -19.91855185  energy(sigma->0) =      -19.91805835


--------------------------------------------------------------------------------------------------------




----------------------------------------- Iteration    1(  14)  ---------------------------------------


    POTLOK:  cpu time    4.5983: real time    4.6028
    SETDIJ:  cpu time    0.0060: real time    0.0068
    EDDIAG:  cpu time    0.2770: real time    0.2775
  RMM-DIIS:  cpu time    0.8189: real time    0.8198
    ORTHCH:  cpu time    0.0140: real time    0.0141
       DOS:  cpu time    0.0000: real time    0.0008
    CHARGE:  cpu time    0.1450: real time    0.1448
    MIXING:  cpu time    0.0030: real time    0.0030
    --------------------------------------------
      LOOP:  cpu time    5.8671: real time    5.8845

 eigenvalue-minimisations  :   672
 total energy-change (2. order) :-0.8249649E-03  (-0.7956108E-05)
 number of electron      18.0000003 magnetization 
 augmentation part       -0.5419942 magnetization 

 Broyden mixing:
  rms(total) = 0.59816E-03    rms(broyden)= 0.59815E-03
  rms(prec ) = 0.75335E-03
  weight for this iteration     100.00

 eigenvalues of (default mixing * dielectric matrix)
  average eigenvalue GAMMA=   2.2264
  6.8946  3.1166  2.6267  2.0401  1.5811  0.6483  0.9974  1.0665  1.0665

 Free energy of the ion-electron system (eV)
  ---------------------------------------------------
  alpha Z        PSCENC =        14.54174630
  Ewald energy   TEWEN  =      3278.07726918
  -Hartree energ DENC   =     -3979.82275533
  -exchange      EXHF   =         0.00000000
  -V(xc)+E(xc)   XCENC  =       -36.68849581
  PAW double counting   =       494.20534373     -416.34741240
  entropy T*S    EENTRO =         0.00073896
  eigenvalues    EBANDS =      -147.90690290
  atomic energy  EATOM  =       774.02183170
  Solvation  Ediel_sol  =         0.00000000
  ---------------------------------------------------
  free energy    TOTEN  =       -19.91863657 eV

  energy without entropy =      -19.91937552  energy(sigma->0) =      -19.91888289


--------------------------------------------------------------------------------------------------------




----------------------------------------- Iteration    1(  15)  ---------------------------------------


    POTLOK:  cpu time    4.6403: real time    4.6453
    SETDIJ:  cpu time    0.0070: real time    0.0067
    EDDIAG:  cpu time    0.2770: real time    0.2781
  RMM-DIIS:  cpu time    0.8099: real time    0.8097
    ORTHCH:  cpu time    0.0150: real time    0.0150
       DOS:  cpu time    0.0010: real time    0.0008
    CHARGE:  cpu time    0.1450: real time    0.1449
    MIXING:  cpu time    0.0030: real time    0.0031
    --------------------------------------------
      LOOP:  cpu time    5.9031: real time    5.9082

 eigenvalue-minimisations  :   671
 total energy-change (2. order) :-0.1705087E-03  (-0.4876963E-05)
 number of electron      18.0000003 magnetization 
 augmentation part       -0.5416725 magnetization 

 Broyden mixing:
  rms(total) = 0.47332E-03    rms(broyden)= 0.47332E-03
  rms(prec ) = 0.56244E-03
  weight for this iteration     100.00

 eigenvalues of (default mixing * dielectric matrix)
  average eigenvalue GAMMA=   2.1826
  7.4240  3.1157  2.5070  2.3119  1.4775  1.4775  0.6483  0.9684  0.9477  0.9477

 Free energy of the ion-electron system (eV)
  ---------------------------------------------------
  alpha Z        PSCENC =        14.54174630
  Ewald energy   TEWEN  =      3278.07726918
  -Hartree energ DENC   =     -3979.93682334
  -exchange      EXHF   =         0.00000000
  -V(xc)+E(xc)   XCENC  =       -36.68774895
  PAW double counting   =       494.29737058     -416.44138584
  entropy T*S    EENTRO =         0.00073961
  eigenvalues    EBANDS =      -147.79180632
  atomic energy  EATOM  =       774.02183170
  Solvation  Ediel_sol  =         0.00000000
  ---------------------------------------------------
  free energy    TOTEN  =       -19.91880707 eV

  energy without entropy =      -19.91954669  energy(sigma->0) =      -19.91905361


--------------------------------------------------------------------------------------------------------




----------------------------------------- Iteration    1(  16)  ---------------------------------------


    POTLOK:  cpu time    4.6013: real time    4.6053
    SETDIJ:  cpu time    0.0070: real time    0.0067
    EDDIAG:  cpu time    0.2790: real time    0.2800
  RMM-DIIS:  cpu time    0.6859: real time    0.6861
    ORTHCH:  cpu time    0.0150: real time    0.0147
       DOS:  cpu time    0.0010: real time    0.0008
    CHARGE:  cpu time    0.1460: real time    0.1461
    MIXING:  cpu time    0.0040: real time    0.0033
    --------------------------------------------
      LOOP:  cpu time    5.7411: real time    5.7562

 eigenvalue-minimisations  :   509
 total energy-change (2. order) :-0.6658144E-04  (-0.3625016E-06)
 number of electron      18.0000003 magnetization 
 augmentation part       -0.5419214 magnetization 

 Broyden mixing:
  rms(total) = 0.22906E-03    rms(broyden)= 0.22906E-03
  rms(prec ) = 0.25992E-03
  weight for this iteration     100.00

 eigenvalues of (default mixing * dielectric matrix)
  average eigenvalue GAMMA=   2.3254
  8.2445  3.3706  2.7617  2.7617  1.7819  1.7819  0.6483  0.9875  0.9875  1.1269
  1.1269

 Free energy of the ion-electron system (eV)
  ---------------------------------------------------
  alpha Z        PSCENC =        14.54174630
  Ewald energy   TEWEN  =      3278.07726918
  -Hartree energ DENC   =     -3979.93738072
  -exchange      EXHF   =         0.00000000
  -V(xc)+E(xc)   XCENC  =       -36.68824884
  PAW double counting   =       494.27978930     -416.42313227
  entropy T*S    EENTRO =         0.00073931
  eigenvalues    EBANDS =      -147.79148762
  atomic energy  EATOM  =       774.02183170
  Solvation  Ediel_sol  =         0.00000000
  ---------------------------------------------------
  free energy    TOTEN  =       -19.91887366 eV

  energy without entropy =      -19.91961296  energy(sigma->0) =      -19.91912009


--------------------------------------------------------------------------------------------------------




----------------------------------------- Iteration    1(  17)  ---------------------------------------


    POTLOK:  cpu time    4.6073: real time    4.6123
    SETDIJ:  cpu time    0.0070: real time    0.0068
    EDDIAG:  cpu time    0.2770: real time    0.2782
  RMM-DIIS:  cpu time    0.7619: real time    0.7619
    ORTHCH:  cpu time    0.0150: real time    0.0155
       DOS:  cpu time    0.0010: real time    0.0008
    CHARGE:  cpu time    0.1450: real time    0.1447
    MIXING:  cpu time    0.0040: real time    0.0034
    --------------------------------------------
      LOOP:  cpu time    5.8221: real time    5.8289

 eigenvalue-minimisations  :   580
 total energy-change (2. order) : 0.2188477E-04  (-0.9409252E-06)
 number of electron      18.0000003 magnetization 
 augmentation part       -0.5418236 magnetization 

 Broyden mixing:
  rms(total) = 0.18704E-03    rms(broyden)= 0.18704E-03
  rms(prec ) = 0.20363E-03
  weight for this iteration     100.00

 eigenvalues of (default mixing * dielectric matrix)
  average eigenvalue GAMMA=   2.3162
  8.0990  4.7524  2.8064  2.4171  2.1784  0.6483  1.4858  1.4858  0.9552  0.9552
  1.0053  1.0053

 Free energy of the ion-electron system (eV)
  ---------------------------------------------------
  alpha Z        PSCENC =        14.54174630
  Ewald energy   TEWEN  =      3278.07726918
  -Hartree energ DENC   =     -3979.94392852
  -exchange      EXHF   =         0.00000000
  -V(xc)+E(xc)   XCENC  =       -36.68831532
  PAW double counting   =       494.24432374     -416.38696008
  entropy T*S    EENTRO =         0.00073930
  eigenvalues    EBANDS =      -147.78555807
  atomic energy  EATOM  =       774.02183170
  Solvation  Ediel_sol  =         0.00000000
  ---------------------------------------------------
  free energy    TOTEN  =       -19.91885177 eV

  energy without entropy =      -19.91959107  energy(sigma->0) =      -19.91909821


--------------------------------------------------------------------------------------------------------




----------------------------------------- Iteration    1(  18)  ---------------------------------------


    POTLOK:  cpu time    4.6063: real time    4.6099
    SETDIJ:  cpu time    0.0070: real time    0.0069
    EDDIAG:  cpu time    0.2810: real time    0.2821
  RMM-DIIS:  cpu time    0.6689: real time    0.6684
    ORTHCH:  cpu time    0.0160: real time    0.0156
       DOS:  cpu time    0.0010: real time    0.0008
    CHARGE:  cpu time    0.1430: real time    0.1443
    MIXING:  cpu time    0.0030: real time    0.0034
    --------------------------------------------
      LOOP:  cpu time    5.7291: real time    5.7369

 eigenvalue-minimisations  :   490
 total energy-change (2. order) :-0.1408012E-04  (-0.3084240E-06)
 number of electron      18.0000003 magnetization 
 augmentation part       -0.5418785 magnetization 

 Broyden mixing:
  rms(total) = 0.94525E-04    rms(broyden)= 0.94525E-04
  rms(prec ) = 0.10790E-03
  weight for this iteration     100.00

 eigenvalues of (default mixing * dielectric matrix)
  average eigenvalue GAMMA=   2.3468
  8.0024  5.6440  2.7369  2.6862  2.1842  1.7265  1.7265  0.6483  1.1486  1.1486
  0.9742  1.0006  0.8812

 Free energy of the ion-electron system (eV)
  ---------------------------------------------------
  alpha Z        PSCENC =        14.54174630
  Ewald energy   TEWEN  =      3278.07726918
  -Hartree energ DENC   =     -3979.94790610
  -exchange      EXHF   =         0.00000000
  -V(xc)+E(xc)   XCENC  =       -36.68829656
  PAW double counting   =       494.26074716     -416.40364924
  entropy T*S    EENTRO =         0.00073930
  eigenvalues    EBANDS =      -147.78134760
  atomic energy  EATOM  =       774.02183170
  Solvation  Ediel_sol  =         0.00000000
  ---------------------------------------------------
  free energy    TOTEN  =       -19.91886585 eV

  energy without entropy =      -19.91960515  energy(sigma->0) =      -19.91911229


--------------------------------------------------------------------------------------------------------




----------------------------------------- Iteration    1(  19)  ---------------------------------------


    POTLOK:  cpu time    4.8173: real time    4.9311
    SETDIJ:  cpu time    0.0070: real time    0.0068
    EDDIAG:  cpu time    0.2820: real time    0.2820
  RMM-DIIS:  cpu time    0.6829: real time    0.6844
    ORTHCH:  cpu time    0.0170: real time    0.0166
       DOS:  cpu time    0.0010: real time    0.0008
    CHARGE:  cpu time    0.1450: real time    0.1446
    MIXING:  cpu time    0.0030: real time    0.0037
    --------------------------------------------
      LOOP:  cpu time    5.9591: real time    6.0960

 eigenvalue-minimisations  :   470
 total energy-change (2. order) :-0.6744715E-05  (-0.1987701E-06)
 number of electron      18.0000003 magnetization 
 augmentation part       -0.5418828 magnetization 

 Broyden mixing:
  rms(total) = 0.17835E-04    rms(broyden)= 0.17835E-04
  rms(prec ) = 0.21063E-04
  weight for this iteration     100.00

 eigenvalues of (default mixing * dielectric matrix)
  average eigenvalue GAMMA=   2.3049
  8.2151  5.5303  3.0108  2.3683  2.3683  1.7782  1.7782  1.5280  0.6483  1.0689
  1.0689  1.0263  0.9394  0.9394

 Free energy of the ion-electron system (eV)
  ---------------------------------------------------
  alpha Z        PSCENC =        14.54174630
  Ewald energy   TEWEN  =      3278.07726918
  -Hartree energ DENC   =     -3979.93880534
  -exchange      EXHF   =         0.00000000
  -V(xc)+E(xc)   XCENC  =       -36.68839273
  PAW double counting   =       494.26255939     -416.40551745
  entropy T*S    EENTRO =         0.00073934
  eigenvalues    EBANDS =      -147.79030299
  atomic energy  EATOM  =       774.02183170
  Solvation  Ediel_sol  =         0.00000000
  ---------------------------------------------------
  free energy    TOTEN  =       -19.91887260 eV

  energy without entropy =      -19.91961193  energy(sigma->0) =      -19.91911904


--------------------------------------------------------------------------------------------------------




----------------------------------------- Iteration    1(  20)  ---------------------------------------


    POTLOK:  cpu time    4.6243: real time    4.6292
    SETDIJ:  cpu time    0.0060: real time    0.0067
    EDDIAG:  cpu time    0.2780: real time    0.2779
  RMM-DIIS:  cpu time    0.6039: real time    0.6039
    ORTHCH:  cpu time    0.0150: real time    0.0156
       DOS:  cpu time    0.0000: real time    0.0008
    --------------------------------------------
      LOOP:  cpu time    5.5322: real time    5.5448

 eigenvalue-minimisations  :   387
 total energy-change (2. order) :-0.8458301E-08  (-0.1924466E-07)
 number of electron      18.0000003 magnetization 
 augmentation part       -0.5418828 magnetization 

 Free energy of the ion-electron system (eV)
  ---------------------------------------------------
  alpha Z        PSCENC =        14.54174630
  Ewald energy   TEWEN  =      3278.07726918
  -Hartree energ DENC   =     -3979.94182153
  -exchange      EXHF   =         0.00000000
  -V(xc)+E(xc)   XCENC  =       -36.68835680
  PAW double counting   =       494.26342973     -416.40639996
  entropy T*S    EENTRO =         0.00073935
  eigenvalues    EBANDS =      -147.78731059
  atomic energy  EATOM  =       774.02183170
  Solvation  Ediel_sol  =         0.00000000
  ---------------------------------------------------
  free energy    TOTEN  =       -19.91887260 eV

  energy without entropy =      -19.91961196  energy(sigma->0) =      -19.91911906


--------------------------------------------------------------------------------------------------------




 average (electrostatic) potential at core
  the test charge radii are     1.2296  0.9698
  (the norm of the test charge is              1.0000)
       1 -46.9501       2 -94.3715       3 -94.3681
 
 
 
 E-fermi :  -3.2770     XC(G=0):  -3.7623     alpha+bet : -3.0995


 k-point     1 :       0.0000    0.0000    0.0000
  band No.  band energies     occupation 
      1     -17.1606      2.00000
      2     -15.9648      2.00000
      3      -8.7467      2.00000
      4      -5.8448      2.00000
      5      -5.8448      2.00000
      6      -5.0439      2.00000
      7      -4.7482      2.00000
      8      -4.7481      2.00000
      9      -3.3173      1.62373
     10      -0.5137      0.00000
     11      -0.5136      0.00000
     12      -0.3372      0.00000
     13      -0.3371      0.00000
     14       1.8955      0.00000
     15       2.0561      0.00000
     16       2.5822      0.00000

 k-point     2 :       0.0769   -0.0000    0.0000
  band No.  band energies     occupation 
      1     -17.0782      2.00000
      2     -15.9258      2.00000
      3      -8.6489      2.00000
      4      -6.0307      2.00000
      5      -5.7540      2.00000
      6      -5.4616      2.00000
      7      -4.8856      2.00000
      8      -4.4585      2.00000
      9      -3.3561      1.97522
     10      -0.6258     -0.00000
     11      -0.5706     -0.00000
     12      -0.4311      0.00000
     13      -0.3682      0.00000
     14       2.0382      0.00000
     15       2.1737      0.00000
     16       2.6426      0.00000

 k-point     3 :       0.1538    0.0000    0.0000
  band No.  band energies     occupation 
      1     -16.8412      2.00000
      2     -15.8140      2.00000
      3      -8.3943      2.00000
      4      -6.4777      2.00000
      5      -6.0353      2.00000
      6      -5.4978      2.00000
      7      -5.2208      2.00000
      8      -4.3333      2.00000
      9      -3.5318      2.00187
     10      -0.9747     -0.00000
     11      -0.7095     -0.00000
     12      -0.6600     -0.00000
     13      -0.0230      0.00000
     14       2.3978      0.00000
     15       2.5167      0.00000
     16       3.0025      0.00000

 k-point     4 :       0.2308   -0.0000    0.0000
  band No.  band energies     occupation 
      1     -16.4815      2.00000
      2     -15.6461      2.00000
      3      -8.1556      2.00000
      4      -6.9197      2.00000
      5      -6.6249      2.00000
      6      -5.6163      2.00000
      7      -5.1270      2.00000
      8      -4.5119      2.00000
      9      -3.8906      2.00000
     10      -1.1567     -0.00000
     11      -0.9113     -0.00000
     12      -0.4823      0.00000
     13       0.3564      0.00000
     14       2.9269      0.00000
     15       3.0627      0.00000
     16       3.5557      0.00000

 k-point     5 :       0.3077    0.0000    0.0000
  band No.  band energies     occupation 
      1     -16.0572      2.00000
      2     -15.4519      2.00000
      3      -8.2720      2.00000
      4      -7.1917      2.00000
      5      -7.0633      2.00000
      6      -5.9723      2.00000
      7      -4.7957      2.00000
      8      -4.7286      2.00000
      9      -4.1913      2.00000
     10      -1.0839     -0.00000
     11      -1.0638     -0.00000
     12      -0.0440      0.00000
     13       0.6580      0.00000
     14       3.5734      0.00000
     15       3.7663      0.00000
     16       4.3456      0.00000

 k-point     6 :       0.3846   -0.0000    0.0000
  band No.  band energies     occupation 
      1     -15.6598      2.00000
      2     -15.2756      2.00000
      3      -8.6224      2.00000
      4      -7.6585      2.00000
      5      -7.1223      2.00000
      6      -6.2328      2.00000
      7      -5.0142      2.00000
      8      -4.4078      2.00000
      9      -4.1368      2.00000
     10      -1.1347     -0.00000
     11      -0.8393     -0.00000
     12       0.3712      0.00000
     13       0.8467      0.00000
     14       3.7399      0.00000
     15       4.4487      0.00000
     16       4.4652      0.00000

 k-point     7 :       0.4615   -0.0000    0.0000
  band No.  band energies     occupation 
      1     -15.4102      2.00000
      2     -15.1685      2.00000
      3      -8.8714      2.00000
      4      -7.9263      2.00000
      5      -7.2259      2.00000
      6      -6.3691      2.00000
      7      -5.1221      2.00000
      8      -4.2381      2.00000
      9      -3.9111      2.00000
     10      -1.1133     -0.00000
     11      -0.6375     -0.00000
     12       0.6005      0.00000
     13       0.9329      0.00000
     14       3.0346      0.00000
     15       4.7713      0.00000
     16       4.9195      0.00000

 k-point     8 :       0.0769    0.0769    0.0000
  band No.  band energies     occupation 
      1     -16.9184      2.00000
      2     -15.8503      2.00000
      3      -8.4705      2.00000
      4      -6.3425      2.00000
      5      -5.8498      2.00000
      6      -5.5856      2.00000
      7      -5.1987      2.00000
      8      -4.2723      2.00000
      9      -3.4636      2.02404
     10      -0.8746     -0.00000
     11      -0.7579     -0.00000
     12      -0.6022     -0.00000
     13      -0.0939      0.00000
     14       2.2862      0.00000
     15       2.4041      0.00000
     16       2.8880      0.00000

 k-point     9 :       0.1538    0.0769    0.0000
  band No.  band energies     occupation 
      1     -16.6195      2.00000
      2     -15.7098      2.00000
      3      -8.2043      2.00000
      4      -6.7766      2.00000
      5      -6.3367      2.00000
      6      -5.6800      2.00000
      7      -5.3007      2.00000
      8      -4.2590      2.00000
      9      -3.7402      2.00000
     10      -1.1682     -0.00000
     11      -0.8206     -0.00000
     12      -0.7371     -0.00000
     13       0.3084      0.00000
     14       2.7310      0.00000
     15       2.8505      0.00000
     16       3.3443      0.00000

 k-point    10 :       0.2308    0.0769    0.0000
  band No.  band energies     occupation 
      1     -16.2253      2.00000
      2     -15.5268      2.00000
      3      -8.1301      2.00000
      4      -7.0221      2.00000
      5      -6.9068      2.00000
      6      -6.0598      2.00000
      7      -5.0163      2.00000
      8      -4.4923      2.00000
      9      -4.0652      2.00000
     10      -1.2694     -0.00000
     11      -0.9241     -0.00000
     12      -0.4248      0.00000
     13       0.6607      0.00000
     14       3.3365      0.00000
     15       3.4831      0.00000
     16       3.9982      0.00000

 k-point    11 :       0.3077    0.0769    0.0000
  band No.  band energies     occupation 
      1     -15.8094      2.00000
      2     -15.3378      2.00000
      3      -8.4022      2.00000
      4      -7.4705      2.00000
      5      -7.0407      2.00000
      6      -6.2735      2.00000
      7      -4.8551      2.00000
      8      -4.8001      2.00000
      9      -4.0855      2.00000
     10      -1.1985     -0.00000
     11      -0.8742     -0.00000
     12       0.0187      0.00000
     13       0.8692      0.00000
     14       3.9566      0.00000
     15       4.2335      0.00000
     16       4.6346      0.00000

 k-point    12 :       0.3846    0.0769    0.0000
  band No.  band energies     occupation 
      1     -15.4783      2.00000
      2     -15.1916      2.00000
      3      -8.7005      2.00000
      4      -7.8786      2.00000
      5      -7.1430      2.00000
      6      -6.3710      2.00000
      7      -5.0349      2.00000
      8      -4.7102      2.00000
      9      -3.8635      2.00000
     10      -1.1032     -0.00000
     11      -0.6984     -0.00000
     12       0.4222      0.00000
     13       0.8917      0.00000
     14       3.4342      0.00000
     15       4.8968      0.00000
     16       4.9124      0.00000

 k-point    13 :       0.4615    0.0769    0.0000
  band No.  band energies     occupation 
      1     -15.3491      2.00000
      2     -15.1358      2.00000
      3      -8.8212      2.00000
      4      -8.0271      2.00000
      5      -7.2146      2.00000
      6      -6.3973      2.00000
      7      -5.1212      2.00000
      8      -4.6405      2.00000
      9      -3.7257      2.00000
     10      -1.0896     -0.00000
     11      -0.5637     -0.00000
     12       0.6731      0.00000
     13       0.7789      0.00000
     14       3.0207      0.00000
     15       5.2145      0.00000
     16       5.2658      0.00000

 k-point    14 :       0.1538    0.1538    0.0000
  band No.  band energies     occupation 
      1     -16.2845      2.00000
      2     -15.5528      2.00000
      3      -8.0694      2.00000
      4      -6.9876      2.00000
      5      -6.6826      2.00000
      6      -6.2818      2.00000
      7      -5.1701      2.00000
      8      -4.2660      2.00000
      9      -4.0032      2.00000
     10      -1.3551     -0.00000
     11      -0.8730     -0.00000
     12      -0.6707     -0.00000
     13       0.7052      0.00000
     14       3.2604      0.00000
     15       3.3879      0.00000
     16       3.9024      0.00000

 k-point    15 :       0.2308    0.1538    0.0000
  band No.  band energies     occupation 
      1     -15.8932      2.00000
      2     -15.3703      2.00000
      3      -8.1987      2.00000
      4      -7.2949      2.00000
      5      -6.9395      2.00000
      6      -6.4776      2.00000
      7      -5.2973      2.00000
      8      -4.5054      2.00000
      9      -4.0606      2.00000
     10      -1.3152     -0.00000
     11      -0.8251     -0.00000
     12      -0.3902      0.00000
     13       0.9728      0.00000
     14       3.9198      0.00000
     15       4.0905      0.00000
     16       4.6760      0.00000

 k-point    16 :       0.3077    0.1538    0.0000
  band No.  band energies     occupation 
      1     -15.5318      2.00000
      2     -15.2036      2.00000
      3      -8.4211      2.00000
      4      -7.8512      2.00000
      5      -6.9641      2.00000
      6      -6.4586      2.00000
      7      -5.4254      2.00000
      8      -4.8448      2.00000
      9      -3.8832      2.00000
     10      -1.1186     -0.00000
     11      -0.7139     -0.00000
     12      -0.0379      0.00000
     13       1.0688      0.00000
     14       4.0234      0.00000
     15       4.8806      0.00000
     16       4.9555      0.00000

 k-point    17 :       0.3846    0.1538    0.0000
  band No.  band energies     occupation 
      1     -15.3085      2.00000
      2     -15.1018      2.00000
      3      -8.5586      2.00000
      4      -8.1634      2.00000
      5      -7.1139      2.00000
      6      -6.3854      2.00000
      7      -5.4169      2.00000
      8      -5.0982      2.00000
      9      -3.6493      2.00000
     10      -1.1507     -0.00000
     11      -0.4285      0.00000
     12       0.2130      0.00000
     13       1.0464      0.00000
     14       3.3734      0.00000
     15       5.6233      0.00000
     16       5.6622      0.00000

 k-point    18 :       0.2308    0.2308    0.0000
  band No.  band energies     occupation 
      1     -15.5520      2.00000
      2     -15.2071      2.00000
      3      -8.2733      2.00000
      4      -7.8382      2.00000
      5      -6.8010      2.00000
      6      -6.5153      2.00000
      7      -5.8319      2.00000
      8      -4.7379      2.00000
      9      -3.9107      2.00000
     10      -1.1399     -0.00000
     11      -0.7067     -0.00000
     12      -0.2578      0.00000
     13       1.1687      0.00000
[...]
  band No.  band energies     occupation 
      1     -15.6647      2.00000
      2     -15.2778      2.00000
      3      -8.6257      2.00000
      4      -7.6594      2.00000
      5      -7.1253      2.00000
      6      -6.2394      2.00000
      7      -5.0123      2.00000
      8      -4.4155      2.00000
      9      -4.1381      2.00000
     10      -1.1389     -0.00000
     11      -0.8409     -0.00000
     12       0.3701      0.00000
     13       0.8466      0.00000
     14       3.7361      0.00000
     15       4.4463      0.00000
     16       4.4627      0.00000

 k-point     7 :       0.4615   -0.0000    0.0000
  band No.  band energies     occupation 
      1     -15.4156      2.00000
      2     -15.1712      2.00000
      3      -8.8735      2.00000
      4      -7.9266      2.00000
      5      -7.2290      2.00000
      6      -6.3756      2.00000
      7      -5.1201      2.00000
      8      -4.2452      2.00000
      9      -3.9125      2.00000
     10      -1.1187     -0.00000
     11      -0.6415     -0.00000
     12       0.5999      0.00000
     13       0.9332      0.00000
     14       3.0322      0.00000
     15       4.7699      0.00000
     16       4.9194      0.00000

 k-point     8 :       0.0769    0.0769    0.0000
  band No.  band energies     occupation 
      1     -16.9215      2.00000
      2     -15.8503      2.00000
      3      -8.4735      2.00000
      4      -6.3500      2.00000
      5      -5.8519      2.00000
      6      -5.5942      2.00000
      7      -5.2058      2.00000
      8      -4.2742      2.00000
      9      -3.4614      2.02420
     10      -0.8739     -0.00000
     11      -0.7609     -0.00000
     12      -0.6031     -0.00000
     13      -0.0968      0.00000
     14       2.2638      0.00000
     15       2.4076      0.00000
     16       2.7659      0.00000

 k-point     9 :       0.1538    0.0769    0.0000
  band No.  band energies     occupation 
      1     -16.6229      2.00000
      2     -15.7103      2.00000
      3      -8.2080      2.00000
      4      -6.7828      2.00000
      5      -6.3391      2.00000
      6      -5.6861      2.00000
      7      -5.3092      2.00000
      8      -4.2598      2.00000
      9      -3.7394      2.00000
     10      -1.1667     -0.00000
     11      -0.8217     -0.00000
     12      -0.7397     -0.00000
     13       0.3063      0.00000
     14       2.7106      0.00000
     15       2.8517      0.00000
     16       3.2180      0.00000

 k-point    10 :       0.2308    0.0769    0.0000
  band No.  band energies     occupation 
      1     -16.2292      2.00000
      2     -15.5280      2.00000
      3      -8.1349      2.00000
      4      -7.0263      2.00000
      5      -6.9092      2.00000
      6      -6.0650      2.00000
      7      -5.0239      2.00000
      8      -4.4922      2.00000
      9      -4.0662      2.00000
     10      -1.2684     -0.00000
     11      -0.9258     -0.00000
     12      -0.4269      0.00000
     13       0.6597      0.00000
     14       3.3242      0.00000
     15       3.4823      0.00000
     16       3.8651      0.00000

 k-point    11 :       0.3077    0.0769    0.0000
  band No.  band energies     occupation 
      1     -15.8140      2.00000
      2     -15.3397      2.00000
      3      -8.4063      2.00000
      4      -7.4724      2.00000
      5      -7.0440      2.00000
      6      -6.2785      2.00000
      7      -4.8607      2.00000
      8      -4.7992      2.00000
      9      -4.0887      2.00000
     10      -1.1996     -0.00000
     11      -0.8770     -0.00000
     12       0.0173      0.00000
     13       0.8690      0.00000
     14       3.9512      0.00000
     15       4.2311      0.00000
     16       4.5999      0.00000

 k-point    12 :       0.3846    0.0769    0.0000
  band No.  band energies     occupation 
      1     -15.4835      2.00000
      2     -15.1941      2.00000
      3      -8.7032      2.00000
      4      -7.8797      2.00000
      5      -7.1461      2.00000
      6      -6.3761      2.00000
      7      -5.0334      2.00000
      8      -4.7152      2.00000
      9      -3.8671      2.00000
     10      -1.1072     -0.00000
     11      -0.7022     -0.00000
     12       0.4215      0.00000
     13       0.8920      0.00000
     14       3.4317      0.00000
     15       4.8954      0.00000
     16       4.9061      0.00000

 k-point    13 :       0.4615    0.0769    0.0000
  band No.  band energies     occupation 
      1     -15.3546      2.00000
      2     -15.1386      2.00000
      3      -8.8233      2.00000
      4      -8.0279      2.00000
      5      -7.2177      2.00000
      6      -6.4025      2.00000
      7      -5.1194      2.00000
      8      -4.6453      2.00000
      9      -3.7291      2.00000
     10      -1.0949     -0.00000
     11      -0.5682     -0.00000
     12       0.6726      0.00000
     13       0.7794      0.00000
     14       3.0190      0.00000
     15       5.2119      0.00000
     16       5.2652      0.00000

 k-point    14 :       0.1538    0.1538    0.0000
  band No.  band energies     occupation 
      1     -16.2884      2.00000
      2     -15.5538      2.00000
      3      -8.0742      2.00000
      4      -6.9922      2.00000
      5      -6.6860      2.00000
      6      -6.2857      2.00000
      7      -5.1773      2.00000
      8      -4.2665      2.00000
      9      -4.0043      2.00000
     10      -1.3537     -0.00000
     11      -0.8748     -0.00000
     12      -0.6730     -0.00000
     13       0.7043      0.00000
     14       3.2448      0.00000
     15       3.3877      0.00000
     16       3.7703      0.00000

 k-point    15 :       0.2308    0.1538    0.0000
  band No.  band energies     occupation 
      1     -15.8976      2.00000
      2     -15.3721      2.00000
      3      -8.2033      2.00000
      4      -7.2985      2.00000
      5      -6.9431      2.00000
      6      -6.4800      2.00000
      7      -5.3021      2.00000
      8      -4.5054      2.00000
      9      -4.0640      2.00000
     10      -1.3142     -0.00000
     11      -0.8289     -0.00000
     12      -0.3918      0.00000
     13       0.9727      0.00000
     14       3.9122      0.00000
     15       4.0888      0.00000
     16       4.5196      0.00000

 k-point    16 :       0.3077    0.1538    0.0000
  band No.  band energies     occupation 
      1     -15.5369      2.00000
      2     -15.2060      2.00000
      3      -8.4245      2.00000
      4      -7.8540      2.00000
      5      -6.9674      2.00000
      6      -6.4611      2.00000
      7      -5.4294      2.00000
      8      -4.8441      2.00000
      9      -3.8872      2.00000
     10      -1.1197     -0.00000
     11      -0.7192     -0.00000
     12      -0.0382      0.00000
     13       1.0685      0.00000
     14       4.0210      0.00000
     15       4.8778      0.00000
     16       4.9495      0.00000

 k-point    17 :       0.3846    0.1538    0.0000
  band No.  band energies     occupation 
      1     -15.3140      2.00000
      2     -15.1047      2.00000
      3      -8.5608      2.00000
      4      -8.1657      2.00000
      5      -7.1173      2.00000
      6      -6.3882      2.00000
      7      -5.4206      2.00000
      8      -5.0969      2.00000
      9      -3.6532      2.00000
     10      -1.1559     -0.00000
     11      -0.4323      0.00000
     12       0.2142      0.00000
     13       1.0452      0.00000
     14       3.3720      0.00000
     15       5.6156      0.00000
     16       5.6592      0.00000

 k-point    18 :       0.2308    0.2308    0.0000
  band No.  band energies     occupation 
      1     -15.5571      2.00000
      2     -15.2095      2.00000
      3      -8.2771      2.00000
      4      -7.8419      2.00000
      5      -6.8045      2.00000
      6      -6.5165      2.00000
      7      -5.8354      2.00000
      8      -4.7375      2.00000
      9      -3.9147      2.00000
     10      -1.1398     -0.00000
     11      -0.7126     -0.00000
     12      -0.2580      0.00000
     13       1.1683      0.00000
     14       4.3523      0.00000
     15       4.8329      0.00000
     16       4.9834      0.00000

 k-point    19 :       0.3077    0.2308    0.0000
  band No.  band energies     occupation 
      1     -15.2953      2.00000
      2     -15.0826      2.00000
      3      -8.2634      2.00000
      4      -8.2570      2.00000
      5      -6.9044      2.00000
      6      -6.3672      2.00000
      7      -6.1809      2.00000
      8      -5.0678      2.00000
      9      -3.6458      2.00000
     10      -1.2530     -0.00000
     11      -0.3217      0.00000
     12      -0.1354      0.00000
     13       1.2898      0.00000
     14       3.9233      0.00000
     15       5.2319      0.00000
     16       5.6034      0.00000

 k-point    20 :       0.3846    0.2308    0.0000
  band No.  band energies     occupation 
      1     -15.1961      2.00000
      2     -15.0339      2.00000
      3      -8.4174      2.00000
      4      -8.2067      2.00000
      5      -7.0764      2.00000
      6      -6.2562      2.00000
      7      -6.2329      2.00000
      8      -5.2463      2.00000
      9      -3.4714      2.01792
     10      -1.4039     -0.00000
     11      -0.0932      0.00000
     12      -0.0754      0.00000
     13       1.3358      0.00000
     14       3.6054      0.00000
     15       5.2318      0.00000
     16       6.0520      0.00000

 k-point    21 :       0.3077    0.3077    0.0000
  band No.  band energies     occupation 
      1     -15.1543      2.00000
      2     -15.0067      2.00000
      3      -8.5159      2.00000
      4      -7.9142      2.00000
      5      -7.0622      2.00000
      6      -6.6940      2.00000
      7      -6.1619      2.00000
      8      -5.3417      2.00000
      9      -3.3764      2.05293
     10      -1.5532     -0.00000
     11      -0.2226      0.00000
     12       0.0796      0.00000
     13       1.4743      0.00000
     14       3.9531      0.00000
     15       4.5891      0.00000
     16       6.1861      0.00000


--------------------------------------------------------------------------------------------------------


 soft charge-density along one line, spin component           1
         0         1         2         3         4         5         6         7         8         9
 total charge-density along one line
 
 pseudopotential strength for first ion, spin component:           1
 -9.935   0.000   0.000  -0.000  -0.000   0.084  -0.000  -0.000
  0.000  -9.936  -0.000   0.000  -0.000  -0.000   0.084   0.000
  0.000  -0.000  -9.917   0.000  -0.000  -0.000   0.000   0.083
 -0.000   0.000   0.000  -9.936   0.000   0.000  -0.000  -0.000
 -0.000  -0.000  -0.000   0.000  -9.935   0.000   0.000   0.000
  0.084  -0.000  -0.000   0.000   0.000   0.099   0.000   0.000
 -0.000   0.084   0.000  -0.000   0.000   0.000   0.099  -0.000
 -0.000   0.000   0.083  -0.000   0.000   0.000  -0.000   0.099
  0.000  -0.000  -0.000   0.084  -0.000  -0.000   0.000   0.000
  0.000   0.000   0.000  -0.000   0.084  -0.000  -0.000   0.000
  0.000   0.000  -0.004  -0.000   0.000   0.000  -0.000   0.000
 -0.000  -0.000   0.001   0.000  -0.000   0.000   0.000  -0.000
  0.000  -0.000   0.000  -0.000   0.009  -0.000   0.000  -0.000
 -0.000  -0.000  -0.000   0.000   0.000  -0.000   0.000   0.000
  0.009  -0.000  -0.000  -0.000   0.000   0.000  -0.000   0.000
 -0.000   0.000  -0.000   0.000  -0.005   0.000  -0.000   0.000
  0.000   0.000   0.000  -0.000  -0.000  -0.000  -0.000  -0.000
 -0.005   0.000   0.000   0.000  -0.000  -0.000  -0.000  -0.000
 total augmentation occupancy for first ion, spin component:           1
  0.971   0.000  -0.000   0.000  -0.000   0.610  -0.000  -0.000  -0.000  -0.000  -0.000   0.000  -0.000   0.000   0.062   0.000
  0.000   0.900   0.000   0.000  -0.000   0.000   0.843   0.000   0.000   0.000   0.000   0.000  -0.000   0.000   0.000   0.000
 -0.000   0.000   1.034   0.000   0.000  -0.000  -0.000   0.510  -0.000   0.000   0.104  -0.005   0.000   0.000  -0.000  -0.000
  0.000   0.000  -0.000   0.900  -0.000   0.000   0.000   0.000   0.843   0.000   0.000   0.000  -0.000   0.000   0.000   0.000
 -0.000   0.000   0.000  -0.000   0.971  -0.000   0.000   0.000   0.000   0.610   0.000  -0.000   0.062   0.000   0.000  -0.004
  0.610   0.000  -0.000  -0.000  -0.000   0.677   0.000  -0.000   0.000  -0.000  -0.000   0.000  -0.000   0.000   0.135   0.000
  0.000   0.843   0.000   0.000   0.000   0.000   1.085   0.000   0.000   0.000   0.000   0.000  -0.000  -0.000  -0.000   0.000
 -0.000   0.000   0.510   0.000   0.000  -0.000   0.000   0.472   0.000   0.000   0.061  -0.015   0.000  -0.000  -0.000  -0.000
  0.000   0.000   0.000   0.843   0.000  -0.000   0.000   0.000   1.085   0.000   0.000   0.000   0.000  -0.000   0.000   0.000
 -0.000   0.000   0.000   0.000   0.610  -0.000  -0.000   0.000   0.000   0.677   0.000  -0.000   0.135   0.000   0.000  -0.018
 -0.000   0.000   0.104   0.000   0.000  -0.000   0.000   0.061   0.000   0.000   1.244  -0.045   0.000  -0.000  -0.000   0.000
  0.000   0.000  -0.005   0.000  -0.000   0.000   0.000  -0.015   0.000  -0.000  -0.045   0.017   0.000   0.000   0.000   0.000
 -0.000   0.000   0.000  -0.000   0.062  -0.000   0.000   0.000  -0.000   0.135   0.000  -0.000   0.218   0.000   0.000  -0.025
  0.000   0.000   0.000  -0.000   0.000  -0.000   0.000  -0.000  -0.000   0.000   0.000   0.000   0.000   0.265   0.000   0.000
  0.062   0.000  -0.000  -0.000   0.000   0.135   0.000  -0.000  -0.000   0.000  -0.000   0.000   0.000   0.000   0.218  -0.000
  0.000  -0.000  -0.000   0.000  -0.004   0.000  -0.000  -0.000   0.000  -0.018   0.000   0.000  -0.025  -0.000  -0.000   0.003
  0.000  -0.000  -0.000   0.000   0.000   0.000  -0.000   0.000   0.000   0.000   0.000   0.000  -0.000  -0.029   0.000   0.000
 -0.004   0.000   0.000  -0.000  -0.000  -0.018   0.000   0.000  -0.000  -0.000  -0.000   0.000  -0.000  -0.000  -0.025   0.000


------------------------ aborting loop because EDIFF is reached ----------------------------------------


    CHARGE:  cpu time    0.2090: real time    0.2092
    FORLOC:  cpu time    0.0060: real time    0.0056
    FORNL :  cpu time    0.5569: real time    0.5579
    STRESS:  cpu time    1.7007: real time    1.7023
    FORCOR:  cpu time    4.6153: real time    4.6201
    FORHAR:  cpu time    0.0210: real time    0.0208
    MIXING:  cpu time    0.0030: real time    0.0027
    OFIELD:  cpu time    0.0000: real time    0.0001

  FORCE on cell =-STRESS in cart. coord.  units (eV):
  Direction    XX          YY          ZZ          XY          YZ          ZX
  --------------------------------------------------------------------------------------
  Alpha Z    14.53415    14.53415    14.53415
  Ewald    3843.81725  3843.81760 -4410.26575     0.00036    -0.00000     0.00000
  Hartree  3940.30153  3940.30154 -3901.43265     0.00000     0.00000    -0.00000
  E(xc)     -71.76364   -71.76364   -71.39274    -0.00000    -0.00000     0.00000
  Local   -8067.76109 -8067.76140  8021.59204    -0.00023     0.00000    -0.00000
  n-local   128.12989   126.61811   132.70019    -0.36332     0.00006     0.00077
  augment   -24.68860   -24.68859   -25.73190     0.00000    -0.00001     0.00002
  Kinetic   237.02550   239.34180   239.97661    -7.40675    -0.00053    -0.00033
  Fock        0.00000     0.00000     0.00000     0.00000     0.00000     0.00000
  -------------------------------------------------------------------------------------
  Total      -0.00271    -0.00271    -0.02005    -0.00000     0.00000     0.00000
  in kB      -0.02130    -0.02130    -0.15746    -0.00000     0.00000     0.00000
  external pressure =       -0.07 kB  Pullay stress =        0.00 kB


 VOLUME and BASIS-vectors are now :
 -----------------------------------------------------------------------------
  energy-cutoff  :      500.00
  volume of cell :      203.99
      direct lattice vectors                 reciprocal lattice vectors
     3.190317030  0.000000000  0.000000000     0.313448473  0.180969431  0.000000000
    -1.595158015  2.762896701  0.000000000     0.000000000  0.361938975  0.000000000
     0.000000000  0.000000000 23.142802174     0.000000000  0.000000000  0.043209979

  length of vectors
     3.190317030  3.190317739 23.142802174     0.361939055  0.361938975  0.043209979


 FORCES acting on ions
    electron-ion (+dipol)            ewald-force                    non-local-force                 convergence-correction
 -----------------------------------------------------------------------------------------------
   -.456E-04 0.483E-04 0.204E-03   -.162E-03 0.588E-04 0.178E-02   -.312E-16 0.694E-17 0.000E+00   0.279E-10 -.113E-10 -.175E-05
   0.919E-03 -.540E-03 0.559E+03   0.812E-04 -.294E-04 -.563E+03   0.000E+00 -.260E-16 0.421E+01   -.130E-09 0.692E-10 0.510E-04
   0.932E-03 -.548E-03 -.559E+03   0.812E-04 -.294E-04 0.563E+03   0.451E-16 -.226E-16 -.421E+01   -.130E-09 0.693E-10 -.537E-04
 -----------------------------------------------------------------------------------------------
   0.181E-02 -.104E-02 0.558E-01   -.623E-14 -.673E-15 0.000E+00   0.139E-16 -.416E-16 0.000E+00   -.232E-09 0.127E-09 -.444E-05
 
 
 POSITION                                       TOTAL-FORCE (eV/Angst)
 -----------------------------------------------------------------------------------
      1.59516      0.92096     11.56528        -0.000000      0.000000      0.000000
     -0.00000      1.84193      9.99500         0.000000     -0.000000     -0.000953
     -0.00000      1.84193     13.13550         0.000000     -0.000000      0.000953
 -----------------------------------------------------------------------------------
    total drift:                                0.001806     -0.001040      0.055811


--------------------------------------------------------------------------------------------------------



  FREE ENERGIE OF THE ION-ELECTRON SYSTEM (eV)
  ---------------------------------------------------
  free  energy   TOTEN  =       -19.91882439 eV

  energy  without entropy=      -19.91956377  energy(sigma->0) =      -19.91907085
 
 d Force = 0.4431372E-07[-0.142E-06, 0.231E-06]  d Energy =-0.2335203E-05 0.238E-05
 d Force =-0.8398168E-01[-0.840E-01,-0.840E-01]  d Ewald  =-0.5706854E+00 0.487E+00


--------------------------------------------------------------------------------------------------------


    POTLOK:  cpu time    4.6203: real time    4.6241


--------------------------------------------------------------------------------------------------------




--------------------------------------------------------------------------------------------------------


  
 reached required accuracy - stopping structural energy minimisation
 writing wavefunctions
     LOOP+:  cpu time   51.7201: real time   51.9243
    4ORBIT:  cpu time    0.0000: real time    0.0000

 total amount of memory used by VASP on root node    39231. kBytes
========================================================================

   base      :      30000. kBytes
   nonlr-proj:        974. kBytes
   fftplans  :       2515. kBytes
   grid      :       3953. kBytes
   one-center:         15. kBytes
   wavefun   :       1774. kBytes
 
  
  
 General timing and accounting informations for this job:
 ========================================================
  
                  Total CPU time used (sec):      330.570
                            User time (sec):      297.943
                          System time (sec):       32.627
                         Elapsed time (sec):      331.822
  
                   Maximum memory used (kb):      150388.
                   Average memory used (kb):           0.
  
                          Minor page faults:      1410385
                          Major page faults:            8
                 Voluntary context switches:         1287
