unknown system                          
           1
     3.189615    0.000000    0.000000
    -1.594807    2.762289    0.000000
     0.000000    0.000000   23.142802
   Mo   S 
   1   2
Direct configuration=     1
   0.66666700  0.33333300  0.49973569
   0.33333300  0.66666700  0.43183398
   0.33333300  0.66666700  0.56763440
unknown system                          
           1
     3.189864    0.000000    0.000000
    -1.594931    2.762504    0.000000
     0.000000    0.000000   23.142802
   Mo   S 
   1   2
Direct configuration=     2
   0.66666700  0.33333300  0.49973569
   0.33333300  0.66666700  0.43185377
   0.33333300  0.66666700  0.56761461
unknown system                          
           1
     3.190519    0.000000    0.000000
    -1.595259    2.763072    0.000000
     0.000000    0.000000   23.142802
   Mo   S 
   1   2
Direct configuration=     3
   0.66666700  0.33333300  0.49973569
   0.33333300  0.66666700  0.43189113
   0.33333300  0.66666700  0.56757724
unknown system                          
           1
     3.190317    0.000000    0.000000
    -1.595158    2.762897    0.000000
     0.000000    0.000000   23.142802
   Mo   S 
   1   2
Direct configuration=     4
   0.66666700  0.33333300  0.49973569
   0.33333300  0.66666700  0.43188067
   0.33333300  0.66666700  0.56758770
unknown system                          
           1
     3.190317    0.000000    0.000000
    -1.595158    2.762897    0.000000
     0.000000    0.000000   23.142802
   Mo   S 
   1   2
Direct configuration=     5
   0.66666700  0.33333300  0.49973569
   0.33333300  0.66666700  0.43188390
   0.33333300  0.66666700  0.56758448
