  24  24   0   0
  0.4176334E+02  0.3540400E-09  0.1044544E-08  0.2750143E-08  0.5000000E-15
  1.000000000000000E-004
  CAR 
 unknown system                          
      4.25049337    -14.95735765  301      0.19596943      1.00000000
    -14.957  0.0000E+00  0.0000E+00
    -14.893  0.0000E+00  0.0000E+00
    -14.829  0.0000E+00  0.0000E+00
    -14.765  0.0000E+00  0.0000E+00
    -14.701  0.0000E+00  0.0000E+00
    -14.637  0.0000E+00  0.0000E+00
    -14.573  0.0000E+00  0.0000E+00
    -14.509  0.2834E-14  0.1815E-15
    -14.445  0.2686E-11  0.1722E-12
    -14.381  0.1137E-08  0.7300E-10
    -14.317  0.2191E-06  0.1410E-07
    -14.253  0.1938E-04  0.1255E-05
    -14.189  0.7994E-03  0.5244E-04
    -14.125  0.1569E-01  0.1057E-02
    -14.061  0.1508E+00  0.1071E-01
    -13.997  0.7302E+00  0.5746E-01
    -13.933  0.1831E+01  0.1747E+00
    -13.869  0.2472E+01  0.3330E+00
    -13.805  0.2165E+01  0.4716E+00
    -13.741  0.1956E+01  0.5968E+00
    -13.677  0.1728E+01  0.7075E+00
    -13.613  0.1251E+01  0.7876E+00
    -13.549  0.1773E+01  0.9011E+00
    -13.485  0.3192E+01  0.1105E+01
    -13.421  0.3584E+01  0.1335E+01
    -13.357  0.2731E+01  0.1510E+01
    -13.293  0.2150E+01  0.1648E+01
    -13.229  0.2350E+01  0.1798E+01
    -13.165  0.2986E+01  0.1989E+01
    -13.101  0.3074E+01  0.2186E+01
    -13.037  0.2744E+01  0.2362E+01
    -12.973  0.3043E+01  0.2557E+01
    -12.909  0.3827E+01  0.2802E+01
    -12.844  0.4754E+01  0.3106E+01
    -12.780  0.5207E+01  0.3439E+01
    -12.716  0.4757E+01  0.3744E+01
    -12.652  0.4905E+01  0.4058E+01
    -12.588  0.6206E+01  0.4455E+01
    -12.524  0.6911E+01  0.4898E+01
    -12.460  0.6028E+01  0.5284E+01
    -12.396  0.4662E+01  0.5582E+01
    -12.332  0.4305E+01  0.5858E+01
    -12.268  0.4883E+01  0.6170E+01
    -12.204  0.5456E+01  0.6520E+01
    -12.140  0.5739E+01  0.6887E+01
    -12.076  0.6486E+01  0.7303E+01
    -12.012  0.8085E+01  0.7820E+01
    -11.948  0.8526E+01  0.8366E+01
    -11.884  0.7170E+01  0.8825E+01
    -11.820  0.6060E+01  0.9213E+01
    -11.756  0.6144E+01  0.9607E+01
    -11.692  0.6829E+01  0.1004E+02
    -11.628  0.7125E+01  0.1050E+02
    -11.564  0.7674E+01  0.1099E+02
    -11.500  0.8804E+01  0.1156E+02
    -11.436  0.8692E+01  0.1211E+02
    -11.372  0.7716E+01  0.1261E+02
    -11.308  0.8370E+01  0.1314E+02
    -11.244  0.9632E+01  0.1376E+02
    -11.180  0.9426E+01  0.1436E+02
    -11.116  0.9448E+01  0.1497E+02
    -11.052  0.1064E+02  0.1565E+02
    -10.988  0.1136E+02  0.1638E+02
    -10.924  0.1167E+02  0.1712E+02
    -10.860  0.1326E+02  0.1797E+02
    -10.796  0.1410E+02  0.1887E+02
    -10.732  0.1246E+02  0.1967E+02
    -10.668  0.1158E+02  0.2041E+02
    -10.604  0.1126E+02  0.2113E+02
    -10.540  0.9419E+01  0.2174E+02
    -10.476  0.8043E+01  0.2225E+02
    -10.411  0.6962E+01  0.2270E+02
    -10.347  0.4226E+01  0.2297E+02
    -10.283  0.1481E+01  0.2306E+02
    -10.219  0.5944E+00  0.2310E+02
    -10.155  0.1132E+01  0.2317E+02
    -10.091  0.1668E+01  0.2328E+02
    -10.027  0.1187E+01  0.2336E+02
     -9.963  0.5238E+00  0.2339E+02
     -9.899  0.7133E+00  0.2344E+02
     -9.835  0.1512E+01  0.2353E+02
     -9.771  0.1868E+01  0.2365E+02
     -9.707  0.1834E+01  0.2377E+02
     -9.643  0.1849E+01  0.2389E+02
     -9.579  0.1250E+01  0.2397E+02
     -9.515  0.4253E+00  0.2400E+02
     -9.451  0.6808E-01  0.2400E+02
     -9.387  0.5046E-02  0.2400E+02
     -9.323  0.1755E-03  0.2400E+02
     -9.259  0.2090E-03  0.2400E+02
     -9.195  0.5349E-02  0.2400E+02
     -9.131  0.6612E-01  0.2400E+02
     -9.067  0.4051E+00  0.2403E+02
     -9.003  0.1304E+01  0.2411E+02
     -8.939  0.2436E+01  0.2427E+02
     -8.875  0.3277E+01  0.2448E+02
     -8.811  0.4366E+01  0.2476E+02
     -8.747  0.5563E+01  0.2512E+02
     -8.683  0.5500E+01  0.2547E+02
     -8.619  0.4596E+01  0.2576E+02
     -8.555  0.4078E+01  0.2602E+02
     -8.491  0.4302E+01  0.2630E+02
     -8.427  0.4901E+01  0.2661E+02
     -8.363  0.4725E+01  0.2691E+02
     -8.299  0.4033E+01  0.2717E+02
     -8.235  0.4126E+01  0.2744E+02
     -8.171  0.4930E+01  0.2775E+02
     -8.107  0.5642E+01  0.2811E+02
     -8.043  0.5332E+01  0.2846E+02
     -7.979  0.4505E+01  0.2874E+02
     -7.914  0.5054E+01  0.2907E+02
     -7.850  0.6906E+01  0.2951E+02
     -7.786  0.8003E+01  0.3002E+02
     -7.722  0.6895E+01  0.3046E+02
     -7.658  0.4828E+01  0.3077E+02
     -7.594  0.4293E+01  0.3105E+02
     -7.530  0.5457E+01  0.3140E+02
     -7.466  0.7403E+01  0.3187E+02
     -7.402  0.9724E+01  0.3249E+02
     -7.338  0.1109E+02  0.3320E+02
     -7.274  0.1065E+02  0.3389E+02
     -7.210  0.9282E+01  0.3448E+02
     -7.146  0.7974E+01  0.3499E+02
     -7.082  0.7146E+01  0.3545E+02
     -7.018  0.6559E+01  0.3587E+02
     -6.954  0.5681E+01  0.3623E+02
     -6.890  0.5144E+01  0.3656E+02
     -6.826  0.6644E+01  0.3699E+02
     -6.762  0.1141E+02  0.3772E+02
     -6.698  0.1654E+02  0.3878E+02
     -6.634  0.1576E+02  0.3979E+02
     -6.570  0.1049E+02  0.4046E+02
     -6.506  0.6879E+01  0.4090E+02
     -6.442  0.5438E+01  0.4125E+02
     -6.378  0.4634E+01  0.4154E+02
     -6.314  0.4661E+01  0.4184E+02
     -6.250  0.5294E+01  0.4218E+02
     -6.186  0.5512E+01  0.4253E+02
     -6.122  0.4389E+01  0.4281E+02
     -6.058  0.2880E+01  0.4300E+02
     -5.994  0.2601E+01  0.4316E+02
     -5.930  0.2987E+01  0.4336E+02
     -5.866  0.3545E+01  0.4358E+02
     -5.802  0.4940E+01  0.4390E+02
     -5.738  0.6584E+01  0.4432E+02
     -5.674  0.6989E+01  0.4477E+02
     -5.610  0.6119E+01  0.4516E+02
     -5.546  0.4760E+01  0.4546E+02
     -5.481  0.3322E+01  0.4568E+02
     -5.417  0.2914E+01  0.4586E+02
     -5.353  0.4062E+01  0.4612E+02
     -5.289  0.5603E+01  0.4648E+02
     -5.225  0.6857E+01  0.4692E+02
     -5.161  0.7114E+01  0.4738E+02
     -5.097  0.6367E+01  0.4778E+02
     -5.033  0.5866E+01  0.4816E+02
     -4.969  0.6117E+01  0.4855E+02
     -4.905  0.7409E+01  0.4903E+02
     -4.841  0.9147E+01  0.4961E+02
     -4.777  0.1025E+02  0.5027E+02
     -4.713  0.1081E+02  0.5096E+02
     -4.649  0.1048E+02  0.5163E+02
     -4.585  0.9341E+01  0.5223E+02
     -4.521  0.8851E+01  0.5280E+02
     -4.457  0.9627E+01  0.5341E+02
     -4.393  0.1131E+02  0.5414E+02
     -4.329  0.1266E+02  0.5495E+02
     -4.265  0.1270E+02  0.5576E+02
     -4.201  0.1249E+02  0.5656E+02
     -4.137  0.1358E+02  0.5743E+02
     -4.073  0.1507E+02  0.5839E+02
     -4.009  0.1493E+02  0.5935E+02
     -3.945  0.1303E+02  0.6018E+02
     -3.881  0.1142E+02  0.6092E+02
     -3.817  0.1158E+02  0.6166E+02
     -3.753  0.1297E+02  0.6249E+02
     -3.689  0.1408E+02  0.6339E+02
     -3.625  0.1356E+02  0.6426E+02
     -3.561  0.1250E+02  0.6506E+02
     -3.497  0.1293E+02  0.6589E+02
     -3.433  0.1421E+02  0.6680E+02
     -3.369  0.1451E+02  0.6772E+02
     -3.305  0.1409E+02  0.6863E+02
     -3.241  0.1458E+02  0.6956E+02
     -3.177  0.1578E+02  0.7057E+02
     -3.113  0.1633E+02  0.7162E+02
     -3.048  0.1641E+02  0.7267E+02
     -2.984  0.1685E+02  0.7375E+02
     -2.920  0.1683E+02  0.7482E+02
     -2.856  0.1606E+02  0.7585E+02
     -2.792  0.1522E+02  0.7683E+02
     -2.728  0.1480E+02  0.7777E+02
     -2.664  0.1572E+02  0.7878E+02
     -2.600  0.1720E+02  0.7988E+02
     -2.536  0.1770E+02  0.8102E+02
     -2.472  0.1729E+02  0.8212E+02
     -2.408  0.1649E+02  0.8318E+02
     -2.344  0.1507E+02  0.8414E+02
     -2.280  0.1405E+02  0.8504E+02
     -2.216  0.1532E+02  0.8602E+02
     -2.152  0.1694E+02  0.8711E+02
     -2.088  0.1734E+02  0.8822E+02
     -2.024  0.1824E+02  0.8939E+02
     -1.960  0.1920E+02  0.9062E+02
     -1.896  0.1916E+02  0.9184E+02
     -1.832  0.1858E+02  0.9303E+02
     -1.768  0.1771E+02  0.9417E+02
     -1.704  0.1589E+02  0.9518E+02
     -1.640  0.1293E+02  0.9601E+02
     -1.576  0.1102E+02  0.9672E+02
     -1.512  0.1153E+02  0.9746E+02
     -1.448  0.1279E+02  0.9827E+02
     -1.384  0.1325E+02  0.9912E+02
     -1.320  0.1261E+02  0.9993E+02
     -1.256  0.1109E+02  0.1006E+03
     -1.192  0.9809E+01  0.1013E+03
     -1.128  0.8692E+01  0.1018E+03
     -1.064  0.7451E+01  0.1023E+03
     -1.000  0.7379E+01  0.1028E+03
     -0.936  0.9097E+01  0.1034E+03
     -0.872  0.9643E+01  0.1040E+03
     -0.808  0.7103E+01  0.1044E+03
     -0.744  0.4222E+01  0.1047E+03
     -0.680  0.3461E+01  0.1049E+03
     -0.615  0.4974E+01  0.1052E+03
     -0.551  0.6194E+01  0.1056E+03
     -0.487  0.4884E+01  0.1059E+03
     -0.423  0.2795E+01  0.1061E+03
     -0.359  0.1744E+01  0.1062E+03
     -0.295  0.1834E+01  0.1064E+03
     -0.231  0.3313E+01  0.1066E+03
     -0.167  0.4775E+01  0.1069E+03
     -0.103  0.3753E+01  0.1071E+03
     -0.039  0.1599E+01  0.1072E+03
      0.025  0.9957E+00  0.1073E+03
      0.089  0.2451E+01  0.1074E+03
      0.153  0.4786E+01  0.1077E+03
      0.217  0.5938E+01  0.1081E+03
      0.281  0.5764E+01  0.1085E+03
      0.345  0.5826E+01  0.1089E+03
      0.409  0.6121E+01  0.1093E+03
      0.473  0.5730E+01  0.1096E+03
      0.537  0.4920E+01  0.1099E+03
      0.601  0.4865E+01  0.1103E+03
      0.665  0.5433E+01  0.1106E+03
      0.729  0.5111E+01  0.1109E+03
      0.793  0.4305E+01  0.1112E+03
      0.857  0.4218E+01  0.1115E+03
      0.921  0.4789E+01  0.1118E+03
      0.985  0.5370E+01  0.1121E+03
      1.049  0.5665E+01  0.1125E+03
      1.113  0.5890E+01  0.1129E+03
      1.177  0.6123E+01  0.1133E+03
      1.241  0.6574E+01  0.1137E+03
      1.305  0.7174E+01  0.1141E+03
      1.369  0.7615E+01  0.1146E+03
      1.433  0.7992E+01  0.1151E+03
      1.497  0.9094E+01  0.1157E+03
      1.561  0.1086E+02  0.1164E+03
      1.625  0.1226E+02  0.1172E+03
      1.689  0.1287E+02  0.1180E+03
      1.753  0.1286E+02  0.1188E+03
      1.817  0.1214E+02  0.1196E+03
      1.882  0.1080E+02  0.1203E+03
      1.946  0.9749E+01  0.1209E+03
      2.010  0.9648E+01  0.1216E+03
      2.074  0.1016E+02  0.1222E+03
      2.138  0.1112E+02  0.1229E+03
      2.202  0.1315E+02  0.1238E+03
      2.266  0.1469E+02  0.1247E+03
      2.330  0.1416E+02  0.1256E+03
      2.394  0.1329E+02  0.1265E+03
      2.458  0.1307E+02  0.1273E+03
      2.522  0.1357E+02  0.1282E+03
      2.586  0.1481E+02  0.1291E+03
      2.650  0.1604E+02  0.1301E+03
      2.714  0.1568E+02  0.1311E+03
      2.778  0.1374E+02  0.1320E+03
      2.842  0.1191E+02  0.1328E+03
      2.906  0.1124E+02  0.1335E+03
      2.970  0.1068E+02  0.1342E+03
      3.034  0.9171E+01  0.1348E+03
      3.098  0.7178E+01  0.1352E+03
      3.162  0.5380E+01  0.1356E+03
      3.226  0.3652E+01  0.1358E+03
      3.290  0.1987E+01  0.1359E+03
      3.354  0.7498E+00  0.1360E+03
      3.418  0.1664E+00  0.1360E+03
      3.482  0.1920E-01  0.1360E+03
      3.546  0.1074E-02  0.1360E+03
      3.610  0.2817E-04  0.1360E+03
      3.674  0.3394E-06  0.1360E+03
      3.738  0.1858E-08  0.1360E+03
      3.802  0.4588E-11  0.1360E+03
      3.866  0.5002E-14  0.1360E+03
      3.930  0.0000E+00  0.1360E+03
      3.994  0.0000E+00  0.1360E+03
      4.058  0.0000E+00  0.1360E+03
      4.122  0.0000E+00  0.1360E+03
      4.186  0.0000E+00  0.1360E+03
      4.250  0.0000E+00  0.1360E+03
