 running on    8 total cores
 distrk:  each k-point on    8 cores,    1 groups
 distr:  one band on    2 cores,    4 groups
 using from now: INCAR     
 vasp.5.3.5 31Mar14 (build Oct 29 2014 16:16:03) complex                        
  
 POSCAR found type information on POSCAR  P  Si
 POSCAR found :  2 types and      24 ions
 scaLAPACK will be used

 ----------------------------------------------------------------------------- 
|                                                                             |
|  ADVICE TO THIS USER RUNNING 'VASP/VAMP'   (HEAR YOUR MASTER'S VOICE ...):  |
|                                                                             |
|      You have switched on vdW-DFT.                                          |
|      This routine was written and supplied by Jiri Klimes.                  |
|      We recommed that you carefully read and cite the following             |
|      publication                                                            |
|      J. Klimes, D.R. Bowler, A. Michelides                                  |
|        J. Phys.: Cond Matt. 22 022201 (2010)                                |
|      J. Klimes, D.R. Bowler, A. Michelides                                  |
|        Phys. Rev. B. 83, 195131 (2011)                                      |
|      and references therein.                                                |
|                                                                             |
 ----------------------------------------------------------------------------- 


 ----------------------------------------------------------------------------- 
|                                                                             |
|  ADVICE TO THIS USER RUNNING 'VASP/VAMP'   (HEAR YOUR MASTER'S VOICE ...):  |
|                                                                             |
|      You enforced a specific xc-type in the INCAR file,                     |
|      a different type was found on the POTCAR file                          |
|          I HOPE YOU KNOW, WHAT YOU ARE  DOING                               |
|                                                                             |
 ----------------------------------------------------------------------------- 

 LDA part: xc-table for Pade appr. of Perdew


 VERY BAD NEWS! internal error in subroutine IBZKPT:
 Reciprocal lattice and k-lattice belong to different class of lattices. Often results are still useful...      96


 VERY BAD NEWS! internal error in subroutine IBZKPT:
 Reciprocal lattice and k-lattice belong to different class of lattices. Often results are still useful...      96


 VERY BAD NEWS! internal error in subroutine IBZKPT:
 Reciprocal lattice and k-lattice belong to different class of lattices. Often results are still useful...      96


 VERY BAD NEWS! internal error in subroutine IBZKPT:
 Reciprocal lattice and k-lattice belong to different class of lattices. Often results are still useful...      96


 VERY BAD NEWS! internal error in subroutine IBZKPT:
 Reciprocal lattice and k-lattice belong to different class of lattices. Often results are still useful...      96


 VERY BAD NEWS! internal error in subroutine IBZKPT:
 Reciprocal lattice and k-lattice belong to different class of lattices. Often results are still useful...      96


 VERY BAD NEWS! internal error in subroutine IBZKPT:
 Reciprocal lattice and k-lattice belong to different class of lattices. Often results are still useful...      96


 VERY BAD NEWS! internal error in subroutine IBZKPT:
 Reciprocal lattice and k-lattice belong to different class of lattices. Often results are still useful...      96
 POSCAR, INCAR and KPOINTS ok, starting setup
 WARNING: small aliasing (wrap around) errors must be expected
 FFT: planning ...
 WAVECAR not read
 entering main loop
       N       E                     dE             d eps       ncg     rms          rms(c)
Total vdW correction in eV:     15.8886896
DAV:   1     0.485238616200E+03    0.48524E+03   -0.28618E+04  7352   0.790E+02
DAV:   2    -0.705410107218E+02   -0.55578E+03   -0.54103E+03  9816   0.188E+02
DAV:   3    -0.125720873237E+03   -0.55180E+02   -0.54421E+02  8784   0.615E+01
DAV:   4    -0.128167050086E+03   -0.24462E+01   -0.24315E+01 10856   0.139E+01
DAV:   5    -0.128229263310E+03   -0.62213E-01   -0.62151E-01 10176   0.216E+00    0.978E+00
Total vdW correction in eV:     16.2994040
DAV:   6    -0.126378845116E+03    0.18504E+01   -0.36539E+00  8672   0.491E+00    0.551E+00
Total vdW correction in eV:     16.8346253
DAV:   7    -0.126118430882E+03    0.26041E+00   -0.29944E+00  8928   0.459E+00    0.150E+00
Total vdW correction in eV:     16.9436309
DAV:   8    -0.126110844055E+03    0.75868E-02   -0.36143E-01  9032   0.194E+00    0.693E-01
Total vdW correction in eV:     17.0154526
DAV:   9    -0.126088114427E+03    0.22730E-01   -0.59241E-02  9120   0.774E-01    0.208E-01
Total vdW correction in eV:     17.0373261
DAV:  10    -0.126077775423E+03    0.10339E-01   -0.94576E-03  9136   0.330E-01    0.876E-02
Total vdW correction in eV:     17.0452805
DAV:  11    -0.126072125522E+03    0.56499E-02   -0.23560E-03  9096   0.157E-01    0.461E-02
Total vdW correction in eV:     17.0508470
DAV:  12    -0.126068349038E+03    0.37765E-02   -0.48621E-04  9120   0.675E-02    0.244E-02
Total vdW correction in eV:     17.0554700
DAV:  13    -0.126066298123E+03    0.20509E-02   -0.12762E-04  9536   0.369E-02    0.141E-02
Total vdW correction in eV:     17.0600397
DAV:  14    -0.126065270768E+03    0.10274E-02   -0.88253E-05  8992   0.259E-02    0.854E-03
Total vdW correction in eV:     17.0630028
DAV:  15    -0.126065286710E+03   -0.15942E-04   -0.58041E-05  8192   0.202E-02    0.510E-03
Total vdW correction in eV:     17.0642711
DAV:  16    -0.126065848782E+03   -0.56207E-03   -0.11652E-04  8304   0.213E-02    0.289E-03
Total vdW correction in eV:     17.0643136
DAV:  17    -0.126066086948E+03   -0.23817E-03   -0.98676E-05  7704   0.163E-02    0.168E-03
Total vdW correction in eV:     17.0640187
DAV:  18    -0.126066170707E+03   -0.83760E-04   -0.22074E-05  7160   0.102E-02    0.109E-03
Total vdW correction in eV:     17.0637842
DAV:  19    -0.126066211080E+03   -0.40373E-04   -0.11552E-05  6608   0.709E-03    0.718E-04
Total vdW correction in eV:     17.0635889
DAV:  20    -0.126066138095E+03    0.72985E-04   -0.23347E-05  7360   0.893E-03    0.483E-04
Total vdW correction in eV:     17.0635212
DAV:  21    -0.126066128676E+03    0.94195E-05   -0.12086E-05  6304   0.986E-03    0.281E-04
Total vdW correction in eV:     17.0635148
DAV:  22    -0.126066068887E+03    0.59789E-04   -0.65635E-06  6576   0.738E-03    0.143E-04
Total vdW correction in eV:     17.0635119
DAV:  23    -0.126066050181E+03    0.18705E-04   -0.63637E-06  6240   0.798E-03    0.679E-05
Total vdW correction in eV:     17.0635152
DAV:  24    -0.126066035870E+03    0.14311E-04   -0.49793E-06  6664   0.701E-03    0.394E-05
Total vdW correction in eV:     17.0635149
DAV:  25    -0.126066037612E+03   -0.17414E-05   -0.29769E-06  6184   0.603E-03    0.212E-05
Total vdW correction in eV:     17.0635133
DAV:  26    -0.126066037259E+03    0.35271E-06   -0.21693E-06  5792   0.511E-03
Total vdW correction in eV:     17.0635128
Total vdW correction in eV:     17.0635131
   1 F= -.12606604E+03 E0= -.12605101E+03  d E =-.300588E-01
