<?xml version="1.0" encoding="ISO-8859-1"?>
<modeling>
 <generator>
  <i name="program" type="string">vasp </i>
  <i name="version" type="string">5.4.1  </i>
  <i name="subversion" type="string">24Jun15 (build May 10 2016 14:18:23) complex                          parallel </i>
  <i name="platform" type="string">IFC91_ompi </i>
  <i name="date" type="string">2016 12 09 </i>
  <i name="time" type="string">15:06:28 </i>
 </generator>
 <incar>
  <i type="string" name="PREC">accurate</i>
  <i type="string" name="ALGO"> Fast</i>
  <i type="int" name="ISPIN">     2</i>
  <i type="int" name="IBRION">     2</i>
  <i name="EDIFF">      0.00010000</i>
  <i type="int" name="NSW">     0</i>
  <i type="int" name="ISIF">     3</i>
  <i name="ENCUT">    500.00000000</i>
  <v name="MAGMOM">      6.00000000      0.50000000      0.50000000      6.00000000      0.50000000      0.50000000</v>
  <i type="string" name="LREAL"> Auto</i>
  <i type="int" name="ISMEAR">     1</i>
  <i name="SIGMA">      0.10000000</i>
  <i type="logical" name="LWAVE"> F  </i>
  <i type="logical" name="LCHARG"> F  </i>
  <i type="logical" name="LVTOT"> T  </i>
  <i type="logical" name="LVHAR"> T  </i>
  <i type="logical" name="LAECHG"> F  </i>
  <v type="int" name="KPOINT_BSE">    -1     0     0     0</v>
  <i type="string" name="GGA"> Bo</i>
  <i name="PARAM1">      0.18333333</i>
  <i name="PARAM2">      0.22000000</i>
  <i type="logical" name="LUSE_VDW"> T  </i>
  <i name="AGGAC">      0.00000000</i>
 </incar>
 <kpoints>
  <generation param="Gamma">
   <v type="int" name="divisions">      13       13        1 </v>
   <v name="usershift">      0.00000000       0.00000000       0.00000000 </v>
   <v name="genvec1">      0.07692308       0.00000000       0.00000000 </v>
   <v name="genvec2">      0.00000000       0.07692308       0.00000000 </v>
   <v name="genvec3">      0.00000000       0.00000000       1.00000000 </v>
   <v name="shift">      0.00000000       0.00000000       0.00000000 </v>
  </generation>
  <varray name="kpointlist" >
   <v>       0.00000000       0.00000000       0.00000000 </v>
   <v>       0.07692308      -0.00000000       0.00000000 </v>
   <v>       0.15384615       0.00000000       0.00000000 </v>
   <v>       0.23076923       0.00000000       0.00000000 </v>
   <v>       0.30769231      -0.00000000       0.00000000 </v>
   <v>       0.38461538       0.00000000       0.00000000 </v>
   <v>       0.46153846       0.00000000       0.00000000 </v>
   <v>       0.00000000       0.07692308       0.00000000 </v>
   <v>       0.07692308       0.07692308       0.00000000 </v>
   <v>       0.15384615       0.07692308       0.00000000 </v>
   <v>       0.23076923       0.07692308       0.00000000 </v>
   <v>       0.30769231       0.07692308       0.00000000 </v>
   <v>       0.38461538       0.07692308       0.00000000 </v>
   <v>       0.46153846       0.07692308       0.00000000 </v>
   <v>      -0.46153846       0.07692308       0.00000000 </v>
   <v>      -0.38461538       0.07692308       0.00000000 </v>
   <v>      -0.30769231       0.07692308       0.00000000 </v>
   <v>      -0.23076923       0.07692308       0.00000000 </v>
   <v>      -0.15384615       0.07692308       0.00000000 </v>
   <v>      -0.07692308       0.07692308       0.00000000 </v>
   <v>       0.00000000       0.15384615       0.00000000 </v>
   <v>       0.07692308       0.15384615       0.00000000 </v>
   <v>       0.15384615       0.15384615       0.00000000 </v>
   <v>       0.23076923       0.15384615       0.00000000 </v>
   <v>       0.30769231       0.15384615       0.00000000 </v>
   <v>       0.38461538       0.15384615       0.00000000 </v>
   <v>       0.46153846       0.15384615       0.00000000 </v>
   <v>      -0.46153846       0.15384615       0.00000000 </v>
   <v>      -0.38461538       0.15384615       0.00000000 </v>
   <v>      -0.30769231       0.15384615       0.00000000 </v>
   <v>      -0.23076923       0.15384615       0.00000000 </v>
   <v>      -0.15384615       0.15384615       0.00000000 </v>
   <v>      -0.07692308       0.15384615       0.00000000 </v>
   <v>       0.00000000       0.23076923       0.00000000 </v>
   <v>       0.07692308       0.23076923       0.00000000 </v>
   <v>       0.15384615       0.23076923       0.00000000 </v>
   <v>       0.23076923       0.23076923       0.00000000 </v>
   <v>       0.30769231       0.23076923       0.00000000 </v>
   <v>       0.38461538       0.23076923       0.00000000 </v>
   <v>       0.46153846       0.23076923       0.00000000 </v>
   <v>      -0.46153846       0.23076923       0.00000000 </v>
   <v>      -0.38461538       0.23076923       0.00000000 </v>
   <v>      -0.30769231       0.23076923       0.00000000 </v>
   <v>      -0.23076923       0.23076923       0.00000000 </v>
   <v>      -0.15384615       0.23076923       0.00000000 </v>
   <v>      -0.07692308       0.23076923       0.00000000 </v>
   <v>       0.00000000       0.30769231       0.00000000 </v>
   <v>       0.07692308       0.30769231       0.00000000 </v>
   <v>       0.15384615       0.30769231       0.00000000 </v>
   <v>       0.23076923       0.30769231       0.00000000 </v>
   <v>       0.30769231       0.30769231       0.00000000 </v>
   <v>       0.38461538       0.30769231       0.00000000 </v>
   <v>       0.46153846       0.30769231       0.00000000 </v>
   <v>      -0.46153846       0.30769231       0.00000000 </v>
   <v>      -0.38461538       0.30769231       0.00000000 </v>
   <v>      -0.30769231       0.30769231       0.00000000 </v>
   <v>      -0.23076923       0.30769231       0.00000000 </v>
   <v>      -0.15384615       0.30769231       0.00000000 </v>
   <v>      -0.07692308       0.30769231       0.00000000 </v>
   <v>       0.00000000       0.38461538       0.00000000 </v>
   <v>       0.07692308       0.38461538       0.00000000 </v>
   <v>       0.15384615       0.38461538       0.00000000 </v>
   <v>       0.23076923       0.38461538       0.00000000 </v>
   <v>       0.30769231       0.38461538       0.00000000 </v>
   <v>       0.38461538       0.38461538       0.00000000 </v>
   <v>       0.46153846       0.38461538       0.00000000 </v>
   <v>      -0.46153846       0.38461538       0.00000000 </v>
   <v>      -0.38461538       0.38461538       0.00000000 </v>
   <v>      -0.30769231       0.38461538       0.00000000 </v>
   <v>      -0.23076923       0.38461538       0.00000000 </v>
   <v>      -0.15384615       0.38461538       0.00000000 </v>
   <v>      -0.07692308       0.38461538       0.00000000 </v>
   <v>       0.00000000       0.46153846       0.00000000 </v>
   <v>       0.07692308       0.46153846       0.00000000 </v>
   <v>       0.15384615       0.46153846       0.00000000 </v>
   <v>       0.23076923       0.46153846       0.00000000 </v>
   <v>       0.30769231       0.46153846       0.00000000 </v>
   <v>       0.38461538       0.46153846       0.00000000 </v>
   <v>       0.46153846       0.46153846       0.00000000 </v>
   <v>      -0.46153846       0.46153846       0.00000000 </v>
   <v>      -0.38461538       0.46153846       0.00000000 </v>
   <v>      -0.30769231       0.46153846       0.00000000 </v>
   <v>      -0.23076923       0.46153846       0.00000000 </v>
   <v>      -0.15384615       0.46153846       0.00000000 </v>
   <v>      -0.07692308       0.46153846       0.00000000 </v>
  </varray>
  <varray name="weights" >
   <v>       0.00591716 </v>
   <v>       0.01183432 </v>
   <v>       0.01183432 </v>
   <v>       0.01183432 </v>
   <v>       0.01183432 </v>
   <v>       0.01183432 </v>
   <v>       0.01183432 </v>
   <v>       0.01183432 </v>
   <v>       0.01183432 </v>
   <v>       0.01183432 </v>
   <v>       0.01183432 </v>
   <v>       0.01183432 </v>
   <v>       0.01183432 </v>
   <v>       0.01183432 </v>
   <v>       0.01183432 </v>
   <v>       0.01183432 </v>
   <v>       0.01183432 </v>
   <v>       0.01183432 </v>
   <v>       0.01183432 </v>
   <v>       0.01183432 </v>
   <v>       0.01183432 </v>
   <v>       0.01183432 </v>
   <v>       0.01183432 </v>
   <v>       0.01183432 </v>
   <v>       0.01183432 </v>
   <v>       0.01183432 </v>
   <v>       0.01183432 </v>
   <v>       0.01183432 </v>
   <v>       0.01183432 </v>
   <v>       0.01183432 </v>
   <v>       0.01183432 </v>
   <v>       0.01183432 </v>
   <v>       0.01183432 </v>
   <v>       0.01183432 </v>
   <v>       0.01183432 </v>
   <v>       0.01183432 </v>
   <v>       0.01183432 </v>
   <v>       0.01183432 </v>
   <v>       0.01183432 </v>
   <v>       0.01183432 </v>
   <v>       0.01183432 </v>
   <v>       0.01183432 </v>
   <v>       0.01183432 </v>
   <v>       0.01183432 </v>
   <v>       0.01183432 </v>
   <v>       0.01183432 </v>
   <v>       0.01183432 </v>
   <v>       0.01183432 </v>
   <v>       0.01183432 </v>
   <v>       0.01183432 </v>
   <v>       0.01183432 </v>
   <v>       0.01183432 </v>
   <v>       0.01183432 </v>
   <v>       0.01183432 </v>
   <v>       0.01183432 </v>
   <v>       0.01183432 </v>
   <v>       0.01183432 </v>
   <v>       0.01183432 </v>
   <v>       0.01183432 </v>
   <v>       0.01183432 </v>
   <v>       0.01183432 </v>
   <v>       0.01183432 </v>
   <v>       0.01183432 </v>
   <v>       0.01183432 </v>
   <v>       0.01183432 </v>
   <v>       0.01183432 </v>
   <v>       0.01183432 </v>
   <v>       0.01183432 </v>
   <v>       0.01183432 </v>
   <v>       0.01183432 </v>
   <v>       0.01183432 </v>
   <v>       0.01183432 </v>
   <v>       0.01183432 </v>
   <v>       0.01183432 </v>
   <v>       0.01183432 </v>
   <v>       0.01183432 </v>
   <v>       0.01183432 </v>
   <v>       0.01183432 </v>
   <v>       0.01183432 </v>
   <v>       0.01183432 </v>
   <v>       0.01183432 </v>
   <v>       0.01183432 </v>
   <v>       0.01183432 </v>
   <v>       0.01183432 </v>
   <v>       0.01183432 </v>
  </varray>
 </kpoints>
 <parameters>
  <separator name="general" >
   <i type="string" name="SYSTEM">unknown system</i>
   <i type="logical" name="LCOMPAT"> F  </i>
  </separator>
  <separator name="electronic" >
   <i type="string" name="PREC">accura</i>
   <i name="ENMAX">    500.00000000</i>
   <i name="ENAUG">    392.42700000</i>
   <i name="EDIFF">      0.00010000</i>
   <i type="int" name="IALGO">    68</i>
   <i type="int" name="IWAVPR">    10</i>
   <i type="int" name="NBANDS">    36</i>
   <i name="NELECT">     48.00000000</i>
   <i type="int" name="TURBO">     0</i>
   <i type="int" name="IRESTART">     0</i>
   <i type="int" name="NREBOOT">     0</i>
   <i type="int" name="NMIN">     0</i>
   <i name="EREF">      0.00000000</i>
   <separator name="electronic smearing" >
    <i type="int" name="ISMEAR">     1</i>
    <i name="SIGMA">      0.10000000</i>
    <i name="KSPACING">      0.50000000</i>
    <i type="logical" name="KGAMMA"> T  </i>
   </separator>
   <separator name="electronic projectors" >
    <i type="logical" name="LREAL"> T  </i>
    <v name="ROPT">     -0.00025000     -0.00025000     -0.00025000     -0.00025000</v>
    <i type="int" name="LMAXPAW">  -100</i>
    <i type="int" name="LMAXMIX">     2</i>
    <i type="logical" name="NLSPLINE"> F  </i>
   </separator>
   <separator name="electronic startup" >
    <i type="int" name="ISTART">     0</i>
    <i type="int" name="ICHARG">     2</i>
    <i type="int" name="INIWAV">     1</i>
   </separator>
   <separator name="electronic spin" >
    <i type="int" name="ISPIN">     2</i>
    <i type="logical" name="LNONCOLLINEAR"> F  </i>
    <v name="MAGMOM">      6.00000000      0.50000000      0.50000000      6.00000000      0.50000000      0.50000000</v>
    <i name="NUPDOWN">     -1.00000000</i>
    <i type="logical" name="LSORBIT"> F  </i>
    <v name="SAXIS">      0.00000000      0.00000000      1.00000000</v>
    <i type="logical" name="LSPIRAL"> F  </i>
    <v name="QSPIRAL">      0.00000000      0.00000000      0.00000000</v>
    <i type="logical" name="LZEROZ"> F  </i>
   </separator>
   <separator name="electronic exchange-correlation" >
    <i type="logical" name="LASPH"> F  </i>
    <i type="logical" name="LMETAGGA"> F  </i>
   </separator>
   <separator name="electronic convergence" >
    <i type="int" name="NELM">    60</i>
    <i type="int" name="NELMDL">     0</i>
    <i type="int" name="NELMIN">     2</i>
    <i name="ENINI">    500.00000000</i>
    <separator name="electronic convergence detail" >
     <i type="logical" name="LDIAG"> T  </i>
     <i type="logical" name="LSUBROT"> F  </i>
     <i name="WEIMIN">      0.00000000</i>
     <i name="EBREAK">      0.00000069</i>
     <i name="DEPER">      0.30000000</i>
     <i type="int" name="NRMM">     4</i>
     <i name="TIME">      0.40000000</i>
    </separator>
   </separator>
   <separator name="electronic mixer" >
    <i name="AMIX">      0.40000000</i>
    <i name="BMIX">      1.00000000</i>
    <i name="AMIN">      0.10000000</i>
    <i name="AMIX_MAG">      1.60000000</i>
    <i name="BMIX_MAG">      1.00000000</i>
    <separator name="electronic mixer details" >
     <i type="int" name="IMIX">     4</i>
     <i type="logical" name="MIXFIRST"> F  </i>
     <i type="int" name="MAXMIX">   -45</i>
     <i name="WC">    100.00000000</i>
     <i type="int" name="INIMIX">     1</i>
     <i type="int" name="MIXPRE">     1</i>
     <i type="int" name="MREMOVE">     5</i>
    </separator>
   </separator>
   <separator name="electronic dipolcorrection" >
    <i type="logical" name="LDIPOL"> F  </i>
    <i type="logical" name="LMONO"> F  </i>
    <i type="int" name="IDIPOL">     0</i>
    <i name="EPSILON">      1.00000000</i>
    <v name="DIPOL">   -100.00000000   -100.00000000   -100.00000000</v>
    <i name="EFIELD">      0.00000000</i>
   </separator>
  </separator>
  <separator name="grids" >
   <i type="int" name="NGX">    24</i>
   <i type="int" name="NGY">    24</i>
   <i type="int" name="NGZ">   180</i>
   <i type="int" name="NGXF">    48</i>
   <i type="int" name="NGYF">    48</i>
   <i type="int" name="NGZF">   360</i>
   <i type="logical" name="ADDGRID"> F  </i>
  </separator>
  <separator name="ionic" >
   <i type="int" name="NSW">     0</i>
   <i type="int" name="IBRION">    -1</i>
   <i type="int" name="ISIF">     3</i>
   <i name="PSTRESS">      0.00000000</i>
   <i name="EDIFFG">      0.00100000</i>
   <i type="int" name="NFREE">     1</i>
   <i name="POTIM">      0.50000000</i>
   <i name="SMASS">     -3.00000000</i>
   <i name="SCALEE">      1.00000000</i>
  </separator>
  <separator name="ionic md" >
   <i name="TEBEG">      0.00010000</i>
   <i name="TEEND">      0.00010000</i>
   <i type="int" name="NBLOCK">     1</i>
   <i type="int" name="KBLOCK">     1</i>
   <i type="int" name="NPACO">   256</i>
   <i name="APACO">     16.00000000</i>
  </separator>
  <separator name="symmetry" >
   <i type="int" name="ISYM">     2</i>
   <i name="SYMPREC">      0.00001000</i>
  </separator>
  <separator name="dos" >
   <i type="logical" name="LORBIT"> F  </i>
   <v name="RWIGS">     -1.00000000     -1.00000000     -1.00000000     -1.00000000</v>
   <i type="int" name="NEDOS">   301</i>
   <i name="EMIN">     10.00000000</i>
   <i name="EMAX">    -10.00000000</i>
   <i name="EFERMI">      0.00000000</i>
  </separator>
  <separator name="writing" >
   <i type="int" name="NWRITE">     2</i>
   <i type="logical" name="LWAVE"> F  </i>
   <i type="logical" name="LCHARG"> F  </i>
   <i type="logical" name="LPARD"> F  </i>
   <i type="logical" name="LVTOT"> F  </i>
   <i type="logical" name="LVHAR"> T  </i>
   <i type="logical" name="LELF"> F  </i>
   <i type="logical" name="LOPTICS"> F  </i>
   <v name="STM">      0.00000000      0.00000000      0.00000000      0.00000000      0.00000000      0.00000000      0.00000000</v>
  </separator>
  <separator name="performance" >
   <i type="int" name="NPAR">     4</i>
   <i type="int" name="NSIM">     4</i>
   <i type="int" name="NBLK">    -1</i>
   <i type="logical" name="LPLANE"> T  </i>
   <i type="logical" name="LSCALAPACK"> T  </i>
   <i type="logical" name="LSCAAWARE"> F  </i>
   <i type="logical" name="LSCALU"> F  </i>
   <i type="logical" name="LASYNC"> F  </i>
   <i type="logical" name="LORBITALREAL"> F  </i>
  </separator>
  <separator name="miscellaneous" >
   <i type="int" name="IDIOT">     3</i>
   <i type="logical" name="LMUSIC"> F  </i>
   <v name="POMASS">     95.94000000     32.06600000     95.94000000     32.06600000</v>
   <v name="DARWINR">      0.00000000      0.00000000      0.00000000      0.00000000</v>
   <v name="DARWINV">      1.00000000      1.00000000      1.00000000      1.00000000</v>
   <i type="logical" name="LCORR"> T  </i>
  </separator>
  <i type="logical" name="GGA_COMPAT"> T  </i>
  <i type="logical" name="LBERRY"> F  </i>
  <i type="int" name="ICORELEVEL">     0</i>
  <i type="logical" name="LDAU"> F  </i>
  <i type="int" name="I_CONSTRAINED_M">     0</i>
  <separator name="electronic exchange-correlation" >
   <i type="string" name="GGA">BO</i>
   <i type="int" name="VOSKOWN">     0</i>
   <i type="logical" name="LHFCALC"> F  </i>
   <i type="string" name="PRECFOCK"></i>
   <i type="logical" name="LSYMGRAD"> F  </i>
   <i type="logical" name="LHFONE"> F  </i>
   <i type="logical" name="LRHFCALC"> F  </i>
   <i type="logical" name="LTHOMAS"> F  </i>
   <i type="logical" name="LMODELHF"> F  </i>
   <i name="ENCUT4O">     -1.00000000</i>
   <i type="int" name="EXXOEP">     0</i>
   <i type="int" name="FOURORBIT">     0</i>
   <i name="AEXX">      0.00000000</i>
   <i name="HFALPHA">      0.00000000</i>
   <i name="MCALPHA">      0.00000000</i>
   <i name="ALDAX">      1.00000000</i>
   <i name="AGGAX">      1.00000000</i>
   <i name="ALDAC">      1.00000000</i>
   <i name="AGGAC">      0.00000000</i>
   <i type="int" name="NKREDX">     1</i>
   <i type="int" name="NKREDY">     1</i>
   <i type="int" name="NKREDZ">     1</i>
   <i type="logical" name="SHIFTRED"> F  </i>
   <i type="logical" name="ODDONLY"> F  </i>
   <i type="logical" name="EVENONLY"> F  </i>
   <i type="int" name="LMAXFOCK">     0</i>
   <i type="int" name="NMAXFOCKAE">     0</i>
   <i type="logical" name="LFOCKAEDFT"> F  </i>
   <i name="HFSCREEN">      0.00000000</i>
   <i name="HFSCREENC">      0.00000000</i>
   <i type="int" name="NBANDSGWLOW">     0</i>
  </separator>
  <separator name="vdW DFT" >
   <i type="logical" name="LUSE_VDW"> T  </i>
   <i name="Zab_VDW">     -0.84910000</i>
   <i name="PARAM1">      0.18333333</i>
   <i name="PARAM2">      0.22000000</i>
   <i name="PARAM3">      0.00000000</i>
  </separator>
  <separator name="model GW" >
   <i type="int" name="MODEL_GW">     0</i>
   <i name="MODEL_EPS0">     20.39722663</i>
   <i name="MODEL_ALPHA">      1.00000000</i>
  </separator>
  <separator name="linear response parameters" >
   <i type="logical" name="LEPSILON"> F  </i>
   <i type="logical" name="LRPA"> F  </i>
   <i type="logical" name="LNABLA"> F  </i>
   <i type="logical" name="LVEL"> F  </i>
   <i type="int" name="KINTER">     0</i>
   <i name="CSHIFT">      0.10000000</i>
   <i name="OMEGAMAX">     -1.00000000</i>
   <i name="DEG_THRESHOLD">      0.00200000</i>
  </separator>
  <separator name="orbital magnetization" >
   <i type="logical" name="NUCIND"> F  </i>
   <v name="MAGPOS">      0.00000000      0.00000000      0.00000000</v>
   <i type="logical" name="LNICSALL"> T  </i>
   <i type="logical" name="ORBITALMAG"> F  </i>
   <i type="logical" name="LMAGBLOCH"> F  </i>
   <i type="logical" name="LCHIMAG"> F  </i>
   <i type="logical" name="LGAUGE"> T  </i>
   <i type="int" name="MAGATOM">     0</i>
   <v name="MAGDIPOL">      0.00000000      0.00000000      0.00000000</v>
   <v name="AVECCONST">      0.00000000      0.00000000      0.00000000</v>
  </separator>
  <separator name="response functions" >
   <i type="logical" name="LADDER"> F  </i>
   <i type="logical" name="LFXC"> F  </i>
   <i type="logical" name="LHARTREE"> T  </i>
   <i type="int" name="IBSE">     0</i>
   <v type="int" name="KPOINT">    -1     0     0     0</v>
   <i type="logical" name="LTCTE"> F  </i>
   <i type="logical" name="LTETE"> F  </i>
   <i type="logical" name="LTRIPLET"> F  </i>
   <i type="logical" name="LFXCEPS"> F  </i>
   <i type="logical" name="LFXHEG"> F  </i>
   <i type="int" name="NATURALO">     0</i>
   <i type="logical" name="L2ORDER"> F  </i>
   <i type="logical" name="LUSEW"> F  </i>
   <i name="ENCUTGW">     -2.00000000</i>
   <i name="ENCUTGWSOFT">     -2.00000000</i>
   <i name="ENCUTLF">     -1.00000000</i>
   <i type="int" name="LMAXMP2">    -1</i>
   <i name="SCISSOR">      0.00000000</i>
   <i type="int" name="NOMEGA">     0</i>
   <i type="int" name="NOMEGAR">     0</i>
   <i type="int" name="NBANDSGW">    -1</i>
   <i type="int" name="NBANDSO">    -1</i>
   <i type="int" name="NBANDSV">    -1</i>
   <i type="int" name="NELM">     1</i>
   <i type="int" name="NELMHF">     1</i>
   <i type="int" name="DIM">     3</i>
   <i type="int" name="ANTIRES">     0</i>
   <i name="OMEGAMAX">    -30.00000000</i>
   <i name="OMEGAMIN">    -30.00000000</i>
   <i name="OMEGATL">   -200.00000000</i>
   <i type="int" name="OMEGAGRID">     0</i>
   <i name="CSHIFT">     -0.10000000</i>
   <i type="logical" name="SELFENERGY"> F  </i>
   <i type="logical" name="LSPECTRAL"> F  </i>
   <i type="logical" name="LSPECTRALGW"> F  </i>
   <i type="logical" name="LSINGLES"> F  </i>
   <i type="logical" name="LFERMIGW"> F  </i>
   <i type="logical" name="ODDONLYGW"> F  </i>
   <i type="logical" name="EVENONLYGW"> F  </i>
   <i type="int" name="NKREDLFX">     1</i>
   <i type="int" name="NKREDLFY">     1</i>
   <i type="int" name="NKREDLFZ">     1</i>
   <i type="int" name="MAXMEM">  1800</i>
   <i type="int" name="TELESCOPE">     0</i>
   <i type="int" name="TAUPAR">     1</i>
   <i type="int" name="OMEGAPAR">    -1</i>
   <i name="LAMBDA">      1.00000000</i>
  </separator>
  <separator name="External order field" >
   <i name="OFIELD_KAPPA">      0.00000000</i>
   <v name="OFIELD_K">      0.00000000      0.00000000      0.00000000</v>
   <i name="OFIELD_Q6_NEAR">      0.00000000</i>
   <i name="OFIELD_Q6_FAR">      0.00000000</i>
   <i name="OFIELD_A">      0.00000000</i>
  </separator>
 </parameters>
 <atominfo>
  <atoms>       6 </atoms>
  <types>       4 </types>
  <array name="atoms" >
   <dimension dim="1">ion</dimension>
   <field type="string">element</field>
   <field type="int">atomtype</field>
   <set>
    <rc><c>Mo</c><c>   1</c></rc>
    <rc><c>S </c><c>   2</c></rc>
    <rc><c>S </c><c>   2</c></rc>
    <rc><c>Mo</c><c>   3</c></rc>
    <rc><c>S </c><c>   4</c></rc>
    <rc><c>S </c><c>   4</c></rc>
   </set>
  </array>
  <array name="atomtypes" >
   <dimension dim="1">type</dimension>
   <field type="int">atomspertype</field>
   <field type="string">element</field>
   <field>mass</field>
   <field>valence</field>
   <field type="string">pseudopotential</field>
   <set>
    <rc><c>   1</c><c>Mo</c><c>     95.94000000</c><c>     12.00000000</c><c> PAW_PBE Mo_pv 08Apr2002                </c></rc>
    <rc><c>   2</c><c>S </c><c>     32.06600000</c><c>      6.00000000</c><c>  PAW_PBE S 17Jan2003                   </c></rc>
    <rc><c>   1</c><c>Mo</c><c>     95.94000000</c><c>     12.00000000</c><c> PAW_PBE Mo_pv 08Apr2002                </c></rc>
    <rc><c>   2</c><c>S </c><c>     32.06600000</c><c>      6.00000000</c><c>  PAW_PBE S 17Jan2003                   </c></rc>
   </set>
  </array>
 </atominfo>
 <structure name="initialpos" >
  <crystal>
   <varray name="basis" >
    <v>       3.19031700       0.00000000       0.00000000 </v>
    <v>      -1.59515800       2.76289700       0.00000000 </v>
    <v>       0.00000000       0.00000000      23.14049200 </v>
   </varray>
   <i name="volume">    203.97226633 </i>
   <varray name="rec_basis" >
    <v>       0.31344848       0.18096941       0.00000000 </v>
    <v>       0.00000000       0.36193894       0.00000000 </v>
    <v>       0.00000000       0.00000000       0.04321429 </v>
   </varray>
  </crystal>
  <varray name="positions" >
   <v>       0.66666700       0.33333300       0.06785900 </v>
   <v>       0.33333300       0.66666700       0.00000000 </v>
   <v>       0.33333300       0.66666700       0.13571500 </v>
   <v>       0.38095271       0.04761871       0.35482300 </v>
   <v>       0.04761871       0.38095271       0.28696500 </v>
   <v>       0.04761871       0.38095271       0.42267900 </v>
  </varray>
 </structure>
 <calculation>
  <scstep>
   <time name="dav">   55.30   55.34</time>
   <time name="total">   65.44   65.49</time>
   <energy>
    <i name="alphaZ">    104.15310261 </i>
    <i name="ewald">   7699.15925133 </i>
    <i name="hartreedc"> -11109.20445244 </i>
    <i name="XCdc">    128.46668658 </i>
    <i name="pawpsdc">   2252.92270536 </i>
    <i name="pawaedc">  -2205.68654582 </i>
    <i name="eentropy">      0.00126970 </i>
    <i name="bandstr">   -159.44828229 </i>
    <i name="atom">   3688.31848598 </i>
    <i name="e_fr_energy">    398.68222101 </i>
    <i name="e_wo_entrp">    398.68095131 </i>
    <i name="e_0_energy">    398.68179778 </i>
   </energy>
  </scstep>
  <scstep>
   <time name="dav">   59.88   59.92</time>
   <time name="total">   59.88   59.93</time>
   <energy>
    <i name="e_fr_energy">     -1.60373999 </i>
    <i name="e_wo_entrp">     -1.60259108 </i>
    <i name="e_0_energy">     -1.60335702 </i>
   </energy>
  </scstep>
  <scstep>
   <time name="dav">   61.53   61.58</time>
   <time name="total">   61.54   61.59</time>
   <energy>
    <i name="e_fr_energy">    -32.95453015 </i>
    <i name="e_wo_entrp">    -32.95547332 </i>
    <i name="e_0_energy">    -32.95484454 </i>
   </energy>
  </scstep>
  <scstep>
   <time name="dav">   59.57   59.62</time>
   <time name="total">   59.58   59.88</time>
   <energy>
    <i name="e_fr_energy">    -33.83831055 </i>
    <i name="e_wo_entrp">    -33.83927534 </i>
    <i name="e_0_energy">    -33.83863214 </i>
   </energy>
  </scstep>
  <scstep>
   <time name="dav">   62.00   62.05</time>
   <time name="total">   66.69   66.74</time>
   <energy>
    <i name="e_fr_energy">    -33.86538667 </i>
    <i name="e_wo_entrp">    -33.86636240 </i>
    <i name="e_0_energy">    -33.86571192 </i>
   </energy>
  </scstep>
  <scstep>
   <time name="diag">   11.65   11.65</time>
   <time name="diis">   48.76   48.80</time>
   <time name="orth">    0.38    0.38</time>
   <time name="total">   75.51   75.57</time>
   <energy>
    <i name="e_fr_energy">    -30.67675769 </i>
    <i name="e_wo_entrp">    -30.67754553 </i>
    <i name="e_0_energy">    -30.67702031 </i>
   </energy>
  </scstep>
  <scstep>
   <time name="diag">   11.68   11.69</time>
   <time name="diis">   39.75   39.78</time>
   <time name="orth">    0.38    0.38</time>
   <time name="total">   66.51   66.56</time>
   <energy>
    <i name="e_fr_energy">    -32.78251202 </i>
    <i name="e_wo_entrp">    -32.78303622 </i>
    <i name="e_0_energy">    -32.78268675 </i>
   </energy>
  </scstep>
  <scstep>
   <time name="diag">   11.85   11.86</time>
   <time name="diis">   45.71   45.74</time>
   <time name="orth">    0.39    0.39</time>
   <time name="total">   72.64   72.69</time>
   <energy>
    <i name="e_fr_energy">    -34.75767861 </i>
    <i name="e_wo_entrp">    -34.75784506 </i>
    <i name="e_0_energy">    -34.75773410 </i>
   </energy>
  </scstep>
  <scstep>
   <time name="diag">   11.76   11.77</time>
   <time name="diis">   38.69   38.72</time>
   <time name="orth">    0.38    0.38</time>
   <time name="total">   65.57   65.67</time>
   <energy>
    <i name="e_fr_energy">    -36.84773164 </i>
    <i name="e_wo_entrp">    -36.84789561 </i>
    <i name="e_0_energy">    -36.84778630 </i>
   </energy>
  </scstep>
  <scstep>
   <time name="diag">   11.84   11.85</time>
   <time name="diis">   39.03   39.06</time>
   <time name="orth">    0.38    0.38</time>
   <time name="total">   65.80   65.85</time>
   <energy>
    <i name="e_fr_energy">    -38.67766781 </i>
    <i name="e_wo_entrp">    -38.67783416 </i>
    <i name="e_0_energy">    -38.67772326 </i>
   </energy>
  </scstep>
  <scstep>
   <time name="diag">   11.77   11.78</time>
   <time name="diis">   40.21   40.24</time>
   <time name="orth">    0.38    0.38</time>
   <time name="total">   66.95   67.00</time>
   <energy>
    <i name="e_fr_energy">    -39.34152661 </i>
    <i name="e_wo_entrp">    -39.34183967 </i>
    <i name="e_0_energy">    -39.34163097 </i>
   </energy>
  </scstep>
  <scstep>
   <time name="diag">   11.74   11.75</time>
   <time name="diis">   41.60   41.63</time>
   <time name="orth">    0.38    0.38</time>
   <time name="total">   68.71   68.76</time>
   <energy>
    <i name="e_fr_energy">    -39.38368747 </i>
    <i name="e_wo_entrp">    -39.38401774 </i>
    <i name="e_0_energy">    -39.38379756 </i>
   </energy>
  </scstep>
  <scstep>
   <time name="diag">   11.73   11.73</time>
   <time name="diis">   43.67   43.70</time>
   <time name="orth">    0.38    0.38</time>
   <time name="total">   70.65   70.70</time>
   <energy>
    <i name="e_fr_energy">    -39.40435346 </i>
    <i name="e_wo_entrp">    -39.40468509 </i>
    <i name="e_0_energy">    -39.40446400 </i>
   </energy>
  </scstep>
  <scstep>
   <time name="diag">   11.75   11.76</time>
   <time name="diis">   41.82   41.85</time>
   <time name="orth">    0.38    0.38</time>
   <time name="total">   68.79   69.17</time>
   <energy>
    <i name="e_fr_energy">    -39.40919794 </i>
    <i name="e_wo_entrp">    -39.40952994 </i>
    <i name="e_0_energy">    -39.40930861 </i>
   </energy>
  </scstep>
  <scstep>
   <time name="diag">   11.68   11.68</time>
   <time name="diis">   39.27   39.30</time>
   <time name="orth">    0.38    0.38</time>
   <time name="total">   61.00   61.05</time>
   <energy>
    <i name="alphaZ">    104.15310261 </i>
    <i name="ewald">   7699.15925133 </i>
    <i name="hartreedc"> -11093.91250076 </i>
    <i name="XCdc">    122.67672785 </i>
    <i name="pawpsdc">   2398.32382061 </i>
    <i name="pawaedc">  -2360.48218968 </i>
    <i name="eentropy">      0.00033197 </i>
    <i name="bandstr">   -597.64617289 </i>
    <i name="atom">   3688.31848598 </i>
    <i name="e_fr_energy">    -39.40914299 </i>
    <i name="e_wo_entrp">    -39.40947495 </i>
    <i name="e_0_energy">    -39.40925364 </i>
   </energy>
  </scstep>
  <structure>
   <crystal>
    <varray name="basis" >
     <v>       3.19031700       0.00000000       0.00000000 </v>
     <v>      -1.59515800       2.76289700       0.00000000 </v>
     <v>       0.00000000       0.00000000      23.14049200 </v>
    </varray>
    <i name="volume">    203.97226633 </i>
    <varray name="rec_basis" >
     <v>       0.31344848       0.18096941       0.00000000 </v>
     <v>       0.00000000       0.36193894       0.00000000 </v>
     <v>       0.00000000       0.00000000       0.04321429 </v>
    </varray>
   </crystal>
   <varray name="positions" >
    <v>       0.66666700       0.33333300       0.06785900 </v>
    <v>       0.33333300       0.66666700       0.00000000 </v>
    <v>       0.33333300       0.66666700       0.13571500 </v>
    <v>       0.38095271       0.04761871       0.35482300 </v>
    <v>       0.04761871       0.38095271       0.28696500 </v>
    <v>       0.04761871       0.38095271       0.42267900 </v>
   </varray>
  </structure>
  <varray name="forces" >
   <v>       0.00358860       0.00530998      -0.00821826 </v>
   <v>      -0.00055253       0.00039713      -0.05761202 </v>
   <v>       0.01858650       0.03043500       0.08079872 </v>
   <v>      -0.00373980      -0.00679742       0.01028660 </v>
   <v>      -0.01510212      -0.02601829      -0.08605810 </v>
   <v>      -0.00278066      -0.00332639       0.06080305 </v>
  </varray>
  <varray name="stress" >
   <v>       3.43499721       0.19318874      -0.62894867 </v>
   <v>       0.19318889       3.65376155      -1.07685450 </v>
   <v>      -0.62894846      -1.07685445       1.27252023 </v>
  </varray>
  <energy>
   <i name="e_fr_energy">    -39.40914299 </i>
   <i name="e_wo_entrp">    -39.40925364 </i>
   <i name="e_0_energy">      0.00033197 </i>
  </energy>
  <time name="totalsc"> 1096.79 1098.26</time>
  <eigenvalues>
   <array>
    <dimension dim="1">band</dimension>
    <dimension dim="2">kpoint</dimension>
    <dimension dim="3">spin</dimension>
    <field>eigene</field>
    <field>occ</field>
    <set>
     <set comment="spin 1">
      <set comment="kpoint 1">
       <r>  -34.9751    1.0000 </r>
       <r>  -34.9681    1.0000 </r>
       <r>  -34.7836    1.0000 </r>
       <r>  -34.7834    1.0000 </r>
       <r>  -34.7766    1.0000 </r>
       <r>  -34.7764    1.0000 </r>
       <r>  -13.9533    1.0000 </r>
       <r>  -13.8955    1.0000 </r>
       <r>  -12.6879    1.0000 </r>
       <r>  -12.5919    1.0000 </r>
       <r>   -5.6704    1.0000 </r>
       <r>   -5.3742    1.0000 </r>
       <r>   -2.6019    1.0000 </r>
       <r>   -2.6016    1.0000 </r>
       <r>   -2.5944    1.0000 </r>
       <r>   -2.5940    1.0000 </r>
       <r>   -2.1655    1.0000 </r>
       <r>   -1.5092    1.0000 </r>
       <r>   -1.5085    1.0000 </r>
       <r>   -1.5011    1.0000 </r>
       <r>   -1.4995    1.0000 </r>
       <r>   -1.4449    1.0000 </r>
       <r>   -0.2065    1.0000 </r>
       <r>    0.2459    0.8002 </r>
       <r>    2.7140   -0.0000 </r>
       <r>    2.7211   -0.0000 </r>
       <r>    2.7325   -0.0000 </r>
       <r>    2.7380   -0.0000 </r>
       <r>    2.8951   -0.0000 </r>
       <r>    2.9029   -0.0000 </r>
       <r>    2.9164   -0.0000 </r>
       <r>    2.9256   -0.0000 </r>
       <r>    5.2953    0.0000 </r>
       <r>    5.7198    0.0000 </r>
       <r>    6.2402    0.0000 </r>
       <r>    6.5940    0.0000 </r>
      </set>
      <set comment="kpoint 2">
       <r>  -34.9710    1.0000 </r>
       <r>  -34.9640    1.0000 </r>
       <r>  -34.8048    1.0000 </r>
       <r>  -34.7977    1.0000 </r>
       <r>  -34.7882    1.0000 </r>
       <r>  -34.7814    1.0000 </r>
       <r>  -13.8666    1.0000 </r>
       <r>  -13.8090    1.0000 </r>
       <r>  -12.6512    1.0000 </r>
       <r>  -12.5575    1.0000 </r>
       <r>   -5.5712    1.0000 </r>
       <r>   -5.2754    1.0000 </r>
       <r>   -2.7892    1.0000 </r>
       <r>   -2.7806    1.0000 </r>
       <r>   -2.5112    1.0000 </r>
       <r>   -2.5034    1.0000 </r>
       <r>   -2.4472    1.0000 </r>
       <r>   -2.0481    1.0000 </r>
       <r>   -1.6461    1.0000 </r>
       <r>   -1.6374    1.0000 </r>
       <r>   -1.3438    1.0000 </r>
       <r>   -1.0438    1.0000 </r>
       <r>   -0.2274    1.0000 </r>
       <r>    0.1706    1.0341 </r>
       <r>    2.6020   -0.0000 </r>
       <r>    2.6284   -0.0000 </r>
       <r>    2.6611   -0.0000 </r>
       <r>    2.7336   -0.0000 </r>
       <r>    2.8027   -0.0000 </r>
       <r>    2.8265   -0.0000 </r>
       <r>    2.8678   -0.0000 </r>
       <r>    2.8841   -0.0000 </r>
       <r>    5.4218    0.0000 </r>
       <r>    5.8653    0.0000 </r>
       <r>    6.5747    0.0000 </r>
       <r>    6.9651    0.0000 </r>
      </set>
      <set comment="kpoint 3">
       <r>  -34.9596    1.0000 </r>
       <r>  -34.9527    1.0000 </r>
       <r>  -34.8633    1.0000 </r>
       <r>  -34.8562    1.0000 </r>
       <r>  -34.8016    1.0000 </r>
       <r>  -34.7948    1.0000 </r>
       <r>  -13.6181    1.0000 </r>
       <r>  -13.5612    1.0000 </r>
       <r>  -12.5461    1.0000 </r>
       <r>  -12.4592    1.0000 </r>
       <r>   -5.3109    1.0000 </r>
       <r>   -5.0214    1.0000 </r>
       <r>   -3.2427    1.0000 </r>
       <r>   -3.2256    1.0000 </r>
       <r>   -2.9435    1.0000 </r>
       <r>   -2.6647    1.0000 </r>
       <r>   -2.2557    1.0000 </r>
       <r>   -2.2473    1.0000 </r>
       <r>   -1.9816    1.0000 </r>
       <r>   -1.9720    1.0000 </r>
       <r>   -1.2619    1.0000 </r>
       <r>   -0.9132    1.0000 </r>
       <r>   -0.3575    1.0000 </r>
       <r>   -0.1071    1.0000 </r>
       <r>    2.1928   -0.0000 </r>
       <r>    2.3835   -0.0000 </r>
       <r>    2.5127   -0.0000 </r>
       <r>    2.5727   -0.0000 </r>
       <r>    2.6004   -0.0000 </r>
       <r>    2.6448   -0.0000 </r>
       <r>    3.2117    0.0000 </r>
       <r>    3.2343    0.0000 </r>
       <r>    5.7761    0.0000 </r>
       <r>    6.2160    0.0000 </r>
       <r>    6.9337    0.0000 </r>
       <r>    7.8009    0.0000 </r>
      </set>
      <set comment="kpoint 4">
       <r>  -34.9449    1.0000 </r>
       <r>  -34.9434    1.0000 </r>
       <r>  -34.9380    1.0000 </r>
       <r>  -34.9362    1.0000 </r>
       <r>  -34.8205    1.0000 </r>
       <r>  -34.8137    1.0000 </r>
       <r>  -13.2427    1.0000 </r>
       <r>  -13.1879    1.0000 </r>
       <r>  -12.3882    1.0000 </r>
       <r>  -12.3119    1.0000 </r>
       <r>   -5.0462    1.0000 </r>
       <r>   -4.8052    1.0000 </r>
       <r>   -3.7126    1.0000 </r>
       <r>   -3.6504    1.0000 </r>
       <r>   -3.4712    1.0000 </r>
       <r>   -3.2841    1.0000 </r>
       <r>   -2.3770    1.0000 </r>
       <r>   -2.3666    1.0000 </r>
       <r>   -1.8870    1.0000 </r>
       <r>   -1.8770    1.0000 </r>
       <r>   -1.4359    1.0000 </r>
       <r>   -1.1018    1.0000 </r>
       <r>   -0.6755    1.0000 </r>
       <r>   -0.5568    1.0000 </r>
       <r>    1.9618   -0.0000 </r>
       <r>    2.2594   -0.0000 </r>
       <r>    2.3233   -0.0000 </r>
       <r>    2.3505   -0.0000 </r>
       <r>    2.7095   -0.0000 </r>
       <r>    2.9246   -0.0000 </r>
       <r>    3.5908    0.0000 </r>
       <r>    3.6223    0.0000 </r>
       <r>    6.3226    0.0000 </r>
       <r>    6.7081    0.0000 </r>
       <r>    7.3228    0.0000 </r>
       <r>    8.1649    0.0000 </r>
      </set>
      <set comment="kpoint 5">
       <r>  -35.0300    1.0000 </r>
       <r>  -35.0229    1.0000 </r>
       <r>  -34.9264    1.0000 </r>
       <r>  -34.9194    1.0000 </r>
       <r>  -34.8404    1.0000 </r>
       <r>  -34.8336    1.0000 </r>
       <r>  -12.8021    1.0000 </r>
       <r>  -12.7517    1.0000 </r>
       <r>  -12.2055    1.0000 </r>
       <r>  -12.1427    1.0000 </r>
       <r>   -5.0974    1.0000 </r>
       <r>   -4.9761    1.0000 </r>
       <r>   -4.0443    1.0000 </r>
       <r>   -3.9134    1.0000 </r>
       <r>   -3.8468    1.0000 </r>
       <r>   -3.7195    1.0000 </r>
       <r>   -2.7326    1.0000 </r>
       <r>   -2.7215    1.0000 </r>
       <r>   -1.7091    1.0000 </r>
       <r>   -1.4935    1.0000 </r>
       <r>   -1.4785    1.0000 </r>
       <r>   -1.3989    1.0000 </r>
       <r>   -0.9675    1.0000 </r>
       <r>   -0.8812    1.0000 </r>
       <r>    2.0550   -0.0000 </r>
       <r>    2.1557   -0.0000 </r>
       <r>    2.1793   -0.0000 </r>
       <r>    2.3408   -0.0000 </r>
       <r>    3.1179    0.0000 </r>
       <r>    3.3708    0.0000 </r>
       <r>    3.8904    0.0000 </r>
       <r>    3.9328    0.0000 </r>
       <r>    7.0183    0.0000 </r>
       <r>    7.2687    0.0000 </r>
       <r>    7.8274    0.0000 </r>
       <r>    7.9940    0.0000 </r>
      </set>
      <set comment="kpoint 6">
       <r>  -35.0997    1.0000 </r>
       <r>  -35.0926    1.0000 </r>
       <r>  -34.9122    1.0000 </r>
       <r>  -34.9052    1.0000 </r>
       <r>  -34.8568    1.0000 </r>
       <r>  -34.8500    1.0000 </r>
       <r>  -12.3903    1.0000 </r>
       <r>  -12.3469    1.0000 </r>
       <r>  -12.0390    1.0000 </r>
       <r>  -11.9905    1.0000 </r>
       <r>   -5.4110    1.0000 </r>
       <r>   -5.3499    1.0000 </r>
       <r>   -4.4577    1.0000 </r>
       <r>   -4.3683    1.0000 </r>
       <r>   -3.9422    1.0000 </r>
       <r>   -3.7953    1.0000 </r>
       <r>   -2.9926    1.0000 </r>
       <r>   -2.9812    1.0000 </r>
       <r>   -1.9187    1.0000 </r>
       <r>   -1.6322    1.0000 </r>
       <r>   -1.1771    1.0000 </r>
       <r>   -1.1577    1.0000 </r>
       <r>   -0.9277    1.0000 </r>
       <r>   -0.8142    1.0000 </r>
       <r>    2.1136   -0.0000 </r>
       <r>    2.1293   -0.0000 </r>
       <r>    2.3206   -0.0000 </r>
       <r>    2.5137   -0.0000 </r>
       <r>    3.5137    0.0000 </r>
       <r>    3.7516    0.0000 </r>
       <r>    4.0761    0.0000 </r>
       <r>    4.1283    0.0000 </r>
       <r>    6.8351    0.0000 </r>
       <r>    7.2042    0.0000 </r>
       <r>    7.6746    0.0000 </r>
       <r>    7.9265    0.0000 </r>
      </set>
      <set comment="kpoint 7">
       <r>  -35.1387    1.0000 </r>
       <r>  -35.1316    1.0000 </r>
       <r>  -34.9041    1.0000 </r>
       <r>  -34.8972    1.0000 </r>
       <r>  -34.8661    1.0000 </r>
       <r>  -34.8593    1.0000 </r>
       <r>  -12.1315    1.0000 </r>
       <r>  -12.0952    1.0000 </r>
       <r>  -11.9370    1.0000 </r>
       <r>  -11.8992    1.0000 </r>
       <r>   -5.6490    1.0000 </r>
       <r>   -5.6042    1.0000 </r>
       <r>   -4.7060    1.0000 </r>
       <r>   -4.6367    1.0000 </r>
       <r>   -4.0437    1.0000 </r>
       <r>   -3.9087    1.0000 </r>
       <r>   -3.1286    1.0000 </r>
       <r>   -3.1170    1.0000 </r>
       <r>   -2.0198    1.0000 </r>
       <r>   -1.7482    1.0000 </r>
       <r>   -1.0117    1.0000 </r>
       <r>   -0.9878    1.0000 </r>
       <r>   -0.7123    1.0000 </r>
       <r>   -0.5818    1.0000 </r>
       <r>    2.1416   -0.0000 </r>
       <r>    2.1516   -0.0000 </r>
       <r>    2.5775   -0.0000 </r>
       <r>    2.6578   -0.0000 </r>
       <r>    3.7321    0.0000 </r>
       <r>    3.9416    0.0000 </r>
       <r>    4.1599    0.0000 </r>
       <r>    4.2179    0.0000 </r>
       <r>    6.0681    0.0000 </r>
       <r>    6.5036    0.0000 </r>
       <r>    7.8752    0.0000 </r>
       <r>    8.0985    0.0000 </r>
      </set>
      <set comment="kpoint 8">
       <r>  -34.9710    1.0000 </r>
       <r>  -34.9640    1.0000 </r>
       <r>  -34.8046    1.0000 </r>
       <r>  -34.7978    1.0000 </r>
       <r>  -34.7884    1.0000 </r>
       <r>  -34.7813    1.0000 </r>
       <r>  -13.8666    1.0000 </r>
       <r>  -13.8090    1.0000 </r>
       <r>  -12.6512    1.0000 </r>
       <r>  -12.5575    1.0000 </r>
       <r>   -5.5712    1.0000 </r>
       <r>   -5.2754    1.0000 </r>
       <r>   -2.7894    1.0000 </r>
       <r>   -2.7804    1.0000 </r>
       <r>   -2.5110    1.0000 </r>
       <r>   -2.5036    1.0000 </r>
       <r>   -2.4472    1.0000 </r>
       <r>   -2.0481    1.0000 </r>
       <r>   -1.6463    1.0000 </r>
       <r>   -1.6373    1.0000 </r>
       <r>   -1.3439    1.0000 </r>
       <r>   -1.0438    1.0000 </r>
       <r>   -0.2274    1.0000 </r>
       <r>    0.1706    1.0341 </r>
       <r>    2.6019   -0.0000 </r>
       <r>    2.6287   -0.0000 </r>
       <r>    2.6609   -0.0000 </r>
       <r>    2.7336   -0.0000 </r>
       <r>    2.8023   -0.0000 </r>
       <r>    2.8272   -0.0000 </r>
       <r>    2.8671   -0.0000 </r>
       <r>    2.8844   -0.0000 </r>
       <r>    5.4219    0.0000 </r>
       <r>    5.8653    0.0000 </r>
       <r>    6.5911    0.0000 </r>
       <r>    6.9660    0.0000 </r>
      </set>
      <set comment="kpoint 9">
       <r>  -34.9633    1.0000 </r>
       <r>  -34.9563    1.0000 </r>
       <r>  -34.8436    1.0000 </r>
       <r>  -34.8367    1.0000 </r>
       <r>  -34.7984    1.0000 </r>
       <r>  -34.7914    1.0000 </r>
       <r>  -13.6988    1.0000 </r>
       <r>  -13.6418    1.0000 </r>
       <r>  -12.5801    1.0000 </r>
       <r>  -12.4912    1.0000 </r>
       <r>   -5.3893    1.0000 </r>
       <r>   -5.0966    1.0000 </r>
       <r>   -3.1053    1.0000 </r>
       <r>   -3.0914    1.0000 </r>
       <r>   -2.7834    1.0000 </r>
       <r>   -2.4616    1.0000 </r>
       <r>   -2.3433    1.0000 </r>
       <r>   -2.3347    1.0000 </r>
       <r>   -1.9615    1.0000 </r>
       <r>   -1.9479    1.0000 </r>
       <r>   -1.1868    1.0000 </r>
       <r>   -0.8621    1.0000 </r>
       <r>   -0.3012    1.0000 </r>
       <r>   -0.0097    1.0001 </r>
       <r>    2.3128   -0.0000 </r>
       <r>    2.4432   -0.0000 </r>
       <r>    2.4772   -0.0000 </r>
       <r>    2.5689   -0.0000 </r>
       <r>    2.6307   -0.0000 </r>
       <r>    2.6681   -0.0000 </r>
       <r>    3.1369    0.0000 </r>
       <r>    3.1727    0.0000 </r>
       <r>    5.6616    0.0000 </r>
       <r>    6.1095    0.0000 </r>
       <r>    6.9739    0.0000 </r>
       <r>    7.6184    0.0000 </r>
      </set>
      <set comment="kpoint 10">
       <r>  -34.9495    1.0000 </r>
       <r>  -34.9426    1.0000 </r>
       <r>  -34.9112    1.0000 </r>
       <r>  -34.9042    1.0000 </r>
       <r>  -34.8169    1.0000 </r>
       <r>  -34.8100    1.0000 </r>
       <r>  -13.3862    1.0000 </r>
       <r>  -13.3308    1.0000 </r>
       <r>  -12.4479    1.0000 </r>
       <r>  -12.3679    1.0000 </r>
       <r>   -5.1096    1.0000 </r>
       <r>   -4.8384    1.0000 </r>
       <r>   -3.5523    1.0000 </r>
       <r>   -3.5186    1.0000 </r>
       <r>   -3.2160    1.0000 </r>
       <r>   -2.9832    1.0000 </r>
       <r>   -2.4500    1.0000 </r>
       <r>   -2.4187    1.0000 </r>
       <r>   -2.0597    1.0000 </r>
       <r>   -2.0493    1.0000 </r>
       <r>   -1.1685    1.0000 </r>
       <r>   -0.8677    1.0000 </r>
       <r>   -0.5319    1.0000 </r>
       <r>   -0.3825    1.0000 </r>
       <r>    1.9709   -0.0000 </r>
       <r>    2.2092   -0.0000 </r>
       <r>    2.4016   -0.0000 </r>
       <r>    2.4457   -0.0000 </r>
       <r>    2.4864   -0.0000 </r>
       <r>    2.6488   -0.0000 </r>
       <r>    3.5386    0.0000 </r>
       <r>    3.5931    0.0000 </r>
       <r>    6.1146    0.0000 </r>
       <r>    6.5336    0.0000 </r>
       <r>    7.1761    0.0000 </r>
       <r>    8.2805    0.0000 </r>
      </set>
      <set comment="kpoint 11">
       <r>  -34.9916    1.0000 </r>
       <r>  -34.9845    1.0000 </r>
       <r>  -34.9329    1.0000 </r>
       <r>  -34.9259    1.0000 </r>
       <r>  -34.8392    1.0000 </r>
       <r>  -34.8324    1.0000 </r>
       <r>  -12.9761    1.0000 </r>
       <r>  -12.9240    1.0000 </r>
       <r>  -12.2756    1.0000 </r>
       <r>  -12.2078    1.0000 </r>
       <r>   -4.9836    1.0000 </r>
       <r>   -4.8091    1.0000 </r>
       <r>   -3.8638    1.0000 </r>
       <r>   -3.7481    1.0000 </r>
       <r>   -3.6991    1.0000 </r>
       <r>   -3.5757    1.0000 </r>
       <r>   -2.8455    1.0000 </r>
       <r>   -2.7807    1.0000 </r>
       <r>   -1.7794    1.0000 </r>
       <r>   -1.7623    1.0000 </r>
       <r>   -1.3816    1.0000 </r>
       <r>   -1.1156    1.0000 </r>
       <r>   -0.8364    1.0000 </r>
       <r>   -0.7613    1.0000 </r>
       <r>    1.8642   -0.0000 </r>
       <r>    2.0860   -0.0000 </r>
       <r>    2.2897   -0.0000 </r>
       <r>    2.3953   -0.0000 </r>
       <r>    2.7643   -0.0000 </r>
       <r>    2.9700   -0.0000 </r>
       <r>    3.8862    0.0000 </r>
       <r>    3.9607    0.0000 </r>
       <r>    6.7524    0.0000 </r>
       <r>    7.0830    0.0000 </r>
       <r>    7.7038    0.0000 </r>
       <r>    8.3175    0.0000 </r>
      </set>
      <set comment="kpoint 12">
       <r>  -35.0662    1.0000 </r>
       <r>  -35.0591    1.0000 </r>
       <r>  -34.9172    1.0000 </r>
       <r>  -34.9103    1.0000 </r>
       <r>  -34.8602    1.0000 </r>
       <r>  -34.8534    1.0000 </r>
       <r>  -12.5447    1.0000 </r>
       <r>  -12.4985    1.0000 </r>
       <r>  -12.0973    1.0000 </r>
       <r>  -12.0435    1.0000 </r>
       <r>   -5.2023    1.0000 </r>
       <r>   -5.1203    1.0000 </r>
       <r>   -4.2747    1.0000 </r>
       <r>   -4.1894    1.0000 </r>
       <r>   -3.8641    1.0000 </r>
       <r>   -3.7124    1.0000 </r>
       <r>   -3.0602    1.0000 </r>
       <r>   -2.9934    1.0000 </r>
       <r>   -1.6979    1.0000 </r>
       <r>   -1.6100    1.0000 </r>
       <r>   -1.5939    1.0000 </r>
       <r>   -1.4224    1.0000 </r>
       <r>   -0.8588    1.0000 </r>
       <r>   -0.7993    1.0000 </r>
       <r>    1.9692   -0.0000 </r>
       <r>    2.1206   -0.0000 </r>
       <r>    2.3337   -0.0000 </r>
       <r>    2.4551   -0.0000 </r>
       <r>    3.1889    0.0000 </r>
       <r>    3.3925    0.0000 </r>
       <r>    4.0808    0.0000 </r>
       <r>    4.1784    0.0000 </r>
       <r>    7.3609    0.0000 </r>
       <r>    7.5392    0.0000 </r>
       <r>    7.6403    0.0000 </r>
       <r>    8.0898    0.0000 </r>
      </set>
      <set comment="kpoint 13">
       <r>  -35.1186    1.0000 </r>
       <r>  -35.1115    1.0000 </r>
       <r>  -34.9061    1.0000 </r>
       <r>  -34.8991    1.0000 </r>
       <r>  -34.8751    1.0000 </r>
       <r>  -34.8682    1.0000 </r>
       <r>  -12.2014    1.0000 </r>
       <r>  -12.1628    1.0000 </r>
       <r>  -11.9586    1.0000 </r>
       <r>  -11.9174    1.0000 </r>
       <r>   -5.4810    1.0000 </r>
       <r>   -5.4309    1.0000 </r>
       <r>   -4.6583    1.0000 </r>
       <r>   -4.5972    1.0000 </r>
       <r>   -3.9662    1.0000 </r>
       <r>   -3.8237    1.0000 </r>
       <r>   -3.1474    1.0000 </r>
       <r>   -3.1005    1.0000 </r>
       <r>   -1.9224    1.0000 </r>
       <r>   -1.6721    1.0000 </r>
       <r>   -1.4863    1.0000 </r>
       <r>   -1.4280    1.0000 </r>
       <r>   -0.6474    1.0000 </r>
       <r>   -0.5714    1.0000 </r>
       <r>    2.1154   -0.0000 </r>
       <r>    2.1854   -0.0000 </r>
       <r>    2.5123   -0.0000 </r>
       <r>    2.6096   -0.0000 </r>
       <r>    3.5880    0.0000 </r>
       <r>    3.7603    0.0000 </r>
       <r>    4.0756    0.0000 </r>
       <r>    4.2112    0.0000 </r>
       <r>    6.4761    0.0000 </r>
       <r>    6.9133    0.0000 </r>
       <r>    8.0837    0.0000 </r>
       <r>    8.2414    0.0000 </r>
      </set>
      <set comment="kpoint 14">
       <r>  -35.1373    1.0000 </r>
       <r>  -35.1302    1.0000 </r>
       <r>  -34.9021    1.0000 </r>
       <r>  -34.8951    1.0000 </r>
       <r>  -34.8804    1.0000 </r>
       <r>  -34.8736    1.0000 </r>
       <r>  -12.0678    1.0000 </r>
       <r>  -12.0327    1.0000 </r>
       <r>  -11.9054    1.0000 </r>
       <r>  -11.8695    1.0000 </r>
       <r>   -5.5970    1.0000 </r>
       <r>   -5.5541    1.0000 </r>
       <r>   -4.8005    1.0000 </r>
       <r>   -4.7446    1.0000 </r>
       <r>   -4.0343    1.0000 </r>
       <r>   -3.8990    1.0000 </r>
       <r>   -3.1652    1.0000 </r>
       <r>   -3.1342    1.0000 </r>
       <r>   -2.0121    1.0000 </r>
       <r>   -1.7551    1.0000 </r>
       <r>   -1.4256    1.0000 </r>
       <r>   -1.3530    1.0000 </r>
       <r>   -0.5146    1.0000 </r>
       <r>   -0.4289    1.0000 </r>
       <r>    2.1562   -0.0000 </r>
       <r>    2.1808   -0.0000 </r>
       <r>    2.6656   -0.0000 </r>
       <r>    2.7183   -0.0000 </r>
       <r>    3.8485    0.0000 </r>
       <r>    3.9118    0.0000 </r>
       <r>    3.9999    0.0000 </r>
       <r>    4.1221    0.0000 </r>
       <r>    6.0521    0.0000 </r>
       <r>    6.5077    0.0000 </r>
       <r>    8.3125    0.0000 </r>
       <r>    8.4679    0.0000 </r>
      </set>
      <set comment="kpoint 15">
       <r>  -35.1186    1.0000 </r>
       <r>  -35.1115    1.0000 </r>
       <r>  -34.9061    1.0000 </r>
       <r>  -34.8991    1.0000 </r>
       <r>  -34.8750    1.0000 </r>
       <r>  -34.8682    1.0000 </r>
       <r>  -12.2022    1.0000 </r>
       <r>  -12.1623    1.0000 </r>
       <r>  -11.9592    1.0000 </r>
       <r>  -11.9166    1.0000 </r>
       <r>   -5.4811    1.0000 </r>
       <r>   -5.4306    1.0000 </r>
       <r>   -4.6594    1.0000 </r>
       <r>   -4.5963    1.0000 </r>
       <r>   -3.9664    1.0000 </r>
       <r>   -3.8230    1.0000 </r>
       <r>   -3.1468    1.0000 </r>
       <r>   -3.1020    1.0000 </r>
       <r>   -1.9273    1.0000 </r>
       <r>   -1.6728    1.0000 </r>
       <r>   -1.4924    1.0000 </r>
       <r>   -1.4139    1.0000 </r>
       <r>   -0.6464    1.0000 </r>
       <r>   -0.5725    1.0000 </r>
       <r>    2.1183   -0.0000 </r>
       <r>    2.1812   -0.0000 </r>
       <r>    2.5106   -0.0000 </r>
       <r>    2.6115   -0.0000 </r>
       <r>    3.5700    0.0000 </r>
       <r>    3.7780    0.0000 </r>
       <r>    4.0822    0.0000 </r>
       <r>    4.2069    0.0000 </r>
       <r>    6.4761    0.0000 </r>
       <r>    6.9135    0.0000 </r>
       <r>    8.0858    0.0000 </r>
       <r>    8.2425    0.0000 </r>
      </set>
      <set comment="kpoint 16">
       <r>  -35.0662    1.0000 </r>
       <r>  -35.0591    1.0000 </r>
       <r>  -34.9172    1.0000 </r>
       <r>  -34.9103    1.0000 </r>
       <r>  -34.8602    1.0000 </r>
       <r>  -34.8534    1.0000 </r>
       <r>  -12.5455    1.0000 </r>
       <r>  -12.4979    1.0000 </r>
       <r>  -12.0981    1.0000 </r>
       <r>  -12.0425    1.0000 </r>
       <r>   -5.2024    1.0000 </r>
       <r>   -5.1200    1.0000 </r>
       <r>   -4.2765    1.0000 </r>
       <r>   -4.1881    1.0000 </r>
       <r>   -3.8656    1.0000 </r>
       <r>   -3.7099    1.0000 </r>
       <r>   -3.0612    1.0000 </r>
       <r>   -2.9942    1.0000 </r>
       <r>   -1.7127    1.0000 </r>
       <r>   -1.6078    1.0000 </r>
       <r>   -1.5911    1.0000 </r>
       <r>   -1.4093    1.0000 </r>
       <r>   -0.8598    1.0000 </r>
       <r>   -0.7977    1.0000 </r>
       <r>    1.9670   -0.0000 </r>
       <r>    2.1203   -0.0000 </r>
       <r>    2.3329   -0.0000 </r>
       <r>    2.4572   -0.0000 </r>
       <r>    3.1733    0.0000 </r>
       <r>    3.4102    0.0000 </r>
       <r>    4.0814    0.0000 </r>
       <r>    4.1764    0.0000 </r>
       <r>    7.3660    0.0000 </r>
       <r>    7.5472    0.0000 </r>
       <r>    7.6485    0.0000 </r>
       <r>    8.1403    0.0000 </r>
      </set>
      <set comment="kpoint 17">
       <r>  -34.9916    1.0000 </r>
       <r>  -34.9845    1.0000 </r>
       <r>  -34.9329    1.0000 </r>
       <r>  -34.9259    1.0000 </r>
       <r>  -34.8391    1.0000 </r>
       <r>  -34.8324    1.0000 </r>
       <r>  -12.9767    1.0000 </r>
       <r>  -12.9234    1.0000 </r>
       <r>  -12.2764    1.0000 </r>
       <r>  -12.2069    1.0000 </r>
       <r>   -4.9836    1.0000 </r>
       <r>   -4.8093    1.0000 </r>
       <r>   -3.8671    1.0000 </r>
       <r>   -3.7451    1.0000 </r>
       <r>   -3.6999    1.0000 </r>
       <r>   -3.5738    1.0000 </r>
       <r>   -2.8478    1.0000 </r>
       <r>   -2.7799    1.0000 </r>
       <r>   -1.7794    1.0000 </r>
       <r>   -1.7637    1.0000 </r>
       <r>   -1.3880    1.0000 </r>
       <r>   -1.1074    1.0000 </r>
       <r>   -0.8373    1.0000 </r>
       <r>   -0.7559    1.0000 </r>
       <r>    1.8596   -0.0000 </r>
       <r>    2.0892   -0.0000 </r>
       <r>    2.2886   -0.0000 </r>
       <r>    2.3975   -0.0000 </r>
       <r>    2.7527   -0.0000 </r>
       <r>    2.9811   -0.0000 </r>
       <r>    3.8873    0.0000 </r>
       <r>    3.9572    0.0000 </r>
       <r>    6.7521    0.0000 </r>
       <r>    7.0829    0.0000 </r>
       <r>    7.7217    0.0000 </r>
       <r>    8.3582    0.0000 </r>
      </set>
      <set comment="kpoint 18">
       <r>  -34.9495    1.0000 </r>
       <r>  -34.9426    1.0000 </r>
       <r>  -34.9113    1.0000 </r>
       <r>  -34.9042    1.0000 </r>
       <r>  -34.8168    1.0000 </r>
       <r>  -34.8100    1.0000 </r>
       <r>  -13.3867    1.0000 </r>
       <r>  -13.3304    1.0000 </r>
       <r>  -12.4485    1.0000 </r>
       <r>  -12.3672    1.0000 </r>
       <r>   -5.1103    1.0000 </r>
       <r>   -4.8379    1.0000 </r>
       <r>   -3.5530    1.0000 </r>
       <r>   -3.5180    1.0000 </r>
       <r>   -3.2148    1.0000 </r>
       <r>   -2.9843    1.0000 </r>
       <r>   -2.4518    1.0000 </r>
       <r>   -2.4176    1.0000 </r>
       <r>   -2.0592    1.0000 </r>
       <r>   -2.0500    1.0000 </r>
       <r>   -1.1784    1.0000 </r>
       <r>   -0.8601    1.0000 </r>
       <r>   -0.5346    1.0000 </r>
       <r>   -0.3703    1.0000 </r>
       <r>    1.9648   -0.0000 </r>
       <r>    2.2079   -0.0000 </r>
       <r>    2.4030   -0.0000 </r>
       <r>    2.4533   -0.0000 </r>
       <r>    2.4745   -0.0000 </r>
       <r>    2.6539   -0.0000 </r>
       <r>    3.5436    0.0000 </r>
       <r>    3.5866    0.0000 </r>
       <r>    6.1146    0.0000 </r>
       <r>    6.5330    0.0000 </r>
       <r>    7.1747    0.0000 </r>
       <r>    8.2191    0.0000 </r>
      </set>
      <set comment="kpoint 19">
       <r>  -34.9633    1.0000 </r>
       <r>  -34.9563    1.0000 </r>
       <r>  -34.8438    1.0000 </r>
       <r>  -34.8366    1.0000 </r>
       <r>  -34.7982    1.0000 </r>
       <r>  -34.7915    1.0000 </r>
       <r>  -13.6991    1.0000 </r>
       <r>  -13.6416    1.0000 </r>
       <r>  -12.5805    1.0000 </r>
       <r>  -12.4908    1.0000 </r>
       <r>   -5.3900    1.0000 </r>
       <r>   -5.0960    1.0000 </r>
       <r>   -3.1048    1.0000 </r>
       <r>   -3.0920    1.0000 </r>
       <r>   -2.7819    1.0000 </r>
       <r>   -2.4630    1.0000 </r>
       <r>   -2.3428    1.0000 </r>
       <r>   -2.3351    1.0000 </r>
       <r>   -1.9603    1.0000 </r>
       <r>   -1.9495    1.0000 </r>
       <r>   -1.1970    1.0000 </r>
       <r>   -0.8539    1.0000 </r>
       <r>   -0.3039    1.0000 </r>
       <r>    0.0030    1.0003 </r>
       <r>    2.2946   -0.0000 </r>
       <r>    2.4419   -0.0000 </r>
       <r>    2.4720   -0.0000 </r>
       <r>    2.5807   -0.0000 </r>
       <r>    2.6406   -0.0000 </r>
       <r>    2.6632   -0.0000 </r>
       <r>    3.1464    0.0000 </r>
       <r>    3.1624    0.0000 </r>
       <r>    5.6618    0.0000 </r>
       <r>    6.1099    0.0000 </r>
       <r>    6.9223    0.0000 </r>
       <r>    7.6125    0.0000 </r>
      </set>
      <set comment="kpoint 20">
       <r>  -34.9710    1.0000 </r>
       <r>  -34.9640    1.0000 </r>
       <r>  -34.8048    1.0000 </r>
       <r>  -34.7978    1.0000 </r>
       <r>  -34.7883    1.0000 </r>
       <r>  -34.7813    1.0000 </r>
       <r>  -13.8667    1.0000 </r>
       <r>  -13.8089    1.0000 </r>
       <r>  -12.6514    1.0000 </r>
       <r>  -12.5573    1.0000 </r>
       <r>   -5.5714    1.0000 </r>
       <r>   -5.2751    1.0000 </r>
       <r>   -2.7895    1.0000 </r>
       <r>   -2.7803    1.0000 </r>
       <r>   -2.5111    1.0000 </r>
       <r>   -2.5038    1.0000 </r>
       <r>   -2.4461    1.0000 </r>
       <r>   -2.0481    1.0000 </r>
       <r>   -1.6457    1.0000 </r>
       <r>   -1.6379    1.0000 </r>
       <r>   -1.3511    1.0000 </r>
       <r>   -1.0380    1.0000 </r>
       <r>   -0.2284    1.0000 </r>
       <r>    0.1758    1.0319 </r>
       <r>    2.5825   -0.0000 </r>
       <r>    2.6307   -0.0000 </r>
       <r>    2.6550   -0.0000 </r>
       <r>    2.7547   -0.0000 </r>
       <r>    2.8080   -0.0000 </r>
       <r>    2.8223   -0.0000 </r>
       <r>    2.8689   -0.0000 </r>
       <r>    2.8800   -0.0000 </r>
       <r>    5.4221    0.0000 </r>
       <r>    5.8655    0.0000 </r>
       <r>    6.5703    0.0000 </r>
       <r>    6.9646    0.0000 </r>
      </set>
      <set comment="kpoint 21">
       <r>  -34.9596    1.0000 </r>
       <r>  -34.9527    1.0000 </r>
       <r>  -34.8631    1.0000 </r>
       <r>  -34.8563    1.0000 </r>
       <r>  -34.8018    1.0000 </r>
       <r>  -34.7947    1.0000 </r>
       <r>  -13.6181    1.0000 </r>
       <r>  -13.5612    1.0000 </r>
       <r>  -12.5461    1.0000 </r>
       <r>  -12.4592    1.0000 </r>
       <r>   -5.3109    1.0000 </r>
       <r>   -5.0214    1.0000 </r>
       <r>   -3.2428    1.0000 </r>
       <r>   -3.2256    1.0000 </r>
       <r>   -2.9435    1.0000 </r>
       <r>   -2.6647    1.0000 </r>
       <r>   -2.2556    1.0000 </r>
       <r>   -2.2474    1.0000 </r>
       <r>   -1.9817    1.0000 </r>
       <r>   -1.9719    1.0000 </r>
       <r>   -1.2620    1.0000 </r>
       <r>   -0.9132    1.0000 </r>
       <r>   -0.3574    1.0000 </r>
       <r>   -0.1071    1.0000 </r>
       <r>    2.1928   -0.0000 </r>
       <r>    2.3836   -0.0000 </r>
       <r>    2.5126   -0.0000 </r>
       <r>    2.5728   -0.0000 </r>
       <r>    2.6003   -0.0000 </r>
       <r>    2.6448   -0.0000 </r>
       <r>    3.2117    0.0000 </r>
       <r>    3.2343    0.0000 </r>
       <r>    5.7756    0.0000 </r>
       <r>    6.2161    0.0000 </r>
       <r>    6.9844    0.0000 </r>
       <r>    7.8478    0.0000 </r>
      </set>
      <set comment="kpoint 22">
       <r>  -34.9495    1.0000 </r>
       <r>  -34.9426    1.0000 </r>
       <r>  -34.9111    1.0000 </r>
       <r>  -34.9043    1.0000 </r>
       <r>  -34.8169    1.0000 </r>
       <r>  -34.8099    1.0000 </r>
       <r>  -13.3862    1.0000 </r>
       <r>  -13.3308    1.0000 </r>
       <r>  -12.4479    1.0000 </r>
       <r>  -12.3679    1.0000 </r>
       <r>   -5.1096    1.0000 </r>
       <r>   -4.8384    1.0000 </r>
       <r>   -3.5523    1.0000 </r>
       <r>   -3.5187    1.0000 </r>
       <r>   -3.2160    1.0000 </r>
       <r>   -2.9831    1.0000 </r>
       <r>   -2.4502    1.0000 </r>
       <r>   -2.4186    1.0000 </r>
       <r>   -2.0597    1.0000 </r>
       <r>   -2.0494    1.0000 </r>
       <r>   -1.1686    1.0000 </r>
       <r>   -0.8677    1.0000 </r>
       <r>   -0.5319    1.0000 </r>
       <r>   -0.3825    1.0000 </r>
       <r>    1.9709   -0.0000 </r>
       <r>    2.2093   -0.0000 </r>
       <r>    2.4014   -0.0000 </r>
       <r>    2.4459   -0.0000 </r>
       <r>    2.4865   -0.0000 </r>
       <r>    2.6487   -0.0000 </r>
       <r>    3.5384    0.0000 </r>
       <r>    3.5932    0.0000 </r>
       <r>    6.1147    0.0000 </r>
       <r>    6.5336    0.0000 </r>
       <r>    7.1817    0.0000 </r>
       <r>    8.2543    0.0000 </r>
      </set>
      <set comment="kpoint 23">
       <r>  -34.9733    1.0000 </r>
       <r>  -34.9663    1.0000 </r>
       <r>  -34.9352    1.0000 </r>
       <r>  -34.9283    1.0000 </r>
       <r>  -34.8432    1.0000 </r>
       <r>  -34.8363    1.0000 </r>
       <r>  -13.0373    1.0000 </r>
       <r>  -12.9846    1.0000 </r>
       <r>  -12.2998    1.0000 </r>
       <r>  -12.2302    1.0000 </r>
       <r>   -4.9357    1.0000 </r>
       <r>   -4.7331    1.0000 </r>
       <r>   -3.8027    1.0000 </r>
       <r>   -3.7098    1.0000 </r>
       <r>   -3.5046    1.0000 </r>
       <r>   -3.3778    1.0000 </r>
       <r>   -3.0796    1.0000 </r>
       <r>   -2.9731    1.0000 </r>
       <r>   -1.9323    1.0000 </r>
       <r>   -1.9135    1.0000 </r>
       <r>   -1.1470    1.0000 </r>
       <r>   -0.9065    1.0000 </r>
       <r>   -0.7710    1.0000 </r>
       <r>   -0.6951    1.0000 </r>
       <r>    1.7726   -0.0000 </r>
       <r>    2.0111   -0.0000 </r>
       <r>    2.3327   -0.0000 </r>
       <r>    2.4261   -0.0000 </r>
       <r>    2.5357   -0.0000 </r>
       <r>    2.7305   -0.0000 </r>
       <r>    3.9284    0.0000 </r>
       <r>    4.0185    0.0000 </r>
       <r>    6.6605    0.0000 </r>
       <r>    7.0261    0.0000 </r>
       <r>    7.6725    0.0000 </r>
       <r>    8.6124    0.0000 </r>
      </set>
      <set comment="kpoint 24">
       <r>  -35.0361    1.0000 </r>
       <r>  -35.0291    1.0000 </r>
       <r>  -34.9201    1.0000 </r>
       <r>  -34.9131    1.0000 </r>
       <r>  -34.8735    1.0000 </r>
       <r>  -34.8666    1.0000 </r>
       <r>  -12.6308    1.0000 </r>
       <r>  -12.5830    1.0000 </r>
       <r>  -12.1274    1.0000 </r>
       <r>  -12.0705    1.0000 </r>
       <r>   -5.0094    1.0000 </r>
       <r>   -4.9021    1.0000 </r>
       <r>   -4.0834    1.0000 </r>
       <r>   -4.0372    1.0000 </r>
       <r>   -3.7786    1.0000 </r>
       <r>   -3.6233    1.0000 </r>
       <r>   -3.2979    1.0000 </r>
       <r>   -3.1429    1.0000 </r>
       <r>   -2.0630    1.0000 </r>
       <r>   -2.0309    1.0000 </r>
       <r>   -1.3640    1.0000 </r>
       <r>   -1.1493    1.0000 </r>
       <r>   -0.8292    1.0000 </r>
       <r>   -0.7852    1.0000 </r>
       <r>    1.7981   -0.0000 </r>
       <r>    2.0642   -0.0000 </r>
       <r>    2.4034   -0.0000 </r>
       <r>    2.4680   -0.0000 </r>
       <r>    2.7951   -0.0000 </r>
       <r>    2.9868   -0.0000 </r>
       <r>    4.1813    0.0000 </r>
       <r>    4.3017    0.0000 </r>
       <r>    7.3646    0.0000 </r>
       <r>    7.6135    0.0000 </r>
       <r>    8.1018    0.0000 </r>
       <r>    8.5120    0.0000 </r>
      </set>
      <set comment="kpoint 25">
       <r>  -35.0868    1.0000 </r>
       <r>  -35.0797    1.0000 </r>
       <r>  -34.9075    1.0000 </r>
       <r>  -34.9005    1.0000 </r>
       <r>  -34.8994    1.0000 </r>
       <r>  -34.8926    1.0000 </r>
       <r>  -12.2559    1.0000 </r>
       <r>  -12.2151    1.0000 </r>
       <r>  -11.9693    1.0000 </r>
       <r>  -11.9250    1.0000 </r>
       <r>   -5.2068    1.0000 </r>
       <r>   -5.1431    1.0000 </r>
       <r>   -4.6235    1.0000 </r>
       <r>   -4.5873    1.0000 </r>
       <r>   -3.8048    1.0000 </r>
       <r>   -3.6468    1.0000 </r>
       <r>   -3.2686    1.0000 </r>
       <r>   -3.1418    1.0000 </r>
       <r>   -2.2022    1.0000 </r>
       <r>   -2.1489    1.0000 </r>
       <r>   -1.7015    1.0000 </r>
       <r>   -1.4840    1.0000 </r>
       <r>   -0.6525    1.0000 </r>
       <r>   -0.6153    1.0000 </r>
       <r>    2.0200   -0.0000 </r>
       <r>    2.2369   -0.0000 </r>
       <r>    2.5253   -0.0000 </r>
       <r>    2.5704   -0.0000 </r>
       <r>    3.1456    0.0000 </r>
       <r>    3.3027    0.0000 </r>
       <r>    4.2524    0.0000 </r>
       <r>    4.4039    0.0000 </r>
       <r>    7.1064    0.0000 </r>
       <r>    7.5281    0.0000 </r>
       <r>    8.2492    0.0000 </r>
       <r>    8.4694    0.0000 </r>
      </set>
      <set comment="kpoint 26">
       <r>  -35.1149    1.0000 </r>
       <r>  -35.1078    1.0000 </r>
       <r>  -34.9143    1.0000 </r>
       <r>  -34.9075    1.0000 </r>
       <r>  -34.9003    1.0000 </r>
       <r>  -34.8934    1.0000 </r>
       <r>  -12.0247    1.0000 </r>
       <r>  -11.9893    1.0000 </r>
       <r>  -11.8721    1.0000 </r>
       <r>  -11.8363    1.0000 </r>
       <r>   -5.3342    1.0000 </r>
       <r>   -5.2899    1.0000 </r>
       <r>   -4.9312    1.0000 </r>
       <r>   -4.8957    1.0000 </r>
       <r>   -3.9391    1.0000 </r>
       <r>   -3.7990    1.0000 </r>
       <r>   -3.1739    1.0000 </r>
       <r>   -3.0938    1.0000 </r>
       <r>   -2.2192    1.0000 </r>
       <r>   -2.1326    1.0000 </r>
       <r>   -1.9547    1.0000 </r>
       <r>   -1.7246    1.0000 </r>
       <r>   -0.4245    1.0000 </r>
       <r>   -0.3755    1.0000 </r>
       <r>    2.0749   -0.0000 </r>
       <r>    2.1297   -0.0000 </r>
       <r>    2.7777   -0.0000 </r>
       <r>    2.8734   -0.0000 </r>
       <r>    3.4021    0.0000 </r>
       <r>    3.5243    0.0000 </r>
       <r>    4.2060    0.0000 </r>
       <r>    4.3839    0.0000 </r>
       <r>    6.4024    0.0000 </r>
       <r>    6.8799    0.0000 </r>
       <r>    8.7728    0.0000 </r>
       <r>    8.8761    0.0000 </r>
      </set>
      <set comment="kpoint 27">
       <r>  -35.1150    1.0000 </r>
       <r>  -35.1078    1.0000 </r>
       <r>  -34.9143    1.0000 </r>
       <r>  -34.9075    1.0000 </r>
       <r>  -34.9003    1.0000 </r>
       <r>  -34.8934    1.0000 </r>
       <r>  -12.0257    1.0000 </r>
       <r>  -11.9886    1.0000 </r>
       <r>  -11.8727    1.0000 </r>
       <r>  -11.8352    1.0000 </r>
       <r>   -5.3343    1.0000 </r>
       <r>   -5.2894    1.0000 </r>
       <r>   -4.9317    1.0000 </r>
       <r>   -4.8953    1.0000 </r>
       <r>   -3.9394    1.0000 </r>
       <r>   -3.7989    1.0000 </r>
       <r>   -3.1731    1.0000 </r>
       <r>   -3.0954    1.0000 </r>
       <r>   -2.2296    1.0000 </r>
       <r>   -2.1275    1.0000 </r>
       <r>   -1.9504    1.0000 </r>
       <r>   -1.7215    1.0000 </r>
       <r>   -0.4248    1.0000 </r>
       <r>   -0.3755    1.0000 </r>
       <r>    2.0770   -0.0000 </r>
       <r>    2.1277   -0.0000 </r>
       <r>    2.7783   -0.0000 </r>
       <r>    2.8724   -0.0000 </r>
       <r>    3.3807    0.0000 </r>
       <r>    3.5480    0.0000 </r>
       <r>    4.2065    0.0000 </r>
       <r>    4.3833    0.0000 </r>
       <r>    6.4014    0.0000 </r>
       <r>    6.8792    0.0000 </r>
       <r>    8.7397    0.0000 </r>
       <r>    9.0718    0.0000 </r>
      </set>
      <set comment="kpoint 28">
       <r>  -35.0868    1.0000 </r>
       <r>  -35.0797    1.0000 </r>
       <r>  -34.9075    1.0000 </r>
       <r>  -34.9005    1.0000 </r>
       <r>  -34.8994    1.0000 </r>
       <r>  -34.8926    1.0000 </r>
       <r>  -12.2578    1.0000 </r>
       <r>  -12.2137    1.0000 </r>
       <r>  -11.9709    1.0000 </r>
       <r>  -11.9229    1.0000 </r>
       <r>   -5.2068    1.0000 </r>
       <r>   -5.1425    1.0000 </r>
       <r>   -4.6251    1.0000 </r>
       <r>   -4.5856    1.0000 </r>
       <r>   -3.8077    1.0000 </r>
       <r>   -3.6447    1.0000 </r>
       <r>   -3.2703    1.0000 </r>
       <r>   -3.1423    1.0000 </r>
       <r>   -2.2153    1.0000 </r>
       <r>   -2.1399    1.0000 </r>
       <r>   -1.6992    1.0000 </r>
       <r>   -1.4759    1.0000 </r>
       <r>   -0.6530    1.0000 </r>
       <r>   -0.6159    1.0000 </r>
       <r>    2.0231   -0.0000 </r>
       <r>    2.2314   -0.0000 </r>
       <r>    2.5238   -0.0000 </r>
       <r>    2.5737   -0.0000 </r>
       <r>    3.1206    0.0000 </r>
       <r>    3.3319    0.0000 </r>
       <r>    4.2515    0.0000 </r>
       <r>    4.4030    0.0000 </r>
       <r>    7.1088    0.0000 </r>
       <r>    7.5245    0.0000 </r>
       <r>    8.2242    0.0000 </r>
       <r>    8.5208    0.0000 </r>
      </set>
      <set comment="kpoint 29">
       <r>  -35.0362    1.0000 </r>
       <r>  -35.0291    1.0000 </r>
       <r>  -34.9201    1.0000 </r>
       <r>  -34.9131    1.0000 </r>
       <r>  -34.8734    1.0000 </r>
       <r>  -34.8666    1.0000 </r>
       <r>  -12.6324    1.0000 </r>
       <r>  -12.5817    1.0000 </r>
       <r>  -12.1292    1.0000 </r>
       <r>  -12.0683    1.0000 </r>
       <r>   -5.0087    1.0000 </r>
       <r>   -4.9024    1.0000 </r>
       <r>   -4.0855    1.0000 </r>
       <r>   -4.0325    1.0000 </r>
       <r>   -3.7897    1.0000 </r>
       <r>   -3.6162    1.0000 </r>
       <r>   -3.3010    1.0000 </r>
       <r>   -3.1409    1.0000 </r>
       <r>   -2.0611    1.0000 </r>
       <r>   -2.0339    1.0000 </r>
       <r>   -1.3716    1.0000 </r>
       <r>   -1.1344    1.0000 </r>
       <r>   -0.8266    1.0000 </r>
       <r>   -0.7868    1.0000 </r>
       <r>    1.7964   -0.0000 </r>
       <r>    2.0641   -0.0000 </r>
       <r>    2.4021   -0.0000 </r>
       <r>    2.4720   -0.0000 </r>
       <r>    2.7802   -0.0000 </r>
       <r>    3.0008   -0.0000 </r>
       <r>    4.1788    0.0000 </r>
       <r>    4.3021    0.0000 </r>
       <r>    7.3649    0.0000 </r>
       <r>    7.6131    0.0000 </r>
       <r>    8.1170    0.0000 </r>
       <r>    8.5553    0.0000 </r>
      </set>
      <set comment="kpoint 30">
       <r>  -34.9734    1.0000 </r>
       <r>  -34.9663    1.0000 </r>
       <r>  -34.9353    1.0000 </r>
       <r>  -34.9283    1.0000 </r>
       <r>  -34.8431    1.0000 </r>
       <r>  -34.8363    1.0000 </r>
       <r>  -13.0385    1.0000 </r>
       <r>  -12.9837    1.0000 </r>
       <r>  -12.3013    1.0000 </r>
       <r>  -12.2285    1.0000 </r>
       <r>   -4.9354    1.0000 </r>
       <r>   -4.7337    1.0000 </r>
       <r>   -3.8100    1.0000 </r>
       <r>   -3.7004    1.0000 </r>
       <r>   -3.5061    1.0000 </r>
       <r>   -3.3783    1.0000 </r>
       <r>   -3.0842    1.0000 </r>
       <r>   -2.9694    1.0000 </r>
       <r>   -1.9297    1.0000 </r>
       <r>   -1.9165    1.0000 </r>
       <r>   -1.1658    1.0000 </r>
       <r>   -0.8933    1.0000 </r>
       <r>   -0.7717    1.0000 </r>
       <r>   -0.6782    1.0000 </r>
       <r>    1.7678   -0.0000 </r>
       <r>    2.0119   -0.0000 </r>
       <r>    2.3308   -0.0000 </r>
       <r>    2.4296   -0.0000 </r>
       <r>    2.5275   -0.0000 </r>
       <r>    2.7342   -0.0000 </r>
       <r>    3.9311    0.0000 </r>
       <r>    4.0147    0.0000 </r>
       <r>    6.6598    0.0000 </r>
       <r>    7.0281    0.0000 </r>
       <r>    7.6722    0.0000 </r>
       <r>    8.5871    0.0000 </r>
      </set>
      <set comment="kpoint 31">
       <r>  -34.9495    1.0000 </r>
       <r>  -34.9426    1.0000 </r>
       <r>  -34.9113    1.0000 </r>
       <r>  -34.9042    1.0000 </r>
       <r>  -34.8168    1.0000 </r>
       <r>  -34.8099    1.0000 </r>
       <r>  -13.3870    1.0000 </r>
       <r>  -13.3302    1.0000 </r>
       <r>  -12.4489    1.0000 </r>
       <r>  -12.3667    1.0000 </r>
       <r>   -5.1107    1.0000 </r>
       <r>   -4.8376    1.0000 </r>
       <r>   -3.5560    1.0000 </r>
       <r>   -3.5150    1.0000 </r>
       <r>   -3.2152    1.0000 </r>
       <r>   -2.9832    1.0000 </r>
       <r>   -2.4507    1.0000 </r>
       <r>   -2.4194    1.0000 </r>
       <r>   -2.0586    1.0000 </r>
       <r>   -2.0505    1.0000 </r>
       <r>   -1.1912    1.0000 </r>
       <r>   -0.8511    1.0000 </r>
       <r>   -0.5374    1.0000 </r>
       <r>   -0.3569    1.0000 </r>
       <r>    1.9566   -0.0000 </r>
       <r>    2.2077   -0.0000 </r>
       <r>    2.4063   -0.0000 </r>
       <r>    2.4405   -0.0000 </r>
       <r>    2.4814   -0.0000 </r>
       <r>    2.6566   -0.0000 </r>
       <r>    3.5503    0.0000 </r>
       <r>    3.5808    0.0000 </r>
       <r>    6.1143    0.0000 </r>
       <r>    6.5355    0.0000 </r>
       <r>    7.1742    0.0000 </r>
       <r>    8.2165    0.0000 </r>
      </set>
      <set comment="kpoint 32">
       <r>  -34.9596    1.0000 </r>
       <r>  -34.9527    1.0000 </r>
       <r>  -34.8632    1.0000 </r>
       <r>  -34.8563    1.0000 </r>
       <r>  -34.8017    1.0000 </r>
       <r>  -34.7947    1.0000 </r>
       <r>  -13.6184    1.0000 </r>
       <r>  -13.5609    1.0000 </r>
       <r>  -12.5467    1.0000 </r>
       <r>  -12.4586    1.0000 </r>
       <r>   -5.3118    1.0000 </r>
       <r>   -5.0207    1.0000 </r>
       <r>   -3.2445    1.0000 </r>
       <r>   -3.2241    1.0000 </r>
       <r>   -2.9428    1.0000 </r>
       <r>   -2.6644    1.0000 </r>
       <r>   -2.2552    1.0000 </r>
       <r>   -2.2478    1.0000 </r>
       <r>   -1.9808    1.0000 </r>
       <r>   -1.9729    1.0000 </r>
       <r>   -1.2808    1.0000 </r>
       <r>   -0.8988    1.0000 </r>
       <r>   -0.3616    1.0000 </r>
       <r>   -0.0883    1.0000 </r>
       <r>    2.1700   -0.0000 </r>
       <r>    2.3859   -0.0000 </r>
       <r>    2.5063   -0.0000 </r>
       <r>    2.5809   -0.0000 </r>
       <r>    2.5929   -0.0000 </r>
       <r>    2.6589   -0.0000 </r>
       <r>    3.2164    0.0000 </r>
       <r>    3.2292    0.0000 </r>
       <r>    5.7756    0.0000 </r>
       <r>    6.2173    0.0000 </r>
       <r>    6.9177    0.0000 </r>
       <r>    7.8539    0.0000 </r>
      </set>
      <set comment="kpoint 33">
       <r>  -34.9633    1.0000 </r>
       <r>  -34.9563    1.0000 </r>
       <r>  -34.8436    1.0000 </r>
       <r>  -34.8368    1.0000 </r>
       <r>  -34.7984    1.0000 </r>
       <r>  -34.7913    1.0000 </r>
       <r>  -13.6991    1.0000 </r>
       <r>  -13.6416    1.0000 </r>
       <r>  -12.5805    1.0000 </r>
       <r>  -12.4908    1.0000 </r>
       <r>   -5.3900    1.0000 </r>
       <r>   -5.0960    1.0000 </r>
       <r>   -3.1048    1.0000 </r>
       <r>   -3.0920    1.0000 </r>
       <r>   -2.7819    1.0000 </r>
       <r>   -2.4630    1.0000 </r>
       <r>   -2.3425    1.0000 </r>
       <r>   -2.3354    1.0000 </r>
       <r>   -1.9608    1.0000 </r>
       <r>   -1.9490    1.0000 </r>
       <r>   -1.1971    1.0000 </r>
       <r>   -0.8539    1.0000 </r>
       <r>   -0.3038    1.0000 </r>
       <r>    0.0030    1.0003 </r>
       <r>    2.2946   -0.0000 </r>
       <r>    2.4416   -0.0000 </r>
       <r>    2.4723   -0.0000 </r>
       <r>    2.5811   -0.0000 </r>
       <r>    2.6404   -0.0000 </r>
       <r>    2.6631   -0.0000 </r>
       <r>    3.1473    0.0000 </r>
       <r>    3.1615    0.0000 </r>
       <r>    5.6617    0.0000 </r>
       <r>    6.1099    0.0000 </r>
       <r>    6.9424    0.0000 </r>
       <r>    7.6123    0.0000 </r>
      </set>
      <set comment="kpoint 34">
       <r>  -34.9449    1.0000 </r>
       <r>  -34.9432    1.0000 </r>
       <r>  -34.9379    1.0000 </r>
       <r>  -34.9364    1.0000 </r>
       <r>  -34.8206    1.0000 </r>
       <r>  -34.8135    1.0000 </r>
       <r>  -13.2427    1.0000 </r>
       <r>  -13.1879    1.0000 </r>
       <r>  -12.3882    1.0000 </r>
       <r>  -12.3119    1.0000 </r>
       <r>   -5.0462    1.0000 </r>
       <r>   -4.8053    1.0000 </r>
       <r>   -3.7123    1.0000 </r>
       <r>   -3.6508    1.0000 </r>
       <r>   -3.4709    1.0000 </r>
       <r>   -3.2842    1.0000 </r>
       <r>   -2.3771    1.0000 </r>
       <r>   -2.3665    1.0000 </r>
       <r>   -1.8869    1.0000 </r>
       <r>   -1.8771    1.0000 </r>
       <r>   -1.4360    1.0000 </r>
       <r>   -1.1017    1.0000 </r>
       <r>   -0.6756    1.0000 </r>
       <r>   -0.5567    1.0000 </r>
       <r>    1.9618   -0.0000 </r>
       <r>    2.2595   -0.0000 </r>
       <r>    2.3233   -0.0000 </r>
       <r>    2.3505   -0.0000 </r>
       <r>    2.7096   -0.0000 </r>
       <r>    2.9244   -0.0000 </r>
       <r>    3.5908    0.0000 </r>
       <r>    3.6223    0.0000 </r>
       <r>    6.3230    0.0000 </r>
       <r>    6.7081    0.0000 </r>
       <r>    7.3292    0.0000 </r>
       <r>    8.1481    0.0000 </r>
      </set>
      <set comment="kpoint 35">
       <r>  -34.9914    1.0000 </r>
       <r>  -34.9846    1.0000 </r>
       <r>  -34.9329    1.0000 </r>
       <r>  -34.9260    1.0000 </r>
       <r>  -34.8393    1.0000 </r>
       <r>  -34.8323    1.0000 </r>
       <r>  -12.9761    1.0000 </r>
       <r>  -12.9239    1.0000 </r>
       <r>  -12.2756    1.0000 </r>
       <r>  -12.2078    1.0000 </r>
       <r>   -4.9835    1.0000 </r>
       <r>   -4.8092    1.0000 </r>
       <r>   -3.8635    1.0000 </r>
       <r>   -3.7501    1.0000 </r>
       <r>   -3.6970    1.0000 </r>
       <r>   -3.5759    1.0000 </r>
       <r>   -2.8458    1.0000 </r>
       <r>   -2.7805    1.0000 </r>
       <r>   -1.7793    1.0000 </r>
       <r>   -1.7624    1.0000 </r>
       <r>   -1.3818    1.0000 </r>
       <r>   -1.1153    1.0000 </r>
       <r>   -0.8371    1.0000 </r>
       <r>   -0.7608    1.0000 </r>
       <r>    1.8642   -0.0000 </r>
       <r>    2.0862   -0.0000 </r>
       <r>    2.2895   -0.0000 </r>
       <r>    2.3954   -0.0000 </r>
       <r>    2.7645   -0.0000 </r>
       <r>    2.9698   -0.0000 </r>
       <r>    3.8860    0.0000 </r>
       <r>    3.9608    0.0000 </r>
       <r>    6.7513    0.0000 </r>
       <r>    7.0831    0.0000 </r>
       <r>    7.8116    0.0000 </r>
       <r>    8.4194    0.0000 </r>
      </set>
      <set comment="kpoint 36">
       <r>  -35.0360    1.0000 </r>
       <r>  -35.0292    1.0000 </r>
       <r>  -34.9201    1.0000 </r>
       <r>  -34.9131    1.0000 </r>
       <r>  -34.8736    1.0000 </r>
       <r>  -34.8666    1.0000 </r>
       <r>  -12.6308    1.0000 </r>
       <r>  -12.5830    1.0000 </r>
       <r>  -12.1274    1.0000 </r>
       <r>  -12.0705    1.0000 </r>
       <r>   -5.0094    1.0000 </r>
       <r>   -4.9022    1.0000 </r>
       <r>   -4.0846    1.0000 </r>
       <r>   -4.0356    1.0000 </r>
       <r>   -3.7793    1.0000 </r>
       <r>   -3.6228    1.0000 </r>
[...]
       <r>    -2.1307     2.0972    18.5820 </r>
       <r>    -1.9684     3.9408    19.2216 </r>
       <r>    -1.8061     2.9566    19.7015 </r>
       <r>    -1.6438     3.6369    20.2918 </r>
       <r>    -1.4815     2.5104    20.6993 </r>
       <r>    -1.3192     3.4635    21.2614 </r>
       <r>    -1.1569     1.4425    21.4955 </r>
       <r>    -0.9945     1.8329    21.7931 </r>
       <r>    -0.8322     2.6635    22.2254 </r>
       <r>    -0.6699     3.3421    22.7678 </r>
       <r>    -0.5076     2.6179    23.1927 </r>
       <r>    -0.3453     2.4820    23.5956 </r>
       <r>    -0.1830     1.2861    23.8043 </r>
       <r>    -0.0207     0.8177    23.9370 </r>
       <r>     0.1416     0.1944    23.9686 </r>
       <r>     0.3039     0.1977    24.0007 </r>
       <r>     0.4663    -0.0041    24.0000 </r>
       <r>     0.6286    -0.0002    24.0000 </r>
       <r>     0.7909    -0.0000    24.0000 </r>
       <r>     0.9532    -0.0000    24.0000 </r>
       <r>     1.1155    -0.0000    24.0000 </r>
       <r>     1.2778    -0.0000    24.0000 </r>
       <r>     1.4401    -0.0003    24.0000 </r>
       <r>     1.6024    -0.0196    23.9968 </r>
       <r>     1.7647     0.5997    24.0941 </r>
       <r>     1.9270     1.6522    24.3623 </r>
       <r>     2.0894     3.9610    25.0052 </r>
       <r>     2.2517     4.8617    25.7943 </r>
       <r>     2.4140     3.8272    26.4155 </r>
       <r>     2.5763     5.2376    27.2656 </r>
       <r>     2.7386     4.2213    27.9508 </r>
       <r>     2.9009     3.1549    28.4629 </r>
       <r>     3.0632     2.6310    28.8899 </r>
       <r>     3.2255     2.8674    29.3553 </r>
       <r>     3.3878     1.9337    29.6692 </r>
       <r>     3.5501     1.7966    29.9608 </r>
       <r>     3.7125     1.6357    30.2263 </r>
       <r>     3.8748     1.1533    30.4135 </r>
       <r>     4.0371     2.1469    30.7619 </r>
       <r>     4.1994     2.8353    31.2221 </r>
       <r>     4.3617     2.0220    31.5503 </r>
       <r>     4.5240     1.4919    31.7924 </r>
       <r>     4.6863     0.8569    31.9315 </r>
       <r>     4.8486     0.3906    31.9949 </r>
       <r>     5.0109     0.0327    32.0003 </r>
       <r>     5.1733    -0.0031    31.9997 </r>
       <r>     5.3356     0.0302    32.0046 </r>
       <r>     5.4979     0.2174    32.0399 </r>
       <r>     5.6602     0.1101    32.0578 </r>
       <r>     5.8225     0.3788    32.1193 </r>
       <r>     5.9848     0.3276    32.1725 </r>
       <r>     6.1471     0.8298    32.3071 </r>
       <r>     6.3094     0.6221    32.4081 </r>
       <r>     6.4717     0.8381    32.5441 </r>
       <r>     6.6340     1.3077    32.7564 </r>
       <r>     6.7964     0.9859    32.9164 </r>
       <r>     6.9587     1.6486    33.1840 </r>
       <r>     7.1210     1.9986    33.5084 </r>
       <r>     7.2833     1.1437    33.6941 </r>
       <r>     7.4456     1.5663    33.9483 </r>
       <r>     7.6079     1.6949    34.2234 </r>
       <r>     7.7702     1.6925    34.4981 </r>
       <r>     7.9325     0.9681    34.6552 </r>
       <r>     8.0948     1.1558    34.8428 </r>
       <r>     8.2571     2.7101    35.2827 </r>
       <r>     8.4195     1.4335    35.5154 </r>
       <r>     8.5818     1.1374    35.7000 </r>
       <r>     8.7441     0.9756    35.8583 </r>
       <r>     8.9064     0.6105    35.9574 </r>
       <r>     9.0687     0.2223    35.9935 </r>
       <r>     9.2310     0.0420    36.0003 </r>
       <r>     9.3933    -0.0020    36.0000 </r>
       <r>     9.5556    -0.0000    36.0000 </r>
       <r>     9.7179    -0.0000    36.0000 </r>
       <r>     9.8803     0.0000    36.0000 </r>
       <r>    10.0426     0.0000    36.0000 </r>
       <r>    10.2049     0.0000    36.0000 </r>
       <r>    10.3672     0.0000    36.0000 </r>
       <r>    10.5295     0.0000    36.0000 </r>
       <r>    10.6918     0.0000    36.0000 </r>
       <r>    10.8541     0.0000    36.0000 </r>
       <r>    11.0164     0.0000    36.0000 </r>
       <r>    11.1787     0.0000    36.0000 </r>
       <r>    11.3410     0.0000    36.0000 </r>
      </set>
      <set comment="spin 2">
       <r>   -37.3521     0.0000     0.0000 </r>
       <r>   -37.1898     0.0000     0.0000 </r>
       <r>   -37.0274     0.0000     0.0000 </r>
       <r>   -36.8651     0.0000     0.0000 </r>
       <r>   -36.7028     0.0000     0.0000 </r>
       <r>   -36.5405     0.0000     0.0000 </r>
       <r>   -36.3782     0.0000     0.0000 </r>
       <r>   -36.2159     0.0000     0.0000 </r>
       <r>   -36.0536    -0.0000    -0.0000 </r>
       <r>   -35.8913    -0.0000    -0.0000 </r>
       <r>   -35.7290    -0.0000    -0.0000 </r>
       <r>   -35.5667    -0.0000    -0.0000 </r>
       <r>   -35.4043    -0.0007    -0.0001 </r>
       <r>   -35.2420    -0.1834    -0.0299 </r>
       <r>   -35.0797     4.0160     0.6220 </r>
       <r>   -34.9174    15.0810     3.0698 </r>
       <r>   -34.7551    18.0301     5.9962 </r>
       <r>   -34.5928     0.0511     6.0045 </r>
       <r>   -34.4305    -0.0278     6.0000 </r>
       <r>   -34.2682    -0.0000     6.0000 </r>
       <r>   -34.1059    -0.0000     6.0000 </r>
       <r>   -33.9435     0.0000     6.0000 </r>
       <r>   -33.7812     0.0000     6.0000 </r>
       <r>   -33.6189     0.0000     6.0000 </r>
       <r>   -33.4566     0.0000     6.0000 </r>
       <r>   -33.2943     0.0000     6.0000 </r>
       <r>   -33.1320     0.0000     6.0000 </r>
       <r>   -32.9697     0.0000     6.0000 </r>
       <r>   -32.8074     0.0000     6.0000 </r>
       <r>   -32.6451     0.0000     6.0000 </r>
       <r>   -32.4828     0.0000     6.0000 </r>
       <r>   -32.3204     0.0000     6.0000 </r>
       <r>   -32.1581     0.0000     6.0000 </r>
       <r>   -31.9958     0.0000     6.0000 </r>
       <r>   -31.8335     0.0000     6.0000 </r>
       <r>   -31.6712     0.0000     6.0000 </r>
       <r>   -31.5089     0.0000     6.0000 </r>
       <r>   -31.3466     0.0000     6.0000 </r>
       <r>   -31.1843     0.0000     6.0000 </r>
       <r>   -31.0220     0.0000     6.0000 </r>
       <r>   -30.8596     0.0000     6.0000 </r>
       <r>   -30.6973     0.0000     6.0000 </r>
       <r>   -30.5350     0.0000     6.0000 </r>
       <r>   -30.3727     0.0000     6.0000 </r>
       <r>   -30.2104     0.0000     6.0000 </r>
       <r>   -30.0481     0.0000     6.0000 </r>
       <r>   -29.8858     0.0000     6.0000 </r>
       <r>   -29.7235     0.0000     6.0000 </r>
       <r>   -29.5612     0.0000     6.0000 </r>
       <r>   -29.3989     0.0000     6.0000 </r>
       <r>   -29.2365     0.0000     6.0000 </r>
       <r>   -29.0742     0.0000     6.0000 </r>
       <r>   -28.9119     0.0000     6.0000 </r>
       <r>   -28.7496     0.0000     6.0000 </r>
       <r>   -28.5873     0.0000     6.0000 </r>
       <r>   -28.4250     0.0000     6.0000 </r>
       <r>   -28.2627     0.0000     6.0000 </r>
       <r>   -28.1004     0.0000     6.0000 </r>
       <r>   -27.9381     0.0000     6.0000 </r>
       <r>   -27.7758     0.0000     6.0000 </r>
       <r>   -27.6134     0.0000     6.0000 </r>
       <r>   -27.4511     0.0000     6.0000 </r>
       <r>   -27.2888     0.0000     6.0000 </r>
       <r>   -27.1265     0.0000     6.0000 </r>
       <r>   -26.9642     0.0000     6.0000 </r>
       <r>   -26.8019     0.0000     6.0000 </r>
       <r>   -26.6396     0.0000     6.0000 </r>
       <r>   -26.4773     0.0000     6.0000 </r>
       <r>   -26.3150     0.0000     6.0000 </r>
       <r>   -26.1526     0.0000     6.0000 </r>
       <r>   -25.9903     0.0000     6.0000 </r>
       <r>   -25.8280     0.0000     6.0000 </r>
       <r>   -25.6657     0.0000     6.0000 </r>
       <r>   -25.5034     0.0000     6.0000 </r>
       <r>   -25.3411     0.0000     6.0000 </r>
       <r>   -25.1788     0.0000     6.0000 </r>
       <r>   -25.0165     0.0000     6.0000 </r>
       <r>   -24.8542     0.0000     6.0000 </r>
       <r>   -24.6919     0.0000     6.0000 </r>
       <r>   -24.5295     0.0000     6.0000 </r>
       <r>   -24.3672     0.0000     6.0000 </r>
       <r>   -24.2049     0.0000     6.0000 </r>
       <r>   -24.0426     0.0000     6.0000 </r>
       <r>   -23.8803     0.0000     6.0000 </r>
       <r>   -23.7180     0.0000     6.0000 </r>
       <r>   -23.5557     0.0000     6.0000 </r>
       <r>   -23.3934     0.0000     6.0000 </r>
       <r>   -23.2311     0.0000     6.0000 </r>
       <r>   -23.0688     0.0000     6.0000 </r>
       <r>   -22.9064     0.0000     6.0000 </r>
       <r>   -22.7441     0.0000     6.0000 </r>
       <r>   -22.5818     0.0000     6.0000 </r>
       <r>   -22.4195     0.0000     6.0000 </r>
       <r>   -22.2572     0.0000     6.0000 </r>
       <r>   -22.0949     0.0000     6.0000 </r>
       <r>   -21.9326     0.0000     6.0000 </r>
       <r>   -21.7703     0.0000     6.0000 </r>
       <r>   -21.6080     0.0000     6.0000 </r>
       <r>   -21.4456     0.0000     6.0000 </r>
       <r>   -21.2833     0.0000     6.0000 </r>
       <r>   -21.1210     0.0000     6.0000 </r>
       <r>   -20.9587     0.0000     6.0000 </r>
       <r>   -20.7964     0.0000     6.0000 </r>
       <r>   -20.6341     0.0000     6.0000 </r>
       <r>   -20.4718     0.0000     6.0000 </r>
       <r>   -20.3095     0.0000     6.0000 </r>
       <r>   -20.1472     0.0000     6.0000 </r>
       <r>   -19.9849     0.0000     6.0000 </r>
       <r>   -19.8225     0.0000     6.0000 </r>
       <r>   -19.6602     0.0000     6.0000 </r>
       <r>   -19.4979     0.0000     6.0000 </r>
       <r>   -19.3356     0.0000     6.0000 </r>
       <r>   -19.1733     0.0000     6.0000 </r>
       <r>   -19.0110     0.0000     6.0000 </r>
       <r>   -18.8487     0.0000     6.0000 </r>
       <r>   -18.6864     0.0000     6.0000 </r>
       <r>   -18.5241     0.0000     6.0000 </r>
       <r>   -18.3618     0.0000     6.0000 </r>
       <r>   -18.1994     0.0000     6.0000 </r>
       <r>   -18.0371     0.0000     6.0000 </r>
       <r>   -17.8748     0.0000     6.0000 </r>
       <r>   -17.7125     0.0000     6.0000 </r>
       <r>   -17.5502     0.0000     6.0000 </r>
       <r>   -17.3879     0.0000     6.0000 </r>
       <r>   -17.2256     0.0000     6.0000 </r>
       <r>   -17.0633     0.0000     6.0000 </r>
       <r>   -16.9010     0.0000     6.0000 </r>
       <r>   -16.7386     0.0000     6.0000 </r>
       <r>   -16.5763     0.0000     6.0000 </r>
       <r>   -16.4140     0.0000     6.0000 </r>
       <r>   -16.2517     0.0000     6.0000 </r>
       <r>   -16.0894     0.0000     6.0000 </r>
       <r>   -15.9271     0.0000     6.0000 </r>
       <r>   -15.7648     0.0000     6.0000 </r>
       <r>   -15.6025     0.0000     6.0000 </r>
       <r>   -15.4402     0.0000     6.0000 </r>
       <r>   -15.2779     0.0000     6.0000 </r>
       <r>   -15.1155     0.0000     6.0000 </r>
       <r>   -14.9532     0.0000     6.0000 </r>
       <r>   -14.7909    -0.0000     6.0000 </r>
       <r>   -14.6286    -0.0000     6.0000 </r>
       <r>   -14.4663    -0.0000     6.0000 </r>
       <r>   -14.3040    -0.0000     6.0000 </r>
       <r>   -14.1417    -0.0006     5.9999 </r>
       <r>   -13.9794    -0.0004     5.9999 </r>
       <r>   -13.8171     0.3468     6.0561 </r>
       <r>   -13.6548     0.4839     6.1347 </r>
       <r>   -13.4924     0.5381     6.2220 </r>
       <r>   -13.3301     0.6277     6.3239 </r>
       <r>   -13.1678     0.6202     6.4246 </r>
       <r>   -13.0055     0.4421     6.4963 </r>
       <r>   -12.8432     1.0043     6.6593 </r>
       <r>   -12.6809     0.4685     6.7354 </r>
       <r>   -12.5186     2.1417     7.0830 </r>
       <r>   -12.3563     2.0731     7.4195 </r>
       <r>   -12.1940     3.2937     7.9541 </r>
       <r>   -12.0316     4.0382     8.6095 </r>
       <r>   -11.8693     5.7424     9.5416 </r>
       <r>   -11.7070     2.8409    10.0027 </r>
       <r>   -11.5447    -0.0128    10.0006 </r>
       <r>   -11.3824    -0.0038    10.0000 </r>
       <r>   -11.2201    -0.0000    10.0000 </r>
       <r>   -11.0578    -0.0000    10.0000 </r>
       <r>   -10.8955     0.0000    10.0000 </r>
       <r>   -10.7332     0.0000    10.0000 </r>
       <r>   -10.5709     0.0000    10.0000 </r>
       <r>   -10.4085     0.0000    10.0000 </r>
       <r>   -10.2462     0.0000    10.0000 </r>
       <r>   -10.0839     0.0000    10.0000 </r>
       <r>    -9.9216     0.0000    10.0000 </r>
       <r>    -9.7593     0.0000    10.0000 </r>
       <r>    -9.5970     0.0000    10.0000 </r>
       <r>    -9.4347     0.0000    10.0000 </r>
       <r>    -9.2724     0.0000    10.0000 </r>
       <r>    -9.1101     0.0000    10.0000 </r>
       <r>    -8.9478     0.0000    10.0000 </r>
       <r>    -8.7854     0.0000    10.0000 </r>
       <r>    -8.6231     0.0000    10.0000 </r>
       <r>    -8.4608     0.0000    10.0000 </r>
       <r>    -8.2985     0.0000    10.0000 </r>
       <r>    -8.1362     0.0000    10.0000 </r>
       <r>    -7.9739     0.0000    10.0000 </r>
       <r>    -7.8116     0.0000    10.0000 </r>
       <r>    -7.6493     0.0000    10.0000 </r>
       <r>    -7.4870     0.0000    10.0000 </r>
       <r>    -7.3246     0.0000    10.0000 </r>
       <r>    -7.1623     0.0000    10.0000 </r>
       <r>    -7.0000     0.0000    10.0000 </r>
       <r>    -6.8377     0.0000    10.0000 </r>
       <r>    -6.6754     0.0000    10.0000 </r>
       <r>    -6.5131    -0.0000    10.0000 </r>
       <r>    -6.3508    -0.0000    10.0000 </r>
       <r>    -6.1885    -0.0000    10.0000 </r>
       <r>    -6.0262    -0.0000    10.0000 </r>
       <r>    -5.8639    -0.0019     9.9997 </r>
       <r>    -5.7015     0.0135    10.0019 </r>
       <r>    -5.5392     0.9574    10.1573 </r>
       <r>    -5.3769     1.4304    10.3895 </r>
       <r>    -5.2146     2.3872    10.7769 </r>
       <r>    -5.0523     3.3391    11.3189 </r>
       <r>    -4.8900     4.6720    12.0772 </r>
       <r>    -4.7277     2.0899    12.4164 </r>
       <r>    -4.5654     2.6961    12.8540 </r>
       <r>    -4.4031     0.6695    12.9627 </r>
       <r>    -4.2408     0.5715    13.0555 </r>
       <r>    -4.0784     0.9542    13.2103 </r>
       <r>    -3.9161     2.4253    13.6040 </r>
       <r>    -3.7538     4.6757    14.3629 </r>
       <r>    -3.5915     3.9218    14.9994 </r>
       <r>    -3.4292     2.2851    15.3703 </r>
       <r>    -3.2669     1.4125    15.5996 </r>
       <r>    -3.1046     4.7231    16.3662 </r>
       <r>    -2.9423     4.6659    17.1235 </r>
       <r>    -2.7800     2.5231    17.5330 </r>
       <r>    -2.6176     1.2280    17.7324 </r>
       <r>    -2.4553     1.3776    17.9560 </r>
       <r>    -2.2930     1.7572    18.2412 </r>
       <r>    -2.1307     2.1028    18.5825 </r>
       <r>    -1.9684     3.9400    19.2220 </r>
       <r>    -1.8061     2.9544    19.7015 </r>
       <r>    -1.6438     3.6467    20.2934 </r>
       <r>    -1.4815     2.5039    20.6998 </r>
       <r>    -1.3192     3.4610    21.2616 </r>
       <r>    -1.1569     1.4456    21.4962 </r>
       <r>    -0.9945     1.8334    21.7938 </r>
       <r>    -0.8322     2.6616    22.2258 </r>
       <r>    -0.6699     3.3309    22.7664 </r>
       <r>    -0.5076     2.6240    23.1923 </r>
       <r>    -0.3453     2.4780    23.5945 </r>
       <r>    -0.1830     1.2906    23.8040 </r>
       <r>    -0.0207     0.8177    23.9367 </r>
       <r>     0.1416     0.1955    23.9685 </r>
       <r>     0.3039     0.1985    24.0007 </r>
       <r>     0.4663    -0.0041    24.0000 </r>
       <r>     0.6286    -0.0002    24.0000 </r>
       <r>     0.7909    -0.0000    24.0000 </r>
       <r>     0.9532    -0.0000    24.0000 </r>
       <r>     1.1155    -0.0000    24.0000 </r>
       <r>     1.2778    -0.0000    24.0000 </r>
       <r>     1.4401    -0.0003    24.0000 </r>
       <r>     1.6024    -0.0198    23.9967 </r>
       <r>     1.7647     0.5926    24.0929 </r>
       <r>     1.9270     1.6462    24.3601 </r>
       <r>     2.0894     3.9585    25.0026 </r>
       <r>     2.2517     4.8749    25.7939 </r>
       <r>     2.4140     3.8324    26.4159 </r>
       <r>     2.5763     5.2189    27.2630 </r>
       <r>     2.7386     4.2301    27.9496 </r>
       <r>     2.9009     3.1539    28.4615 </r>
       <r>     3.0632     2.6356    28.8893 </r>
       <r>     3.2255     2.8674    29.3547 </r>
       <r>     3.3878     1.9349    29.6687 </r>
       <r>     3.5501     1.7945    29.9600 </r>
       <r>     3.7125     1.6400    30.2262 </r>
       <r>     3.8748     1.1497    30.4128 </r>
       <r>     4.0371     2.1479    30.7614 </r>
       <r>     4.1994     2.8323    31.2211 </r>
       <r>     4.3617     2.0282    31.5503 </r>
       <r>     4.5240     1.4900    31.7922 </r>
       <r>     4.6863     0.8580    31.9314 </r>
       <r>     4.8486     0.3909    31.9949 </r>
       <r>     5.0109     0.0331    32.0003 </r>
       <r>     5.1733    -0.0016    32.0000 </r>
       <r>     5.3356    -0.0006    31.9999 </r>
       <r>     5.4979     0.0679    32.0109 </r>
       <r>     5.6602     0.1866    32.0412 </r>
       <r>     5.8225     0.2216    32.0772 </r>
       <r>     5.9848     0.5987    32.1743 </r>
       <r>     6.1471     0.4378    32.2454 </r>
       <r>     6.3094     0.8812    32.3884 </r>
       <r>     6.4717     0.9648    32.5450 </r>
       <r>     6.6340     1.2259    32.7440 </r>
       <r>     6.7964     0.7634    32.8679 </r>
       <r>     6.9587     2.0407    33.1991 </r>
       <r>     7.1210     1.7293    33.4798 </r>
       <r>     7.2833     1.0947    33.6575 </r>
       <r>     7.4456     1.5600    33.9107 </r>
       <r>     7.6079     1.8170    34.2056 </r>
       <r>     7.7702     1.6612    34.4753 </r>
       <r>     7.9325     1.0021    34.6379 </r>
       <r>     8.0948     0.9836    34.7976 </r>
       <r>     8.2571     2.6300    35.2244 </r>
       <r>     8.4195     1.9825    35.5462 </r>
       <r>     8.5818     0.9501    35.7004 </r>
       <r>     8.7441     0.5470    35.7892 </r>
       <r>     8.9064     0.9170    35.9381 </r>
       <r>     9.0687     0.3280    35.9913 </r>
       <r>     9.2310     0.0558    36.0003 </r>
       <r>     9.3933    -0.0021    36.0000 </r>
       <r>     9.5556    -0.0000    36.0000 </r>
       <r>     9.7179    -0.0000    36.0000 </r>
       <r>     9.8803    -0.0000    36.0000 </r>
       <r>    10.0426     0.0000    36.0000 </r>
       <r>    10.2049     0.0000    36.0000 </r>
       <r>    10.3672     0.0000    36.0000 </r>
       <r>    10.5295     0.0000    36.0000 </r>
       <r>    10.6918     0.0000    36.0000 </r>
       <r>    10.8541     0.0000    36.0000 </r>
       <r>    11.0164     0.0000    36.0000 </r>
       <r>    11.1787     0.0000    36.0000 </r>
       <r>    11.3410     0.0000    36.0000 </r>
      </set>
     </set>
    </array>
   </total>
  </dos>
 </calculation>
 <structure name="finalpos" >
  <crystal>
   <varray name="basis" >
    <v>       3.19031700       0.00000000       0.00000000 </v>
    <v>      -1.59515800       2.76289700       0.00000000 </v>
    <v>       0.00000000       0.00000000      23.14049200 </v>
   </varray>
   <i name="volume">    203.97226633 </i>
   <varray name="rec_basis" >
    <v>       0.31344848       0.18096941       0.00000000 </v>
    <v>       0.00000000       0.36193894       0.00000000 </v>
    <v>       0.00000000       0.00000000       0.04321429 </v>
   </varray>
  </crystal>
  <varray name="positions" >
   <v>       0.66666700       0.33333300       0.06785900 </v>
   <v>       0.33333300       0.66666700       0.00000000 </v>
   <v>       0.33333300       0.66666700       0.13571500 </v>
   <v>       0.38095271       0.04761871       0.35482300 </v>
   <v>       0.04761871       0.38095271       0.28696500 </v>
   <v>       0.04761871       0.38095271       0.42267900 </v>
  </varray>
 </structure>
</modeling>
