  24  24   0   0
  0.4176334E+02  0.3540400E-09  0.1044544E-08  0.2750143E-08  0.5000000E-15
  1.000000000000000E-004
  CAR 
 unknown system                          
      4.24029242    -15.27762173  301     -0.07152744      1.00000000
    -15.278  0.0000E+00  0.0000E+00
    -15.213  0.0000E+00  0.0000E+00
    -15.148  0.0000E+00  0.0000E+00
    -15.082  0.0000E+00  0.0000E+00
    -15.017  0.0000E+00  0.0000E+00
    -14.952  0.0000E+00  0.0000E+00
    -14.887  0.0000E+00  0.0000E+00
    -14.822  0.8664E-14  0.5637E-15
    -14.757  0.8160E-11  0.5315E-12
    -14.692  0.3353E-08  0.2187E-09
    -14.627  0.6075E-06  0.3974E-07
    -14.562  0.4904E-04  0.3230E-05
    -14.497  0.1793E-02  0.1199E-03
    -14.432  0.3041E-01  0.2098E-02
    -14.367  0.2477E+00  0.1821E-01
    -14.302  0.1006E+01  0.8364E-01
    -14.237  0.2099E+01  0.2202E+00
    -14.172  0.2355E+01  0.3734E+00
    -14.107  0.1859E+01  0.4944E+00
    -14.041  0.1814E+01  0.6123E+00
    -13.976  0.1561E+01  0.7139E+00
    -13.911  0.7720E+00  0.7641E+00
    -13.846  0.6066E+00  0.8036E+00
    -13.781  0.1309E+01  0.8888E+00
    -13.716  0.1670E+01  0.9974E+00
    -13.651  0.1104E+01  0.1069E+01
    -13.586  0.8622E+00  0.1125E+01
    -13.521  0.1545E+01  0.1226E+01
    -13.456  0.2603E+01  0.1395E+01
    -13.391  0.3473E+01  0.1621E+01
    -13.326  0.3439E+01  0.1845E+01
    -13.261  0.2530E+01  0.2010E+01
    -13.196  0.1791E+01  0.2126E+01
    -13.131  0.1519E+01  0.2225E+01
    -13.066  0.1939E+01  0.2351E+01
    -13.001  0.3412E+01  0.2573E+01
    -12.935  0.4789E+01  0.2885E+01
    -12.870  0.4628E+01  0.3186E+01
    -12.805  0.3902E+01  0.3440E+01
    -12.740  0.3799E+01  0.3687E+01
    -12.675  0.4430E+01  0.3975E+01
    -12.610  0.6050E+01  0.4369E+01
    -12.545  0.7296E+01  0.4843E+01
    -12.480  0.6734E+01  0.5281E+01
    -12.415  0.5916E+01  0.5666E+01
    -12.350  0.6423E+01  0.6084E+01
    -12.285  0.6616E+01  0.6515E+01
    -12.220  0.5545E+01  0.6876E+01
    -12.155  0.4765E+01  0.7186E+01
    -12.090  0.4953E+01  0.7508E+01
    -12.025  0.5873E+01  0.7890E+01
    -11.960  0.6677E+01  0.8324E+01
    -11.895  0.6880E+01  0.8772E+01
    -11.829  0.6357E+01  0.9185E+01
    -11.764  0.5881E+01  0.9568E+01
    -11.699  0.6486E+01  0.9990E+01
    -11.634  0.8123E+01  0.1052E+02
    -11.569  0.1000E+02  0.1117E+02
    -11.504  0.1080E+02  0.1187E+02
    -11.439  0.9967E+01  0.1252E+02
    -11.374  0.9042E+01  0.1311E+02
    -11.309  0.9836E+01  0.1375E+02
    -11.244  0.1070E+02  0.1444E+02
    -11.179  0.9678E+01  0.1507E+02
    -11.114  0.8606E+01  0.1563E+02
    -11.049  0.1001E+02  0.1629E+02
    -10.984  0.1175E+02  0.1705E+02
    -10.919  0.1072E+02  0.1775E+02
    -10.854  0.9837E+01  0.1839E+02
    -10.789  0.1065E+02  0.1908E+02
    -10.723  0.1063E+02  0.1977E+02
    -10.658  0.1022E+02  0.2044E+02
    -10.593  0.9115E+01  0.2103E+02
    -10.528  0.6649E+01  0.2146E+02
    -10.463  0.5680E+01  0.2183E+02
    -10.398  0.5545E+01  0.2219E+02
    -10.333  0.4379E+01  0.2248E+02
    -10.268  0.3148E+01  0.2268E+02
    -10.203  0.3014E+01  0.2288E+02
    -10.138  0.4345E+01  0.2316E+02
    -10.073  0.5782E+01  0.2354E+02
    -10.008  0.4687E+01  0.2384E+02
     -9.943  0.1972E+01  0.2397E+02
     -9.878  0.4065E+00  0.2400E+02
     -9.813  0.3994E-01  0.2400E+02
     -9.748  0.1838E-02  0.2400E+02
     -9.682  0.3901E-04  0.2400E+02
     -9.617  0.3772E-06  0.2400E+02
     -9.552  0.2204E-08  0.2400E+02
     -9.487  0.1111E-06  0.2400E+02
     -9.422  0.9837E-05  0.2400E+02
     -9.357  0.3958E-03  0.2400E+02
     -9.292  0.7396E-02  0.2400E+02
     -9.227  0.6635E-01  0.2400E+02
     -9.162  0.3041E+00  0.2402E+02
     -9.097  0.8178E+00  0.2408E+02
     -9.032  0.1616E+01  0.2418E+02
     -8.967  0.2671E+01  0.2436E+02
     -8.902  0.3899E+01  0.2461E+02
     -8.837  0.5868E+01  0.2499E+02
     -8.772  0.8276E+01  0.2553E+02
     -8.707  0.8737E+01  0.2610E+02
     -8.642  0.6903E+01  0.2655E+02
     -8.576  0.5163E+01  0.2688E+02
     -8.511  0.5101E+01  0.2722E+02
     -8.446  0.5924E+01  0.2760E+02
     -8.381  0.5724E+01  0.2797E+02
     -8.316  0.4247E+01  0.2825E+02
     -8.251  0.2858E+01  0.2844E+02
     -8.186  0.2802E+01  0.2862E+02
     -8.121  0.3790E+01  0.2886E+02
     -8.056  0.4372E+01  0.2915E+02
     -7.991  0.4046E+01  0.2941E+02
     -7.926  0.3836E+01  0.2966E+02
     -7.861  0.4497E+01  0.2995E+02
     -7.796  0.5743E+01  0.3033E+02
     -7.731  0.6693E+01  0.3076E+02
     -7.666  0.6781E+01  0.3121E+02
     -7.601  0.6733E+01  0.3164E+02
     -7.536  0.6980E+01  0.3210E+02
     -7.470  0.7322E+01  0.3257E+02
     -7.405  0.8264E+01  0.3311E+02
     -7.340  0.9362E+01  0.3372E+02
     -7.275  0.9109E+01  0.3431E+02
     -7.210  0.7354E+01  0.3479E+02
     -7.145  0.5753E+01  0.3517E+02
     -7.080  0.5120E+01  0.3550E+02
     -7.015  0.5407E+01  0.3585E+02
     -6.950  0.6128E+01  0.3625E+02
     -6.885  0.6703E+01  0.3669E+02
     -6.820  0.8068E+01  0.3721E+02
     -6.755  0.1135E+02  0.3795E+02
     -6.690  0.1450E+02  0.3889E+02
     -6.625  0.1386E+02  0.3979E+02
     -6.560  0.1069E+02  0.4049E+02
     -6.495  0.8995E+01  0.4107E+02
     -6.430  0.8583E+01  0.4163E+02
     -6.364  0.7314E+01  0.4211E+02
     -6.299  0.5539E+01  0.4247E+02
     -6.234  0.4339E+01  0.4275E+02
     -6.169  0.3279E+01  0.4296E+02
     -6.104  0.2397E+01  0.4312E+02
     -6.039  0.2750E+01  0.4330E+02
     -5.974  0.3869E+01  0.4355E+02
     -5.909  0.4643E+01  0.4385E+02
     -5.844  0.5647E+01  0.4422E+02
     -5.779  0.7094E+01  0.4468E+02
     -5.714  0.7432E+01  0.4517E+02
     -5.649  0.5818E+01  0.4554E+02
     -5.584  0.3413E+01  0.4577E+02
     -5.519  0.2140E+01  0.4591E+02
     -5.454  0.2720E+01  0.4608E+02
     -5.389  0.4012E+01  0.4634E+02
     -5.323  0.4465E+01  0.4663E+02
     -5.258  0.4370E+01  0.4692E+02
     -5.193  0.4649E+01  0.4722E+02
     -5.128  0.5619E+01  0.4759E+02
     -5.063  0.7518E+01  0.4808E+02
     -4.998  0.9198E+01  0.4867E+02
     -4.933  0.9533E+01  0.4929E+02
     -4.868  0.9056E+01  0.4988E+02
     -4.803  0.9341E+01  0.5049E+02
     -4.738  0.1101E+02  0.5121E+02
     -4.673  0.1210E+02  0.5199E+02
     -4.608  0.1139E+02  0.5274E+02
     -4.543  0.1059E+02  0.5342E+02
     -4.478  0.1126E+02  0.5416E+02
     -4.413  0.1301E+02  0.5500E+02
     -4.348  0.1452E+02  0.5595E+02
     -4.283  0.1453E+02  0.5689E+02
     -4.217  0.1318E+02  0.5775E+02
     -4.152  0.1259E+02  0.5857E+02
     -4.087  0.1429E+02  0.5950E+02
     -4.022  0.1566E+02  0.6052E+02
     -3.957  0.1413E+02  0.6144E+02
     -3.892  0.1164E+02  0.6220E+02
     -3.827  0.1085E+02  0.6290E+02
     -3.762  0.1131E+02  0.6364E+02
     -3.697  0.1184E+02  0.6441E+02
     -3.632  0.1216E+02  0.6520E+02
     -3.567  0.1263E+02  0.6602E+02
     -3.502  0.1307E+02  0.6687E+02
     -3.437  0.1322E+02  0.6773E+02
     -3.372  0.1367E+02  0.6862E+02
     -3.307  0.1493E+02  0.6959E+02
     -3.242  0.1576E+02  0.7062E+02
     -3.177  0.1576E+02  0.7164E+02
     -3.111  0.1637E+02  0.7271E+02
     -3.046  0.1766E+02  0.7386E+02
     -2.981  0.1778E+02  0.7501E+02
     -2.916  0.1557E+02  0.7603E+02
     -2.851  0.1358E+02  0.7691E+02
     -2.786  0.1408E+02  0.7783E+02
     -2.721  0.1514E+02  0.7881E+02
     -2.656  0.1480E+02  0.7977E+02
     -2.591  0.1449E+02  0.8072E+02
     -2.526  0.1575E+02  0.8174E+02
     -2.461  0.1755E+02  0.8288E+02
     -2.396  0.1790E+02  0.8405E+02
     -2.331  0.1646E+02  0.8512E+02
     -2.266  0.1552E+02  0.8613E+02
     -2.201  0.1613E+02  0.8718E+02
     -2.136  0.1712E+02  0.8829E+02
     -2.070  0.1669E+02  0.8938E+02
     -2.005  0.1513E+02  0.9036E+02
     -1.940  0.1498E+02  0.9134E+02
     -1.875  0.1608E+02  0.9238E+02
     -1.810  0.1601E+02  0.9342E+02
     -1.745  0.1415E+02  0.9435E+02
     -1.680  0.1144E+02  0.9509E+02
     -1.615  0.1020E+02  0.9575E+02
     -1.550  0.1128E+02  0.9649E+02
     -1.485  0.1323E+02  0.9735E+02
     -1.420  0.1396E+02  0.9826E+02
     -1.355  0.1277E+02  0.9909E+02
     -1.290  0.1064E+02  0.9978E+02
     -1.225  0.9201E+01  0.1004E+03
     -1.160  0.9298E+01  0.1010E+03
     -1.095  0.9752E+01  0.1016E+03
     -1.030  0.9049E+01  0.1022E+03
     -0.964  0.7568E+01  0.1027E+03
     -0.899  0.5914E+01  0.1031E+03
     -0.834  0.5787E+01  0.1035E+03
     -0.769  0.7346E+01  0.1039E+03
     -0.704  0.8355E+01  0.1045E+03
     -0.639  0.7691E+01  0.1050E+03
     -0.574  0.5355E+01  0.1053E+03
     -0.509  0.3133E+01  0.1055E+03
     -0.444  0.2504E+01  0.1057E+03
     -0.379  0.3101E+01  0.1059E+03
     -0.314  0.4351E+01  0.1062E+03
     -0.249  0.6004E+01  0.1066E+03
     -0.184  0.7742E+01  0.1071E+03
     -0.119  0.8589E+01  0.1076E+03
     -0.054  0.7452E+01  0.1081E+03
      0.011  0.4997E+01  0.1084E+03
      0.076  0.2888E+01  0.1086E+03
      0.142  0.2110E+01  0.1088E+03
      0.207  0.2525E+01  0.1089E+03
      0.272  0.3086E+01  0.1091E+03
      0.337  0.3524E+01  0.1094E+03
      0.402  0.3932E+01  0.1096E+03
      0.467  0.3615E+01  0.1099E+03
      0.532  0.3386E+01  0.1101E+03
      0.597  0.4525E+01  0.1104E+03
      0.662  0.5724E+01  0.1107E+03
      0.727  0.6001E+01  0.1111E+03
      0.792  0.5790E+01  0.1115E+03
      0.857  0.4763E+01  0.1118E+03
      0.922  0.3719E+01  0.1121E+03
      0.987  0.4059E+01  0.1123E+03
      1.052  0.5091E+01  0.1127E+03
      1.117  0.5980E+01  0.1130E+03
      1.182  0.6542E+01  0.1135E+03
      1.248  0.6793E+01  0.1139E+03
      1.313  0.7596E+01  0.1144E+03
      1.378  0.8340E+01  0.1149E+03
      1.443  0.8008E+01  0.1155E+03
      1.508  0.8602E+01  0.1160E+03
      1.573  0.1095E+02  0.1167E+03
      1.638  0.1242E+02  0.1176E+03
      1.703  0.1257E+02  0.1184E+03
      1.768  0.1234E+02  0.1192E+03
      1.833  0.1183E+02  0.1199E+03
      1.898  0.1179E+02  0.1207E+03
      1.963  0.1234E+02  0.1215E+03
      2.028  0.1265E+02  0.1223E+03
      2.093  0.1308E+02  0.1232E+03
      2.158  0.1463E+02  0.1241E+03
      2.223  0.1605E+02  0.1252E+03
      2.289  0.1573E+02  0.1262E+03
      2.354  0.1480E+02  0.1272E+03
      2.419  0.1433E+02  0.1281E+03
      2.484  0.1373E+02  0.1290E+03
      2.549  0.1313E+02  0.1298E+03
      2.614  0.1336E+02  0.1307E+03
      2.679  0.1349E+02  0.1316E+03
      2.744  0.1229E+02  0.1324E+03
      2.809  0.1022E+02  0.1331E+03
      2.874  0.8919E+01  0.1336E+03
      2.939  0.8713E+01  0.1342E+03
      3.004  0.8269E+01  0.1347E+03
      3.069  0.7042E+01  0.1352E+03
      3.134  0.5343E+01  0.1355E+03
      3.199  0.3639E+01  0.1358E+03
      3.264  0.2135E+01  0.1359E+03
      3.329  0.9072E+00  0.1360E+03
      3.395  0.2275E+00  0.1360E+03
      3.460  0.2942E-01  0.1360E+03
      3.525  0.1826E-02  0.1360E+03
      3.590  0.5225E-04  0.1360E+03
      3.655  0.6740E-06  0.1360E+03
      3.720  0.3864E-08  0.1360E+03
      3.785  0.9754E-11  0.1360E+03
      3.850  0.1070E-13  0.1360E+03
      3.915  0.0000E+00  0.1360E+03
      3.980  0.0000E+00  0.1360E+03
      4.045  0.0000E+00  0.1360E+03
      4.110  0.0000E+00  0.1360E+03
      4.175  0.0000E+00  0.1360E+03
      4.240  0.0000E+00  0.1360E+03
