 running on    8 total cores
 distrk:  each k-point on    8 cores,    1 groups
 distr:  one band on    2 cores,    4 groups
 using from now: INCAR     
 vasp.5.3.5 31Mar14 (build Oct 29 2014 16:16:03) complex                        
  
 POSCAR found type information on POSCAR  P  Si
 POSCAR found :  2 types and      24 ions
 scaLAPACK will be used

 ----------------------------------------------------------------------------- 
|                                                                             |
|  ADVICE TO THIS USER RUNNING 'VASP/VAMP'   (HEAR YOUR MASTER'S VOICE ...):  |
|                                                                             |
|      You have switched on vdW-DFT.                                          |
|      This routine was written and supplied by Jiri Klimes.                  |
|      We recommed that you carefully read and cite the following             |
|      publication                                                            |
|      J. Klimes, D.R. Bowler, A. Michelides                                  |
|        J. Phys.: Cond Matt. 22 022201 (2010)                                |
|      J. Klimes, D.R. Bowler, A. Michelides                                  |
|        Phys. Rev. B. 83, 195131 (2011)                                      |
|      and references therein.                                                |
|                                                                             |
 ----------------------------------------------------------------------------- 


 ----------------------------------------------------------------------------- 
|                                                                             |
|  ADVICE TO THIS USER RUNNING 'VASP/VAMP'   (HEAR YOUR MASTER'S VOICE ...):  |
|                                                                             |
|      You enforced a specific xc-type in the INCAR file,                     |
|      a different type was found on the POTCAR file                          |
|          I HOPE YOU KNOW, WHAT YOU ARE  DOING                               |
|                                                                             |
 ----------------------------------------------------------------------------- 

 LDA part: xc-table for Pade appr. of Perdew


 VERY BAD NEWS! internal error in subroutine IBZKPT:
 Reciprocal lattice and k-lattice belong to different class of lattices. Often results are still useful...      96


 VERY BAD NEWS! internal error in subroutine IBZKPT:
 Reciprocal lattice and k-lattice belong to different class of lattices. Often results are still useful...      96


 VERY BAD NEWS! internal error in subroutine IBZKPT:
 Reciprocal lattice and k-lattice belong to different class of lattices. Often results are still useful...      96


 VERY BAD NEWS! internal error in subroutine IBZKPT:
 Reciprocal lattice and k-lattice belong to different class of lattices. Often results are still useful...      96


 VERY BAD NEWS! internal error in subroutine IBZKPT:
 Reciprocal lattice and k-lattice belong to different class of lattices. Often results are still useful...      96


 VERY BAD NEWS! internal error in subroutine IBZKPT:
 Reciprocal lattice and k-lattice belong to different class of lattices. Often results are still useful...      96


 VERY BAD NEWS! internal error in subroutine IBZKPT:
 Reciprocal lattice and k-lattice belong to different class of lattices. Often results are still useful...      96


 VERY BAD NEWS! internal error in subroutine IBZKPT:
 Reciprocal lattice and k-lattice belong to different class of lattices. Often results are still useful...      96
 POSCAR, INCAR and KPOINTS ok, starting setup
 WARNING: small aliasing (wrap around) errors must be expected
 FFT: planning ...
 WAVECAR not read
 entering main loop
       N       E                     dE             d eps       ncg     rms          rms(c)
Total vdW correction in eV:     15.9042685
DAV:   1     0.484217296046E+03    0.48422E+03   -0.28613E+04  7360   0.790E+02
DAV:   2    -0.705860627902E+02   -0.55480E+03   -0.54022E+03  9812   0.188E+02
DAV:   3    -0.125597659161E+03   -0.55012E+02   -0.54235E+02  8824   0.615E+01
DAV:   4    -0.128044626735E+03   -0.24470E+01   -0.24313E+01 10872   0.139E+01
DAV:   5    -0.128104672931E+03   -0.60046E-01   -0.59986E-01 10024   0.213E+00    0.981E+00
Total vdW correction in eV:     16.3376752
DAV:   6    -0.126379063073E+03    0.17256E+01   -0.33143E+00  8840   0.460E+00    0.552E+00
Total vdW correction in eV:     16.8914668
DAV:   7    -0.126133403326E+03    0.24566E+00   -0.26558E+00  8680   0.422E+00    0.144E+00
Total vdW correction in eV:     17.0126108
DAV:   8    -0.126114080171E+03    0.19323E-01   -0.29985E-01  8944   0.169E+00    0.480E-01
Total vdW correction in eV:     17.0647530
DAV:   9    -0.126098576585E+03    0.15504E-01   -0.43553E-02  9336   0.657E-01    0.193E-01
Total vdW correction in eV:     17.0777560
DAV:  10    -0.126089996668E+03    0.85799E-02   -0.90590E-03  9088   0.280E-01    0.969E-02
Total vdW correction in eV:     17.0853438
DAV:  11    -0.126084175427E+03    0.58212E-02   -0.22566E-03  8824   0.144E-01    0.424E-02
Total vdW correction in eV:     17.0906152
DAV:  12    -0.126080876472E+03    0.32990E-02   -0.52207E-04  8896   0.674E-02    0.224E-02
Total vdW correction in eV:     17.0952167
DAV:  13    -0.126079144667E+03    0.17318E-02   -0.14937E-04 10024   0.324E-02    0.128E-02
Total vdW correction in eV:     17.0991005
DAV:  14    -0.126078165681E+03    0.97899E-03   -0.55855E-05  8488   0.219E-02    0.733E-03
Total vdW correction in eV:     17.1013796
DAV:  15    -0.126078349524E+03   -0.18384E-03   -0.48593E-05  8088   0.169E-02    0.464E-03
Total vdW correction in eV:     17.1025643
DAV:  16    -0.126078954528E+03   -0.60500E-03   -0.18701E-04  8112   0.245E-02    0.247E-03
Total vdW correction in eV:     17.1024603
DAV:  17    -0.126079110330E+03   -0.15580E-03   -0.77601E-05  7600   0.147E-02    0.141E-03
Total vdW correction in eV:     17.1022122
DAV:  18    -0.126079121161E+03   -0.10831E-04   -0.16668E-05  6272   0.925E-03    0.907E-04
Total vdW correction in eV:     17.1020158
DAV:  19    -0.126079147579E+03   -0.26418E-04   -0.29592E-05  6952   0.103E-02    0.645E-04
Total vdW correction in eV:     17.1018656
DAV:  20    -0.126079124475E+03    0.23104E-04   -0.18340E-05  6620   0.109E-02    0.372E-04
Total vdW correction in eV:     17.1018213
DAV:  21    -0.126079052997E+03    0.71479E-04   -0.11693E-05  6376   0.802E-03    0.209E-04
Total vdW correction in eV:     17.1018154
DAV:  22    -0.126079028205E+03    0.24792E-04   -0.81267E-06  6400   0.787E-03    0.101E-04
Total vdW correction in eV:     17.1018178
DAV:  23    -0.126079005675E+03    0.22530E-04   -0.59363E-06  6640   0.712E-03    0.479E-05
Total vdW correction in eV:     17.1018182
DAV:  24    -0.126079002550E+03    0.31246E-05   -0.38738E-06  5816   0.632E-03    0.233E-05
Total vdW correction in eV:     17.1018181
DAV:  25    -0.126078999225E+03    0.33253E-05   -0.16195E-06  5904   0.459E-03    0.123E-05
Total vdW correction in eV:     17.1018184
DAV:  26    -0.126078998937E+03    0.28755E-06   -0.10537E-06  5260   0.403E-03
Total vdW correction in eV:     17.1018184
Total vdW correction in eV:     17.1018186
   1 F= -.12607900E+03 E0= -.12606151E+03  d E =-.349708E-01
