<?xml version="1.0" encoding="ISO-8859-1"?>
<modeling>
 <generator>
  <i name="program" type="string">vasp </i>
  <i name="version" type="string">5.4.1  </i>
  <i name="subversion" type="string">24Jun15 (build May 10 2016 14:18:23) complex                          parallel </i>
  <i name="platform" type="string">IFC91_ompi </i>
  <i name="date" type="string">2016 12 09 </i>
  <i name="time" type="string">14:58:05 </i>
 </generator>
 <incar>
  <i type="string" name="PREC">accurate</i>
  <i type="string" name="ALGO"> Fast</i>
  <i type="int" name="ISPIN">     2</i>
  <i type="int" name="IBRION">     2</i>
  <i name="EDIFF">      0.00010000</i>
  <i type="int" name="NSW">     0</i>
  <i type="int" name="ISIF">     3</i>
  <i name="ENCUT">    500.00000000</i>
  <v name="MAGMOM">      6.00000000      0.50000000      0.50000000      6.00000000      0.50000000      0.50000000</v>
  <i type="string" name="LREAL"> Auto</i>
  <i type="int" name="ISMEAR">     1</i>
  <i name="SIGMA">      0.10000000</i>
  <i type="logical" name="LWAVE"> F  </i>
  <i type="logical" name="LCHARG"> F  </i>
  <i type="logical" name="LVTOT"> T  </i>
  <i type="logical" name="LVHAR"> T  </i>
  <i type="logical" name="LAECHG"> F  </i>
  <v type="int" name="KPOINT_BSE">    -1     0     0     0</v>
  <i type="string" name="GGA"> Bo</i>
  <i name="PARAM1">      0.18333333</i>
  <i name="PARAM2">      0.22000000</i>
  <i type="logical" name="LUSE_VDW"> T  </i>
  <i name="AGGAC">      0.00000000</i>
 </incar>
 <kpoints>
  <generation param="Gamma">
   <v type="int" name="divisions">      13       13        1 </v>
   <v name="usershift">      0.00000000       0.00000000       0.00000000 </v>
   <v name="genvec1">      0.07692308       0.00000000       0.00000000 </v>
   <v name="genvec2">      0.00000000       0.07692308       0.00000000 </v>
   <v name="genvec3">      0.00000000       0.00000000       1.00000000 </v>
   <v name="shift">      0.00000000       0.00000000       0.00000000 </v>
  </generation>
  <varray name="kpointlist" >
   <v>       0.00000000       0.00000000       0.00000000 </v>
   <v>       0.07692308      -0.00000000       0.00000000 </v>
   <v>       0.15384615       0.00000000       0.00000000 </v>
   <v>       0.23076923       0.00000000       0.00000000 </v>
   <v>       0.30769231      -0.00000000       0.00000000 </v>
   <v>       0.38461538       0.00000000       0.00000000 </v>
   <v>       0.46153846       0.00000000       0.00000000 </v>
   <v>       0.00000000       0.07692308       0.00000000 </v>
   <v>       0.07692308       0.07692308       0.00000000 </v>
   <v>       0.15384615       0.07692308       0.00000000 </v>
   <v>       0.23076923       0.07692308       0.00000000 </v>
   <v>       0.30769231       0.07692308       0.00000000 </v>
   <v>       0.38461538       0.07692308       0.00000000 </v>
   <v>       0.46153846       0.07692308       0.00000000 </v>
   <v>      -0.46153846       0.07692308       0.00000000 </v>
   <v>      -0.38461538       0.07692308       0.00000000 </v>
   <v>      -0.30769231       0.07692308       0.00000000 </v>
   <v>      -0.23076923       0.07692308       0.00000000 </v>
   <v>      -0.15384615       0.07692308       0.00000000 </v>
   <v>      -0.07692308       0.07692308       0.00000000 </v>
   <v>       0.00000000       0.15384615       0.00000000 </v>
   <v>       0.07692308       0.15384615       0.00000000 </v>
   <v>       0.15384615       0.15384615       0.00000000 </v>
   <v>       0.23076923       0.15384615       0.00000000 </v>
   <v>       0.30769231       0.15384615       0.00000000 </v>
   <v>       0.38461538       0.15384615       0.00000000 </v>
   <v>       0.46153846       0.15384615       0.00000000 </v>
   <v>      -0.46153846       0.15384615       0.00000000 </v>
   <v>      -0.38461538       0.15384615       0.00000000 </v>
   <v>      -0.30769231       0.15384615       0.00000000 </v>
   <v>      -0.23076923       0.15384615       0.00000000 </v>
   <v>      -0.15384615       0.15384615       0.00000000 </v>
   <v>      -0.07692308       0.15384615       0.00000000 </v>
   <v>       0.00000000       0.23076923       0.00000000 </v>
   <v>       0.07692308       0.23076923       0.00000000 </v>
   <v>       0.15384615       0.23076923       0.00000000 </v>
   <v>       0.23076923       0.23076923       0.00000000 </v>
   <v>       0.30769231       0.23076923       0.00000000 </v>
   <v>       0.38461538       0.23076923       0.00000000 </v>
   <v>       0.46153846       0.23076923       0.00000000 </v>
   <v>      -0.46153846       0.23076923       0.00000000 </v>
   <v>      -0.38461538       0.23076923       0.00000000 </v>
   <v>      -0.30769231       0.23076923       0.00000000 </v>
   <v>      -0.23076923       0.23076923       0.00000000 </v>
   <v>      -0.15384615       0.23076923       0.00000000 </v>
   <v>      -0.07692308       0.23076923       0.00000000 </v>
   <v>       0.00000000       0.30769231       0.00000000 </v>
   <v>       0.07692308       0.30769231       0.00000000 </v>
   <v>       0.15384615       0.30769231       0.00000000 </v>
   <v>       0.23076923       0.30769231       0.00000000 </v>
   <v>       0.30769231       0.30769231       0.00000000 </v>
   <v>       0.38461538       0.30769231       0.00000000 </v>
   <v>       0.46153846       0.30769231       0.00000000 </v>
   <v>      -0.46153846       0.30769231       0.00000000 </v>
   <v>      -0.38461538       0.30769231       0.00000000 </v>
   <v>      -0.30769231       0.30769231       0.00000000 </v>
   <v>      -0.23076923       0.30769231       0.00000000 </v>
   <v>      -0.15384615       0.30769231       0.00000000 </v>
   <v>      -0.07692308       0.30769231       0.00000000 </v>
   <v>       0.00000000       0.38461538       0.00000000 </v>
   <v>       0.07692308       0.38461538       0.00000000 </v>
   <v>       0.15384615       0.38461538       0.00000000 </v>
   <v>       0.23076923       0.38461538       0.00000000 </v>
   <v>       0.30769231       0.38461538       0.00000000 </v>
   <v>       0.38461538       0.38461538       0.00000000 </v>
   <v>       0.46153846       0.38461538       0.00000000 </v>
   <v>      -0.46153846       0.38461538       0.00000000 </v>
   <v>      -0.38461538       0.38461538       0.00000000 </v>
   <v>      -0.30769231       0.38461538       0.00000000 </v>
   <v>      -0.23076923       0.38461538       0.00000000 </v>
   <v>      -0.15384615       0.38461538       0.00000000 </v>
   <v>      -0.07692308       0.38461538       0.00000000 </v>
   <v>       0.00000000       0.46153846       0.00000000 </v>
   <v>       0.07692308       0.46153846       0.00000000 </v>
   <v>       0.15384615       0.46153846       0.00000000 </v>
   <v>       0.23076923       0.46153846       0.00000000 </v>
   <v>       0.30769231       0.46153846       0.00000000 </v>
   <v>       0.38461538       0.46153846       0.00000000 </v>
   <v>       0.46153846       0.46153846       0.00000000 </v>
   <v>      -0.46153846       0.46153846       0.00000000 </v>
   <v>      -0.38461538       0.46153846       0.00000000 </v>
   <v>      -0.30769231       0.46153846       0.00000000 </v>
   <v>      -0.23076923       0.46153846       0.00000000 </v>
   <v>      -0.15384615       0.46153846       0.00000000 </v>
   <v>      -0.07692308       0.46153846       0.00000000 </v>
  </varray>
  <varray name="weights" >
   <v>       0.00591716 </v>
   <v>       0.01183432 </v>
   <v>       0.01183432 </v>
   <v>       0.01183432 </v>
   <v>       0.01183432 </v>
   <v>       0.01183432 </v>
   <v>       0.01183432 </v>
   <v>       0.01183432 </v>
   <v>       0.01183432 </v>
   <v>       0.01183432 </v>
   <v>       0.01183432 </v>
   <v>       0.01183432 </v>
   <v>       0.01183432 </v>
   <v>       0.01183432 </v>
   <v>       0.01183432 </v>
   <v>       0.01183432 </v>
   <v>       0.01183432 </v>
   <v>       0.01183432 </v>
   <v>       0.01183432 </v>
   <v>       0.01183432 </v>
   <v>       0.01183432 </v>
   <v>       0.01183432 </v>
   <v>       0.01183432 </v>
   <v>       0.01183432 </v>
   <v>       0.01183432 </v>
   <v>       0.01183432 </v>
   <v>       0.01183432 </v>
   <v>       0.01183432 </v>
   <v>       0.01183432 </v>
   <v>       0.01183432 </v>
   <v>       0.01183432 </v>
   <v>       0.01183432 </v>
   <v>       0.01183432 </v>
   <v>       0.01183432 </v>
   <v>       0.01183432 </v>
   <v>       0.01183432 </v>
   <v>       0.01183432 </v>
   <v>       0.01183432 </v>
   <v>       0.01183432 </v>
   <v>       0.01183432 </v>
   <v>       0.01183432 </v>
   <v>       0.01183432 </v>
   <v>       0.01183432 </v>
   <v>       0.01183432 </v>
   <v>       0.01183432 </v>
   <v>       0.01183432 </v>
   <v>       0.01183432 </v>
   <v>       0.01183432 </v>
   <v>       0.01183432 </v>
   <v>       0.01183432 </v>
   <v>       0.01183432 </v>
   <v>       0.01183432 </v>
   <v>       0.01183432 </v>
   <v>       0.01183432 </v>
   <v>       0.01183432 </v>
   <v>       0.01183432 </v>
   <v>       0.01183432 </v>
   <v>       0.01183432 </v>
   <v>       0.01183432 </v>
   <v>       0.01183432 </v>
   <v>       0.01183432 </v>
   <v>       0.01183432 </v>
   <v>       0.01183432 </v>
   <v>       0.01183432 </v>
   <v>       0.01183432 </v>
   <v>       0.01183432 </v>
   <v>       0.01183432 </v>
   <v>       0.01183432 </v>
   <v>       0.01183432 </v>
   <v>       0.01183432 </v>
   <v>       0.01183432 </v>
   <v>       0.01183432 </v>
   <v>       0.01183432 </v>
   <v>       0.01183432 </v>
   <v>       0.01183432 </v>
   <v>       0.01183432 </v>
   <v>       0.01183432 </v>
   <v>       0.01183432 </v>
   <v>       0.01183432 </v>
   <v>       0.01183432 </v>
   <v>       0.01183432 </v>
   <v>       0.01183432 </v>
   <v>       0.01183432 </v>
   <v>       0.01183432 </v>
   <v>       0.01183432 </v>
  </varray>
 </kpoints>
 <parameters>
  <separator name="general" >
   <i type="string" name="SYSTEM">unknown system</i>
   <i type="logical" name="LCOMPAT"> F  </i>
  </separator>
  <separator name="electronic" >
   <i type="string" name="PREC">accura</i>
   <i name="ENMAX">    500.00000000</i>
   <i name="ENAUG">    392.42700000</i>
   <i name="EDIFF">      0.00010000</i>
   <i type="int" name="IALGO">    68</i>
   <i type="int" name="IWAVPR">    10</i>
   <i type="int" name="NBANDS">    36</i>
   <i name="NELECT">     48.00000000</i>
   <i type="int" name="TURBO">     0</i>
   <i type="int" name="IRESTART">     0</i>
   <i type="int" name="NREBOOT">     0</i>
   <i type="int" name="NMIN">     0</i>
   <i name="EREF">      0.00000000</i>
   <separator name="electronic smearing" >
    <i type="int" name="ISMEAR">     1</i>
    <i name="SIGMA">      0.10000000</i>
    <i name="KSPACING">      0.50000000</i>
    <i type="logical" name="KGAMMA"> T  </i>
   </separator>
   <separator name="electronic projectors" >
    <i type="logical" name="LREAL"> T  </i>
    <v name="ROPT">     -0.00025000     -0.00025000     -0.00025000     -0.00025000</v>
    <i type="int" name="LMAXPAW">  -100</i>
    <i type="int" name="LMAXMIX">     2</i>
    <i type="logical" name="NLSPLINE"> F  </i>
   </separator>
   <separator name="electronic startup" >
    <i type="int" name="ISTART">     0</i>
    <i type="int" name="ICHARG">     2</i>
    <i type="int" name="INIWAV">     1</i>
   </separator>
   <separator name="electronic spin" >
    <i type="int" name="ISPIN">     2</i>
    <i type="logical" name="LNONCOLLINEAR"> F  </i>
    <v name="MAGMOM">      6.00000000      0.50000000      0.50000000      6.00000000      0.50000000      0.50000000</v>
    <i name="NUPDOWN">     -1.00000000</i>
    <i type="logical" name="LSORBIT"> F  </i>
    <v name="SAXIS">      0.00000000      0.00000000      1.00000000</v>
    <i type="logical" name="LSPIRAL"> F  </i>
    <v name="QSPIRAL">      0.00000000      0.00000000      0.00000000</v>
    <i type="logical" name="LZEROZ"> F  </i>
   </separator>
   <separator name="electronic exchange-correlation" >
    <i type="logical" name="LASPH"> F  </i>
    <i type="logical" name="LMETAGGA"> F  </i>
   </separator>
   <separator name="electronic convergence" >
    <i type="int" name="NELM">    60</i>
    <i type="int" name="NELMDL">     0</i>
    <i type="int" name="NELMIN">     2</i>
    <i name="ENINI">    500.00000000</i>
    <separator name="electronic convergence detail" >
     <i type="logical" name="LDIAG"> T  </i>
     <i type="logical" name="LSUBROT"> F  </i>
     <i name="WEIMIN">      0.00000000</i>
     <i name="EBREAK">      0.00000069</i>
     <i name="DEPER">      0.30000000</i>
     <i type="int" name="NRMM">     4</i>
     <i name="TIME">      0.40000000</i>
    </separator>
   </separator>
   <separator name="electronic mixer" >
    <i name="AMIX">      0.40000000</i>
    <i name="BMIX">      1.00000000</i>
    <i name="AMIN">      0.10000000</i>
    <i name="AMIX_MAG">      1.60000000</i>
    <i name="BMIX_MAG">      1.00000000</i>
    <separator name="electronic mixer details" >
     <i type="int" name="IMIX">     4</i>
     <i type="logical" name="MIXFIRST"> F  </i>
     <i type="int" name="MAXMIX">   -45</i>
     <i name="WC">    100.00000000</i>
     <i type="int" name="INIMIX">     1</i>
     <i type="int" name="MIXPRE">     1</i>
     <i type="int" name="MREMOVE">     5</i>
    </separator>
   </separator>
   <separator name="electronic dipolcorrection" >
    <i type="logical" name="LDIPOL"> F  </i>
    <i type="logical" name="LMONO"> F  </i>
    <i type="int" name="IDIPOL">     0</i>
    <i name="EPSILON">      1.00000000</i>
    <v name="DIPOL">   -100.00000000   -100.00000000   -100.00000000</v>
    <i name="EFIELD">      0.00000000</i>
   </separator>
  </separator>
  <separator name="grids" >
   <i type="int" name="NGX">    24</i>
   <i type="int" name="NGY">    24</i>
   <i type="int" name="NGZ">   180</i>
   <i type="int" name="NGXF">    48</i>
   <i type="int" name="NGYF">    48</i>
   <i type="int" name="NGZF">   360</i>
   <i type="logical" name="ADDGRID"> F  </i>
  </separator>
  <separator name="ionic" >
   <i type="int" name="NSW">     0</i>
   <i type="int" name="IBRION">    -1</i>
   <i type="int" name="ISIF">     3</i>
   <i name="PSTRESS">      0.00000000</i>
   <i name="EDIFFG">      0.00100000</i>
   <i type="int" name="NFREE">     1</i>
   <i name="POTIM">      0.50000000</i>
   <i name="SMASS">     -3.00000000</i>
   <i name="SCALEE">      1.00000000</i>
  </separator>
  <separator name="ionic md" >
   <i name="TEBEG">      0.00010000</i>
   <i name="TEEND">      0.00010000</i>
   <i type="int" name="NBLOCK">     1</i>
   <i type="int" name="KBLOCK">     1</i>
   <i type="int" name="NPACO">   256</i>
   <i name="APACO">     16.00000000</i>
  </separator>
  <separator name="symmetry" >
   <i type="int" name="ISYM">     2</i>
   <i name="SYMPREC">      0.00001000</i>
  </separator>
  <separator name="dos" >
   <i type="logical" name="LORBIT"> F  </i>
   <v name="RWIGS">     -1.00000000     -1.00000000     -1.00000000     -1.00000000</v>
   <i type="int" name="NEDOS">   301</i>
   <i name="EMIN">     10.00000000</i>
   <i name="EMAX">    -10.00000000</i>
   <i name="EFERMI">      0.00000000</i>
  </separator>
  <separator name="writing" >
   <i type="int" name="NWRITE">     2</i>
   <i type="logical" name="LWAVE"> F  </i>
   <i type="logical" name="LCHARG"> F  </i>
   <i type="logical" name="LPARD"> F  </i>
   <i type="logical" name="LVTOT"> F  </i>
   <i type="logical" name="LVHAR"> T  </i>
   <i type="logical" name="LELF"> F  </i>
   <i type="logical" name="LOPTICS"> F  </i>
   <v name="STM">      0.00000000      0.00000000      0.00000000      0.00000000      0.00000000      0.00000000      0.00000000</v>
  </separator>
  <separator name="performance" >
   <i type="int" name="NPAR">     4</i>
   <i type="int" name="NSIM">     4</i>
   <i type="int" name="NBLK">    -1</i>
   <i type="logical" name="LPLANE"> T  </i>
   <i type="logical" name="LSCALAPACK"> T  </i>
   <i type="logical" name="LSCAAWARE"> F  </i>
   <i type="logical" name="LSCALU"> F  </i>
   <i type="logical" name="LASYNC"> F  </i>
   <i type="logical" name="LORBITALREAL"> F  </i>
  </separator>
  <separator name="miscellaneous" >
   <i type="int" name="IDIOT">     3</i>
   <i type="logical" name="LMUSIC"> F  </i>
   <v name="POMASS">     95.94000000     32.06600000     95.94000000     32.06600000</v>
   <v name="DARWINR">      0.00000000      0.00000000      0.00000000      0.00000000</v>
   <v name="DARWINV">      1.00000000      1.00000000      1.00000000      1.00000000</v>
   <i type="logical" name="LCORR"> T  </i>
  </separator>
  <i type="logical" name="GGA_COMPAT"> T  </i>
  <i type="logical" name="LBERRY"> F  </i>
  <i type="int" name="ICORELEVEL">     0</i>
  <i type="logical" name="LDAU"> F  </i>
  <i type="int" name="I_CONSTRAINED_M">     0</i>
  <separator name="electronic exchange-correlation" >
   <i type="string" name="GGA">BO</i>
   <i type="int" name="VOSKOWN">     0</i>
   <i type="logical" name="LHFCALC"> F  </i>
   <i type="string" name="PRECFOCK"></i>
   <i type="logical" name="LSYMGRAD"> F  </i>
   <i type="logical" name="LHFONE"> F  </i>
   <i type="logical" name="LRHFCALC"> F  </i>
   <i type="logical" name="LTHOMAS"> F  </i>
   <i type="logical" name="LMODELHF"> F  </i>
   <i name="ENCUT4O">     -1.00000000</i>
   <i type="int" name="EXXOEP">     0</i>
   <i type="int" name="FOURORBIT">     0</i>
   <i name="AEXX">      0.00000000</i>
   <i name="HFALPHA">      0.00000000</i>
   <i name="MCALPHA">      0.00000000</i>
   <i name="ALDAX">      1.00000000</i>
   <i name="AGGAX">      1.00000000</i>
   <i name="ALDAC">      1.00000000</i>
   <i name="AGGAC">      0.00000000</i>
   <i type="int" name="NKREDX">     1</i>
   <i type="int" name="NKREDY">     1</i>
   <i type="int" name="NKREDZ">     1</i>
   <i type="logical" name="SHIFTRED"> F  </i>
   <i type="logical" name="ODDONLY"> F  </i>
   <i type="logical" name="EVENONLY"> F  </i>
   <i type="int" name="LMAXFOCK">     0</i>
   <i type="int" name="NMAXFOCKAE">     0</i>
   <i type="logical" name="LFOCKAEDFT"> F  </i>
   <i name="HFSCREEN">      0.00000000</i>
   <i name="HFSCREENC">      0.00000000</i>
   <i type="int" name="NBANDSGWLOW">     0</i>
  </separator>
  <separator name="vdW DFT" >
   <i type="logical" name="LUSE_VDW"> T  </i>
   <i name="Zab_VDW">     -0.84910000</i>
   <i name="PARAM1">      0.18333333</i>
   <i name="PARAM2">      0.22000000</i>
   <i name="PARAM3">      0.00000000</i>
  </separator>
  <separator name="model GW" >
   <i type="int" name="MODEL_GW">     0</i>
   <i name="MODEL_EPS0">     20.39722663</i>
   <i name="MODEL_ALPHA">      1.00000000</i>
  </separator>
  <separator name="linear response parameters" >
   <i type="logical" name="LEPSILON"> F  </i>
   <i type="logical" name="LRPA"> F  </i>
   <i type="logical" name="LNABLA"> F  </i>
   <i type="logical" name="LVEL"> F  </i>
   <i type="int" name="KINTER">     0</i>
   <i name="CSHIFT">      0.10000000</i>
   <i name="OMEGAMAX">     -1.00000000</i>
   <i name="DEG_THRESHOLD">      0.00200000</i>
  </separator>
  <separator name="orbital magnetization" >
   <i type="logical" name="NUCIND"> F  </i>
   <v name="MAGPOS">      0.00000000      0.00000000      0.00000000</v>
   <i type="logical" name="LNICSALL"> T  </i>
   <i type="logical" name="ORBITALMAG"> F  </i>
   <i type="logical" name="LMAGBLOCH"> F  </i>
   <i type="logical" name="LCHIMAG"> F  </i>
   <i type="logical" name="LGAUGE"> T  </i>
   <i type="int" name="MAGATOM">     0</i>
   <v name="MAGDIPOL">      0.00000000      0.00000000      0.00000000</v>
   <v name="AVECCONST">      0.00000000      0.00000000      0.00000000</v>
  </separator>
  <separator name="response functions" >
   <i type="logical" name="LADDER"> F  </i>
   <i type="logical" name="LFXC"> F  </i>
   <i type="logical" name="LHARTREE"> T  </i>
   <i type="int" name="IBSE">     0</i>
   <v type="int" name="KPOINT">    -1     0     0     0</v>
   <i type="logical" name="LTCTE"> F  </i>
   <i type="logical" name="LTETE"> F  </i>
   <i type="logical" name="LTRIPLET"> F  </i>
   <i type="logical" name="LFXCEPS"> F  </i>
   <i type="logical" name="LFXHEG"> F  </i>
   <i type="int" name="NATURALO">     0</i>
   <i type="logical" name="L2ORDER"> F  </i>
   <i type="logical" name="LUSEW"> F  </i>
   <i name="ENCUTGW">     -2.00000000</i>
   <i name="ENCUTGWSOFT">     -2.00000000</i>
   <i name="ENCUTLF">     -1.00000000</i>
   <i type="int" name="LMAXMP2">    -1</i>
   <i name="SCISSOR">      0.00000000</i>
   <i type="int" name="NOMEGA">     0</i>
   <i type="int" name="NOMEGAR">     0</i>
   <i type="int" name="NBANDSGW">    -1</i>
   <i type="int" name="NBANDSO">    -1</i>
   <i type="int" name="NBANDSV">    -1</i>
   <i type="int" name="NELM">     1</i>
   <i type="int" name="NELMHF">     1</i>
   <i type="int" name="DIM">     3</i>
   <i type="int" name="ANTIRES">     0</i>
   <i name="OMEGAMAX">    -30.00000000</i>
   <i name="OMEGAMIN">    -30.00000000</i>
   <i name="OMEGATL">   -200.00000000</i>
   <i type="int" name="OMEGAGRID">     0</i>
   <i name="CSHIFT">     -0.10000000</i>
   <i type="logical" name="SELFENERGY"> F  </i>
   <i type="logical" name="LSPECTRAL"> F  </i>
   <i type="logical" name="LSPECTRALGW"> F  </i>
   <i type="logical" name="LSINGLES"> F  </i>
   <i type="logical" name="LFERMIGW"> F  </i>
   <i type="logical" name="ODDONLYGW"> F  </i>
   <i type="logical" name="EVENONLYGW"> F  </i>
   <i type="int" name="NKREDLFX">     1</i>
   <i type="int" name="NKREDLFY">     1</i>
   <i type="int" name="NKREDLFZ">     1</i>
   <i type="int" name="MAXMEM">  1800</i>
   <i type="int" name="TELESCOPE">     0</i>
   <i type="int" name="TAUPAR">     1</i>
   <i type="int" name="OMEGAPAR">    -1</i>
   <i name="LAMBDA">      1.00000000</i>
  </separator>
  <separator name="External order field" >
   <i name="OFIELD_KAPPA">      0.00000000</i>
   <v name="OFIELD_K">      0.00000000      0.00000000      0.00000000</v>
   <i name="OFIELD_Q6_NEAR">      0.00000000</i>
   <i name="OFIELD_Q6_FAR">      0.00000000</i>
   <i name="OFIELD_A">      0.00000000</i>
  </separator>
 </parameters>
 <atominfo>
  <atoms>       6 </atoms>
  <types>       4 </types>
  <array name="atoms" >
   <dimension dim="1">ion</dimension>
   <field type="string">element</field>
   <field type="int">atomtype</field>
   <set>
    <rc><c>Mo</c><c>   1</c></rc>
    <rc><c>S </c><c>   2</c></rc>
    <rc><c>S </c><c>   2</c></rc>
    <rc><c>Mo</c><c>   3</c></rc>
    <rc><c>S </c><c>   4</c></rc>
    <rc><c>S </c><c>   4</c></rc>
   </set>
  </array>
  <array name="atomtypes" >
   <dimension dim="1">type</dimension>
   <field type="int">atomspertype</field>
   <field type="string">element</field>
   <field>mass</field>
   <field>valence</field>
   <field type="string">pseudopotential</field>
   <set>
    <rc><c>   1</c><c>Mo</c><c>     95.94000000</c><c>     12.00000000</c><c> PAW_PBE Mo_pv 08Apr2002                </c></rc>
    <rc><c>   2</c><c>S </c><c>     32.06600000</c><c>      6.00000000</c><c>  PAW_PBE S 17Jan2003                   </c></rc>
    <rc><c>   1</c><c>Mo</c><c>     95.94000000</c><c>     12.00000000</c><c> PAW_PBE Mo_pv 08Apr2002                </c></rc>
    <rc><c>   2</c><c>S </c><c>     32.06600000</c><c>      6.00000000</c><c>  PAW_PBE S 17Jan2003                   </c></rc>
   </set>
  </array>
 </atominfo>
 <structure name="initialpos" >
  <crystal>
   <varray name="basis" >
    <v>       3.19031700       0.00000000       0.00000000 </v>
    <v>      -1.59515800       2.76289700       0.00000000 </v>
    <v>       0.00000000       0.00000000      23.14049200 </v>
   </varray>
   <i name="volume">    203.97226633 </i>
   <varray name="rec_basis" >
    <v>       0.31344848       0.18096941       0.00000000 </v>
    <v>       0.00000000       0.36193894       0.00000000 </v>
    <v>       0.00000000       0.00000000       0.04321429 </v>
   </varray>
  </crystal>
  <varray name="positions" >
   <v>       0.66666700       0.33333300       0.06785900 </v>
   <v>       0.33333300       0.66666700       0.00000000 </v>
   <v>       0.33333300       0.66666700       0.13571500 </v>
   <v>       0.80952414       0.76190443       0.35482300 </v>
   <v>       0.47619014       0.09523843       0.28696500 </v>
   <v>       0.47619014       0.09523843       0.42267900 </v>
  </varray>
 </structure>
 <calculation>
  <scstep>
   <time name="dav">  108.19  108.28</time>
   <time name="total">  127.70  127.82</time>
   <energy>
    <i name="alphaZ">    104.15310261 </i>
    <i name="ewald">   7699.04583468 </i>
    <i name="hartreedc"> -11109.09877689 </i>
    <i name="XCdc">    128.46410053 </i>
    <i name="pawpsdc">   2252.92270536 </i>
    <i name="pawaedc">  -2205.68654582 </i>
    <i name="eentropy">      0.00091787 </i>
    <i name="bandstr">   -158.44243183 </i>
    <i name="atom">   3688.31848598 </i>
    <i name="e_fr_energy">    399.67739249 </i>
    <i name="e_wo_entrp">    399.67647462 </i>
    <i name="e_0_energy">    399.67708653 </i>
   </energy>
  </scstep>
  <scstep>
   <time name="dav">  116.32  116.41</time>
   <time name="total">  116.33  116.42</time>
   <energy>
    <i name="e_fr_energy">     -1.60563361 </i>
    <i name="e_wo_entrp">     -1.60467723 </i>
    <i name="e_0_energy">     -1.60531482 </i>
   </energy>
  </scstep>
  <scstep>
   <time name="dav">  120.52  120.62</time>
   <time name="total">  120.54  120.63</time>
   <energy>
    <i name="e_fr_energy">    -32.96890730 </i>
    <i name="e_wo_entrp">    -32.96968922 </i>
    <i name="e_0_energy">    -32.96916794 </i>
   </energy>
  </scstep>
  <scstep>
   <time name="dav">  114.78  114.87</time>
   <time name="total">  114.79  114.88</time>
   <energy>
    <i name="e_fr_energy">    -33.84546155 </i>
    <i name="e_wo_entrp">    -33.84666445 </i>
    <i name="e_0_energy">    -33.84586252 </i>
   </energy>
  </scstep>
  <scstep>
   <time name="dav">  119.50  119.60</time>
   <time name="total">  128.81  128.91</time>
   <energy>
    <i name="e_fr_energy">    -33.87252707 </i>
    <i name="e_wo_entrp">    -33.87375699 </i>
    <i name="e_0_energy">    -33.87293704 </i>
   </energy>
  </scstep>
  <scstep>
   <time name="diag">   22.26   22.28</time>
   <time name="diis">   78.33   78.39</time>
   <time name="orth">    0.73    0.73</time>
   <time name="total">  129.86  129.96</time>
   <energy>
    <i name="e_fr_energy">    -30.13654266 </i>
    <i name="e_wo_entrp">    -30.13608442 </i>
    <i name="e_0_energy">    -30.13638991 </i>
   </energy>
  </scstep>
  <scstep>
   <time name="diag">   22.20   22.22</time>
   <time name="diis">   98.00   98.07</time>
   <time name="orth">    0.73    0.73</time>
   <time name="total">  149.15  149.26</time>
   <energy>
    <i name="e_fr_energy">    -32.32268068 </i>
    <i name="e_wo_entrp">    -32.32285561 </i>
    <i name="e_0_energy">    -32.32273899 </i>
   </energy>
  </scstep>
  <scstep>
   <time name="diag">   22.16   22.18</time>
   <time name="diis">   79.20   79.26</time>
   <time name="orth">    0.74    0.74</time>
   <time name="total">  130.69  130.87</time>
   <energy>
    <i name="e_fr_energy">    -34.51175860 </i>
    <i name="e_wo_entrp">    -34.51188029 </i>
    <i name="e_0_energy">    -34.51179916 </i>
   </energy>
  </scstep>
  <scstep>
   <time name="diag">   21.92   21.93</time>
   <time name="diis">   79.77   79.83</time>
   <time name="orth">    0.74    0.74</time>
   <time name="total">  130.87  131.13</time>
   <energy>
    <i name="e_fr_energy">    -36.58079030 </i>
    <i name="e_wo_entrp">    -36.58095598 </i>
    <i name="e_0_energy">    -36.58084553 </i>
   </energy>
  </scstep>
  <scstep>
   <time name="diag">   22.14   22.15</time>
   <time name="diis">   72.35   72.40</time>
   <time name="orth">    0.73    0.73</time>
   <time name="total">  123.29  123.39</time>
   <energy>
    <i name="e_fr_energy">    -38.81570983 </i>
    <i name="e_wo_entrp">    -38.81587592 </i>
    <i name="e_0_energy">    -38.81576519 </i>
   </energy>
  </scstep>
  <scstep>
   <time name="diag">   22.28   22.30</time>
   <time name="diis">   75.77   75.83</time>
   <time name="orth">    0.73    0.74</time>
   <time name="total">  127.06  127.15</time>
   <energy>
    <i name="e_fr_energy">    -39.33798832 </i>
    <i name="e_wo_entrp">    -39.33830764 </i>
    <i name="e_0_energy">    -39.33809476 </i>
   </energy>
  </scstep>
  <scstep>
   <time name="diag">   22.13   22.15</time>
   <time name="diis">   76.62   76.68</time>
   <time name="orth">    0.73    0.74</time>
   <time name="total">  128.15  128.25</time>
   <energy>
    <i name="e_fr_energy">    -39.38665056 </i>
    <i name="e_wo_entrp">    -39.38698045 </i>
    <i name="e_0_energy">    -39.38676052 </i>
   </energy>
  </scstep>
  <scstep>
   <time name="diag">   22.07   22.09</time>
   <time name="diis">   82.64   82.71</time>
   <time name="orth">    0.73    0.73</time>
   <time name="total">  134.06  134.16</time>
   <energy>
    <i name="e_fr_energy">    -39.41480828 </i>
    <i name="e_wo_entrp">    -39.41514202 </i>
    <i name="e_0_energy">    -39.41491953 </i>
   </energy>
  </scstep>
  <scstep>
   <time name="diag">   22.29   22.31</time>
   <time name="diis">   82.59   82.65</time>
   <time name="orth">    0.73    0.74</time>
   <time name="total">  134.13  134.32</time>
   <energy>
    <i name="e_fr_energy">    -39.42034963 </i>
    <i name="e_wo_entrp">    -39.42068371 </i>
    <i name="e_0_energy">    -39.42046099 </i>
   </energy>
  </scstep>
  <scstep>
   <time name="diag">   22.23   22.25</time>
   <time name="diis">   74.91   74.97</time>
   <time name="orth">    0.74    0.74</time>
   <time name="total">  126.69  126.79</time>
   <energy>
    <i name="e_fr_energy">    -39.41977449 </i>
    <i name="e_wo_entrp">    -39.42010859 </i>
    <i name="e_0_energy">    -39.41988586 </i>
   </energy>
  </scstep>
  <scstep>
   <time name="diag">   22.11   22.12</time>
   <time name="diis">   60.27   60.31</time>
   <time name="orth">    0.73    0.73</time>
   <time name="total">  111.70  112.00</time>
   <energy>
    <i name="e_fr_energy">    -39.42015966 </i>
    <i name="e_wo_entrp">    -39.42049383 </i>
    <i name="e_0_energy">    -39.42027105 </i>
   </energy>
  </scstep>
  <scstep>
   <time name="diag">   22.22   22.23</time>
   <time name="diis">   55.99   56.03</time>
   <time name="orth">    0.74    0.74</time>
   <time name="total">  107.40  107.49</time>
   <energy>
    <i name="e_fr_energy">    -39.42026665 </i>
    <i name="e_wo_entrp">    -39.42060080 </i>
    <i name="e_0_energy">    -39.42037804 </i>
   </energy>
  </scstep>
  <scstep>
   <time name="diag">   22.26   22.28</time>
   <time name="diis">   54.62   54.67</time>
   <time name="orth">    0.73    0.74</time>
   <time name="total">  106.29  106.37</time>
   <energy>
    <i name="e_fr_energy">    -39.42069301 </i>
    <i name="e_wo_entrp">    -39.42102712 </i>
    <i name="e_0_energy">    -39.42080438 </i>
   </energy>
  </scstep>
  <scstep>
   <time name="diag">   22.20   22.22</time>
   <time name="diis">   52.26   52.30</time>
   <time name="orth">    0.73    0.73</time>
   <time name="total">  103.88  103.96</time>
   <energy>
    <i name="e_fr_energy">    -39.42103167 </i>
    <i name="e_wo_entrp">    -39.42136576 </i>
    <i name="e_0_energy">    -39.42114303 </i>
   </energy>
  </scstep>
  <scstep>
   <time name="diag">   22.18   22.19</time>
   <time name="diis">   52.48   52.52</time>
   <time name="orth">    0.74    0.74</time>
   <time name="total">  104.09  104.17</time>
   <energy>
    <i name="e_fr_energy">    -39.42132600 </i>
    <i name="e_wo_entrp">    -39.42166008 </i>
    <i name="e_0_energy">    -39.42143736 </i>
   </energy>
  </scstep>
  <scstep>
   <time name="diag">   22.10   22.11</time>
   <time name="diis">   53.70   53.74</time>
   <time name="orth">    0.74    0.74</time>
   <time name="total">  105.31  105.39</time>
   <energy>
    <i name="e_fr_energy">    -39.42143484 </i>
    <i name="e_wo_entrp">    -39.42176891 </i>
    <i name="e_0_energy">    -39.42154620 </i>
   </energy>
  </scstep>
  <scstep>
   <time name="diag">   22.34   22.36</time>
   <time name="diis">   47.10   47.13</time>
   <time name="orth">    0.73    0.73</time>
   <time name="total">   88.75   88.82</time>
   <energy>
    <i name="alphaZ">    104.15310261 </i>
    <i name="ewald">   7699.04583468 </i>
    <i name="hartreedc"> -11092.71208743 </i>
    <i name="XCdc">    122.66123582 </i>
    <i name="pawpsdc">   2399.30240819 </i>
    <i name="pawaedc">  -2361.48650053 </i>
    <i name="eentropy">      0.00033406 </i>
    <i name="bandstr">   -598.70424428 </i>
    <i name="atom">   3688.31848598 </i>
    <i name="e_fr_energy">    -39.42143091 </i>
    <i name="e_wo_entrp">    -39.42176497 </i>
    <i name="e_0_energy">    -39.42154226 </i>
   </energy>
  </scstep>
  <structure>
   <crystal>
    <varray name="basis" >
     <v>       3.19031700       0.00000000       0.00000000 </v>
     <v>      -1.59515800       2.76289700       0.00000000 </v>
     <v>       0.00000000       0.00000000      23.14049200 </v>
    </varray>
    <i name="volume">    203.97226633 </i>
    <varray name="rec_basis" >
     <v>       0.31344848       0.18096941       0.00000000 </v>
     <v>       0.00000000       0.36193894       0.00000000 </v>
     <v>       0.00000000       0.00000000       0.04321429 </v>
    </varray>
   </crystal>
   <varray name="positions" >
    <v>       0.66666700       0.33333300       0.06785900 </v>
    <v>       0.33333300       0.66666700       0.00000000 </v>
    <v>       0.33333300       0.66666700       0.13571500 </v>
    <v>       0.80952414       0.76190443       0.35482300 </v>
    <v>       0.47619014       0.09523843       0.28696500 </v>
    <v>       0.47619014       0.09523843       0.42267900 </v>
   </varray>
  </structure>
  <varray name="forces" >
   <v>      -0.00047416      -0.00538581      -0.00528604 </v>
   <v>      -0.00020780       0.00065253      -0.05270450 </v>
   <v>       0.00270785      -0.02694975       0.10914422 </v>
   <v>      -0.00127941       0.00300980       0.00441334 </v>
   <v>      -0.00265373       0.02797209      -0.11365162 </v>
   <v>       0.00190725       0.00070114       0.05808459 </v>
  </varray>
  <varray name="stress" >
   <v>       3.28340855      -0.13889405      -0.12978249 </v>
   <v>      -0.13889397       3.73225308       0.91603397 </v>
   <v>      -0.12978247       0.91603398       0.31922276 </v>
  </varray>
  <energy>
   <i name="e_fr_energy">    -39.42143091 </i>
   <i name="e_wo_entrp">    -39.42154226 </i>
   <i name="e_0_energy">      0.00033406 </i>
  </energy>
  <time name="totalsc"> 2841.74 2844.55</time>
  <eigenvalues>
   <array>
    <dimension dim="1">band</dimension>
    <dimension dim="2">kpoint</dimension>
    <dimension dim="3">spin</dimension>
    <field>eigene</field>
    <field>occ</field>
    <set>
     <set comment="spin 1">
      <set comment="kpoint 1">
       <r>  -34.9960    1.0000 </r>
       <r>  -34.9863    1.0000 </r>
       <r>  -34.8052    1.0000 </r>
       <r>  -34.8050    1.0000 </r>
       <r>  -34.7955    1.0000 </r>
       <r>  -34.7954    1.0000 </r>
       <r>  -13.9756    1.0000 </r>
       <r>  -13.9193    1.0000 </r>
       <r>  -12.7096    1.0000 </r>
       <r>  -12.6160    1.0000 </r>
       <r>   -5.6868    1.0000 </r>
       <r>   -5.3980    1.0000 </r>
       <r>   -2.6253    1.0000 </r>
       <r>   -2.6252    1.0000 </r>
       <r>   -2.6155    1.0000 </r>
       <r>   -2.6153    1.0000 </r>
       <r>   -2.1775    1.0000 </r>
       <r>   -1.5327    1.0000 </r>
       <r>   -1.5317    1.0000 </r>
       <r>   -1.5217    1.0000 </r>
       <r>   -1.5214    1.0000 </r>
       <r>   -1.4737    1.0000 </r>
       <r>   -0.2238    1.0000 </r>
       <r>    0.2144    0.7959 </r>
       <r>    2.6913   -0.0000 </r>
       <r>    2.6971   -0.0000 </r>
       <r>    2.7117   -0.0000 </r>
       <r>    2.7163   -0.0000 </r>
       <r>    2.8721   -0.0000 </r>
       <r>    2.8788   -0.0000 </r>
       <r>    2.8958   -0.0000 </r>
       <r>    2.9040   -0.0000 </r>
       <r>    5.2701    0.0000 </r>
       <r>    5.3903    0.0000 </r>
       <r>    6.3795    0.0000 </r>
       <r>    6.5419    0.0000 </r>
      </set>
      <set comment="kpoint 2">
       <r>  -34.9919    1.0000 </r>
       <r>  -34.9822    1.0000 </r>
       <r>  -34.8263    1.0000 </r>
       <r>  -34.8167    1.0000 </r>
       <r>  -34.8100    1.0000 </r>
       <r>  -34.8003    1.0000 </r>
       <r>  -13.8889    1.0000 </r>
       <r>  -13.8327    1.0000 </r>
       <r>  -12.6730    1.0000 </r>
       <r>  -12.5815    1.0000 </r>
       <r>   -5.5877    1.0000 </r>
       <r>   -5.2991    1.0000 </r>
       <r>   -2.8124    1.0000 </r>
       <r>   -2.8021    1.0000 </r>
       <r>   -2.5348    1.0000 </r>
       <r>   -2.5247    1.0000 </r>
       <r>   -2.4621    1.0000 </r>
       <r>   -2.0728    1.0000 </r>
       <r>   -1.6699    1.0000 </r>
       <r>   -1.6584    1.0000 </r>
       <r>   -1.3662    1.0000 </r>
       <r>   -1.0673    1.0000 </r>
       <r>   -0.2455    1.0000 </r>
       <r>    0.1422    1.0326 </r>
       <r>    2.5725   -0.0000 </r>
       <r>    2.6062   -0.0000 </r>
       <r>    2.6337   -0.0000 </r>
       <r>    2.7207   -0.0000 </r>
       <r>    2.7753   -0.0000 </r>
       <r>    2.8067   -0.0000 </r>
       <r>    2.8426   -0.0000 </r>
       <r>    2.8661   -0.0000 </r>
       <r>    5.4090    0.0000 </r>
       <r>    5.5274    0.0000 </r>
       <r>    6.7434    0.0000 </r>
       <r>    6.9247    0.0000 </r>
      </set>
      <set comment="kpoint 3">
       <r>  -34.9805    1.0000 </r>
       <r>  -34.9708    1.0000 </r>
       <r>  -34.8848    1.0000 </r>
       <r>  -34.8752    1.0000 </r>
       <r>  -34.8234    1.0000 </r>
       <r>  -34.8137    1.0000 </r>
       <r>  -13.6405    1.0000 </r>
       <r>  -13.5849    1.0000 </r>
       <r>  -12.5682    1.0000 </r>
       <r>  -12.4830    1.0000 </r>
       <r>   -5.3278    1.0000 </r>
       <r>   -5.0449    1.0000 </r>
       <r>   -3.2653    1.0000 </r>
       <r>   -3.2475    1.0000 </r>
       <r>   -2.9615    1.0000 </r>
       <r>   -2.6886    1.0000 </r>
       <r>   -2.2793    1.0000 </r>
       <r>   -2.2687    1.0000 </r>
       <r>   -2.0052    1.0000 </r>
       <r>   -1.9933    1.0000 </r>
       <r>   -1.2883    1.0000 </r>
       <r>   -0.9321    1.0000 </r>
       <r>   -0.3779    1.0000 </r>
       <r>   -0.1260    1.0000 </r>
       <r>    2.1576   -0.0000 </r>
       <r>    2.3595   -0.0000 </r>
       <r>    2.4878   -0.0000 </r>
       <r>    2.5492   -0.0000 </r>
       <r>    2.5795   -0.0000 </r>
       <r>    2.6290   -0.0000 </r>
       <r>    3.1868    0.0000 </r>
       <r>    3.2152    0.0000 </r>
       <r>    5.7645    0.0000 </r>
       <r>    5.8771    0.0000 </r>
       <r>    7.4140    0.0000 </r>
       <r>    7.8246    0.0000 </r>
      </set>
      <set comment="kpoint 4">
       <r>  -34.9662    1.0000 </r>
       <r>  -34.9645    1.0000 </r>
       <r>  -34.9568    1.0000 </r>
       <r>  -34.9546    1.0000 </r>
       <r>  -34.8422    1.0000 </r>
       <r>  -34.8325    1.0000 </r>
       <r>  -13.2655    1.0000 </r>
       <r>  -13.2114    1.0000 </r>
       <r>  -12.4110    1.0000 </r>
       <r>  -12.3353    1.0000 </r>
       <r>   -5.0637    1.0000 </r>
       <r>   -4.8286    1.0000 </r>
       <r>   -3.7377    1.0000 </r>
       <r>   -3.6682    1.0000 </r>
       <r>   -3.4929    1.0000 </r>
       <r>   -3.3060    1.0000 </r>
       <r>   -2.4005    1.0000 </r>
       <r>   -2.3880    1.0000 </r>
       <r>   -1.9106    1.0000 </r>
       <r>   -1.8985    1.0000 </r>
       <r>   -1.4698    1.0000 </r>
       <r>   -1.1136    1.0000 </r>
       <r>   -0.6987    1.0000 </r>
       <r>   -0.5687    1.0000 </r>
       <r>    1.9318   -0.0000 </r>
       <r>    2.2344   -0.0000 </r>
       <r>    2.2997   -0.0000 </r>
       <r>    2.3301   -0.0000 </r>
       <r>    2.6842   -0.0000 </r>
       <r>    2.9034   -0.0000 </r>
       <r>    3.5667    0.0000 </r>
       <r>    3.6028    0.0000 </r>
       <r>    6.2794    0.0000 </r>
       <r>    6.3876    0.0000 </r>
       <r>    7.8691    0.0000 </r>
       <r>    8.2898    0.0000 </r>
      </set>
      <set comment="kpoint 5">
       <r>  -35.0515    1.0000 </r>
       <r>  -35.0419    1.0000 </r>
       <r>  -34.9473    1.0000 </r>
       <r>  -34.9376    1.0000 </r>
       <r>  -34.8621    1.0000 </r>
       <r>  -34.8524    1.0000 </r>
       <r>  -12.8257    1.0000 </r>
       <r>  -12.7746    1.0000 </r>
       <r>  -12.2293    1.0000 </r>
       <r>  -12.1652    1.0000 </r>
       <r>   -5.1176    1.0000 </r>
       <r>   -4.9977    1.0000 </r>
       <r>   -4.0698    1.0000 </r>
       <r>   -3.9237    1.0000 </r>
       <r>   -3.8858    1.0000 </r>
       <r>   -3.7306    1.0000 </r>
       <r>   -2.7560    1.0000 </r>
       <r>   -2.7431    1.0000 </r>
       <r>   -1.7498    1.0000 </r>
       <r>   -1.5158    1.0000 </r>
       <r>   -1.5015    1.0000 </r>
       <r>   -1.4018    1.0000 </r>
       <r>   -0.9913    1.0000 </r>
       <r>   -0.8939    1.0000 </r>
       <r>    2.0302   -0.0000 </r>
       <r>    2.1336   -0.0000 </r>
       <r>    2.1578   -0.0000 </r>
       <r>    2.3148   -0.0000 </r>
       <r>    3.0883    0.0000 </r>
       <r>    3.3536    0.0000 </r>
       <r>    3.8671    0.0000 </r>
       <r>    3.9130    0.0000 </r>
       <r>    6.9065    0.0000 </r>
       <r>    7.0029    0.0000 </r>
       <r>    7.8394    0.0000 </r>
       <r>    8.2025    0.0000 </r>
      </set>
      <set comment="kpoint 6">
       <r>  -35.1213    1.0000 </r>
       <r>  -35.1117    1.0000 </r>
       <r>  -34.9331    1.0000 </r>
       <r>  -34.9233    1.0000 </r>
       <r>  -34.8786    1.0000 </r>
       <r>  -34.8689    1.0000 </r>
       <r>  -12.4155    1.0000 </r>
       <r>  -12.3689    1.0000 </r>
       <r>  -12.0643    1.0000 </r>
       <r>  -12.0113    1.0000 </r>
       <r>   -5.4363    1.0000 </r>
       <r>   -5.3667    1.0000 </r>
       <r>   -4.4880    1.0000 </r>
       <r>   -4.3791    1.0000 </r>
       <r>   -3.9831    1.0000 </r>
       <r>   -3.7993    1.0000 </r>
       <r>   -3.0159    1.0000 </r>
       <r>   -3.0028    1.0000 </r>
       <r>   -1.9649    1.0000 </r>
       <r>   -1.6278    1.0000 </r>
       <r>   -1.2007    1.0000 </r>
       <r>   -1.1799    1.0000 </r>
       <r>   -0.9492    1.0000 </r>
       <r>   -0.8294    1.0000 </r>
       <r>    2.0913   -0.0000 </r>
       <r>    2.1084   -0.0000 </r>
       <r>    2.2974   -0.0000 </r>
       <r>    2.4894   -0.0000 </r>
       <r>    3.4697    0.0000 </r>
       <r>    3.7514    0.0000 </r>
       <r>    4.0534    0.0000 </r>
       <r>    4.1083    0.0000 </r>
       <r>    6.7571    0.0000 </r>
       <r>    7.1701    0.0000 </r>
       <r>    7.5583    0.0000 </r>
       <r>    7.9254    0.0000 </r>
      </set>
      <set comment="kpoint 7">
       <r>  -35.1603    1.0000 </r>
       <r>  -35.1507    1.0000 </r>
       <r>  -34.9250    1.0000 </r>
       <r>  -34.9153    1.0000 </r>
       <r>  -34.8878    1.0000 </r>
       <r>  -34.8781    1.0000 </r>
       <r>  -12.1587    1.0000 </r>
       <r>  -12.1160    1.0000 </r>
       <r>  -11.9636    1.0000 </r>
       <r>  -11.9181    1.0000 </r>
       <r>   -5.6779    1.0000 </r>
       <r>   -5.6175    1.0000 </r>
       <r>   -4.7399    1.0000 </r>
       <r>   -4.6446    1.0000 </r>
       <r>   -4.0854    1.0000 </r>
       <r>   -3.9114    1.0000 </r>
       <r>   -3.1519    1.0000 </r>
       <r>   -3.1387    1.0000 </r>
       <r>   -2.0699    1.0000 </r>
       <r>   -1.7396    1.0000 </r>
       <r>   -1.0353    1.0000 </r>
       <r>   -1.0102    1.0000 </r>
       <r>   -0.7341    1.0000 </r>
       <r>   -0.5948    1.0000 </r>
       <r>    2.1192   -0.0000 </r>
       <r>    2.1312   -0.0000 </r>
       <r>    2.5489   -0.0000 </r>
       <r>    2.6429   -0.0000 </r>
       <r>    3.6681    0.0000 </r>
       <r>    3.9595    0.0000 </r>
       <r>    4.1376    0.0000 </r>
       <r>    4.1976    0.0000 </r>
       <r>    5.9725    0.0000 </r>
       <r>    6.5445    0.0000 </r>
       <r>    7.8955    0.0000 </r>
       <r>    8.0407    0.0000 </r>
      </set>
      <set comment="kpoint 8">
       <r>  -34.9919    1.0000 </r>
       <r>  -34.9822    1.0000 </r>
       <r>  -34.8264    1.0000 </r>
       <r>  -34.8166    1.0000 </r>
       <r>  -34.8098    1.0000 </r>
       <r>  -34.8003    1.0000 </r>
       <r>  -13.8888    1.0000 </r>
       <r>  -13.8328    1.0000 </r>
       <r>  -12.6729    1.0000 </r>
       <r>  -12.5817    1.0000 </r>
       <r>   -5.5874    1.0000 </r>
       <r>   -5.2994    1.0000 </r>
       <r>   -2.8125    1.0000 </r>
       <r>   -2.8019    1.0000 </r>
       <r>   -2.5346    1.0000 </r>
       <r>   -2.5247    1.0000 </r>
       <r>   -2.4633    1.0000 </r>
       <r>   -2.0728    1.0000 </r>
       <r>   -1.6694    1.0000 </r>
       <r>   -1.6589    1.0000 </r>
       <r>   -1.3565    1.0000 </r>
       <r>   -1.0751    1.0000 </r>
       <r>   -0.2442    1.0000 </r>
       <r>    0.1358    1.0348 </r>
       <r>    2.5909   -0.0000 </r>
       <r>    2.6051   -0.0000 </r>
       <r>    2.6469   -0.0000 </r>
       <r>    2.6954   -0.0000 </r>
       <r>    2.7804   -0.0000 </r>
       <r>    2.8033   -0.0000 </r>
       <r>    2.8464   -0.0000 </r>
       <r>    2.8603   -0.0000 </r>
       <r>    5.4090    0.0000 </r>
       <r>    5.5272    0.0000 </r>
       <r>    6.7395    0.0000 </r>
       <r>    6.9257    0.0000 </r>
      </set>
      <set comment="kpoint 9">
       <r>  -34.9842    1.0000 </r>
       <r>  -34.9745    1.0000 </r>
       <r>  -34.8653    1.0000 </r>
       <r>  -34.8556    1.0000 </r>
       <r>  -34.8199    1.0000 </r>
       <r>  -34.8104    1.0000 </r>
       <r>  -13.7212    1.0000 </r>
       <r>  -13.6656    1.0000 </r>
       <r>  -12.6020    1.0000 </r>
       <r>  -12.5152    1.0000 </r>
       <r>   -5.4058    1.0000 </r>
       <r>   -5.1203    1.0000 </r>
       <r>   -3.1267    1.0000 </r>
       <r>   -3.1145    1.0000 </r>
       <r>   -2.8003    1.0000 </r>
       <r>   -2.4867    1.0000 </r>
       <r>   -2.3664    1.0000 </r>
       <r>   -2.3565    1.0000 </r>
       <r>   -1.9828    1.0000 </r>
       <r>   -1.9716    1.0000 </r>
       <r>   -1.2038    1.0000 </r>
       <r>   -0.8882    1.0000 </r>
       <r>   -0.3197    1.0000 </r>
       <r>   -0.0374    1.0002 </r>
       <r>    2.2879   -0.0000 </r>
       <r>    2.4168   -0.0000 </r>
       <r>    2.4541   -0.0000 </r>
       <r>    2.5442   -0.0000 </r>
       <r>    2.6199   -0.0000 </r>
       <r>    2.6398   -0.0000 </r>
       <r>    3.1254    0.0000 </r>
       <r>    3.1392    0.0000 </r>
       <r>    5.6557    0.0000 </r>
       <r>    5.7682    0.0000 </r>
       <r>    7.2578    0.0000 </r>
       <r>    7.6218    0.0000 </r>
      </set>
      <set comment="kpoint 10">
       <r>  -34.9704    1.0000 </r>
       <r>  -34.9607    1.0000 </r>
       <r>  -34.9329    1.0000 </r>
       <r>  -34.9232    1.0000 </r>
       <r>  -34.8385    1.0000 </r>
       <r>  -34.8289    1.0000 </r>
       <r>  -13.4088    1.0000 </r>
       <r>  -13.3544    1.0000 </r>
       <r>  -12.4703    1.0000 </r>
       <r>  -12.3916    1.0000 </r>
       <r>   -5.1267    1.0000 </r>
       <r>   -4.8619    1.0000 </r>
       <r>   -3.5737    1.0000 </r>
       <r>   -3.5410    1.0000 </r>
       <r>   -3.2352    1.0000 </r>
       <r>   -3.0069    1.0000 </r>
       <r>   -2.4692    1.0000 </r>
       <r>   -2.4451    1.0000 </r>
       <r>   -2.0825    1.0000 </r>
       <r>   -2.0718    1.0000 </r>
       <r>   -1.1919    1.0000 </r>
       <r>   -0.8880    1.0000 </r>
       <r>   -0.5528    1.0000 </r>
       <r>   -0.4008    1.0000 </r>
       <r>    1.9440   -0.0000 </r>
       <r>    2.1812   -0.0000 </r>
       <r>    2.3916   -0.0000 </r>
       <r>    2.4090   -0.0000 </r>
       <r>    2.4660   -0.0000 </r>
       <r>    2.6285   -0.0000 </r>
       <r>    3.5346    0.0000 </r>
       <r>    3.5524    0.0000 </r>
       <r>    6.0882    0.0000 </r>
       <r>    6.1998    0.0000 </r>
       <r>    7.7912    0.0000 </r>
       <r>    8.2490    0.0000 </r>
      </set>
      <set comment="kpoint 11">
       <r>  -35.0132    1.0000 </r>
       <r>  -35.0035    1.0000 </r>
       <r>  -34.9538    1.0000 </r>
       <r>  -34.9441    1.0000 </r>
       <r>  -34.8609    1.0000 </r>
       <r>  -34.8512    1.0000 </r>
       <r>  -12.9992    1.0000 </r>
       <r>  -12.9472    1.0000 </r>
       <r>  -12.2988    1.0000 </r>
       <r>  -12.2308    1.0000 </r>
       <r>   -5.0020    1.0000 </r>
       <r>   -4.8324    1.0000 </r>
       <r>   -3.8879    1.0000 </r>
       <r>   -3.7619    1.0000 </r>
       <r>   -3.7256    1.0000 </r>
       <r>   -3.5979    1.0000 </r>
       <r>   -2.8643    1.0000 </r>
       <r>   -2.8071    1.0000 </r>
       <r>   -1.8004    1.0000 </r>
       <r>   -1.7864    1.0000 </r>
       <r>   -1.4124    1.0000 </r>
       <r>   -1.1284    1.0000 </r>
       <r>   -0.8578    1.0000 </r>
       <r>   -0.7777    1.0000 </r>
       <r>    1.8450   -0.0000 </r>
       <r>    2.0550   -0.0000 </r>
       <r>    2.2764   -0.0000 </r>
       <r>    2.3634   -0.0000 </r>
       <r>    2.7450   -0.0000 </r>
       <r>    2.9426   -0.0000 </r>
       <r>    3.8878    0.0000 </r>
       <r>    3.9165    0.0000 </r>
       <r>    6.6801    0.0000 </r>
       <r>    6.7784    0.0000 </r>
       <r>    8.2228    0.0000 </r>
       <r>    8.4549    0.0000 </r>
      </set>
      <set comment="kpoint 12">
       <r>  -35.0878    1.0000 </r>
       <r>  -35.0782    1.0000 </r>
       <r>  -34.9381    1.0000 </r>
       <r>  -34.9284    1.0000 </r>
       <r>  -34.8819    1.0000 </r>
       <r>  -34.8722    1.0000 </r>
       <r>  -12.5689    1.0000 </r>
       <r>  -12.5211    1.0000 </r>
       <r>  -12.1218    1.0000 </r>
       <r>  -12.0653    1.0000 </r>
       <r>   -5.2247    1.0000 </r>
       <r>   -5.1401    1.0000 </r>
       <r>   -4.3012    1.0000 </r>
       <r>   -4.2023    1.0000 </r>
       <r>   -3.9037    1.0000 </r>
       <r>   -3.7207    1.0000 </r>
       <r>   -3.0782    1.0000 </r>
       <r>   -3.0194    1.0000 </r>
       <r>   -1.7257    1.0000 </r>
       <r>   -1.6366    1.0000 </r>
       <r>   -1.6187    1.0000 </r>
       <r>   -1.4305    1.0000 </r>
       <r>   -0.8795    1.0000 </r>
       <r>   -0.8176    1.0000 </r>
       <r>    1.9561   -0.0000 </r>
       <r>    2.0905   -0.0000 </r>
       <r>    2.3131   -0.0000 </r>
       <r>    2.4287   -0.0000 </r>
       <r>    3.1713    0.0000 </r>
       <r>    3.3586    0.0000 </r>
       <r>    4.0843    0.0000 </r>
       <r>    4.1380    0.0000 </r>
       <r>    7.2474    0.0000 </r>
       <r>    7.3721    0.0000 </r>
       <r>    7.5199    0.0000 </r>
       <r>    8.0608    0.0000 </r>
      </set>
      <set comment="kpoint 13">
       <r>  -35.1401    1.0000 </r>
       <r>  -35.1305    1.0000 </r>
       <r>  -34.9270    1.0000 </r>
       <r>  -34.9173    1.0000 </r>
       <r>  -34.8968    1.0000 </r>
       <r>  -34.8871    1.0000 </r>
       <r>  -12.2275    1.0000 </r>
       <r>  -12.1843    1.0000 </r>
       <r>  -11.9845    1.0000 </r>
       <r>  -11.9375    1.0000 </r>
       <r>   -5.5081    1.0000 </r>
       <r>   -5.4460    1.0000 </r>
       <r>   -4.6885    1.0000 </r>
       <r>   -4.6086    1.0000 </r>
       <r>   -4.0084    1.0000 </r>
       <r>   -3.8281    1.0000 </r>
       <r>   -3.1659    1.0000 </r>
       <r>   -3.1255    1.0000 </r>
       <r>   -1.9610    1.0000 </r>
       <r>   -1.6715    1.0000 </r>
       <r>   -1.4959    1.0000 </r>
       <r>   -1.4677    1.0000 </r>
       <r>   -0.6695    1.0000 </r>
       <r>   -0.5870    1.0000 </r>
       <r>    2.1000   -0.0000 </r>
       <r>    2.1599   -0.0000 </r>
       <r>    2.4879   -0.0000 </r>
       <r>    2.5895   -0.0000 </r>
       <r>    3.5679    0.0000 </r>
       <r>    3.7175    0.0000 </r>
       <r>    4.0796    0.0000 </r>
       <r>    4.1823    0.0000 </r>
       <r>    6.3825    0.0000 </r>
       <r>    6.9344    0.0000 </r>
       <r>    8.0396    0.0000 </r>
       <r>    8.2742    0.0000 </r>
      </set>
      <set comment="kpoint 14">
       <r>  -35.1589    1.0000 </r>
       <r>  -35.1493    1.0000 </r>
       <r>  -34.9230    1.0000 </r>
       <r>  -34.9132    1.0000 </r>
       <r>  -34.9021    1.0000 </r>
       <r>  -34.8924    1.0000 </r>
       <r>  -12.0951    1.0000 </r>
       <r>  -12.0537    1.0000 </r>
       <r>  -11.9317    1.0000 </r>
       <r>  -11.8885    1.0000 </r>
       <r>   -5.6262    1.0000 </r>
       <r>   -5.5671    1.0000 </r>
       <r>   -4.8315    1.0000 </r>
       <r>   -4.7555    1.0000 </r>
       <r>   -4.0767    1.0000 </r>
       <r>   -3.9029    1.0000 </r>
       <r>   -3.1854    1.0000 </r>
       <r>   -3.1572    1.0000 </r>
       <r>   -2.0520    1.0000 </r>
       <r>   -1.7533    1.0000 </r>
       <r>   -1.4367    1.0000 </r>
       <r>   -1.3916    1.0000 </r>
       <r>   -0.5392    1.0000 </r>
       <r>   -0.4409    1.0000 </r>
       <r>    2.1360   -0.0000 </r>
       <r>    2.1592   -0.0000 </r>
       <r>    2.6335   -0.0000 </r>
       <r>    2.7106   -0.0000 </r>
       <r>    3.8021    0.0000 </r>
       <r>    3.8978    0.0000 </r>
       <r>    3.9751    0.0000 </r>
       <r>    4.1172    0.0000 </r>
       <r>    5.9449    0.0000 </r>
       <r>    6.5598    0.0000 </r>
       <r>    8.3371    0.0000 </r>
       <r>    8.3715    0.0000 </r>
      </set>
      <set comment="kpoint 15">
       <r>  -35.1401    1.0000 </r>
       <r>  -35.1305    1.0000 </r>
       <r>  -34.9270    1.0000 </r>
       <r>  -34.9173    1.0000 </r>
       <r>  -34.8968    1.0000 </r>
       <r>  -34.8871    1.0000 </r>
       <r>  -12.2279    1.0000 </r>
       <r>  -12.1840    1.0000 </r>
       <r>  -11.9847    1.0000 </r>
       <r>  -11.9371    1.0000 </r>
       <r>   -5.5082    1.0000 </r>
       <r>   -5.4458    1.0000 </r>
       <r>   -4.6889    1.0000 </r>
       <r>   -4.6083    1.0000 </r>
       <r>   -4.0084    1.0000 </r>
       <r>   -3.8278    1.0000 </r>
       <r>   -3.1655    1.0000 </r>
       <r>   -3.1264    1.0000 </r>
       <r>   -1.9634    1.0000 </r>
       <r>   -1.6721    1.0000 </r>
       <r>   -1.5053    1.0000 </r>
       <r>   -1.4541    1.0000 </r>
       <r>   -0.6687    1.0000 </r>
       <r>   -0.5879    1.0000 </r>
       <r>    2.1021   -0.0000 </r>
       <r>    2.1571   -0.0000 </r>
       <r>    2.4869   -0.0000 </r>
       <r>    2.5906   -0.0000 </r>
       <r>    3.5564    0.0000 </r>
       <r>    3.7284    0.0000 </r>
       <r>    4.0857    0.0000 </r>
       <r>    4.1781    0.0000 </r>
       <r>    6.3821    0.0000 </r>
       <r>    6.9349    0.0000 </r>
       <r>    7.9921    0.0000 </r>
       <r>    8.2081    0.0000 </r>
      </set>
      <set comment="kpoint 16">
       <r>  -35.0877    1.0000 </r>
       <r>  -35.0782    1.0000 </r>
       <r>  -34.9381    1.0000 </r>
       <r>  -34.9284    1.0000 </r>
       <r>  -34.8819    1.0000 </r>
       <r>  -34.8722    1.0000 </r>
       <r>  -12.5694    1.0000 </r>
       <r>  -12.5207    1.0000 </r>
       <r>  -12.1222    1.0000 </r>
       <r>  -12.0648    1.0000 </r>
       <r>   -5.2247    1.0000 </r>
       <r>   -5.1399    1.0000 </r>
       <r>   -4.3020    1.0000 </r>
       <r>   -4.2019    1.0000 </r>
       <r>   -3.9042    1.0000 </r>
       <r>   -3.7197    1.0000 </r>
       <r>   -3.0787    1.0000 </r>
       <r>   -3.0198    1.0000 </r>
       <r>   -1.7339    1.0000 </r>
       <r>   -1.6351    1.0000 </r>
       <r>   -1.6168    1.0000 </r>
       <r>   -1.4241    1.0000 </r>
       <r>   -0.8792    1.0000 </r>
       <r>   -0.8174    1.0000 </r>
       <r>    1.9550   -0.0000 </r>
       <r>    2.0899   -0.0000 </r>
       <r>    2.3132   -0.0000 </r>
       <r>    2.4297   -0.0000 </r>
       <r>    3.1615    0.0000 </r>
       <r>    3.3694    0.0000 </r>
       <r>    4.0865    0.0000 </r>
       <r>    4.1352    0.0000 </r>
       <r>    7.2471    0.0000 </r>
       <r>    7.3733    0.0000 </r>
       <r>    7.5214    0.0000 </r>
       <r>    8.0463    0.0000 </r>
      </set>
      <set comment="kpoint 17">
       <r>  -35.0131    1.0000 </r>
       <r>  -35.0036    1.0000 </r>
       <r>  -34.9538    1.0000 </r>
       <r>  -34.9441    1.0000 </r>
       <r>  -34.8609    1.0000 </r>
       <r>  -34.8512    1.0000 </r>
       <r>  -12.9995    1.0000 </r>
       <r>  -12.9470    1.0000 </r>
       <r>  -12.2992    1.0000 </r>
       <r>  -12.2303    1.0000 </r>
       <r>   -5.0020    1.0000 </r>
       <r>   -4.8324    1.0000 </r>
       <r>   -3.8896    1.0000 </r>
       <r>   -3.7600    1.0000 </r>
       <r>   -3.7264    1.0000 </r>
       <r>   -3.5969    1.0000 </r>
       <r>   -2.8657    1.0000 </r>
       <r>   -2.8065    1.0000 </r>
       <r>   -1.7999    1.0000 </r>
       <r>   -1.7877    1.0000 </r>
       <r>   -1.4154    1.0000 </r>
       <r>   -1.1245    1.0000 </r>
       <r>   -0.8577    1.0000 </r>
       <r>   -0.7751    1.0000 </r>
       <r>    1.8424   -0.0000 </r>
       <r>    2.0567   -0.0000 </r>
       <r>    2.2765   -0.0000 </r>
       <r>    2.3641   -0.0000 </r>
       <r>    2.7382   -0.0000 </r>
       <r>    2.9491   -0.0000 </r>
       <r>    3.8895    0.0000 </r>
       <r>    3.9135    0.0000 </r>
       <r>    6.6792    0.0000 </r>
       <r>    6.7784    0.0000 </r>
       <r>    8.1824    0.0000 </r>
       <r>    8.4983    0.0000 </r>
      </set>
      <set comment="kpoint 18">
       <r>  -34.9704    1.0000 </r>
       <r>  -34.9607    1.0000 </r>
       <r>  -34.9328    1.0000 </r>
       <r>  -34.9232    1.0000 </r>
       <r>  -34.8386    1.0000 </r>
       <r>  -34.8288    1.0000 </r>
       <r>  -13.4091    1.0000 </r>
       <r>  -13.3542    1.0000 </r>
       <r>  -12.4706    1.0000 </r>
       <r>  -12.3912    1.0000 </r>
       <r>   -5.1271    1.0000 </r>
       <r>   -4.8616    1.0000 </r>
       <r>   -3.5740    1.0000 </r>
       <r>   -3.5407    1.0000 </r>
       <r>   -3.2345    1.0000 </r>
       <r>   -3.0075    1.0000 </r>
       <r>   -2.4706    1.0000 </r>
       <r>   -2.4441    1.0000 </r>
       <r>   -2.0824    1.0000 </r>
       <r>   -2.0718    1.0000 </r>
       <r>   -1.1972    1.0000 </r>
       <r>   -0.8839    1.0000 </r>
       <r>   -0.5542    1.0000 </r>
       <r>   -0.3942    1.0000 </r>
       <r>    1.9408   -0.0000 </r>
       <r>    2.1807   -0.0000 </r>
       <r>    2.3931   -0.0000 </r>
       <r>    2.4101   -0.0000 </r>
       <r>    2.4616   -0.0000 </r>
       <r>    2.6311   -0.0000 </r>
       <r>    3.5380    0.0000 </r>
       <r>    3.5482    0.0000 </r>
       <r>    6.0882    0.0000 </r>
       <r>    6.1999    0.0000 </r>
       <r>    7.7915    0.0000 </r>
       <r>    8.2474    0.0000 </r>
      </set>
      <set comment="kpoint 19">
       <r>  -34.9842    1.0000 </r>
       <r>  -34.9745    1.0000 </r>
       <r>  -34.8652    1.0000 </r>
       <r>  -34.8557    1.0000 </r>
       <r>  -34.8201    1.0000 </r>
       <r>  -34.8103    1.0000 </r>
       <r>  -13.7213    1.0000 </r>
       <r>  -13.6655    1.0000 </r>
       <r>  -12.6022    1.0000 </r>
       <r>  -12.5150    1.0000 </r>
       <r>   -5.4062    1.0000 </r>
       <r>   -5.1200    1.0000 </r>
       <r>   -3.1263    1.0000 </r>
       <r>   -3.1150    1.0000 </r>
       <r>   -2.7995    1.0000 </r>
       <r>   -2.4874    1.0000 </r>
       <r>   -2.3663    1.0000 </r>
       <r>   -2.3566    1.0000 </r>
       <r>   -1.9827    1.0000 </r>
       <r>   -1.9720    1.0000 </r>
       <r>   -1.2096    1.0000 </r>
       <r>   -0.8835    1.0000 </r>
       <r>   -0.3212    1.0000 </r>
       <r>   -0.0304    1.0002 </r>
       <r>    2.2784   -0.0000 </r>
       <r>    2.4159   -0.0000 </r>
       <r>    2.4515   -0.0000 </r>
       <r>    2.5525   -0.0000 </r>
       <r>    2.6229   -0.0000 </r>
       <r>    2.6373   -0.0000 </r>
       <r>    3.1257    0.0000 </r>
       <r>    3.1386    0.0000 </r>
       <r>    5.6533    0.0000 </r>
       <r>    5.7683    0.0000 </r>
       <r>    7.2639    0.0000 </r>
       <r>    7.5917    0.0000 </r>
      </set>
      <set comment="kpoint 20">
       <r>  -34.9919    1.0000 </r>
       <r>  -34.9822    1.0000 </r>
       <r>  -34.8263    1.0000 </r>
       <r>  -34.8167    1.0000 </r>
       <r>  -34.8100    1.0000 </r>
       <r>  -34.8002    1.0000 </r>
       <r>  -13.8889    1.0000 </r>
       <r>  -13.8328    1.0000 </r>
       <r>  -12.6729    1.0000 </r>
       <r>  -12.5816    1.0000 </r>
       <r>   -5.5875    1.0000 </r>
       <r>   -5.2992    1.0000 </r>
       <r>   -2.8124    1.0000 </r>
       <r>   -2.8020    1.0000 </r>
       <r>   -2.5344    1.0000 </r>
       <r>   -2.5250    1.0000 </r>
       <r>   -2.4627    1.0000 </r>
       <r>   -2.0728    1.0000 </r>
       <r>   -1.6691    1.0000 </r>
       <r>   -1.6593    1.0000 </r>
       <r>   -1.3608    1.0000 </r>
       <r>   -1.0716    1.0000 </r>
       <r>   -0.2447    1.0000 </r>
       <r>    0.1386    1.0341 </r>
       <r>    2.5838   -0.0000 </r>
       <r>    2.6043   -0.0000 </r>
       <r>    2.6388   -0.0000 </r>
       <r>    2.7060   -0.0000 </r>
       <r>    2.7879   -0.0000 </r>
       <r>    2.8005   -0.0000 </r>
       <r>    2.8471   -0.0000 </r>
       <r>    2.8580   -0.0000 </r>
       <r>    5.4090    0.0000 </r>
       <r>    5.5273    0.0000 </r>
       <r>    6.7417    0.0000 </r>
       <r>    6.9252    0.0000 </r>
      </set>
      <set comment="kpoint 21">
       <r>  -34.9805    1.0000 </r>
       <r>  -34.9708    1.0000 </r>
       <r>  -34.8849    1.0000 </r>
       <r>  -34.8751    1.0000 </r>
       <r>  -34.8232    1.0000 </r>
       <r>  -34.8137    1.0000 </r>
       <r>  -13.6401    1.0000 </r>
       <r>  -13.5852    1.0000 </r>
       <r>  -12.5676    1.0000 </r>
       <r>  -12.4837    1.0000 </r>
       <r>   -5.3267    1.0000 </r>
       <r>   -5.0458    1.0000 </r>
       <r>   -3.2628    1.0000 </r>
       <r>   -3.2497    1.0000 </r>
       <r>   -2.9624    1.0000 </r>
       <r>   -2.6890    1.0000 </r>
       <r>   -2.2794    1.0000 </r>
       <r>   -2.2687    1.0000 </r>
       <r>   -2.0053    1.0000 </r>
       <r>   -1.9931    1.0000 </r>
       <r>   -1.2625    1.0000 </r>
       <r>   -0.9522    1.0000 </r>
       <r>   -0.3719    1.0000 </r>
       <r>   -0.1501    1.0000 </r>
       <r>    2.1855   -0.0000 </r>
       <r>    2.3562   -0.0000 </r>
       <r>    2.4975   -0.0000 </r>
       <r>    2.5473   -0.0000 </r>
       <r>    2.5810   -0.0000 </r>
       <r>    2.6101   -0.0000 </r>
       <r>    3.1885    0.0000 </r>
       <r>    3.2135    0.0000 </r>
       <r>    5.7619    0.0000 </r>
       <r>    5.8761    0.0000 </r>
       <r>    7.4050    0.0000 </r>
       <r>    7.8161    0.0000 </r>
      </set>
      <set comment="kpoint 22">
       <r>  -34.9704    1.0000 </r>
       <r>  -34.9607    1.0000 </r>
       <r>  -34.9329    1.0000 </r>
       <r>  -34.9231    1.0000 </r>
       <r>  -34.8384    1.0000 </r>
       <r>  -34.8289    1.0000 </r>
       <r>  -13.4084    1.0000 </r>
       <r>  -13.3547    1.0000 </r>
       <r>  -12.4697    1.0000 </r>
       <r>  -12.3922    1.0000 </r>
       <r>   -5.1262    1.0000 </r>
       <r>   -4.8622    1.0000 </r>
       <r>   -3.5686    1.0000 </r>
       <r>   -3.5461    1.0000 </r>
       <r>   -3.2348    1.0000 </r>
       <r>   -3.0082    1.0000 </r>
       <r>   -2.4708    1.0000 </r>
       <r>   -2.4427    1.0000 </r>
       <r>   -2.0829    1.0000 </r>
       <r>   -2.0714    1.0000 </r>
       <r>   -1.1736    1.0000 </r>
       <r>   -0.9016    1.0000 </r>
       <r>   -0.5481    1.0000 </r>
       <r>   -0.4185    1.0000 </r>
       <r>    1.9541   -0.0000 </r>
       <r>    2.1813   -0.0000 </r>
       <r>    2.3854   -0.0000 </r>
       <r>    2.4243   -0.0000 </r>
       <r>    2.4604   -0.0000 </r>
       <r>    2.6248   -0.0000 </r>
       <r>    3.5248    0.0000 </r>
       <r>    3.5610    0.0000 </r>
       <r>    6.0891    0.0000 </r>
       <r>    6.1984    0.0000 </r>
       <r>    7.7937    0.0000 </r>
       <r>    8.2597    0.0000 </r>
      </set>
      <set comment="kpoint 23">
       <r>  -34.9950    1.0000 </r>
       <r>  -34.9853    1.0000 </r>
       <r>  -34.9562    1.0000 </r>
       <r>  -34.9464    1.0000 </r>
       <r>  -34.8648    1.0000 </r>
       <r>  -34.8552    1.0000 </r>
       <r>  -13.0598    1.0000 </r>
       <r>  -13.0084    1.0000 </r>
       <r>  -12.3222    1.0000 </r>
       <r>  -12.2541    1.0000 </r>
       <r>   -4.9539    1.0000 </r>
       <r>   -4.7565    1.0000 </r>
       <r>   -3.8188    1.0000 </r>
       <r>   -3.7348    1.0000 </r>
       <r>   -3.5259    1.0000 </r>
       <r>   -3.4018    1.0000 </r>
       <r>   -3.0996    1.0000 </r>
       <r>   -2.9982    1.0000 </r>
       <r>   -1.9532    1.0000 </r>
       <r>   -1.9381    1.0000 </r>
       <r>   -1.1571    1.0000 </r>
       <r>   -0.9343    1.0000 </r>
       <r>   -0.7883    1.0000 </r>
       <r>   -0.7265    1.0000 </r>
       <r>    1.7535   -0.0000 </r>
       <r>    1.9846   -0.0000 </r>
       <r>    2.3162   -0.0000 </r>
       <r>    2.3990   -0.0000 </r>
       <r>    2.5130   -0.0000 </r>
       <r>    2.7082   -0.0000 </r>
       <r>    3.9203    0.0000 </r>
       <r>    3.9809    0.0000 </r>
       <r>    6.6064    0.0000 </r>
       <r>    6.7059    0.0000 </r>
       <r>    8.3109    0.0000 </r>
       <r>    8.6022    0.0000 </r>
      </set>
      <set comment="kpoint 24">
       <r>  -35.0578    1.0000 </r>
       <r>  -35.0481    1.0000 </r>
       <r>  -34.9410    1.0000 </r>
       <r>  -34.9313    1.0000 </r>
       <r>  -34.8951    1.0000 </r>
       <r>  -34.8855    1.0000 </r>
       <r>  -12.6539    1.0000 </r>
       <r>  -12.6064    1.0000 </r>
       <r>  -12.1507    1.0000 </r>
       <r>  -12.0936    1.0000 </r>
       <r>   -5.0297    1.0000 </r>
       <r>   -4.9247    1.0000 </r>
       <r>   -4.1053    1.0000 </r>
       <r>   -4.0531    1.0000 </r>
       <r>   -3.8088    1.0000 </r>
       <r>   -3.6445    1.0000 </r>
       <r>   -3.3160    1.0000 </r>
       <r>   -3.1657    1.0000 </r>
       <r>   -2.0809    1.0000 </r>
       <r>   -2.0578    1.0000 </r>
       <r>   -1.3804    1.0000 </r>
       <r>   -1.1756    1.0000 </r>
       <r>   -0.8454    1.0000 </r>
       <r>   -0.8125    1.0000 </r>
       <r>    1.7828   -0.0000 </r>
       <r>    2.0382   -0.0000 </r>
       <r>    2.3840   -0.0000 </r>
       <r>    2.4409   -0.0000 </r>
       <r>    2.7814   -0.0000 </r>
       <r>    2.9555   -0.0000 </r>
       <r>    4.1725    0.0000 </r>
       <r>    4.2668    0.0000 </r>
       <r>    7.2481    0.0000 </r>
       <r>    7.3347    0.0000 </r>
       <r>    8.1086    0.0000 </r>
       <r>    8.5538    0.0000 </r>
      </set>
      <set comment="kpoint 25">
       <r>  -35.1084    1.0000 </r>
       <r>  -35.0987    1.0000 </r>
       <r>  -34.9284    1.0000 </r>
       <r>  -34.9211    1.0000 </r>
       <r>  -34.9187    1.0000 </r>
       <r>  -34.9115    1.0000 </r>
       <r>  -12.2802    1.0000 </r>
       <r>  -12.2377    1.0000 </r>
       <r>  -11.9938    1.0000 </r>
       <r>  -11.9470    1.0000 </r>
       <r>   -5.2304    1.0000 </r>
       <r>   -5.1623    1.0000 </r>
       <r>   -4.6476    1.0000 </r>
       <r>   -4.6048    1.0000 </r>
       <r>   -3.8436    1.0000 </r>
       <r>   -3.6577    1.0000 </r>
       <r>   -3.2875    1.0000 </r>
       <r>   -3.1617    1.0000 </r>
       <r>   -2.2139    1.0000 </r>
       <r>   -2.1791    1.0000 </r>
       <r>   -1.7226    1.0000 </r>
       <r>   -1.5102    1.0000 </r>
       <r>   -0.6725    1.0000 </r>
       <r>   -0.6367    1.0000 </r>
       <r>    2.0047   -0.0000 </r>
       <r>    2.2135   -0.0000 </r>
       <r>    2.5034   -0.0000 </r>
       <r>    2.5478   -0.0000 </r>
       <r>    3.1467    0.0000 </r>
       <r>    3.2567    0.0000 </r>
       <r>    4.2303    0.0000 </r>
       <r>    4.3833    0.0000 </r>
       <r>    7.0220    0.0000 </r>
       <r>    7.5003    0.0000 </r>
       <r>    8.0688    0.0000 </r>
       <r>    8.3505    0.0000 </r>
      </set>
      <set comment="kpoint 26">
       <r>  -35.1365    1.0000 </r>
       <r>  -35.1269    1.0000 </r>
       <r>  -34.9360    1.0000 </r>
       <r>  -34.9264    1.0000 </r>
       <r>  -34.9212    1.0000 </r>
       <r>  -34.9115    1.0000 </r>
       <r>  -12.0503    1.0000 </r>
       <r>  -12.0112    1.0000 </r>
       <r>  -11.8973    1.0000 </r>
       <r>  -11.8570    1.0000 </r>
       <r>   -5.3624    1.0000 </r>
       <r>   -5.3043    1.0000 </r>
       <r>   -4.9559    1.0000 </r>
       <r>   -4.9129    1.0000 </r>
       <r>   -3.9819    1.0000 </r>
       <r>   -3.8050    1.0000 </r>
       <r>   -3.1999    1.0000 </r>
       <r>   -3.1083    1.0000 </r>
       <r>   -2.2208    1.0000 </r>
       <r>   -2.1623    1.0000 </r>
       <r>   -1.9843    1.0000 </r>
       <r>   -1.7527    1.0000 </r>
       <r>   -0.4505    1.0000 </r>
       <r>   -0.3895    1.0000 </r>
       <r>    2.0537   -0.0000 </r>
       <r>    2.1096   -0.0000 </r>
       <r>    2.7483   -0.0000 </r>
       <r>    2.8645   -0.0000 </r>
       <r>    3.4205    0.0000 </r>
       <r>    3.4715    0.0000 </r>
       <r>    4.1558    0.0000 </r>
       <r>    4.3836    0.0000 </r>
       <r>    6.2835    0.0000 </r>
       <r>    6.9225    0.0000 </r>
       <r>    8.6986    0.0000 </r>
       <r>    8.9172    0.0000 </r>
      </set>
      <set comment="kpoint 27">
       <r>  -35.1365    1.0000 </r>
       <r>  -35.1269    1.0000 </r>
       <r>  -34.9361    1.0000 </r>
       <r>  -34.9264    1.0000 </r>
       <r>  -34.9212    1.0000 </r>
       <r>  -34.9115    1.0000 </r>
       <r>  -12.0509    1.0000 </r>
       <r>  -12.0109    1.0000 </r>
       <r>  -11.8976    1.0000 </r>
       <r>  -11.8565    1.0000 </r>
       <r>   -5.3624    1.0000 </r>
       <r>   -5.3040    1.0000 </r>
       <r>   -4.9561    1.0000 </r>
       <r>   -4.9128    1.0000 </r>
       <r>   -3.9820    1.0000 </r>
       <r>   -3.8050    1.0000 </r>
       <r>   -3.1995    1.0000 </r>
       <r>   -3.1090    1.0000 </r>
       <r>   -2.2290    1.0000 </r>
       <r>   -2.1572    1.0000 </r>
       <r>   -1.9816    1.0000 </r>
       <r>   -1.7511    1.0000 </r>
       <r>   -0.4505    1.0000 </r>
       <r>   -0.3898    1.0000 </r>
       <r>    2.0547   -0.0000 </r>
       <r>    2.1087   -0.0000 </r>
       <r>    2.7484   -0.0000 </r>
       <r>    2.8643   -0.0000 </r>
       <r>    3.3960    0.0000 </r>
       <r>    3.4971    0.0000 </r>
       <r>    4.1565    0.0000 </r>
       <r>    4.3830    0.0000 </r>
       <r>    6.2826    0.0000 </r>
       <r>    6.9225    0.0000 </r>
       <r>    8.6853    0.0000 </r>
       <r>    8.8463    0.0000 </r>
      </set>
      <set comment="kpoint 28">
       <r>  -35.1083    1.0000 </r>
       <r>  -35.0988    1.0000 </r>
       <r>  -34.9284    1.0000 </r>
       <r>  -34.9212    1.0000 </r>
       <r>  -34.9187    1.0000 </r>
       <r>  -34.9114    1.0000 </r>
       <r>  -12.2812    1.0000 </r>
       <r>  -12.2370    1.0000 </r>
       <r>  -11.9946    1.0000 </r>
       <r>  -11.9459    1.0000 </r>
       <r>   -5.2305    1.0000 </r>
       <r>   -5.1618    1.0000 </r>
       <r>   -4.6482    1.0000 </r>
       <r>   -4.6041    1.0000 </r>
       <r>   -3.8449    1.0000 </r>
       <r>   -3.6570    1.0000 </r>
       <r>   -3.2881    1.0000 </r>
       <r>   -3.1621    1.0000 </r>
       <r>   -2.2243    1.0000 </r>
       <r>   -2.1711    1.0000 </r>
       <r>   -1.7210    1.0000 </r>
       <r>   -1.5061    1.0000 </r>
       <r>   -0.6718    1.0000 </r>
       <r>   -0.6379    1.0000 </r>
       <r>    2.0064   -0.0000 </r>
       <r>    2.2105   -0.0000 </r>
       <r>    2.5021   -0.0000 </r>
       <r>    2.5501   -0.0000 </r>
       <r>    3.1263    0.0000 </r>
       <r>    3.2792    0.0000 </r>
       <r>    4.2311    0.0000 </r>
       <r>    4.3818    0.0000 </r>
       <r>    7.0219    0.0000 </r>
       <r>    7.5009    0.0000 </r>
       <r>    8.0611    0.0000 </r>
       <r>    8.3550    0.0000 </r>
      </set>
      <set comment="kpoint 29">
       <r>  -35.0577    1.0000 </r>
       <r>  -35.0482    1.0000 </r>
       <r>  -34.9410    1.0000 </r>
       <r>  -34.9313    1.0000 </r>
       <r>  -34.8952    1.0000 </r>
       <r>  -34.8855    1.0000 </r>
       <r>  -12.6548    1.0000 </r>
       <r>  -12.6057    1.0000 </r>
       <r>  -12.1517    1.0000 </r>
       <r>  -12.0925    1.0000 </r>
       <r>   -5.0293    1.0000 </r>
       <r>   -4.9248    1.0000 </r>
       <r>   -4.1058    1.0000 </r>
       <r>   -4.0512    1.0000 </r>
       <r>   -3.8145    1.0000 </r>
       <r>   -3.6413    1.0000 </r>
       <r>   -3.3172    1.0000 </r>
       <r>   -3.1648    1.0000 </r>
       <r>   -2.0788    1.0000 </r>
       <r>   -2.0605    1.0000 </r>
       <r>   -1.3846    1.0000 </r>
       <r>   -1.1677    1.0000 </r>
       <r>   -0.8407    1.0000 </r>
       <r>   -0.8163    1.0000 </r>
       <r>    1.7818   -0.0000 </r>
       <r>    2.0382   -0.0000 </r>
       <r>    2.3839   -0.0000 </r>
       <r>    2.4426   -0.0000 </r>
       <r>    2.7720   -0.0000 </r>
       <r>    2.9644   -0.0000 </r>
       <r>    4.1724    0.0000 </r>
       <r>    4.2658    0.0000 </r>
       <r>    7.2483    0.0000 </r>
       <r>    7.3347    0.0000 </r>
       <r>    8.1240    0.0000 </r>
       <r>    8.4979    0.0000 </r>
      </set>
      <set comment="kpoint 30">
       <r>  -34.9949    1.0000 </r>
       <r>  -34.9854    1.0000 </r>
       <r>  -34.9562    1.0000 </r>
       <r>  -34.9464    1.0000 </r>
       <r>  -34.8649    1.0000 </r>
       <r>  -34.8551    1.0000 </r>
       <r>  -13.0605    1.0000 </r>
       <r>  -13.0079    1.0000 </r>
       <r>  -12.3230    1.0000 </r>
       <r>  -12.2532    1.0000 </r>
       <r>   -4.9537    1.0000 </r>
       <r>   -4.7569    1.0000 </r>
       <r>   -3.8233    1.0000 </r>
       <r>   -3.7293    1.0000 </r>
       <r>   -3.5268    1.0000 </r>
       <r>   -3.4021    1.0000 </r>
       <r>   -3.1021    1.0000 </r>
       <r>   -2.9961    1.0000 </r>
       <r>   -1.9505    1.0000 </r>
       <r>   -1.9411    1.0000 </r>
       <r>   -1.1685    1.0000 </r>
       <r>   -0.9263    1.0000 </r>
       <r>   -0.7880    1.0000 </r>
       <r>   -0.7176    1.0000 </r>
       <r>    1.7509   -0.0000 </r>
       <r>    1.9853   -0.0000 </r>
       <r>    2.3158   -0.0000 </r>
       <r>    2.4000   -0.0000 </r>
       <r>    2.5086   -0.0000 </r>
       <r>    2.7103   -0.0000 </r>
       <r>    3.9234    0.0000 </r>
       <r>    3.9770    0.0000 </r>
       <r>    6.6060    0.0000 </r>
       <r>    6.7067    0.0000 </r>
       <r>    8.3103    0.0000 </r>
       <r>    8.5917    0.0000 </r>
      </set>
      <set comment="kpoint 31">
       <r>  -34.9704    1.0000 </r>
       <r>  -34.9607    1.0000 </r>
       <r>  -34.9328    1.0000 </r>
       <r>  -34.9233    1.0000 </r>
       <r>  -34.8386    1.0000 </r>
       <r>  -34.8288    1.0000 </r>
       <r>  -13.4088    1.0000 </r>
       <r>  -13.3544    1.0000 </r>
       <r>  -12.4703    1.0000 </r>
       <r>  -12.3916    1.0000 </r>
       <r>   -5.1268    1.0000 </r>
       <r>   -4.8618    1.0000 </r>
       <r>   -3.5713    1.0000 </r>
       <r>   -3.5435    1.0000 </r>
       <r>   -3.2342    1.0000 </r>
       <r>   -3.0082    1.0000 </r>
       <r>   -2.4710    1.0000 </r>
       <r>   -2.4432    1.0000 </r>
       <r>   -2.0820    1.0000 </r>
       <r>   -2.0723    1.0000 </r>
       <r>   -1.1876    1.0000 </r>
       <r>   -0.8909    1.0000 </r>
       <r>   -0.5518    1.0000 </r>
       <r>   -0.4039    1.0000 </r>
       <r>    1.9464   -0.0000 </r>
       <r>    2.1809   -0.0000 </r>
       <r>    2.3914   -0.0000 </r>
       <r>    2.4174   -0.0000 </r>
       <r>    2.4580   -0.0000 </r>
       <r>    2.6292   -0.0000 </r>
       <r>    3.5352    0.0000 </r>
       <r>    3.5502    0.0000 </r>
       <r>    6.0885    0.0000 </r>
       <r>    6.1991    0.0000 </r>
       <r>    7.7960    0.0000 </r>
       <r>    8.2859    0.0000 </r>
      </set>
      <set comment="kpoint 32">
       <r>  -34.9805    1.0000 </r>
       <r>  -34.9708    1.0000 </r>
       <r>  -34.8848    1.0000 </r>
       <r>  -34.8752    1.0000 </r>
       <r>  -34.8234    1.0000 </r>
       <r>  -34.8136    1.0000 </r>
       <r>  -13.6403    1.0000 </r>
       <r>  -13.5851    1.0000 </r>
       <r>  -12.5679    1.0000 </r>
       <r>  -12.4834    1.0000 </r>
       <r>   -5.3271    1.0000 </r>
       <r>   -5.0454    1.0000 </r>
       <r>   -3.2639    1.0000 </r>
       <r>   -3.2488    1.0000 </r>
       <r>   -2.9620    1.0000 </r>
       <r>   -2.6888    1.0000 </r>
       <r>   -2.2788    1.0000 </r>
       <r>   -2.2692    1.0000 </r>
       <r>   -2.0043    1.0000 </r>
       <r>   -1.9944    1.0000 </r>
       <r>   -1.2743    1.0000 </r>
       <r>   -0.9429    1.0000 </r>
       <r>   -0.3746    1.0000 </r>
       <r>   -0.1395    1.0000 </r>
       <r>    2.1728   -0.0000 </r>
       <r>    2.3579   -0.0000 </r>
       <r>    2.4918   -0.0000 </r>
       <r>    2.5584   -0.0000 </r>
       <r>    2.5707   -0.0000 </r>
       <r>    2.6197   -0.0000 </r>
       <r>    3.1947    0.0000 </r>
       <r>    3.2070    0.0000 </r>
       <r>    5.7638    0.0000 </r>
       <r>    5.8765    0.0000 </r>
       <r>    7.4045    0.0000 </r>
       <r>    7.8305    0.0000 </r>
      </set>
      <set comment="kpoint 33">
       <r>  -34.9842    1.0000 </r>
       <r>  -34.9745    1.0000 </r>
       <r>  -34.8653    1.0000 </r>
       <r>  -34.8556    1.0000 </r>
       <r>  -34.8199    1.0000 </r>
       <r>  -34.8103    1.0000 </r>
       <r>  -13.7210    1.0000 </r>
       <r>  -13.6657    1.0000 </r>
       <r>  -12.6018    1.0000 </r>
       <r>  -12.5155    1.0000 </r>
       <r>   -5.4054    1.0000 </r>
       <r>   -5.1208    1.0000 </r>
       <r>   -3.1271    1.0000 </r>
       <r>   -3.1140    1.0000 </r>
       <r>   -2.8014    1.0000 </r>
       <r>   -2.4857    1.0000 </r>
       <r>   -2.3664    1.0000 </r>
       <r>   -2.3565    1.0000 </r>
       <r>   -1.9830    1.0000 </r>
       <r>   -1.9712    1.0000 </r>
       <r>   -1.1960    1.0000 </r>
       <r>   -0.8946    1.0000 </r>
       <r>   -0.3175    1.0000 </r>
       <r>   -0.0465    1.0001 </r>
       <r>    2.2999   -0.0000 </r>
       <r>    2.4177   -0.0000 </r>
       <r>    2.4588   -0.0000 </r>
       <r>    2.5363   -0.0000 </r>
       <r>    2.6158   -0.0000 </r>
       <r>    2.6400   -0.0000 </r>
       <r>    3.1214    0.0000 </r>
       <r>    3.1433    0.0000 </r>
       <r>    5.6536    0.0000 </r>
       <r>    5.7679    0.0000 </r>
       <r>    7.2624    0.0000 </r>
       <r>    7.5942    0.0000 </r>
      </set>
      <set comment="kpoint 34">
       <r>  -34.9664    1.0000 </r>
       <r>  -34.9644    1.0000 </r>
       <r>  -34.9569    1.0000 </r>
       <r>  -34.9544    1.0000 </r>
       <r>  -34.8421    1.0000 </r>
       <r>  -34.8326    1.0000 </r>
       <r>  -13.2643    1.0000 </r>
       <r>  -13.2124    1.0000 </r>
       <r>  -12.4092    1.0000 </r>
       <r>  -12.3372    1.0000 </r>
       <r>   -5.0629    1.0000 </r>
       <r>   -4.8290    1.0000 </r>
       <r>   -3.7211    1.0000 </r>
       <r>   -3.6844    1.0000 </r>
       <r>   -3.4908    1.0000 </r>
       <r>   -3.3100    1.0000 </r>
       <r>   -2.4012    1.0000 </r>
       <r>   -2.3874    1.0000 </r>
       <r>   -1.9110    1.0000 </r>
[...]
       <r>    -2.2597     1.4658    18.3166 </r>
       <r>    -2.0979     2.6210    18.7407 </r>
       <r>    -1.9361     4.1084    19.4053 </r>
       <r>    -1.7744     2.9869    19.8886 </r>
       <r>    -1.6126     3.4607    20.4484 </r>
       <r>    -1.4508     2.9338    20.9231 </r>
       <r>    -1.2890     2.3362    21.3010 </r>
       <r>    -1.1272     2.1281    21.6453 </r>
       <r>    -0.9654     1.3878    21.8699 </r>
       <r>    -0.8037     3.6039    22.4529 </r>
       <r>    -0.6419     2.9444    22.9293 </r>
       <r>    -0.4801     2.1812    23.2821 </r>
       <r>    -0.3183     2.5280    23.6911 </r>
       <r>    -0.1565     1.0312    23.8580 </r>
       <r>     0.0053     0.5963    23.9544 </r>
       <r>     0.1670     0.1922    23.9855 </r>
       <r>     0.3288     0.0931    24.0006 </r>
       <r>     0.4906    -0.0036    24.0000 </r>
       <r>     0.6524    -0.0000    24.0000 </r>
       <r>     0.8142    -0.0000    24.0000 </r>
       <r>     0.9760    -0.0000    24.0000 </r>
       <r>     1.1377    -0.0000    24.0000 </r>
       <r>     1.2995    -0.0000    24.0000 </r>
       <r>     1.4613    -0.0018    23.9997 </r>
       <r>     1.6231     0.0173    24.0025 </r>
       <r>     1.7849     0.8866    24.1460 </r>
       <r>     1.9467     1.9829    24.4667 </r>
       <r>     2.1084     4.7922    25.2420 </r>
       <r>     2.2702     4.1712    25.9169 </r>
       <r>     2.4320     4.3579    26.6219 </r>
       <r>     2.5938     5.1997    27.4631 </r>
       <r>     2.7556     3.7672    28.0726 </r>
       <r>     2.9173     3.0890    28.5723 </r>
       <r>     3.0791     2.5147    28.9792 </r>
       <r>     3.2409     2.9501    29.4565 </r>
       <r>     3.4027     1.7099    29.7331 </r>
       <r>     3.5645     1.9743    30.0525 </r>
       <r>     3.7263     1.2852    30.2604 </r>
       <r>     3.8880     1.4166    30.4896 </r>
       <r>     4.0498     2.0168    30.8159 </r>
       <r>     4.2116     3.0926    31.3162 </r>
       <r>     4.3734     1.8849    31.6212 </r>
       <r>     4.5352     1.2307    31.8203 </r>
       <r>     4.6970     0.8755    31.9619 </r>
       <r>     4.8587     0.2433    32.0013 </r>
       <r>     5.0205    -0.0077    32.0000 </r>
       <r>     5.1823    -0.0013    31.9998 </r>
       <r>     5.3441     0.0524    32.0083 </r>
       <r>     5.5059     0.3119    32.0587 </r>
       <r>     5.6677     0.2792    32.1039 </r>
       <r>     5.8294     0.5297    32.1896 </r>
       <r>     5.9912     0.3349    32.2438 </r>
       <r>     6.1530     0.6961    32.3564 </r>
       <r>     6.3148     0.8455    32.4932 </r>
       <r>     6.4766     0.9447    32.6460 </r>
       <r>     6.6384     0.8966    32.7911 </r>
       <r>     6.8001     1.5886    33.0481 </r>
       <r>     6.9619     1.6785    33.3197 </r>
       <r>     7.1237     1.0475    33.4891 </r>
       <r>     7.2855     1.4733    33.7275 </r>
       <r>     7.4473     1.9127    34.0369 </r>
       <r>     7.6090     1.2168    34.2338 </r>
       <r>     7.7708     0.6082    34.3322 </r>
       <r>     7.9326     1.4308    34.5637 </r>
       <r>     8.0944     1.7773    34.8512 </r>
       <r>     8.2562     2.3302    35.2282 </r>
       <r>     8.4180     1.8290    35.5241 </r>
       <r>     8.5797     1.2759    35.7305 </r>
       <r>     8.7415     1.1033    35.9090 </r>
       <r>     8.9033     0.4522    35.9822 </r>
       <r>     9.0651     0.1158    36.0009 </r>
       <r>     9.2269    -0.0056    36.0000 </r>
       <r>     9.3887    -0.0000    36.0000 </r>
       <r>     9.5504    -0.0000    36.0000 </r>
       <r>     9.7122     0.0000    36.0000 </r>
       <r>     9.8740     0.0000    36.0000 </r>
       <r>    10.0358     0.0000    36.0000 </r>
       <r>    10.1976     0.0000    36.0000 </r>
       <r>    10.3594     0.0000    36.0000 </r>
       <r>    10.5211     0.0000    36.0000 </r>
       <r>    10.6829     0.0000    36.0000 </r>
       <r>    10.8447     0.0000    36.0000 </r>
       <r>    11.0065     0.0000    36.0000 </r>
       <r>    11.1683     0.0000    36.0000 </r>
      </set>
      <set comment="spin 2">
       <r>   -37.3666     0.0000     0.0000 </r>
       <r>   -37.2048     0.0000     0.0000 </r>
       <r>   -37.0430     0.0000     0.0000 </r>
       <r>   -36.8812     0.0000     0.0000 </r>
       <r>   -36.7194     0.0000     0.0000 </r>
       <r>   -36.5577     0.0000     0.0000 </r>
       <r>   -36.3959     0.0000     0.0000 </r>
       <r>   -36.2341     0.0000     0.0000 </r>
       <r>   -36.0723    -0.0000    -0.0000 </r>
       <r>   -35.9105    -0.0000    -0.0000 </r>
       <r>   -35.7487    -0.0000    -0.0000 </r>
       <r>   -35.5870    -0.0000    -0.0000 </r>
       <r>   -35.4252    -0.0008    -0.0001 </r>
       <r>   -35.2634    -0.1857    -0.0302 </r>
       <r>   -35.1016     4.0600     0.6267 </r>
       <r>   -34.9398    15.0394     3.0598 </r>
       <r>   -34.7780    18.1366     5.9940 </r>
       <r>   -34.6163     0.0664     6.0047 </r>
       <r>   -34.4545    -0.0292     6.0000 </r>
       <r>   -34.2927    -0.0000     6.0000 </r>
       <r>   -34.1309    -0.0000     6.0000 </r>
       <r>   -33.9691     0.0000     6.0000 </r>
       <r>   -33.8073     0.0000     6.0000 </r>
       <r>   -33.6456     0.0000     6.0000 </r>
       <r>   -33.4838     0.0000     6.0000 </r>
       <r>   -33.3220     0.0000     6.0000 </r>
       <r>   -33.1602     0.0000     6.0000 </r>
       <r>   -32.9984     0.0000     6.0000 </r>
       <r>   -32.8367     0.0000     6.0000 </r>
       <r>   -32.6749     0.0000     6.0000 </r>
       <r>   -32.5131     0.0000     6.0000 </r>
       <r>   -32.3513     0.0000     6.0000 </r>
       <r>   -32.1895     0.0000     6.0000 </r>
       <r>   -32.0277     0.0000     6.0000 </r>
       <r>   -31.8660     0.0000     6.0000 </r>
       <r>   -31.7042     0.0000     6.0000 </r>
       <r>   -31.5424     0.0000     6.0000 </r>
       <r>   -31.3806     0.0000     6.0000 </r>
       <r>   -31.2188     0.0000     6.0000 </r>
       <r>   -31.0570     0.0000     6.0000 </r>
       <r>   -30.8953     0.0000     6.0000 </r>
       <r>   -30.7335     0.0000     6.0000 </r>
       <r>   -30.5717     0.0000     6.0000 </r>
       <r>   -30.4099     0.0000     6.0000 </r>
       <r>   -30.2481     0.0000     6.0000 </r>
       <r>   -30.0863     0.0000     6.0000 </r>
       <r>   -29.9246     0.0000     6.0000 </r>
       <r>   -29.7628     0.0000     6.0000 </r>
       <r>   -29.6010     0.0000     6.0000 </r>
       <r>   -29.4392     0.0000     6.0000 </r>
       <r>   -29.2774     0.0000     6.0000 </r>
       <r>   -29.1156     0.0000     6.0000 </r>
       <r>   -28.9539     0.0000     6.0000 </r>
       <r>   -28.7921     0.0000     6.0000 </r>
       <r>   -28.6303     0.0000     6.0000 </r>
       <r>   -28.4685     0.0000     6.0000 </r>
       <r>   -28.3067     0.0000     6.0000 </r>
       <r>   -28.1449     0.0000     6.0000 </r>
       <r>   -27.9832     0.0000     6.0000 </r>
       <r>   -27.8214     0.0000     6.0000 </r>
       <r>   -27.6596     0.0000     6.0000 </r>
       <r>   -27.4978     0.0000     6.0000 </r>
       <r>   -27.3360     0.0000     6.0000 </r>
       <r>   -27.1743     0.0000     6.0000 </r>
       <r>   -27.0125     0.0000     6.0000 </r>
       <r>   -26.8507     0.0000     6.0000 </r>
       <r>   -26.6889     0.0000     6.0000 </r>
       <r>   -26.5271     0.0000     6.0000 </r>
       <r>   -26.3653     0.0000     6.0000 </r>
       <r>   -26.2036     0.0000     6.0000 </r>
       <r>   -26.0418     0.0000     6.0000 </r>
       <r>   -25.8800     0.0000     6.0000 </r>
       <r>   -25.7182     0.0000     6.0000 </r>
       <r>   -25.5564     0.0000     6.0000 </r>
       <r>   -25.3946     0.0000     6.0000 </r>
       <r>   -25.2329     0.0000     6.0000 </r>
       <r>   -25.0711     0.0000     6.0000 </r>
       <r>   -24.9093     0.0000     6.0000 </r>
       <r>   -24.7475     0.0000     6.0000 </r>
       <r>   -24.5857     0.0000     6.0000 </r>
       <r>   -24.4239     0.0000     6.0000 </r>
       <r>   -24.2622     0.0000     6.0000 </r>
       <r>   -24.1004     0.0000     6.0000 </r>
       <r>   -23.9386     0.0000     6.0000 </r>
       <r>   -23.7768     0.0000     6.0000 </r>
       <r>   -23.6150     0.0000     6.0000 </r>
       <r>   -23.4532     0.0000     6.0000 </r>
       <r>   -23.2915     0.0000     6.0000 </r>
       <r>   -23.1297     0.0000     6.0000 </r>
       <r>   -22.9679     0.0000     6.0000 </r>
       <r>   -22.8061     0.0000     6.0000 </r>
       <r>   -22.6443     0.0000     6.0000 </r>
       <r>   -22.4826     0.0000     6.0000 </r>
       <r>   -22.3208     0.0000     6.0000 </r>
       <r>   -22.1590     0.0000     6.0000 </r>
       <r>   -21.9972     0.0000     6.0000 </r>
       <r>   -21.8354     0.0000     6.0000 </r>
       <r>   -21.6736     0.0000     6.0000 </r>
       <r>   -21.5119     0.0000     6.0000 </r>
       <r>   -21.3501     0.0000     6.0000 </r>
       <r>   -21.1883     0.0000     6.0000 </r>
       <r>   -21.0265     0.0000     6.0000 </r>
       <r>   -20.8647     0.0000     6.0000 </r>
       <r>   -20.7029     0.0000     6.0000 </r>
       <r>   -20.5412     0.0000     6.0000 </r>
       <r>   -20.3794     0.0000     6.0000 </r>
       <r>   -20.2176     0.0000     6.0000 </r>
       <r>   -20.0558     0.0000     6.0000 </r>
       <r>   -19.8940     0.0000     6.0000 </r>
       <r>   -19.7322     0.0000     6.0000 </r>
       <r>   -19.5705     0.0000     6.0000 </r>
       <r>   -19.4087     0.0000     6.0000 </r>
       <r>   -19.2469     0.0000     6.0000 </r>
       <r>   -19.0851     0.0000     6.0000 </r>
       <r>   -18.9233     0.0000     6.0000 </r>
       <r>   -18.7615     0.0000     6.0000 </r>
       <r>   -18.5998     0.0000     6.0000 </r>
       <r>   -18.4380     0.0000     6.0000 </r>
       <r>   -18.2762     0.0000     6.0000 </r>
       <r>   -18.1144     0.0000     6.0000 </r>
       <r>   -17.9526     0.0000     6.0000 </r>
       <r>   -17.7909     0.0000     6.0000 </r>
       <r>   -17.6291     0.0000     6.0000 </r>
       <r>   -17.4673     0.0000     6.0000 </r>
       <r>   -17.3055     0.0000     6.0000 </r>
       <r>   -17.1437     0.0000     6.0000 </r>
       <r>   -16.9819     0.0000     6.0000 </r>
       <r>   -16.8202     0.0000     6.0000 </r>
       <r>   -16.6584     0.0000     6.0000 </r>
       <r>   -16.4966     0.0000     6.0000 </r>
       <r>   -16.3348     0.0000     6.0000 </r>
       <r>   -16.1730     0.0000     6.0000 </r>
       <r>   -16.0112     0.0000     6.0000 </r>
       <r>   -15.8495     0.0000     6.0000 </r>
       <r>   -15.6877     0.0000     6.0000 </r>
       <r>   -15.5259     0.0000     6.0000 </r>
       <r>   -15.3641     0.0000     6.0000 </r>
       <r>   -15.2023     0.0000     6.0000 </r>
       <r>   -15.0405     0.0000     6.0000 </r>
       <r>   -14.8788    -0.0000     6.0000 </r>
       <r>   -14.7170    -0.0000     6.0000 </r>
       <r>   -14.5552    -0.0000     6.0000 </r>
       <r>   -14.3934    -0.0000     6.0000 </r>
       <r>   -14.2316    -0.0000     6.0000 </r>
       <r>   -14.0698    -0.0052     5.9992 </r>
       <r>   -13.9081     0.1385     6.0216 </r>
       <r>   -13.7463     0.4422     6.0931 </r>
       <r>   -13.5845     0.6815     6.2034 </r>
       <r>   -13.4227     0.3206     6.2552 </r>
       <r>   -13.2609     0.8547     6.3935 </r>
       <r>   -13.0991     0.3029     6.4425 </r>
       <r>   -12.9374     1.0615     6.6142 </r>
       <r>   -12.7756     0.4965     6.6946 </r>
       <r>   -12.6138     1.1828     6.8859 </r>
       <r>   -12.4520     2.4508     7.2824 </r>
       <r>   -12.2902     2.3222     7.6581 </r>
       <r>   -12.1285     3.8868     8.2869 </r>
       <r>   -11.9667     5.1045     9.1127 </r>
       <r>   -11.8049     4.8903     9.9039 </r>
       <r>   -11.6431     0.6260    10.0052 </r>
       <r>   -11.4813    -0.0320    10.0000 </r>
       <r>   -11.3195    -0.0001    10.0000 </r>
       <r>   -11.1578    -0.0000    10.0000 </r>
       <r>   -10.9960     0.0000    10.0000 </r>
       <r>   -10.8342     0.0000    10.0000 </r>
       <r>   -10.6724     0.0000    10.0000 </r>
       <r>   -10.5106     0.0000    10.0000 </r>
       <r>   -10.3488     0.0000    10.0000 </r>
       <r>   -10.1871     0.0000    10.0000 </r>
       <r>   -10.0253     0.0000    10.0000 </r>
       <r>    -9.8635     0.0000    10.0000 </r>
       <r>    -9.7017     0.0000    10.0000 </r>
       <r>    -9.5399     0.0000    10.0000 </r>
       <r>    -9.3781     0.0000    10.0000 </r>
       <r>    -9.2164     0.0000    10.0000 </r>
       <r>    -9.0546     0.0000    10.0000 </r>
       <r>    -8.8928     0.0000    10.0000 </r>
       <r>    -8.7310     0.0000    10.0000 </r>
       <r>    -8.5692     0.0000    10.0000 </r>
       <r>    -8.4074     0.0000    10.0000 </r>
       <r>    -8.2457     0.0000    10.0000 </r>
       <r>    -8.0839     0.0000    10.0000 </r>
       <r>    -7.9221     0.0000    10.0000 </r>
       <r>    -7.7603     0.0000    10.0000 </r>
       <r>    -7.5985     0.0000    10.0000 </r>
       <r>    -7.4368     0.0000    10.0000 </r>
       <r>    -7.2750     0.0000    10.0000 </r>
       <r>    -7.1132     0.0000    10.0000 </r>
       <r>    -6.9514     0.0000    10.0000 </r>
       <r>    -6.7896     0.0000    10.0000 </r>
       <r>    -6.6278    -0.0000    10.0000 </r>
       <r>    -6.4661    -0.0000    10.0000 </r>
       <r>    -6.3043    -0.0000    10.0000 </r>
       <r>    -6.1425    -0.0000    10.0000 </r>
       <r>    -5.9807    -0.0000    10.0000 </r>
       <r>    -5.8189    -0.0124     9.9980 </r>
       <r>    -5.6571     0.2698    10.0416 </r>
       <r>    -5.4954     1.1953    10.2350 </r>
       <r>    -5.3336     1.8406    10.5328 </r>
       <r>    -5.1718     2.6246    10.9574 </r>
       <r>    -5.0100     4.2554    11.6459 </r>
       <r>    -4.8482     3.6645    12.2387 </r>
       <r>    -4.6864     1.9747    12.5582 </r>
       <r>    -4.5247     2.3398    12.9367 </r>
       <r>    -4.3629     0.3125    12.9873 </r>
       <r>    -4.2011     0.7011    13.1007 </r>
       <r>    -4.0393     1.3369    13.3170 </r>
       <r>    -3.8775     3.0655    13.8129 </r>
       <r>    -3.7157     5.2058    14.6551 </r>
       <r>    -3.5540     3.3006    15.1891 </r>
       <r>    -3.3922     1.4336    15.4210 </r>
       <r>    -3.2304     2.2595    15.7866 </r>
       <r>    -3.0686     5.5712    16.6879 </r>
       <r>    -2.9068     3.7662    17.2972 </r>
       <r>    -2.7451     2.1210    17.6404 </r>
       <r>    -2.5833     0.8753    17.7820 </r>
       <r>    -2.4215     1.8389    18.0795 </r>
       <r>    -2.2597     1.4657    18.3166 </r>
       <r>    -2.0979     2.6211    18.7407 </r>
       <r>    -1.9361     4.1085    19.4054 </r>
       <r>    -1.7744     2.9869    19.8886 </r>
       <r>    -1.6126     3.4607    20.4485 </r>
       <r>    -1.4508     2.9338    20.9231 </r>
       <r>    -1.2890     2.3360    21.3010 </r>
       <r>    -1.1272     2.1283    21.6454 </r>
       <r>    -0.9654     1.3879    21.8699 </r>
       <r>    -0.8037     3.6038    22.4529 </r>
       <r>    -0.6419     2.9444    22.9293 </r>
       <r>    -0.4801     2.1811    23.2822 </r>
       <r>    -0.3183     2.5280    23.6911 </r>
       <r>    -0.1565     1.0311    23.8580 </r>
       <r>     0.0053     0.5962    23.9544 </r>
       <r>     0.1670     0.1922    23.9855 </r>
       <r>     0.3288     0.0931    24.0006 </r>
       <r>     0.4906    -0.0036    24.0000 </r>
       <r>     0.6524    -0.0000    24.0000 </r>
       <r>     0.8142    -0.0000    24.0000 </r>
       <r>     0.9760    -0.0000    24.0000 </r>
       <r>     1.1377    -0.0000    24.0000 </r>
       <r>     1.2995    -0.0000    24.0000 </r>
       <r>     1.4613    -0.0018    23.9997 </r>
       <r>     1.6231     0.0174    24.0025 </r>
       <r>     1.7849     0.8866    24.1460 </r>
       <r>     1.9467     1.9829    24.4668 </r>
       <r>     2.1084     4.7924    25.2421 </r>
       <r>     2.2702     4.1711    25.9169 </r>
       <r>     2.4320     4.3581    26.6220 </r>
       <r>     2.5938     5.1994    27.4631 </r>
       <r>     2.7556     3.7672    28.0726 </r>
       <r>     2.9173     3.0890    28.5723 </r>
       <r>     3.0791     2.5148    28.9792 </r>
       <r>     3.2409     2.9500    29.4565 </r>
       <r>     3.4027     1.7099    29.7331 </r>
       <r>     3.5645     1.9742    30.0525 </r>
       <r>     3.7263     1.2853    30.2604 </r>
       <r>     3.8880     1.4165    30.4896 </r>
       <r>     4.0498     2.0168    30.8159 </r>
       <r>     4.2116     3.0926    31.3162 </r>
       <r>     4.3734     1.8850    31.6212 </r>
       <r>     4.5352     1.2306    31.8203 </r>
       <r>     4.6970     0.8755    31.9619 </r>
       <r>     4.8587     0.2432    32.0013 </r>
       <r>     5.0205    -0.0077    32.0000 </r>
       <r>     5.1823    -0.0011    31.9998 </r>
       <r>     5.3441     0.0597    32.0095 </r>
       <r>     5.5059     0.3002    32.0581 </r>
       <r>     5.6677     0.3065    32.1076 </r>
       <r>     5.8294     0.5074    32.1897 </r>
       <r>     5.9912     0.3391    32.2446 </r>
       <r>     6.1530     0.6980    32.3575 </r>
       <r>     6.3148     0.8462    32.4944 </r>
       <r>     6.4766     0.9321    32.6452 </r>
       <r>     6.6384     0.8938    32.7898 </r>
       <r>     6.8001     1.5541    33.0412 </r>
       <r>     6.9619     1.5598    33.2936 </r>
       <r>     7.1237     1.0987    33.4713 </r>
       <r>     7.2855     1.6386    33.7365 </r>
       <r>     7.4473     1.9033    34.0444 </r>
       <r>     7.6090     1.1720    34.2340 </r>
       <r>     7.7708     0.9333    34.3850 </r>
       <r>     7.9326     1.1295    34.5677 </r>
       <r>     8.0944     1.5436    34.8174 </r>
       <r>     8.2562     2.8960    35.2860 </r>
       <r>     8.4180     1.7497    35.5690 </r>
       <r>     8.5797     0.7751    35.6944 </r>
       <r>     8.7415     0.8001    35.8239 </r>
       <r>     8.9033     0.7839    35.9507 </r>
       <r>     9.0651     0.3174    36.0021 </r>
       <r>     9.2269    -0.0126    36.0000 </r>
       <r>     9.3887    -0.0001    36.0000 </r>
       <r>     9.5504    -0.0000    36.0000 </r>
       <r>     9.7122    -0.0000    36.0000 </r>
       <r>     9.8740     0.0000    36.0000 </r>
       <r>    10.0358     0.0000    36.0000 </r>
       <r>    10.1976     0.0000    36.0000 </r>
       <r>    10.3594     0.0000    36.0000 </r>
       <r>    10.5211     0.0000    36.0000 </r>
       <r>    10.6829     0.0000    36.0000 </r>
       <r>    10.8447     0.0000    36.0000 </r>
       <r>    11.0065     0.0000    36.0000 </r>
       <r>    11.1683     0.0000    36.0000 </r>
      </set>
     </set>
    </array>
   </total>
  </dos>
 </calculation>
 <structure name="finalpos" >
  <crystal>
   <varray name="basis" >
    <v>       3.19031700       0.00000000       0.00000000 </v>
    <v>      -1.59515800       2.76289700       0.00000000 </v>
    <v>       0.00000000       0.00000000      23.14049200 </v>
   </varray>
   <i name="volume">    203.97226633 </i>
   <varray name="rec_basis" >
    <v>       0.31344848       0.18096941       0.00000000 </v>
    <v>       0.00000000       0.36193894       0.00000000 </v>
    <v>       0.00000000       0.00000000       0.04321429 </v>
   </varray>
  </crystal>
  <varray name="positions" >
   <v>       0.66666700       0.33333300       0.06785900 </v>
   <v>       0.33333300       0.66666700       0.00000000 </v>
   <v>       0.33333300       0.66666700       0.13571500 </v>
   <v>       0.80952414       0.76190443       0.35482300 </v>
   <v>       0.47619014       0.09523843       0.28696500 </v>
   <v>       0.47619014       0.09523843       0.42267900 </v>
  </varray>
 </structure>
</modeling>
