  24  24   0   0
  0.4176334E+02  0.3540400E-09  0.1044544E-08  0.2750143E-08  0.5000000E-15
  1.000000000000000E-004
  CAR 
 unknown system                          
      4.25311195    -15.03162073  301     -0.11857064      1.00000000
    -15.032  0.0000E+00  0.0000E+00
    -14.967  0.0000E+00  0.0000E+00
    -14.903  0.0000E+00  0.0000E+00
    -14.839  0.0000E+00  0.0000E+00
    -14.774  0.0000E+00  0.0000E+00
    -14.710  0.0000E+00  0.0000E+00
    -14.646  0.0000E+00  0.0000E+00
    -14.582  0.3620E-14  0.2327E-15
    -14.517  0.3389E-11  0.2181E-12
    -14.453  0.1426E-08  0.9190E-10
    -14.389  0.2707E-06  0.1749E-07
    -14.325  0.2339E-04  0.1521E-05
    -14.260  0.9327E-03  0.6148E-04
    -14.196  0.1756E-01  0.1190E-02
    -14.132  0.1610E+00  0.1154E-01
    -14.067  0.7472E+00  0.5957E-01
    -14.003  0.1817E+01  0.1763E+00
    -13.939  0.2378E+01  0.3292E+00
    -13.875  0.1927E+01  0.4531E+00
    -13.810  0.1697E+01  0.5622E+00
    -13.746  0.1768E+01  0.6759E+00
    -13.682  0.1260E+01  0.7568E+00
    -13.617  0.1089E+01  0.8268E+00
    -13.553  0.2144E+01  0.9647E+00
    -13.489  0.3478E+01  0.1188E+01
    -13.425  0.3510E+01  0.1414E+01
    -13.360  0.2593E+01  0.1581E+01
    -13.296  0.1954E+01  0.1706E+01
    -13.232  0.1756E+01  0.1819E+01
    -13.167  0.2044E+01  0.1951E+01
    -13.103  0.3046E+01  0.2146E+01
    -13.039  0.3975E+01  0.2402E+01
    -12.975  0.3917E+01  0.2654E+01
    -12.910  0.3412E+01  0.2873E+01
    -12.846  0.3176E+01  0.3077E+01
    -12.782  0.3411E+01  0.3297E+01
    -12.717  0.4259E+01  0.3570E+01
    -12.653  0.5951E+01  0.3953E+01
    -12.589  0.7224E+01  0.4417E+01
    -12.525  0.6764E+01  0.4852E+01
    -12.460  0.5602E+01  0.5212E+01
    -12.396  0.5705E+01  0.5579E+01
    -12.332  0.6595E+01  0.6003E+01
    -12.267  0.6248E+01  0.6404E+01
    -12.203  0.5932E+01  0.6786E+01
    -12.139  0.6879E+01  0.7228E+01
    -12.075  0.7337E+01  0.7700E+01
    -12.010  0.6649E+01  0.8127E+01
    -11.946  0.6197E+01  0.8525E+01
    -11.882  0.6297E+01  0.8930E+01
    -11.817  0.6038E+01  0.9318E+01
    -11.753  0.6232E+01  0.9719E+01
    -11.689  0.7263E+01  0.1019E+02
    -11.625  0.8657E+01  0.1074E+02
    -11.560  0.9962E+01  0.1138E+02
    -11.496  0.9331E+01  0.1198E+02
    -11.432  0.7703E+01  0.1248E+02
    -11.368  0.8833E+01  0.1305E+02
    -11.303  0.1153E+02  0.1379E+02
    -11.239  0.1182E+02  0.1455E+02
    -11.175  0.1092E+02  0.1525E+02
    -11.110  0.1038E+02  0.1592E+02
    -11.046  0.1024E+02  0.1657E+02
    -10.982  0.1043E+02  0.1724E+02
    -10.918  0.1049E+02  0.1792E+02
    -10.853  0.1092E+02  0.1862E+02
    -10.789  0.1146E+02  0.1936E+02
    -10.725  0.1164E+02  0.2010E+02
    -10.660  0.1100E+02  0.2081E+02
    -10.596  0.8709E+01  0.2137E+02
    -10.532  0.6919E+01  0.2182E+02
    -10.468  0.6438E+01  0.2223E+02
    -10.403  0.5018E+01  0.2255E+02
    -10.339  0.3166E+01  0.2276E+02
    -10.275  0.2344E+01  0.2291E+02
    -10.210  0.2412E+01  0.2306E+02
    -10.146  0.3274E+01  0.2327E+02
    -10.082  0.4501E+01  0.2356E+02
    -10.018  0.4158E+01  0.2383E+02
     -9.953  0.2081E+01  0.2396E+02
     -9.889  0.5177E+00  0.2400E+02
     -9.825  0.6142E-01  0.2400E+02
     -9.760  0.3393E-02  0.2400E+02
     -9.696  0.8601E-04  0.2400E+02
     -9.632  0.9892E-06  0.2400E+02
     -9.568  0.5123E-08  0.2400E+02
     -9.503  0.2527E-09  0.2400E+02
     -9.439  0.6475E-07  0.2400E+02
     -9.375  0.7954E-05  0.2400E+02
     -9.310  0.4502E-03  0.2400E+02
     -9.246  0.1187E-01  0.2400E+02
     -9.182  0.1479E+00  0.2401E+02
     -9.118  0.8918E+00  0.2407E+02
     -9.053  0.2705E+01  0.2424E+02
     -8.989  0.4492E+01  0.2453E+02
     -8.925  0.5058E+01  0.2486E+02
     -8.861  0.5631E+01  0.2522E+02
     -8.796  0.6746E+01  0.2565E+02
     -8.732  0.6896E+01  0.2609E+02
     -8.668  0.5881E+01  0.2647E+02
     -8.603  0.5110E+01  0.2680E+02
     -8.539  0.5168E+01  0.2713E+02
     -8.475  0.5493E+01  0.2749E+02
     -8.411  0.5074E+01  0.2781E+02
     -8.346  0.4032E+01  0.2807E+02
     -8.282  0.4093E+01  0.2833E+02
     -8.218  0.5456E+01  0.2869E+02
     -8.153  0.5941E+01  0.2907E+02
     -8.089  0.4658E+01  0.2937E+02
     -8.025  0.3127E+01  0.2957E+02
     -7.961  0.2768E+01  0.2975E+02
     -7.896  0.3564E+01  0.2997E+02
     -7.832  0.4625E+01  0.3027E+02
     -7.768  0.5347E+01  0.3062E+02
     -7.703  0.6164E+01  0.3101E+02
     -7.639  0.6461E+01  0.3143E+02
     -7.575  0.6222E+01  0.3183E+02
     -7.511  0.7238E+01  0.3229E+02
     -7.446  0.8813E+01  0.3286E+02
     -7.382  0.8938E+01  0.3343E+02
     -7.318  0.8215E+01  0.3396E+02
     -7.253  0.7663E+01  0.3445E+02
     -7.189  0.6947E+01  0.3490E+02
     -7.125  0.5926E+01  0.3528E+02
     -7.061  0.5812E+01  0.3566E+02
     -6.996  0.6268E+01  0.3606E+02
     -6.932  0.6365E+01  0.3647E+02
     -6.868  0.7182E+01  0.3693E+02
     -6.803  0.9740E+01  0.3756E+02
     -6.739  0.1322E+02  0.3841E+02
     -6.675  0.1381E+02  0.3929E+02
     -6.611  0.1048E+02  0.3997E+02
     -6.546  0.7114E+01  0.4042E+02
     -6.482  0.5953E+01  0.4081E+02
     -6.418  0.6626E+01  0.4123E+02
     -6.353  0.7317E+01  0.4170E+02
     -6.289  0.6921E+01  0.4215E+02
     -6.225  0.5958E+01  0.4253E+02
     -6.161  0.4530E+01  0.4282E+02
     -6.096  0.3043E+01  0.4302E+02
     -6.032  0.2503E+01  0.4318E+02
     -5.968  0.2725E+01  0.4335E+02
     -5.904  0.3622E+01  0.4359E+02
     -5.839  0.5690E+01  0.4395E+02
     -5.775  0.8013E+01  0.4447E+02
     -5.711  0.8466E+01  0.4501E+02
     -5.646  0.6514E+01  0.4543E+02
     -5.582  0.3954E+01  0.4568E+02
     -5.518  0.2303E+01  0.4583E+02
     -5.454  0.2163E+01  0.4597E+02
     -5.389  0.3141E+01  0.4617E+02
     -5.325  0.4233E+01  0.4645E+02
     -5.261  0.5021E+01  0.4677E+02
     -5.196  0.4837E+01  0.4708E+02
     -5.132  0.4479E+01  0.4737E+02
     -5.068  0.5478E+01  0.4772E+02
     -5.004  0.8055E+01  0.4824E+02
     -4.939  0.1076E+02  0.4893E+02
     -4.875  0.1104E+02  0.4964E+02
     -4.811  0.9954E+01  0.5028E+02
     -4.746  0.1012E+02  0.5093E+02
     -4.682  0.1133E+02  0.5166E+02
     -4.618  0.1227E+02  0.5245E+02
     -4.554  0.1256E+02  0.5325E+02
     -4.489  0.1252E+02  0.5406E+02
     -4.425  0.1301E+02  0.5489E+02
     -4.361  0.1394E+02  0.5579E+02
     -4.296  0.1373E+02  0.5667E+02
     -4.232  0.1260E+02  0.5748E+02
     -4.168  0.1284E+02  0.5831E+02
     -4.104  0.1472E+02  0.5925E+02
     -4.039  0.1467E+02  0.6020E+02
     -3.975  0.1226E+02  0.6099E+02
     -3.911  0.1101E+02  0.6169E+02
     -3.846  0.1217E+02  0.6248E+02
     -3.782  0.1356E+02  0.6335E+02
     -3.718  0.1338E+02  0.6421E+02
     -3.654  0.1215E+02  0.6499E+02
     -3.589  0.1160E+02  0.6573E+02
     -3.525  0.1178E+02  0.6649E+02
     -3.461  0.1229E+02  0.6728E+02
     -3.396  0.1365E+02  0.6816E+02
     -3.332  0.1530E+02  0.6914E+02
     -3.268  0.1630E+02  0.7019E+02
     -3.204  0.1618E+02  0.7123E+02
     -3.139  0.1572E+02  0.7224E+02
     -3.075  0.1589E+02  0.7326E+02
     -3.011  0.1610E+02  0.7430E+02
     -2.947  0.1611E+02  0.7533E+02
     -2.882  0.1583E+02  0.7635E+02
     -2.818  0.1537E+02  0.7734E+02
     -2.754  0.1577E+02  0.7835E+02
     -2.689  0.1540E+02  0.7934E+02
     -2.625  0.1405E+02  0.8025E+02
     -2.561  0.1432E+02  0.8117E+02
     -2.497  0.1575E+02  0.8218E+02
     -2.432  0.1696E+02  0.8327E+02
     -2.368  0.1714E+02  0.8437E+02
     -2.304  0.1639E+02  0.8542E+02
     -2.239  0.1560E+02  0.8643E+02
     -2.175  0.1473E+02  0.8737E+02
     -2.111  0.1431E+02  0.8829E+02
     -2.047  0.1552E+02  0.8929E+02
     -1.982  0.1686E+02  0.9038E+02
     -1.918  0.1688E+02  0.9146E+02
     -1.854  0.1608E+02  0.9249E+02
     -1.789  0.1527E+02  0.9348E+02
     -1.725  0.1481E+02  0.9443E+02
     -1.661  0.1394E+02  0.9532E+02
     -1.597  0.1217E+02  0.9611E+02
     -1.532  0.1130E+02  0.9683E+02
     -1.468  0.1235E+02  0.9763E+02
     -1.404  0.1331E+02  0.9848E+02
     -1.339  0.1249E+02  0.9929E+02
     -1.275  0.1035E+02  0.9995E+02
     -1.211  0.9266E+01  0.1005E+03
     -1.147  0.1003E+02  0.1012E+03
     -1.082  0.1080E+02  0.1019E+03
     -1.018  0.1066E+02  0.1026E+03
     -0.954  0.8997E+01  0.1031E+03
     -0.889  0.6325E+01  0.1036E+03
     -0.825  0.5159E+01  0.1039E+03
     -0.761  0.5669E+01  0.1043E+03
     -0.697  0.6318E+01  0.1047E+03
     -0.632  0.6106E+01  0.1051E+03
     -0.568  0.5031E+01  0.1054E+03
     -0.504  0.4487E+01  0.1057E+03
     -0.440  0.4347E+01  0.1059E+03
     -0.375  0.4485E+01  0.1062E+03
     -0.311  0.5720E+01  0.1066E+03
     -0.247  0.7218E+01  0.1071E+03
     -0.182  0.7694E+01  0.1076E+03
     -0.118  0.6942E+01  0.1080E+03
     -0.054  0.5472E+01  0.1084E+03
      0.010  0.3811E+01  0.1086E+03
      0.075  0.2402E+01  0.1088E+03
      0.139  0.1980E+01  0.1089E+03
      0.203  0.2857E+01  0.1091E+03
      0.268  0.4149E+01  0.1093E+03
      0.332  0.4871E+01  0.1096E+03
      0.396  0.4860E+01  0.1100E+03
      0.460  0.4516E+01  0.1102E+03
      0.525  0.4416E+01  0.1105E+03
      0.589  0.4502E+01  0.1108E+03
      0.653  0.4008E+01  0.1111E+03
      0.718  0.3405E+01  0.1113E+03
      0.782  0.3308E+01  0.1115E+03
      0.846  0.3761E+01  0.1118E+03
      0.910  0.4503E+01  0.1120E+03
      0.975  0.4889E+01  0.1124E+03
      1.039  0.5433E+01  0.1127E+03
      1.103  0.6696E+01  0.1131E+03
      1.168  0.7314E+01  0.1136E+03
      1.232  0.6987E+01  0.1141E+03
      1.296  0.7436E+01  0.1145E+03
      1.360  0.8275E+01  0.1151E+03
      1.425  0.8714E+01  0.1156E+03
      1.489  0.9933E+01  0.1163E+03
      1.553  0.1119E+02  0.1170E+03
      1.618  0.1115E+02  0.1177E+03
      1.682  0.1148E+02  0.1184E+03
      1.746  0.1218E+02  0.1192E+03
      1.810  0.1188E+02  0.1200E+03
      1.875  0.1115E+02  0.1207E+03
      1.939  0.1084E+02  0.1214E+03
      2.003  0.1131E+02  0.1221E+03
      2.068  0.1274E+02  0.1229E+03
      2.132  0.1503E+02  0.1239E+03
      2.196  0.1637E+02  0.1250E+03
      2.260  0.1504E+02  0.1259E+03
      2.325  0.1295E+02  0.1268E+03
      2.389  0.1257E+02  0.1276E+03
      2.453  0.1283E+02  0.1284E+03
      2.517  0.1305E+02  0.1292E+03
      2.582  0.1420E+02  0.1301E+03
      2.646  0.1474E+02  0.1311E+03
      2.710  0.1341E+02  0.1320E+03
      2.775  0.1133E+02  0.1327E+03
      2.839  0.9959E+01  0.1333E+03
      2.903  0.9248E+01  0.1339E+03
      2.967  0.8425E+01  0.1345E+03
      3.032  0.7253E+01  0.1349E+03
      3.096  0.5764E+01  0.1353E+03
      3.160  0.4532E+01  0.1356E+03
      3.225  0.3481E+01  0.1358E+03
      3.289  0.2029E+01  0.1359E+03
      3.353  0.7367E+00  0.1360E+03
      3.417  0.1507E+00  0.1360E+03
      3.482  0.1615E-01  0.1360E+03
      3.546  0.8551E-03  0.1360E+03
      3.610  0.2150E-04  0.1360E+03
      3.675  0.2505E-06  0.1360E+03
      3.739  0.1331E-08  0.1360E+03
      3.803  0.3193E-11  0.1360E+03
      3.867  0.3388E-14  0.1360E+03
      3.932  0.0000E+00  0.1360E+03
      3.996  0.0000E+00  0.1360E+03
      4.060  0.0000E+00  0.1360E+03
      4.125  0.0000E+00  0.1360E+03
      4.189  0.0000E+00  0.1360E+03
      4.253  0.0000E+00  0.1360E+03
