   24   24    1    1
  0.4176334E+02  0.3540400E-09  0.1044544E-08  0.2750143E-08  0.5000000E-15
  1.000000000000000E-004
  CAR 
 unknown system                          
    108     54     68
 
  0.0000000E+00  0.0000000E+00  0.0000000E+00  0.9615385E-02
    1      -14.031621
    2      -13.607515
    3      -12.866901
    4      -12.735500
    5      -12.563514
    6      -12.398099
    7      -12.150948
    8      -11.945737
    9      -11.498785
   10      -11.339924
   11      -11.057057
   12      -10.617913
   13       -8.228533
   14       -8.092635
   15       -7.895659
   16       -7.718113
   17       -6.933423
   18       -6.712919
   19       -6.559886
   20       -6.287956
   21       -5.892098
   22       -5.742889
   23       -4.960201
   24       -4.781615
   25       -4.132043
   26       -3.857946
   27       -3.751779
   28       -3.405387
   29       -3.303901
   30       -3.123809
   31       -3.022965
   32       -2.942782
   33       -2.909095
   34       -2.859720
   35       -2.511975
   36       -2.462707
   37       -2.445207
   38       -2.378621
   39       -2.236729
   40       -2.148315
   41       -1.938354
   42       -1.794708
   43       -1.751743
   44       -1.708827
   45       -1.637251
   46       -1.612073
   47       -1.498243
   48       -1.416367
   49       -1.221144
   50       -1.165071
   51       -1.076149
   52       -0.637443
   53       -0.334920
   54        0.209609
   55        0.275448
   56        0.928020
   57        1.095586
   58        1.250304
   59        1.338343
   60        1.468782
   61        1.655679
   62        1.910535
   63        1.933852
   64        2.043141
   65        2.362319
   66        2.398179
   67        2.574830
   68        2.713575
 
  0.7692308E-01 -0.1387779E-16  0.0000000E+00  0.1923077E-01
    1      -13.971342
    2      -13.546166
    3      -12.814749
    4      -12.682697
    5      -12.507780
    6      -12.343235
    7      -12.089011
    8      -11.891139
    9      -11.449840
   10      -11.293783
   11      -11.008688
   12      -10.577240
   13       -8.245165
   14       -8.130931
   15       -7.859763
   16       -7.652010
   17       -6.900382
   18       -6.702551
   19       -6.554176
   20       -6.314048
   21       -5.859490
   22       -5.744210
   23       -4.948773
   24       -4.785818
   25       -4.144875
   26       -3.886609
   27       -3.789532
   28       -3.727702
   29       -3.584990
   30       -3.381531
   31       -3.302254
   32       -3.206985
   33       -3.058128
   34       -2.916769
   35       -2.824946
   36       -2.781293
   37       -2.553288
   38       -2.522181
   39       -2.303387
   40       -2.264164
   41       -2.135300
   42       -2.031668
   43       -1.993704
   44       -1.918713
   45       -1.813194
   46       -1.706767
   47       -1.562372
   48       -1.379721
   49       -1.188374
   50       -1.137155
   51       -1.039584
   52       -0.662509
   53       -0.338735
   54       -0.023604
   55        0.386884
   56        1.059251
   57        1.428598
   58        1.495651
   59        1.693344
   60        1.790087
   61        2.063666
   62        2.139336
   63        2.190305
   64        2.260595
   65        2.541102
   66        2.623890
   67        2.699786
   68        2.999248
 
  0.1538462E+00 -0.2775558E-16  0.0000000E+00  0.1923077E-01
    1      -13.791747
    2      -13.363188
    3      -12.659003
    4      -12.526680
    5      -12.342584
    6      -12.180972
    7      -11.907425
    8      -11.731462
    9      -11.307823
   10      -11.161339
   11      -10.869907
   12      -10.462254
   13       -8.291789
   14       -8.228737
   15       -7.818794
   16       -7.509239
   17       -6.842631
   18       -6.739170
   19       -6.566487
   20       -6.404365
   21       -5.802347
   22       -5.764111
   23       -4.986405
   24       -4.910956
   25       -4.516311
   26       -4.282880
   27       -4.155502
   28       -4.065911
   29       -4.000864
   30       -3.835521
   31       -3.748745
   32       -3.617248
   33       -3.569903
   34       -3.387656
   35       -3.278017
   36       -3.110534
   37       -3.027839
   38       -2.964756
   39       -2.750147
   40       -2.593200
   41       -2.440617
   42       -2.314876
   43       -2.216769
   44       -2.038419
   45       -1.847592
   46       -1.770509
   47       -1.660300
   48       -1.406544
   49       -1.274694
   50       -1.179600
   51       -1.042410
   52       -0.798808
   53       -0.694015
   54       -0.138967
   55        0.544087
   56        0.964698
   57        1.660240
   58        1.887280
   59        2.149497
   60        2.206613
   61        2.312791
   62        2.380360
   63        2.546774
   64        2.605233
   65        2.863682
   66        2.969995
   67        3.005415
   68        3.168423
 
  0.2307692E+00 -0.4163336E-16  0.0000000E+00  0.1923077E-01
    1      -13.497168
    2      -13.062158
    3      -12.402734
    4      -12.276037
    5      -12.075079
    6      -11.919460
    7      -11.621104
    8      -11.481720
    9      -11.090887
   10      -10.965335
   11      -10.666827
   12      -10.299415
   13       -8.429415
   14       -8.404990
   15       -7.892322
   16       -7.460713
   17       -7.046639
   18       -6.763736
   19       -6.700328
   20       -6.559790
   21       -5.880450
   22       -5.800102
   23       -5.405068
   24       -5.322192
   25       -4.878217
   26       -4.760358
   27       -4.671594
   28       -4.579604
   29       -4.422176
   30       -4.307763
   31       -4.255263
   32       -4.105322
   33       -3.858442
   34       -3.729606
   35       -3.547633
   36       -3.524854
   37       -3.273705
   38       -3.059398
   39       -2.878461
   40       -2.756452
   41       -2.604209
   42       -2.511552
   43       -2.440556
   44       -1.988260
   45       -1.929096
   46       -1.873495
   47       -1.803179
   48       -1.669185
   49       -1.529998
   50       -1.296924
   51       -1.171067
   52       -1.081833
   53       -0.725162
   54       -0.164916
   55        0.235906
   56        0.747389
   57        1.485269
   58        1.748952
   59        1.835449
   60        1.959828
   61        2.184147
   62        2.297840
   63        2.595326
   64        2.621717
   65        2.698608
   66        2.817985
   67        2.908641
   68        3.026712
 
  0.3076923E+00 -0.5551115E-16  0.0000000E+00  0.1923077E-01
    1      -13.097411
    2      -12.650383
    3      -12.054406
    4      -11.951004
    5      -11.722007
    6      -11.578280
    7      -11.265787
    8      -11.178058
    9      -10.846394
   10      -10.767981
   11      -10.480867
   12      -10.151230
   13       -8.721158
   14       -8.685267
   15       -8.152151
   16       -7.708143
   17       -7.253932
   18       -7.062738
   19       -6.969162
   20       -6.900032
   21       -6.227943
   22       -6.207809
   23       -6.030790
   24       -5.743289
   25       -5.277015
   26       -4.999190
   27       -4.871278
   28       -4.774175
   29       -4.714656
   30       -4.514338
   31       -4.376287
   32       -4.321259
   33       -4.267220
   34       -3.796398
   35       -3.478293
   36       -3.454558
   37       -3.219517
   38       -3.130797
   39       -3.077570
   40       -2.941004
   41       -2.753192
   42       -2.688027
   43       -2.463350
   44       -2.251747
   45       -2.122157
   46       -1.967666
   47       -1.940461
   48       -1.891103
   49       -1.774256
   50       -1.508496
   51       -1.356483
   52       -1.301416
   53       -0.670506
   54       -0.337560
   55       -0.031427
   56        0.627162
   57        1.082263
   58        1.364493
   59        1.536580
   60        1.722474
   61        1.909473
   62        2.123846
   63        2.214923
   64        2.297203
   65        2.454882
   66        2.635854
   67        2.716299
   68        2.825487
 
  0.3846154E+00 -0.8326673E-16  0.0000000E+00  0.1923077E-01
    1      -12.616604
    2      -12.142069
    3      -11.635424
    4      -11.599964
    5      -11.322383
    6      -11.216521
    7      -10.939530
    8      -10.901686
    9      -10.715462
   10      -10.691090
   11      -10.521066
   12      -10.082276
   13       -8.949700
   14       -8.896280
   15       -8.444471
   16       -7.983614
   17       -7.591747
   18       -7.523855
   19       -7.477376
   20       -7.242633
   21       -6.825217
   22       -6.788570
   23       -6.725836
   24       -6.151605
   25       -5.279776
   26       -4.976811
   27       -4.780929
   28       -4.648940
   29       -4.592518
   30       -4.421715
   31       -4.286793
   32       -4.147845
   33       -4.090458
   34       -3.892794
   35       -3.721617
   36       -3.541257
   37       -3.391599
   38       -3.332149
   39       -3.227849
   40       -2.945766
   41       -2.866558
   42       -2.719999
   43       -2.515960
   44       -2.402645
   45       -2.369703
   46       -2.247408
   47       -2.103237
   48       -2.060935
   49       -1.890580
   50       -1.709489
   51       -1.499849
   52       -1.429319
   53       -0.760713
   54       -0.507900
   55       -0.099197
   56        0.539127
   57        0.833914
   58        1.088830
   59        1.349122
   60        1.641205
   61        1.649404
   62        1.800240
   63        2.000937
   64        2.095370
   65        2.209467
   66        2.360153
   67        2.617546
   68        2.742674
 
  0.4615385E+00 -0.8326673E-16  0.0000000E+00  0.1923077E-01
    1      -12.146005
    2      -11.568744
    3      -11.371450
    4      -11.212684
    5      -11.156354
    6      -11.016417
    7      -10.909139
    8      -10.799453
    9      -10.786929
   10      -10.703591
   11      -10.693007
   12      -10.060799
   13       -9.038252
   14       -8.753593
   15       -8.507351
   16       -8.195480
   17       -8.142546
   18       -7.715458
   19       -7.637543
   20       -7.483227
   21       -7.352328
   22       -7.291692
   23       -7.241888
   24       -6.419373
   25       -4.985806
   26       -4.791930
   27       -4.597930
   28       -4.545101
   29       -4.341236
   30       -4.184527
   31       -4.123443
   32       -4.084452
   33       -3.998858
   34       -3.895330
   35       -3.827387
   36       -3.706809
   37       -3.631630
   38       -3.399976
   39       -3.320720
   40       -3.259395
   41       -3.064856
   42       -2.906313
   43       -2.753004
   44       -2.437751
   45       -2.374470
   46       -2.291090
   47       -2.229854
   48       -2.141869
   49       -1.822428
   50       -1.738623
   51       -1.593660
   52       -1.444250
   53       -1.036572
   54       -0.506456
   55       -0.118574
   56        0.501766
   57        0.747708
   58        0.866688
   59        1.310342
   60        1.509295
   61        1.554586
   62        1.634555
   63        1.792473
   64        1.981720
   65        2.135987
   66        2.379558
   67        2.444786
   68        2.664910
 
  0.0000000E+00  0.2500000E+00  0.0000000E+00  0.1923077E-01
    1      -14.020472
    2      -13.552331
    3      -13.040578
    4      -12.814223
    5      -12.561429
    6      -12.398551
    7      -11.942484
    8      -11.835718
    9      -11.543906
   10      -11.353117
   11      -11.065856
   12      -10.558756
   13       -8.730591
   14       -8.581640
   15       -7.465776
   16       -7.145725
   17       -6.740499
   18       -6.700176
   19       -6.613389
   20       -6.466529
   21       -5.820702
   22       -5.719015
   23       -4.760529
   24       -4.628972
   25       -4.294635
   26       -4.083939
   27       -3.849746
   28       -3.569288
   29       -3.438555
   30       -3.195833
   31       -3.149442
   32       -2.964480
   33       -2.908752
   34       -2.774809
   35       -2.464419
   36       -2.441455
   37       -2.378061
   38       -2.322748
   39       -2.211664
   40       -2.184035
   41       -2.046373
   42       -1.947382
   43       -1.735565
   44       -1.694104
   45       -1.652154
   46       -1.533457
   47       -1.428671
   48       -1.341207
   49       -1.162351
   50       -1.126799
   51       -1.028710
   52       -0.802371
   53       -0.211075
   54        0.206348
   55        0.328505
   56        0.935490
   57        1.131659
   58        1.297569
   59        1.445897
   60        1.513895
   61        1.670024
   62        1.752129
   63        2.009662
   64        2.186518
   65        2.401567
   66        2.498874
   67        2.585523
   68        2.770325
 
  0.7692308E-01  0.2500000E+00  0.0000000E+00  0.1923077E-01
    1      -13.957555
    2      -13.475554
    3      -13.021401
    4      -12.777489
    5      -12.504191
    6      -12.342898
    7      -11.844111
    8      -11.759973
    9      -11.502595
   10      -11.306503
   11      -11.021546
   12      -10.505220
   13       -8.793591
   14       -8.640556
   15       -7.416082
   16       -7.042920
   17       -6.746549
   18       -6.624687
   19       -6.578502
   20       -6.467012
   21       -5.787030
   22       -5.727680
   23       -4.781183
   24       -4.668518
   25       -4.371737
   26       -4.148106
   27       -4.018077
   28       -3.733282
   29       -3.631540
   30       -3.453169
   31       -3.300127
   32       -3.127330
   33       -3.080854
   34       -2.978094
   35       -2.809465
   36       -2.742277
   37       -2.563303
   38       -2.485226
   39       -2.375176
   40       -2.288336
   41       -2.199632
   42       -2.078629
   43       -2.014639
   44       -1.905912
   45       -1.820689
   46       -1.630418
   47       -1.482910
   48       -1.329395
   49       -1.147328
   50       -1.089470
   51       -0.966607
   52       -0.834616
   53       -0.197097
   54        0.012317
   55        0.421354
   56        1.110864
   57        1.408157
   58        1.524420
   59        1.702924
   60        1.844984
   61        1.879169
   62        2.138229
   63        2.227784
   64        2.441861
   65        2.580328
   66        2.617428
   67        2.837501
   68        2.926201
 
  0.1538462E+00  0.2500000E+00  0.0000000E+00  0.1923077E-01
    1      -13.776123
    2      -13.279093
    3      -12.884772
    4      -12.630818
    5      -12.337530
    6      -12.178823
    7      -11.649261
    8      -11.587608
    9      -11.363167
   10      -11.173550
   11      -10.880295
   12      -10.385556
   13       -8.791206
   14       -8.706380
   15       -7.381932
   16       -7.000035
   17       -6.736788
   18       -6.723889
   19       -6.563537
   20       -6.397649
   21       -5.802708
   22       -5.706189
   23       -4.925488
   24       -4.875798
   25       -4.580585
   26       -4.449316
   27       -4.389369
   28       -4.312755
   29       -4.043043
   30       -3.848383
   31       -3.719095
   32       -3.583973
   33       -3.407496
   34       -3.350037
   35       -3.190555
   36       -3.049969
   37       -3.025191
   38       -2.873985
   39       -2.723205
   40       -2.673759
   41       -2.594190
   42       -2.382953
   43       -2.307642
   44       -2.037415
   45       -1.957169
   46       -1.671711
   47       -1.569758
   48       -1.440327
   49       -1.273544
   50       -1.180677
   51       -0.966195
   52       -0.882805
   53       -0.514454
   54       -0.116637
   55        0.536462
   56        0.987233
   57        1.519429
   58        1.590693
   59        2.005531
   60        2.078252
   61        2.270295
   62        2.384178
   63        2.667774
   64        2.790588
   65        2.943487
   66        3.018871
   67        3.087325
   68        3.245666
 
  0.2307692E+00  0.2500000E+00  0.0000000E+00  0.1923077E-01
    1      -13.480734
    2      -12.967812
    3      -12.633219
    4      -12.381625
    5      -12.069253
    6      -11.914616
    7      -11.379183
    8      -11.332746
    9      -11.141376
   10      -10.978459
   11      -10.662952
   12      -10.232449
   13       -8.838334
   14       -8.759004
   15       -7.468313
   16       -7.355143
   17       -6.878052
   18       -6.763271
   19       -6.707826
   20       -6.441208
   21       -5.913480
   22       -5.861318
   23       -5.306138
   24       -5.271639
   25       -5.094229
   26       -4.847526
   27       -4.728137
   28       -4.629866
   29       -4.512285
   30       -4.395953
   31       -4.115879
   32       -4.054377
   33       -3.875903
   34       -3.777826
   35       -3.339807
   36       -3.269170
   37       -3.226429
   38       -3.157729
   39       -2.835021
   40       -2.749961
   41       -2.600413
   42       -2.558848
   43       -2.418002
   44       -2.060290
   45       -1.995916
   46       -1.972427
   47       -1.838460
   48       -1.741647
   49       -1.465018
   50       -1.369564
   51       -1.103865
   52       -1.001802
   53       -0.674148
   54       -0.199166
   55        0.293345
   56        0.573938
   57        1.144537
   58        1.386303
   59        1.534778
   60        1.749726
   61        2.138552
   62        2.466160
   63        2.595968
   64        2.664940
   65        2.865397
   66        2.998834
   67        3.138375
   68        3.180132
 
  0.3076923E+00  0.2500000E+00  0.0000000E+00  0.1923077E-01
    1      -13.081587
    2      -12.551248
    3      -12.273931
    4      -12.047029
    5      -11.716922
    6      -11.570051
    7      -11.079809
    8      -11.035114
    9      -10.877671
   10      -10.782085
   11      -10.457320
   12      -10.116641
   13       -9.037419
   14       -8.769684
   15       -7.881189
   16       -7.774579
   17       -7.223360
   18       -7.175117
   19       -7.027382
   20       -6.638890
   21       -6.295799
   22       -6.254238
   23       -5.984636
   24       -5.782584
   25       -5.446214
   26       -5.013566
   27       -4.959524
   28       -4.691114
   29       -4.560222
   30       -4.504211
   31       -4.398134
   32       -4.328536
   33       -4.075531
   34       -3.948109
   35       -3.408132
   36       -3.246819
   37       -3.155436
   38       -3.056709
   39       -2.951452
   40       -2.920057
   41       -2.730258
   42       -2.600841
   43       -2.486773
   44       -2.420656
   45       -2.294809
   46       -2.025431
   47       -1.993126
   48       -1.920939
   49       -1.807316
   50       -1.502137
   51       -1.363954
   52       -1.241213
   53       -0.687038
   54       -0.319689
   55       -0.092905
   56        0.299601
   57        0.850611
   58        1.159017
   59        1.224263
   60        1.346902
   61        2.083308
   62        2.118074
   63        2.236187
   64        2.425181
   65        2.499956
   66        2.578007
   67        2.867270
   68        3.030897
 
  0.3846154E+00  0.2500000E+00  0.0000000E+00  0.1923077E-01
    1      -12.603932
    2      -12.047946
    3      -11.823628
    4      -11.665741
    5      -11.320583
    6      -11.206627
    7      -10.895315
    8      -10.789559
    9      -10.689824
   10      -10.665503
   11      -10.533759
   12      -10.075725
   13       -9.027412
   14       -8.881921
   15       -8.180711
   16       -8.129900
   17       -7.845126
   18       -7.687078
   19       -7.423832
   20       -7.049372
   21       -6.796028
   22       -6.756210
   23       -6.721589
   24       -6.262150
   25       -5.410072
   26       -4.961046
   27       -4.852084
   28       -4.675407
   29       -4.491295
   30       -4.413562
   31       -4.203476
   32       -4.143987
   33       -3.925298
   34       -3.856192
   35       -3.490742
   36       -3.418179
   37       -3.343890
   38       -3.291158
   39       -3.192738
   40       -2.997872
   41       -2.951465
   42       -2.788406
   43       -2.618177
   44       -2.468647
   45       -2.375881
   46       -2.241328
   47       -2.135085
   48       -2.073916
   49       -1.898149
   50       -1.674224
   51       -1.532857
   52       -1.404604
   53       -0.777145
   54       -0.500690
   55       -0.290099
   56        0.293384
   57        0.745147
   58        0.969803
   59        1.149878
   60        1.285793
   61        1.753064
   62        1.841194
   63        1.963589
   64        2.169368
   65        2.208891
   66        2.545350
   67        2.588904
   68        2.823558
 
  0.4615385E+00  0.2500000E+00  0.0000000E+00  0.1923077E-01
    1      -12.141850
    2      -11.498964
    3      -11.364947
    4      -11.328404
    5      -11.191542
    6      -11.028314
    7      -10.930388
    8      -10.803291
    9      -10.765687
   10      -10.654974
   11      -10.645911
   12      -10.062460
   13       -9.013537
   14       -8.620289
   15       -8.465846
   16       -8.396434
   17       -8.239948
   18       -7.735871
   19       -7.584069
   20       -7.487719
   21       -7.382237
   22       -7.221374
   23       -7.201818
   24       -6.437998
   25       -5.086402
   26       -4.882574
   27       -4.573322
   28       -4.531554
   29       -4.292980
   30       -4.224398
   31       -4.139595
   32       -4.038876
   33       -3.992528
   34       -3.877897
   35       -3.726958
   36       -3.678358
   37       -3.558954
   38       -3.429511
   39       -3.327166
   40       -3.101039
   41       -3.037321
   42       -2.904692
   43       -2.708679
   44       -2.663863
   45       -2.390657
   46       -2.324695
   47       -2.192009
   48       -2.156014
   49       -1.785399
   50       -1.756817
   51       -1.616795
   52       -1.410757
   53       -1.011178
   54       -0.514751
   55       -0.265103
   56        0.377296
   57        0.696946
   58        0.911701
   59        1.359983
   60        1.441992
   61        1.504844
   62        1.676602
   63        1.870685
   64        2.038791
   65        2.151327
   66        2.377449
   67        2.423403
   68        2.566940
 
 -0.4615385E+00  0.2500000E+00  0.0000000E+00  0.1923077E-01
    1      -12.155924
    2      -11.602129
    3      -11.327388
    4      -11.155257
    5      -11.135972
    6      -11.003524
    7      -10.872525
    8      -10.825903
    9      -10.813802
   10      -10.767722
   11      -10.713807
   12      -10.059759
   13       -9.056045
   14       -8.822185
   15       -8.501119
   16       -8.215692
   17       -8.009995
   18       -7.682916
   19       -7.663532
   20       -7.503271
   21       -7.345764
   22       -7.284257
   23       -7.230470
   24       -6.351009
   25       -4.971248
   26       -4.806614
   27       -4.646395
   28       -4.573447
   29       -4.454509
   30       -4.360433
   31       -4.076620
   32       -4.065749
   33       -3.961013
   34       -3.941970
   35       -3.792124
   36       -3.706922
   37       -3.689262
   38       -3.420707
   39       -3.339058
   40       -3.190408
   41       -2.903183
   42       -2.863358
   43       -2.744819
   44       -2.459998
   45       -2.382762
   46       -2.335788
   47       -2.232897
   48       -2.156189
   49       -1.809492
   50       -1.671319
   51       -1.579489
   52       -1.428314
   53       -1.026055
   54       -0.394153
   55       -0.208744
   56        0.407057
   57        0.636787
   58        1.143639
   59        1.312470
   60        1.587609
   61        1.670749
   62        1.708947
   63        1.876406
   64        2.096455
   65        2.197918
   66        2.321511
   67        2.433615
   68        2.535336
 
 -0.3846154E+00  0.2500000E+00  0.0000000E+00  0.1923077E-01
    1      -12.626181
    2      -12.168497
    3      -11.550313
    4      -11.512804
    5      -11.320462
    6      -11.234305
    7      -11.047857
    8      -10.987349
    9      -10.694843
   10      -10.689702
   11      -10.516570
   12      -10.064014
   13       -8.931085
   14       -8.808065
   15       -8.558321
   16       -7.972908
   17       -7.701108
   18       -7.506647
   19       -7.395776
   20       -7.175643
   21       -6.873108
   22       -6.732816
   23       -6.683437
   24       -6.073918
   25       -5.278820
   26       -5.123435
   27       -4.921797
   28       -4.677286
   29       -4.464355
   30       -4.333044
   31       -4.261467
   32       -4.161859
   33       -4.125015
   34       -3.930539
   35       -3.788940
   36       -3.654110
   37       -3.470153
   38       -3.262108
   39       -3.240939
   40       -3.047018
   41       -2.830484
   42       -2.687127
   43       -2.556985
   44       -2.391494
   45       -2.322839
   46       -2.230026
   47       -2.079219
   48       -2.004360
   49       -1.874074
   50       -1.639118
   51       -1.446100
   52       -1.386871
   53       -0.773364
   54       -0.436216
   55       -0.097000
   56        0.421497
   57        0.846321
   58        1.277212
   59        1.345158
   60        1.697370
   61        1.834615
   62        1.895251
   63        2.035580
   64        2.196825
   65        2.237640
   66        2.367400
   67        2.509560
   68        2.583529
 
 -0.3076923E+00  0.2500000E+00  0.0000000E+00  0.1923077E-01
    1      -13.102490
    2      -12.662624
    3      -12.012757
    4      -11.907303
    5      -11.721639
    6      -11.573255
    7      -11.315864
    8      -11.249406
    9      -10.838127
   10      -10.758460
   11      -10.486964
   12      -10.155064
   13       -8.622229
   14       -8.510069
   15       -8.254296
   16       -7.899452
   17       -7.402235
   18       -7.068195
   19       -6.937581
   20       -6.712256
   21       -6.220083
   22       -6.159825
   23       -6.040348
   24       -5.623338
   25       -5.274441
   26       -5.214257
   27       -4.958792
   28       -4.734561
   29       -4.676443
   30       -4.434693
   31       -4.376909
   32       -4.312016
   33       -4.267150
   34       -3.770348
   35       -3.533337
   36       -3.522606
   37       -3.253777
   38       -3.146065
   39       -3.073261
   40       -2.937396
   41       -2.800231
   42       -2.705931
   43       -2.472718
   44       -2.238816
   45       -2.087471
   46       -1.946192
   47       -1.931268
   48       -1.906254
   49       -1.757714
   50       -1.463216
   51       -1.361820
   52       -1.176674
   53       -0.639223
   54       -0.349955
   55       -0.107924
   56        0.598353
   57        1.289267
   58        1.436058
   59        1.564930
   60        1.820868
   61        1.904779
   62        1.968721
   63        2.190852
   64        2.304412
   65        2.515623
   66        2.644546
   67        2.671824
   68        2.765351
 
 -0.2307692E+00  0.2500000E+00  0.0000000E+00  0.1923077E-01
    1      -13.497561
    2      -13.057924
    3      -12.417347
    4      -12.271627
    5      -12.075103
    6      -11.915876
    7      -11.605002
    8      -11.493909
    9      -11.094640
   10      -10.966097
   11      -10.665379
   12      -10.300792
   13       -8.466721
   14       -8.210550
   15       -7.850254
   16       -7.794631
   17       -7.052875
   18       -6.759758
   19       -6.703809
   20       -6.446110
   21       -5.809614
   22       -5.789436
   23       -5.400393
   24       -5.221389
   25       -4.914769
   26       -4.877393
   27       -4.665494
   28       -4.583654
   29       -4.429439
   30       -4.342671
   31       -4.250134
   32       -4.115217
   33       -3.845275
   34       -3.688576
   35       -3.527838
   36       -3.505611
   37       -3.228656
   38       -3.054627
   39       -2.864260
   40       -2.763316
   41       -2.704847
   42       -2.577960
   43       -2.470213
   44       -1.978400
   45       -1.918145
   46       -1.865399
   47       -1.836855
   48       -1.709419
   49       -1.521419
   50       -1.228626
   51       -1.181025
   52       -0.978863
   53       -0.657210
   54       -0.227048
   55        0.116011
   56        0.907413
   57        1.550963
   58        1.753570
   59        1.842887
   60        1.938204
   61        2.071285
   62        2.188993
   63        2.323255
   64        2.640410
   65        2.760275
   66        2.853463
   67        2.907874
   68        3.182151
 
 -0.1538462E+00  0.2500000E+00  0.0000000E+00  0.1923077E-01
    1      -13.787798
    2      -13.341760
    3      -12.732585
    4      -12.555529
    5      -12.342334
    6      -12.179716
    7      -11.820129
    8      -11.692630
    9      -11.327225
   10      -11.169494
   11      -10.867867
   12      -10.443266
   13       -8.449923
   14       -8.388427
   15       -7.609062
   16       -7.441096
   17       -6.851864
   18       -6.715790
   19       -6.618705
   20       -6.388812
   21       -5.761740
   22       -5.683123
   23       -4.929596
   24       -4.859196
   25       -4.554282
   26       -4.354193
   27       -4.232364
   28       -4.101427
   29       -4.009240
   30       -3.848474
   31       -3.773481
   32       -3.626602
   33       -3.589955
   34       -3.287248
   35       -3.243513
   36       -3.070895
   37       -2.981785
   38       -2.951897
   39       -2.811878
   40       -2.618851
   41       -2.554448
   42       -2.390492
   43       -2.244614
   44       -2.037690
   45       -1.862108
   46       -1.750065
   47       -1.658532
   48       -1.389925
   49       -1.242576
   50       -1.121580
   51       -1.025323
   52       -0.834831
   53       -0.573638
   54       -0.233618
   55        0.530671
   56        1.103543
   57        1.666177
   58        1.749247
   59        2.102961
   60        2.169542
   61        2.285870
   62        2.400669
   63        2.615978
   64        2.713150
   65        2.787646
   66        2.902499
   67        2.988585
   68        3.093457
 
 -0.7692308E-01  0.2500000E+00  0.0000000E+00  0.1923077E-01
    1      -13.963519
    2      -13.507577
    3      -12.943031
    4      -12.739297
    5      -12.506837