       N       E                     dE             d eps       ncg     rms          rms(c)
DAV:   1     0.483574469394E+03    0.48357E+03   -0.28620E+04  7368   0.790E+02
DAV:   2    -0.703134095539E+02   -0.55389E+03   -0.53923E+03  9736   0.188E+02
DAV:   3    -0.125436257093E+03   -0.55123E+02   -0.54360E+02  8856   0.614E+01
DAV:   4    -0.127849018854E+03   -0.24128E+01   -0.23983E+01 10832   0.139E+01
DAV:   5    -0.127908051927E+03   -0.59033E-01   -0.58971E-01  9936   0.212E+00    0.969E+00
DAV:   6    -0.126241333463E+03    0.16667E+01   -0.35346E+00  8784   0.467E+00    0.546E+00
DAV:   7    -0.126018195719E+03    0.22314E+00   -0.25146E+00  8824   0.415E+00    0.147E+00
DAV:   8    -0.126012149154E+03    0.60466E-02   -0.28380E-01  8984   0.162E+00    0.581E-01
DAV:   9    -0.125991364322E+03    0.20785E-01   -0.47222E-02  9176   0.661E-01    0.202E-01
DAV:  10    -0.125980486248E+03    0.10878E-01   -0.10222E-02  8992   0.294E-01    0.994E-02
DAV:  11    -0.125974407959E+03    0.60783E-02   -0.26042E-03  8936   0.155E-01    0.449E-02
DAV:  12    -0.125970715395E+03    0.36926E-02   -0.66072E-04  8720   0.733E-02    0.239E-02
DAV:  13    -0.125968890644E+03    0.18248E-02   -0.14729E-04 10088   0.336E-02    0.135E-02
DAV:  14    -0.125967812909E+03    0.10777E-02   -0.63016E-05  8560   0.241E-02    0.752E-03
DAV:  15    -0.125967900785E+03   -0.87876E-04   -0.46624E-05  8128   0.171E-02    0.511E-03
DAV:  16    -0.125968564867E+03   -0.66408E-03   -0.18715E-04  8248   0.253E-02    0.266E-03
DAV:  17    -0.125968765503E+03   -0.20064E-03   -0.98149E-05  7696   0.159E-02    0.150E-03
DAV:  18    -0.125968763520E+03    0.19822E-05   -0.14511E-05  6328   0.888E-03    0.991E-04
DAV:  19    -0.125968786327E+03   -0.22806E-04   -0.17533E-05  6680   0.803E-03    0.697E-04
DAV:  20    -0.125968784064E+03    0.22628E-05   -0.21196E-05  6976   0.965E-03    0.451E-04
DAV:  21    -0.125968713584E+03    0.70479E-04   -0.20261E-05  6616   0.104E-02    0.223E-04
DAV:  22    -0.125968666312E+03    0.47272E-04   -0.10824E-05  6736   0.833E-03    0.113E-04
DAV:  23    -0.125968657357E+03    0.89547E-05   -0.74881E-06  6464   0.769E-03    0.530E-05
DAV:  24    -0.125968646391E+03    0.10966E-04   -0.35352E-06  6688   0.609E-03    0.256E-05
DAV:  25    -0.125968646293E+03    0.98348E-07   -0.29793E-06  6312   0.526E-03
   1 F= -.12596865E+03 E0= -.12595293E+03  d E =-.314423E-01
