 vasp.5.3.5 31Mar14 (build Oct 29 2014 16:16:03) complex                        
  
 executed on          Linux-UFHPC date 2016.02.09  18:36:53
 running on    8 total cores
 distrk:  each k-point on    8 cores,    1 groups
 distr:  one band on NCORES_PER_BAND=   2 cores,    4 groups


--------------------------------------------------------------------------------------------------------


 INCAR:
 POTCAR:    PAW_PBE P 17Jan2003                   
 POTCAR:   PAW_PBE Si 05Jan2001                   

 ----------------------------------------------------------------------------- 
|                                                                             |
|  ADVICE TO THIS USER RUNNING 'VASP/VAMP'   (HEAR YOUR MASTER'S VOICE ...):  |
|                                                                             |
|      You have switched on vdW-DFT.                                          |
|      This routine was written and supplied by Jiri Klimes.                  |
|      We recommed that you carefully read and cite the following             |
|      publication                                                            |
|      J. Klimes, D.R. Bowler, A. Michelides                                  |
|        J. Phys.: Cond Matt. 22 022201 (2010)                                |
|      J. Klimes, D.R. Bowler, A. Michelides                                  |
|        Phys. Rev. B. 83, 195131 (2011)                                      |
|      and references therein.                                                |
|                                                                             |
 ----------------------------------------------------------------------------- 

 POTCAR:    PAW_PBE P 17Jan2003                   
   VRHFIN =P : s2p3                                                             
   LEXCH  = PE                                                                  
   EATOM  =   176.0430 eV,   12.9388 Ry                                         
                                                                                
   TITEL  = PAW_PBE P 17Jan2003                                                 
   LULTRA =        F    use ultrasoft PP ?                                      
   IUNSCR =        1    unscreen: 0-lin 1-nonlin 2-no                           
   RPACOR =    1.500    partial core radius                                     
   POMASS =   30.974; ZVAL   =    5.000    mass and valenz                      
   RCORE  =    1.900    outmost cutoff radius                                   
   RWIGS  =    2.330; RWIGS  =    1.233    wigner-seitz radius (au A)           
   ENMAX  =  270.000; ENMIN  =  191.280 eV                                      
   ICORE  =        2    local potential                                         
   LCOR   =        T    correct aug charges                                     
   LPAW   =        T    paw PP                                                  
   EAUG   =  342.924                                                            
   DEXC   =    -.002                                                            
   RMAX   =    2.887    core radius for proj-oper                               
   RAUG   =    1.300    factor for augmentation sphere                          
   RDEP   =    1.931    radius for radial grids                                 
   QCUT   =   -4.330; QGAM   =    8.659    optimization parameters              
                                                                                
   Description                                                                  
     l     E      TYP  RCUT    TYP  RCUT                                        
     0   .000     23  1.900                                                     
     0   .000     23  1.900                                                     
     1   .000     23  1.900                                                     
     1   .000     23  1.900                                                     
     2   .000     23  1.900                                                     
  local pseudopotential read in
  partial core-charges read in
  atomic valenz-charges read in
  non local Contribution for L=           0  read in
    real space projection operators read in
  non local Contribution for L=           0  read in
    real space projection operators read in
  non local Contribution for L=           1  read in
    real space projection operators read in
  non local Contribution for L=           1  read in
    real space projection operators read in
    PAW grid and wavefunctions read in
 
   number of l-projection  operators is LMAX  =           4
   number of lm-projection operators is LMMAX =           8
 
 POTCAR:   PAW_PBE Si 05Jan2001                   
   VRHFIN =Si: s2p2                                                             
   LEXCH  = PE                                                                  
   EATOM  =   103.0669 eV,    7.5752 Ry                                         
                                                                                
   TITEL  = PAW_PBE Si 05Jan2001                                                
   LULTRA =        F    use ultrasoft PP ?                                      
   IUNSCR =        1    unscreen: 0-lin 1-nonlin 2-no                           
   RPACOR =    1.500    partial core radius                                     
   POMASS =   28.085; ZVAL   =    4.000    mass and valenz                      
   RCORE  =    1.900    outmost cutoff radius                                   
   RWIGS  =    2.480; RWIGS  =    1.312    wigner-seitz radius (au A)           
   ENMAX  =  245.345; ENMIN  =  184.009 eV                                      
   ICORE  =        2    local potential                                         
   LCOR   =        T    correct aug charges                                     
   LPAW   =        T    paw PP                                                  
   EAUG   =  322.069                                                            
   DEXC   =    -.007                                                            
   RMAX   =    2.944    core radius for proj-oper                               
   RAUG   =    1.300    factor for augmentation sphere                          
   RDEP   =    1.993    radius for radial grids                                 
   QCUT   =   -4.246; QGAM   =    8.493    optimization parameters              
                                                                                
   Description                                                                  
     l     E      TYP  RCUT    TYP  RCUT                                        
     0   .000     23  1.900                                                     
     0   .000     23  1.900                                                     
     1   .000     23  1.900                                                     
     1   .000     23  1.900                                                     
     2   .000      7  1.900                                                     
  local pseudopotential read in
  partial core-charges read in
  atomic valenz-charges read in
  non local Contribution for L=           0  read in
    real space projection operators read in
  non local Contribution for L=           0  read in
    real space projection operators read in
  non local Contribution for L=           1  read in
    real space projection operators read in
  non local Contribution for L=           1  read in
    real space projection operators read in
    PAW grid and wavefunctions read in
 
   number of l-projection  operators is LMAX  =           4
   number of lm-projection operators is LMMAX =           8
 
 Optimization of the real space projectors (new method)

 maximal supplied QI-value         = 19.84
 optimisation between [QCUT,QGAM] = [  8.73, 17.66] = [ 21.34, 87.33] Ry 
 Optimized for a Real-space Cutoff    1.50 Angstroem

   l    n(q)    QCUT    max X(q) W(low)/X(q) W(high)/X(q)  e(spline) 
   0      8     8.731     6.651    0.16E-04    0.15E-04    0.77E-08
   0      8     8.731    90.285    0.16E-03    0.90E-04    0.16E-06
   1      7     8.731     4.328    0.47E-04    0.36E-04    0.45E-07
   1      7     8.731    54.583    0.13E-03    0.39E-03    0.20E-06
 Optimization of the real space projectors (new method)

 maximal supplied QI-value         = 19.84
 optimisation between [QCUT,QGAM] = [  8.73, 17.66] = [ 21.34, 87.33] Ry 
 Optimized for a Real-space Cutoff    1.46 Angstroem

   l    n(q)    QCUT    max X(q) W(low)/X(q) W(high)/X(q)  e(spline) 
   0      8     8.731     8.708    0.16E-04    0.11E-04    0.68E-08
   0      8     8.731   106.241    0.24E-03    0.77E-04    0.13E-06
   1      7     8.731     5.901    0.34E-04    0.38E-04    0.36E-07
   1      7     8.731    73.241    0.12E-03    0.39E-03    0.15E-06

 ----------------------------------------------------------------------------- 
|                                                                             |
|  ADVICE TO THIS USER RUNNING 'VASP/VAMP'   (HEAR YOUR MASTER'S VOICE ...):  |
|                                                                             |
|      You enforced a specific xc-type in the INCAR file,                     |
|      a different type was found on the POTCAR file                          |
|          I HOPE YOU KNOW, WHAT YOU ARE  DOING                               |
|                                                                             |
 ----------------------------------------------------------------------------- 

  PAW_PBE P 17Jan2003                   :
 energy of atom  1       EATOM= -176.0430
 kinetic energy error for atom=    0.0040 (will be added to EATOM!!)
 PAW_PBE Si 05Jan2001                   :
 energy of atom  2       EATOM= -103.0669
 kinetic energy error for atom=    0.0021 (will be added to EATOM!!)
 
 
 POSCAR: Si12                                    
  positions in direct lattice
  No initial velocities read in
 exchange correlation table for  LEXCH =       42
   RHO(1)=    0.500       N(1)  =     2000
   RHO(2)=  100.500       N(2)  =     4000
 


--------------------------------------------------------------------------------------------------------


 ion  position               nearest neighbor table
   1  0.114  0.228  0.233-  15 2.28  21 2.29  21 2.29
   2  0.914  0.328  0.515-  16 2.28  22 2.29  22 2.29
   3  0.458  0.916  0.209-  21 2.28  13 2.30  13 2.30
   4  0.258  0.016  0.491-  22 2.28  14 2.30  14 2.30
   5  0.311  0.622  0.084-  17 2.28  23 2.30  23 2.30
   6  0.311  0.622  0.366-  24 2.19  18 2.28
   7  0.999  0.998  0.086-  19 2.29  19 2.29  13 2.32
   8  0.999  0.998  0.368-  14 2.17  20 2.29  20 2.29  24 2.96
   9  0.655  0.310  0.060-  19 2.28  17 2.29  17 2.29
  10  0.655  0.310  0.342-  20 2.28  18 2.29  18 2.29
  11  0.770  0.539  0.207-  15 2.29  15 2.29  23 2.32
  12  0.570  0.639  0.489-  16 2.29  16 2.29  24 2.32
  13  0.940  0.879  0.158-   3 2.30   3 2.30   7 2.32  23 2.35
  14  0.740  0.979  0.440-   8 2.17  20 2.24   4 2.30   4 2.30  24 2.35
  15  0.205  0.410  0.186-   1 2.28  11 2.29  11 2.29  17 2.37
  16  0.005  0.510  0.468-   2 2.28  12 2.29  12 2.29  18 2.76
  17  0.202  0.404  0.100-   5 2.28   9 2.29   9 2.29  15 2.37
  18  0.202  0.404  0.382-   6 2.28  10 2.29  10 2.29  16 2.76
  19  0.564  0.128  0.108-   9 2.28   7 2.29   7 2.29  21 2.37
  20  0.564  0.128  0.390-  14 2.24  10 2.28   8 2.29   8 2.29  22 2.76
  21  0.567  0.134  0.194-   3 2.28   1 2.29   1 2.29  19 2.37
  22  0.367  0.234  0.476-   4 2.28   2 2.29   2 2.29  20 2.76
  23  0.829  0.658  0.136-   5 2.30   5 2.30  11 2.32  13 2.35
  24  0.629  0.758  0.418-   6 2.19  12 2.32  14 2.35   8 2.96
 
  LATTYP: Found a base centered orthorhombic cell.
 ALAT       =     3.5404000000
 B/A-ratio  =     5.8153587165
 C/A-ratio  =     7.7678875268
  
  Lattice vectors:
  
 A1 = (   1.7702000000,  10.2943480000,   0.0000000000)
 A2 = (   1.7702000000, -10.2943480000,   0.0000000000)
 A3 = (   0.0000000000,   0.0000000000, -27.5014290000)


Analysis of symmetry for initial positions (statically):
=====================================================================
 Subroutine PRICEL returns:
 Original cell was already a primitive cell.
 

 Routine SETGRP: Setting up the symmetry group for a 
 base centered orthorhombic supercell.


 Subroutine GETGRP returns: Found  1 space group operations
 (whereof  1 operations were pure point group operations)
 out of a pool of  8 trial point group operations.


The static configuration has the point symmetry C_1 .


Analysis of symmetry for dynamics (positions and initial velocities):
=====================================================================
 Subroutine PRICEL returns:
 Original cell was already a primitive cell.
 

 Routine SETGRP: Setting up the symmetry group for a 
 base centered orthorhombic supercell.


 Subroutine GETGRP returns: Found  1 space group operations
 (whereof  1 operations were pure point group operations)
 out of a pool of  8 trial point group operations.


The dynamic configuration has the point symmetry C_1 .
 
 
 KPOINTS: pymatgen generated KPOINTS with grid den

Automatic generation of k-mesh.
Space group operators:
 irot       det(A)        alpha          n_x          n_y          n_z        tau_x        tau_y        tau_z
    1     1.000000     0.000000     1.000000     0.000000     0.000000     0.000000     0.000000     0.000000
 
 Subroutine IBZKPT returns following result:
 ===========================================
 
 Found     54 irreducible k-points:
 
 Following reciprocal coordinates:
            Coordinates               Weight
  0.000000  0.000000  0.000000      1.000000
  0.076923 -0.000000  0.000000      2.000000
  0.153846 -0.000000  0.000000      2.000000
  0.230769 -0.000000  0.000000      2.000000
  0.307692 -0.000000  0.000000      2.000000
  0.384615 -0.000000  0.000000      2.000000
  0.461538 -0.000000  0.000000      2.000000
  0.000000  0.250000  0.000000      2.000000
  0.076923  0.250000  0.000000      2.000000
  0.153846  0.250000  0.000000      2.000000
  0.230769  0.250000  0.000000      2.000000
  0.307692  0.250000  0.000000      2.000000
  0.384615  0.250000  0.000000      2.000000
  0.461538  0.250000  0.000000      2.000000
 -0.461538  0.250000  0.000000      2.000000
 -0.384615  0.250000  0.000000      2.000000
 -0.307692  0.250000  0.000000      2.000000
 -0.230769  0.250000  0.000000      2.000000
 -0.153846  0.250000  0.000000      2.000000
 -0.076923  0.250000  0.000000      2.000000
  0.000000  0.500000  0.000000      1.000000
  0.076923  0.500000  0.000000      2.000000
  0.153846  0.500000  0.000000      2.000000
  0.230769  0.500000  0.000000      2.000000
  0.307692  0.500000  0.000000      2.000000
  0.384615  0.500000  0.000000      2.000000
  0.461538  0.500000  0.000000      2.000000
  0.000000  0.000000  0.500000      1.000000
  0.076923 -0.000000  0.500000      2.000000
  0.153846 -0.000000  0.500000      2.000000
  0.230769 -0.000000  0.500000      2.000000
  0.307692 -0.000000  0.500000      2.000000
  0.384615 -0.000000  0.500000      2.000000
  0.461538 -0.000000  0.500000      2.000000
  0.000000  0.250000  0.500000      2.000000
  0.076923  0.250000  0.500000      2.000000
  0.153846  0.250000  0.500000      2.000000
  0.230769  0.250000  0.500000      2.000000
  0.307692  0.250000  0.500000      2.000000
  0.384615  0.250000  0.500000      2.000000
  0.461538  0.250000  0.500000      2.000000
 -0.461538  0.250000  0.500000      2.000000
 -0.384615  0.250000  0.500000      2.000000
 -0.307692  0.250000  0.500000      2.000000
 -0.230769  0.250000  0.500000      2.000000
 -0.153846  0.250000  0.500000      2.000000
 -0.076923  0.250000  0.500000      2.000000
  0.000000  0.500000  0.500000      1.000000
  0.076923  0.500000  0.500000      2.000000
  0.153846  0.500000  0.500000      2.000000
  0.230769  0.500000  0.500000      2.000000
  0.307692  0.500000  0.500000      2.000000
  0.384615  0.500000  0.500000      2.000000
  0.461538  0.500000  0.500000      2.000000
 
 Following cartesian coordinates:
            Coordinates               Weight
  0.000000  0.000000  0.000000      1.000000
  0.021727  0.003736  0.000000      2.000000
  0.043454  0.007472  0.000000      2.000000
  0.065182  0.011209  0.000000      2.000000
  0.086909  0.014945  0.000000      2.000000
  0.108636  0.018681  0.000000      2.000000
  0.130363  0.022417  0.000000      2.000000
  0.000000  0.024285  0.000000      2.000000
  0.021727  0.028021  0.000000      2.000000
  0.043454  0.031758  0.000000      2.000000
  0.065182  0.035494  0.000000      2.000000
  0.086909  0.039230  0.000000      2.000000
  0.108636  0.042966  0.000000      2.000000
  0.130363  0.046702  0.000000      2.000000
 -0.130363  0.001868  0.000000      2.000000
 -0.108636  0.005604  0.000000      2.000000
 -0.086909  0.009340  0.000000      2.000000
 -0.065182  0.013077  0.000000      2.000000
 -0.043454  0.016813  0.000000      2.000000
 -0.021727  0.020549  0.000000      2.000000
  0.000000  0.048570  0.000000      1.000000
  0.021727  0.052307  0.000000      2.000000
  0.043454  0.056043  0.000000      2.000000
  0.065182  0.059779  0.000000      2.000000
  0.086909  0.063515  0.000000      2.000000
  0.108636  0.067251  0.000000      2.000000
  0.130363  0.070987  0.000000      2.000000
  0.000000  0.000000  0.018181      1.000000
  0.021727  0.003736  0.018181      2.000000
  0.043454  0.007472  0.018181      2.000000
  0.065182  0.011209  0.018181      2.000000
  0.086909  0.014945  0.018181      2.000000
  0.108636  0.018681  0.018181      2.000000
  0.130363  0.022417  0.018181      2.000000
  0.000000  0.024285  0.018181      2.000000
  0.021727  0.028021  0.018181      2.000000
  0.043454  0.031758  0.018181      2.000000
  0.065182  0.035494  0.018181      2.000000
  0.086909  0.039230  0.018181      2.000000
  0.108636  0.042966  0.018181      2.000000
  0.130363  0.046702  0.018181      2.000000
 -0.130363  0.001868  0.018181      2.000000
 -0.108636  0.005604  0.018181      2.000000
 -0.086909  0.009340  0.018181      2.000000
 -0.065182  0.013077  0.018181      2.000000
 -0.043454  0.016813  0.018181      2.000000
 -0.021727  0.020549  0.018181      2.000000
  0.000000  0.048570  0.018181      1.000000
  0.021727  0.052307  0.018181      2.000000
  0.043454  0.056043  0.018181      2.000000
  0.065182  0.059779  0.018181      2.000000
  0.086909  0.063515  0.018181      2.000000
  0.108636  0.067251  0.018181      2.000000
  0.130363  0.070987  0.018181      2.000000
 


--------------------------------------------------------------------------------------------------------




 Dimension of arrays:
   k-points           NKPTS =     54   k-points in BZ     NKDIM =     54   number of bands    NBANDS=     68
   number of dos      NEDOS =    301   number of ions     NIONS =     24
   non local maximal  LDIM  =      4   non local SUM 2l+1 LMDIM =      8
   total plane-waves  NPLWV = 192000
   max r-space proj   IRMAX =   2772   max aug-charges    IRDMAX=   6603
   dimension x,y,z NGX =    20 NGY =   60 NGZ =  160
   dimension x,y,z NGXF=    40 NGYF=  120 NGZF=  320
   support grid    NGXF=    40 NGYF=  120 NGZF=  320
   ions per type =              12  12
 NGX,Y,Z   is equivalent  to a cutoff of   9.39,  9.55,  9.67 a.u.
 NGXF,Y,Z  is equivalent  to a cutoff of  18.78, 19.10, 19.34 a.u.


 I would recommend the setting:
   dimension x,y,z NGX =    20 NGY =   59 NGZ =  155
 SYSTEM =  unknown system                          
 POSCAR =  Si12                                    

 Startparameter for this run:
   NWRITE =      2    write-flag & timer
   PREC   = accura    normal or accurate (medium, high low for compatibility)
   ISTART =      0    job   : 0-new  1-cont  2-samecut
   ICHARG =      2    charge: 1-file 2-atom 10-const
   ISPIN  =      1    spin polarized calculation?
   LNONCOLLINEAR =      F non collinear calculations
   LSORBIT =      F    spin-orbit coupling
   INIWAV =      1    electr: 0-lowe 1-rand  2-diag
   LASPH  =      F    aspherical Exc in radial PAW
   METAGGA=      F    non-selfconsistent MetaGGA calc.

 Electronic Relaxation 1
   ENCUT  =  300.0 eV  22.05 Ry    4.70 a.u.   5.00 14.75 38.84*2*pi/ulx,y,z
   ENINI  =  300.0     initial cutoff
   ENAUG  =  342.9 eV  augmentation charge cutoff
   NELM   =     60;   NELMIN=  2; NELMDL= -5     # of ELM steps 
   EDIFF  = 0.1E-05   stopping-criterion for ELM
   LREAL  =      T    real-space projection
   NLSPLINE    = F    spline interpolate recip. space projectors
   LCOMPAT=      F    compatible to vasp.4.4
   GGA_COMPAT  = T    GGA compatible to vasp.4.4-vasp.4.6
   LMAXPAW     = -100 max onsite density
   LMAXMIX     =    2 max onsite mixed and CHGCAR
   VOSKOWN=      0    Vosko Wilk Nusair interpolation
   ROPT   =   -0.00025  -0.00025
 Ionic relaxation
   EDIFFG = 0.1E-04   stopping-criterion for IOM
   NSW    =      0    number of steps for IOM
   NBLOCK =      1;   KBLOCK =      1    inner block; outer block 
   IBRION =     -1    ionic relax: 0-MD 1-quasi-New 2-CG
   NFREE  =      1    steps in history (QN), initial steepest desc. (CG)
   ISIF   =      3    stress and relaxation
   IWAVPR =     10    prediction:  0-non 1-charg 2-wave 3-comb
   ISYM   =      2    0-nonsym 1-usesym 2-fastsym
   LCORR  =      T    Harris-Foulkes like correction to forces

   POTIM  = 0.5000    time-step for ionic-motion
   TEIN   =    0.0    initial temperature
   TEBEG  =    0.0;   TEEND  =   0.0 temperature during run
   SMASS  =  -3.00    Nose mass-parameter (am)
   estimated Nose-frequenzy (Omega)   =  0.10E-29 period in steps =****** mass=  -0.286E-27a.u.
   SCALEE = 1.0000    scale energy and forces
   NPACO  =    256;   APACO  = 16.0  distance and # of slots for P.C.
   PSTRESS=    0.0 pullay stress

  Mass of Ions in am
   POMASS =  30.97 28.09
  Ionic Valenz
   ZVAL   =   5.00  4.00
  Atomic Wigner-Seitz radii
   RWIGS  =  -1.00 -1.00
  virtual crystal weights 
   VCA    =   1.00  1.00
   NELECT =     108.0000    total number of electrons
   NUPDOWN=      -1.0000    fix difference up-down

 DOS related values:
   EMIN   =  10.00;   EMAX   =-10.00  energy-range for DOS
   EFERMI =   0.00
   ISMEAR =     0;   SIGMA  =   0.10  broadening in eV -4-tet -1-fermi 0-gaus

 Electronic relaxation 2 (details)
   IALGO  =     38    algorithm
   LDIAG  =      T    sub-space diagonalisation (order eigenvalues)
   LSUBROT=      F    optimize rotation matrix (better conditioning)
   TURBO    =      0    0=normal 1=particle mesh
   IRESTART =      0    0=no restart 2=restart with 2 vectors
   NREBOOT  =      0    no. of reboots
   NMIN     =      0    reboot dimension
   EREF     =   0.00    reference energy to select bands
   IMIX   =      4    mixing-type and parameters
     AMIX     =   0.40;   BMIX     =  1.00
     AMIX_MAG =   1.60;   BMIX_MAG =  1.00
     AMIN     =   0.10
     WC   =   100.;   INIMIX=   1;  MIXPRE=   1;  MAXMIX= -45

 Intra band minimization:
   WEIMIN = 0.0000     energy-eigenvalue tresh-hold
   EBREAK =  0.37E-08  absolut break condition
   DEPER  =   0.30     relativ break condition  

   TIME   =   0.40     timestep for ELM

  volume/ion in A,a.u.               =      41.76       281.83
  Fermi-wavevector in a.u.,A,eV,Ry     =   0.779018  1.472130  8.256946  0.606868
  Thomas-Fermi vector in A             =   1.882034
 
 Write flags
   LWAVE  =      F    write WAVECAR
   LCHARG =      F    write CHGCAR
   LVTOT  =      F    write LOCPOT, total local potential
   LVHAR  =      F    write LOCPOT, Hartree potential only
   LELF   =      F    write electronic localiz. function (ELF)
   LORBIT =      0    0 simple, 1 ext, 2 COOP (PROOUT)


 Dipole corrections
   LMONO  =      F    monopole corrections only (constant potential shift)
   LDIPOL =      F    correct potential (dipole corrections)
   IDIPOL =      0    1-x, 2-y, 3-z, 4-all directions 
   EPSILON=  1.0000000 bulk dielectric constant

 Exchange correlation treatment:
   GGA     =    BO    GGA type
   LEXCH   =    42    internal setting for exchange type
   VOSKOWN=      0    Vosko Wilk Nusair interpolation
   LHFCALC =     F    Hartree Fock is set to
   LHFONE  =     F    Hartree Fock one center treatment
   AEXX    =    0.0000 exact exchange contribution

 vdW DFT:
   LUSE_VDW   =     T    switch on vdW DFT
   Zab_VDW    =-.8491    correlation parameter
   PARAM1     =0.1833
   PARAM2     =0.2200
   PARAM3     =0.0000

 Linear response parameters
   LEPSILON=     F    determine dielectric tensor
   LRPA    =     F    only Hartree local field effects (RPA)
   LNABLA  =     F    use nabla operator in PAW spheres
   LVEL    =     F    velocity operator in full k-point grid
   LINTERFAST=   F  fast interpolation
   KINTER  =     0    interpolate to denser k-point grid
   CSHIFT  =0.1000    complex shift for real part using Kramers Kronig
   OMEGAMAX=  -1.0    maximum frequency
   DEG_THRESHOLD= 0.2000000E-02 threshold for treating states as degnerate
   RTIME   =    0.100 relaxation time in fs

 Orbital magnetization related:
   ORBITALMAG=     F  switch on orbital magnetization
   LCHIMAG   =     F  perturbation theory with respect to B field
   DQ        =  0.001000  dq finite difference perturbation B field



--------------------------------------------------------------------------------------------------------


 Static calculation
 charge density and potential will be updated during run
 non-spin polarized calculation
 Variant of blocked Davidson
 Davidson routine will perform the subspace rotation
 perform sub-space diagonalisation
    after iterative eigenvector-optimisation
 modified Broyden-mixing scheme, WC =      100.0
 initial mixing is a Kerker type mixing with AMIX =  0.4000 and BMIX =      1.0000
 Hartree-type preconditioning will be used
 using additional bands           14
 real space projection scheme for non local part
 use partial core corrections
 calculate Harris-corrections to forces 
   (improved forces if not selfconsistent)
 use gradient corrections 
 use of overlap-Matrix (Vanderbilt PP)
 Gauss-broadening in eV      SIGMA  =   0.10


--------------------------------------------------------------------------------------------------------


  energy-cutoff  :      300.00
  volume of cell :     1002.32
      direct lattice vectors                 reciprocal lattice vectors
     3.540400000  0.000000000  0.000000000     0.282453960  0.048570342  0.000000000
    -1.770200000 10.294348000  0.000000000     0.000000000  0.097140683  0.000000000
     0.000000000  0.000000000 27.501429000     0.000000000  0.000000000  0.036361747

  length of vectors
     3.540400000 10.445439617 27.501429000     0.286599577  0.097140683  0.036361747


 
 k-points in units of 2pi/SCALE and weight: pymatgen generated KPOINTS with grid den
   0.00000000  0.00000000  0.00000000       0.010
   0.02172723  0.00373618  0.00000000       0.019
   0.04345446  0.00747236  0.00000000       0.019
   0.06518168  0.01120854  0.00000000       0.019
   0.08690891  0.01494472  0.00000000       0.019
   0.10863614  0.01868090  0.00000000       0.019
   0.13036337  0.02241708  0.00000000       0.019
   0.00000000  0.02428517  0.00000000       0.019
   0.02172723  0.02802135  0.00000000       0.019
   0.04345446  0.03175753  0.00000000       0.019
   0.06518168  0.03549371  0.00000000       0.019
   0.08690891  0.03922989  0.00000000       0.019
   0.10863614  0.04296607  0.00000000       0.019
   0.13036337  0.04670225  0.00000000       0.019
  -0.13036337  0.00186809  0.00000000       0.019
  -0.10863614  0.00560427  0.00000000       0.019
  -0.08690891  0.00934045  0.00000000       0.019
  -0.06518168  0.01307663  0.00000000       0.019
  -0.04345446  0.01681281  0.00000000       0.019
  -0.02172723  0.02054899  0.00000000       0.019
   0.00000000  0.04857034  0.00000000       0.010
   0.02172723  0.05230652  0.00000000       0.019
   0.04345446  0.05604270  0.00000000       0.019
   0.06518168  0.05977888  0.00000000       0.019
   0.08690891  0.06351506  0.00000000       0.019
   0.10863614  0.06725124  0.00000000       0.019
   0.13036337  0.07098742  0.00000000       0.019
   0.00000000  0.00000000  0.01818087       0.010
   0.02172723  0.00373618  0.01818087       0.019
   0.04345446  0.00747236  0.01818087       0.019
   0.06518168  0.01120854  0.01818087       0.019
   0.08690891  0.01494472  0.01818087       0.019
   0.10863614  0.01868090  0.01818087       0.019
   0.13036337  0.02241708  0.01818087       0.019
   0.00000000  0.02428517  0.01818087       0.019
   0.02172723  0.02802135  0.01818087       0.019
   0.04345446  0.03175753  0.01818087       0.019
   0.06518168  0.03549371  0.01818087       0.019
   0.08690891  0.03922989  0.01818087       0.019
   0.10863614  0.04296607  0.01818087       0.019
   0.13036337  0.04670225  0.01818087       0.019
  -0.13036337  0.00186809  0.01818087       0.019
  -0.10863614  0.00560427  0.01818087       0.019
  -0.08690891  0.00934045  0.01818087       0.019
  -0.06518168  0.01307663  0.01818087       0.019
  -0.04345446  0.01681281  0.01818087       0.019
  -0.02172723  0.02054899  0.01818087       0.019
   0.00000000  0.04857034  0.01818087       0.010
   0.02172723  0.05230652  0.01818087       0.019
   0.04345446  0.05604270  0.01818087       0.019
   0.06518168  0.05977888  0.01818087       0.019
   0.08690891  0.06351506  0.01818087       0.019
   0.10863614  0.06725124  0.01818087       0.019
   0.13036337  0.07098742  0.01818087       0.019
 
 k-points in reciprocal lattice and weights: pymatgen generated KPOINTS with grid den
   0.00000000  0.00000000  0.00000000       0.010
   0.07692308 -0.00000000  0.00000000       0.019
   0.15384615 -0.00000000  0.00000000       0.019
   0.23076923 -0.00000000  0.00000000       0.019
   0.30769231 -0.00000000  0.00000000       0.019
   0.38461538 -0.00000000  0.00000000       0.019
   0.46153846 -0.00000000  0.00000000       0.019
   0.00000000  0.25000000  0.00000000       0.019
   0.07692308  0.25000000  0.00000000       0.019
   0.15384615  0.25000000  0.00000000       0.019
   0.23076923  0.25000000  0.00000000       0.019
   0.30769231  0.25000000  0.00000000       0.019
   0.38461538  0.25000000  0.00000000       0.019
   0.46153846  0.25000000  0.00000000       0.019
  -0.46153846  0.25000000  0.00000000       0.019
  -0.38461538  0.25000000  0.00000000       0.019
  -0.30769231  0.25000000  0.00000000       0.019
  -0.23076923  0.25000000  0.00000000       0.019
  -0.15384615  0.25000000  0.00000000       0.019
  -0.07692308  0.25000000  0.00000000       0.019
   0.00000000  0.50000000  0.00000000       0.010
   0.07692308  0.50000000  0.00000000       0.019
   0.15384615  0.50000000  0.00000000       0.019
   0.23076923  0.50000000  0.00000000       0.019
   0.30769231  0.50000000  0.00000000       0.019
   0.38461538  0.50000000  0.00000000       0.019
   0.46153846  0.50000000  0.00000000       0.019
   0.00000000  0.00000000  0.50000000       0.010
   0.07692308 -0.00000000  0.50000000       0.019
   0.15384615 -0.00000000  0.50000000       0.019
   0.23076923 -0.00000000  0.50000000       0.019
   0.30769231 -0.00000000  0.50000000       0.019
   0.38461538 -0.00000000  0.50000000       0.019
   0.46153846 -0.00000000  0.50000000       0.019
   0.00000000  0.25000000  0.50000000       0.019
   0.07692308  0.25000000  0.50000000       0.019
   0.15384615  0.25000000  0.50000000       0.019
   0.23076923  0.25000000  0.50000000       0.019
   0.30769231  0.25000000  0.50000000       0.019
   0.38461538  0.25000000  0.50000000       0.019
   0.46153846  0.25000000  0.50000000       0.019
  -0.46153846  0.25000000  0.50000000       0.019
  -0.38461538  0.25000000  0.50000000       0.019
  -0.30769231  0.25000000  0.50000000       0.019
  -0.23076923  0.25000000  0.50000000       0.019
  -0.15384615  0.25000000  0.50000000       0.019
  -0.07692308  0.25000000  0.50000000       0.019
   0.00000000  0.50000000  0.50000000       0.010
   0.07692308  0.50000000  0.50000000       0.019
   0.15384615  0.50000000  0.50000000       0.019
   0.23076923  0.50000000  0.50000000       0.019
   0.30769231  0.50000000  0.50000000       0.019
   0.38461538  0.50000000  0.50000000       0.019
   0.46153846  0.50000000  0.50000000       0.019
 
 position of ions in fractional coordinates (direct lattice) 
   0.11402300  0.22804500  0.23316207
   0.91402300  0.32804500  0.51499159
   0.45808900  0.91617900  0.20939482
   0.25808900  0.01617900  0.49122434
   0.31085400  0.62170900  0.08414979
   0.31085400  0.62170900  0.36597930
   0.99923000  0.99846000  0.08631254
   0.99923000  0.99846000  0.36814206
   0.65492700  0.30985400  0.06041748
   0.65492700  0.30985400  0.34224700
   0.76973800  0.53947500  0.20725292
   0.56973800  0.63947500  0.48908244
   0.93971600  0.87943300  0.15783749
   0.73971600  0.97943300  0.43966701
   0.20515200  0.41030300  0.18578822
   0.00515200  0.51030300  0.46761774
   0.20184900  0.40369900  0.09969156
   0.20184900  0.40369900  0.38152107
   0.56380500  0.12761000  0.10779021
   0.56380500  0.12761000  0.38961973
   0.56710600  0.13421200  0.19387616
   0.36710600  0.23421200  0.47570568
   0.82923400  0.65846800  0.13571444
   0.62923400  0.75846800  0.41754396
 
 position of ions in cartesian coordinates  (Angst):
   0.00000177  2.34757459  6.41229012
   2.65530177  3.37700939 14.16300462
  -0.00000177  9.43146546  5.75865686
   0.88509823  0.16655226 13.50937136
  -0.00000177  6.40008880  2.31423934
  -0.00000177  6.40008880 10.06495384
   1.77020000 10.27849470  2.37371832
   1.77020000 10.27849470 10.12443282
   1.77020000  3.18974491  1.66156717
   1.77020000  3.18974491  9.41228167
   1.77020177  5.55354339  5.69975143
   0.88510177  6.58297819 13.45046593
   1.77019823  9.05318934  4.34075665
   0.88509823 10.08262414 12.09147115
   0.00000177  4.22380187  5.10944151
  -0.88509823  5.25323667 12.86015601
  -0.00000177  4.15581799  2.74166024
  -0.00000177  4.15581799 10.49237474
   1.77020000  1.31366175  2.96438477
   1.77020000  1.31366175 10.71509927
   1.77020000  1.38162503  5.33187152
   0.88510000  2.41105983 13.08258602
   1.77020000  6.77849874  3.73234107
   0.88510000  7.80793354 11.48305557
 


--------------------------------------------------------------------------------------------------------


 k-point  1 :   0.0000 0.0000 0.0000  plane waves:   11717
 k-point  2 :   0.0769-0.0000 0.0000  plane waves:   11762
 k-point  3 :   0.1538-0.0000 0.0000  plane waves:   11805
 k-point  4 :   0.2308-0.0000 0.0000  plane waves:   11824
 k-point  5 :   0.3077-0.0000 0.0000  plane waves:   11875
 k-point  6 :   0.3846-0.0000 0.0000  plane waves:   11864
 k-point  7 :   0.4615-0.0000 0.0000  plane waves:   11883
 k-point  8 :   0.0000 0.2500 0.0000  plane waves:   11683
 k-point  9 :   0.0769 0.2500 0.0000  plane waves:   11756
 k-point 10 :   0.1538 0.2500 0.0000  plane waves:   11807
 k-point 11 :   0.2308 0.2500 0.0000  plane waves:   11853
 k-point 12 :   0.3077 0.2500 0.0000  plane waves:   11866
 k-point 13 :   0.3846 0.2500 0.0000  plane waves:   11889
 k-point 14 :   0.4615 0.2500 0.0000  plane waves:   11885
 k-point 15 :  -0.4615 0.2500 0.0000  plane waves:   11886
 k-point 16 :  -0.3846 0.2500 0.0000  plane waves:   11867
 k-point 17 :  -0.3077 0.2500 0.0000  plane waves:   11849
 k-point 18 :  -0.2308 0.2500 0.0000  plane waves:   11827
 k-point 19 :  -0.1538 0.2500 0.0000  plane waves:   11801
 k-point 20 :  -0.0769 0.2500 0.0000  plane waves:   11757
 k-point 21 :   0.0000 0.5000 0.0000  plane waves:   11710
 k-point 22 :   0.0769 0.5000 0.0000  plane waves:   11762
 k-point 23 :   0.1538 0.5000 0.0000  plane waves:   11782
 k-point 24 :   0.2308 0.5000 0.0000  plane waves:   11841
 k-point 25 :   0.3077 0.5000 0.0000  plane waves:   11876
 k-point 26 :   0.3846 0.5000 0.0000  plane waves:   11889
 k-point 27 :   0.4615 0.5000 0.0000  plane waves:   11881
 k-point 28 :   0.0000 0.0000 0.5000  plane waves:   11698
 k-point 29 :   0.0769-0.0000 0.5000  plane waves:   11752
 k-point 30 :   0.1538-0.0000 0.5000  plane waves:   11800
 k-point 31 :   0.2308-0.0000 0.5000  plane waves:   11834
 k-point 32 :   0.3077-0.0000 0.5000  plane waves:   11850
 k-point 33 :   0.3846-0.0000 0.5000  plane waves:   11888
 k-point 34 :   0.4615-0.0000 0.5000  plane waves:   11896
 k-point 35 :   0.0000 0.2500 0.5000  plane waves:   11714
 k-point 36 :   0.0769 0.2500 0.5000  plane waves:   11754
 k-point 37 :   0.1538 0.2500 0.5000  plane waves:   11802
 k-point 38 :   0.2308 0.2500 0.5000  plane waves:   11840
 k-point 39 :   0.3077 0.2500 0.5000  plane waves:   11858
 k-point 40 :   0.3846 0.2500 0.5000  plane waves:   11896
 k-point 41 :   0.4615 0.2500 0.5000  plane waves:   11886
 k-point 42 :  -0.4615 0.2500 0.5000  plane waves:   11852
 k-point 43 :  -0.3846 0.2500 0.5000  plane waves:   11838
 k-point 44 :  -0.3077 0.2500 0.5000  plane waves:   11842
 k-point 45 :  -0.2308 0.2500 0.5000  plane waves:   11840
 k-point 46 :  -0.1538 0.2500 0.5000  plane waves:   11804
 k-point 47 :  -0.0769 0.2500 0.5000  plane waves:   11748
 k-point 48 :   0.0000 0.5000 0.5000  plane waves:   11724
 k-point 49 :   0.0769 0.5000 0.5000  plane waves:   11748
 k-point 50 :   0.1538 0.5000 0.5000  plane waves:   11814
 k-point 51 :   0.2308 0.5000 0.5000  plane waves:   11832
 k-point 52 :   0.3077 0.5000 0.5000  plane waves:   11868
 k-point 53 :   0.3846 0.5000 0.5000  plane waves:   11892
 k-point 54 :   0.4615 0.5000 0.5000  plane waves:   11878

 maximum and minimum number of plane-waves per node :      5964     5832

 maximum number of plane-waves:     11896
 maximum index in each direction: 
   IXMAX=    5   IYMAX=   14   IZMAX=   38
   IXMIN=   -5   IYMIN=  -15   IZMIN=  -39

 WARNING: aliasing errors must be expected set NGX to  22 to avoid them
 NGY is ok and might be reduce to  60
 NGZ is ok and might be reduce to 156
 aliasing errors are usually negligible using standard VASP settings
 and one can safely disregard these warnings

 real space projection operators:
  total allocation   :       3793.25 KBytes
  max/ min on nodes  :       1899.38       1893.88


 parallel 3D FFT for wavefunctions:
    minimum data exchange during FFTs selected (reduces bandwidth)
 parallel 3D FFT for charge:
    minimum data exchange during FFTs selected (reduces bandwidth)


 total amount of memory used by VASP on root node   146493. kBytes
========================================================================

   base      :      30000. kBytes
   nonlr-proj:       3452. kBytes
   fftplans  :       9347. kBytes
   grid      :      14649. kBytes
   one-center:         36. kBytes
   wavefun   :      89009. kBytes
 
     INWAV:  cpu time    0.00: real time    0.00
 Broyden mixing: mesh for mixing (old mesh)
   NGX =  9   NGY = 29   NGZ = 77
  (NGX  = 40   NGY  =120   NGZ  =320)
  gives a total of  20097 points

 initial charge density was supplied:
 charge density of overlapping atoms calculated
 number of electron     108.0000000 magnetization 
 keeping initial charge density in first step


--------------------------------------------------------------------------------------------------------


 Maximum index for non-local projection operator         1333
 Maximum index for augmentation-charges          822 (set IRDMAX)


--------------------------------------------------------------------------------------------------------


 First call to EWALD:  gamma=   0.177
 Maximum number of real-space cells 7x 3x 1
 Maximum number of reciprocal cells 1x 3x 7

 FEWALD executed in parallel
    FEWALD:  cpu time    0.00: real time    0.00


----------------------------------------- Iteration    1(   1)  ---------------------------------------


vdW kernel read from vdw_kernel.bindat
  0.0000  0.2424  0.5071  0.7962  1.1119  1.4567  1.8333  2.2446  2.6937  3.1842
  3.7199  4.3049  4.9438  5.6415  6.4036  7.2358  8.1446  9.1372 10.2212 11.4050
 12.6979 14.1099 15.6519 17.3360 19.1751 21.1837 23.3773 25.7729 28.3892 31.2465
 34.3669 37.7748 41.4965 45.5611 50.0000
 
    POTLOK:  cpu time   16.88: real time   16.89
    SETDIJ:  cpu time    0.01: real time    0.01
     EDDAV:  cpu time   80.40: real time   80.43
       DOS:  cpu time    0.01: real time    0.01
    --------------------------------------------
      LOOP:  cpu time   97.31: real time   97.35

 eigenvalue-minimisations  :  7368
 total energy-change (2. order) : 0.4835745E+03  (-0.2861959E+04)
 number of electron     108.0000000 magnetization 
 augmentation part      108.0000000 magnetization 

 Free energy of the ion-electron system (eV)
  ---------------------------------------------------
  alpha Z        PSCENC =        36.80884744
  Ewald energy   TEWEN  =     11893.33392002
  -Hartree energ DENC   =    -14950.53979644
  -exchange      EXHF   =         0.00000000
  -V(xc)+E(xc)   XCENC  =       -88.24415316
  PAW double counting   =      1056.43050070     -732.41190547
  entropy T*S    EENTRO =        -0.04731368
  eigenvalues    EBANDS =       -85.79689046
  atomic energy  EATOM  =      3354.04126044
  ---------------------------------------------------
  free energy    TOTEN  =       483.57446939 eV

  energy without entropy =      483.62178307  energy(sigma->0) =      483.59812623


--------------------------------------------------------------------------------------------------------




----------------------------------------- Iteration    1(   2)  ---------------------------------------


     EDDAV:  cpu time  107.26: real time  107.29
       DOS:  cpu time    0.01: real time    0.01
    --------------------------------------------
      LOOP:  cpu time  107.27: real time  107.31

 eigenvalue-minimisations  :  9736
 total energy-change (2. order) :-0.5538879E+03  (-0.5392256E+03)
 number of electron     108.0000000 magnetization 
 augmentation part      108.0000000 magnetization 

 Free energy of the ion-electron system (eV)
  ---------------------------------------------------
  alpha Z        PSCENC =        36.80884744
  Ewald energy   TEWEN  =     11893.33392002
  -Hartree energ DENC   =    -14950.53979644
  -exchange      EXHF   =         0.00000000
  -V(xc)+E(xc)   XCENC  =       -88.24415316
  PAW double counting   =      1056.43050070     -732.41190547
  entropy T*S    EENTRO =        -0.02406272
  eigenvalues    EBANDS =      -639.70802037
  atomic energy  EATOM  =      3354.04126044
  ---------------------------------------------------
  free energy    TOTEN  =       -70.31340955 eV

  energy without entropy =      -70.28934683  energy(sigma->0) =      -70.30137819


--------------------------------------------------------------------------------------------------------




----------------------------------------- Iteration    1(   3)  ---------------------------------------


     EDDAV:  cpu time  111.86: real time  111.90
       DOS:  cpu time    0.01: real time    0.01
    --------------------------------------------
      LOOP:  cpu time  111.88: real time  111.91

 eigenvalue-minimisations  :  8856
 total energy-change (2. order) :-0.5512285E+02  (-0.5435973E+02)
 number of electron     108.0000000 magnetization 
 augmentation part      108.0000000 magnetization 

 Free energy of the ion-electron system (eV)
  ---------------------------------------------------
  alpha Z        PSCENC =        36.80884744
  Ewald energy   TEWEN  =     11893.33392002
  -Hartree energ DENC   =    -14950.53979644
  -exchange      EXHF   =         0.00000000
  -V(xc)+E(xc)   XCENC  =       -88.24415316
  PAW double counting   =      1056.43050070     -732.41190547
  entropy T*S    EENTRO =        -0.02894581
  eigenvalues    EBANDS =      -694.82598482
  atomic energy  EATOM  =      3354.04126044
  ---------------------------------------------------
  free energy    TOTEN  =      -125.43625709 eV

  energy without entropy =     -125.40731128  energy(sigma->0) =     -125.42178419


--------------------------------------------------------------------------------------------------------




----------------------------------------- Iteration    1(   4)  ---------------------------------------


     EDDAV:  cpu time  122.30: real time  122.35
       DOS:  cpu time    0.01: real time    0.01
    --------------------------------------------
      LOOP:  cpu time  122.32: real time  122.36

 eigenvalue-minimisations  : 10832
 total energy-change (2. order) :-0.2412762E+01  (-0.2398332E+01)
 number of electron     108.0000000 magnetization 
 augmentation part      108.0000000 magnetization 

 Free energy of the ion-electron system (eV)
  ---------------------------------------------------
  alpha Z        PSCENC =        36.80884744
  Ewald energy   TEWEN  =     11893.33392002
  -Hartree energ DENC   =    -14950.53979644
  -exchange      EXHF   =         0.00000000
  -V(xc)+E(xc)   XCENC  =       -88.24415316
  PAW double counting   =      1056.43050070     -732.41190547
  entropy T*S    EENTRO =        -0.02903928
  eigenvalues    EBANDS =      -697.23865310
  atomic energy  EATOM  =      3354.04126044
  ---------------------------------------------------
  free energy    TOTEN  =      -127.84901885 eV

  energy without entropy =     -127.81997957  energy(sigma->0) =     -127.83449921


--------------------------------------------------------------------------------------------------------




----------------------------------------- Iteration    1(   5)  ---------------------------------------


     EDDAV:  cpu time  105.88: real time  105.92
       DOS:  cpu time    0.01: real time    0.01
    CHARGE:  cpu time    4.86: real time    4.86
    MIXING:  cpu time    0.02: real time    0.02
    --------------------------------------------
      LOOP:  cpu time  110.77: real time  110.81

 eigenvalue-minimisations  :  9936
 total energy-change (2. order) :-0.5903307E-01  (-0.5897064E-01)
 number of electron     107.9999994 magnetization 
 augmentation part       -9.5228812 magnetization 

 Broyden mixing:
  rms(total) = 0.96853E+00    rms(broyden)= 0.96833E+00
  rms(prec ) = 0.10245E+01
  weight for this iteration     100.00

 Free energy of the ion-electron system (eV)
  ---------------------------------------------------
  alpha Z        PSCENC =        36.80884744
  Ewald energy   TEWEN  =     11893.33392002
  -Hartree energ DENC   =    -14950.53979644
  -exchange      EXHF   =         0.00000000
  -V(xc)+E(xc)   XCENC  =       -88.24415316
  PAW double counting   =      1056.43050070     -732.41190547
  entropy T*S    EENTRO =        -0.02913570
  eigenvalues    EBANDS =      -697.29758976
  atomic energy  EATOM  =      3354.04126044
  ---------------------------------------------------
  free energy    TOTEN  =      -127.90805193 eV

  energy without entropy =     -127.87891623  energy(sigma->0) =     -127.89348408


--------------------------------------------------------------------------------------------------------




----------------------------------------- Iteration    1(   6)  ---------------------------------------


    POTLOK:  cpu time   15.47: real time   15.48
    SETDIJ:  cpu time    0.01: real time    0.01
     EDDAV:  cpu time   79.16: real time   79.18
       DOS:  cpu time    0.01: real time    0.01
    CHARGE:  cpu time    4.53: real time    4.54
    MIXING:  cpu time    0.01: real time    0.01
    --------------------------------------------
      LOOP:  cpu time   99.21: real time   99.24

 eigenvalue-minimisations  :  8784
 total energy-change (2. order) : 0.1666718E+01  (-0.3534574E+00)
 number of electron     107.9999995 magnetization 
 augmentation part       -9.3890629 magnetization 

 Broyden mixing:
  rms(total) = 0.54624E+00    rms(broyden)= 0.54622E+00
  rms(prec ) = 0.57307E+00
  weight for this iteration     100.00

 eigenvalues of (default mixing * dielectric matrix)
  average eigenvalue GAMMA=   2.0416
  2.0416

 Free energy of the ion-electron system (eV)
  ---------------------------------------------------
  alpha Z        PSCENC =        36.80884744
  Ewald energy   TEWEN  =     11893.33392002
  -Hartree energ DENC   =    -14983.31446923
  -exchange      EXHF   =         0.00000000
  -V(xc)+E(xc)   XCENC  =       -85.21803019
  PAW double counting   =      1113.56747541     -791.07503191
  entropy T*S    EENTRO =        -0.03066387
  eigenvalues    EBANDS =      -664.35464157
  atomic energy  EATOM  =      3354.04126044
  ---------------------------------------------------
  free energy    TOTEN  =      -126.24133346 eV

  energy without entropy =     -126.21066959  energy(sigma->0) =     -126.22600153


--------------------------------------------------------------------------------------------------------




----------------------------------------- Iteration    1(   7)  ---------------------------------------


    POTLOK:  cpu time   15.20: real time   15.31
    SETDIJ:  cpu time    0.01: real time    0.01
     EDDAV:  cpu time   77.92: real time   77.94
       DOS:  cpu time    0.01: real time    0.01
    CHARGE:  cpu time    4.18: real time    4.18
    MIXING:  cpu time    0.01: real time    0.01
    --------------------------------------------
      LOOP:  cpu time   97.33: real time   97.47

 eigenvalue-minimisations  :  8824
 total energy-change (2. order) : 0.2231377E+00  (-0.2514585E+00)
 number of electron     107.9999995 magnetization 
 augmentation part       -9.2616754 magnetization 

 Broyden mixing:
  rms(total) = 0.14738E+00    rms(broyden)= 0.14735E+00
  rms(prec ) = 0.15457E+00
  weight for this iteration     100.00

 eigenvalues of (default mixing * dielectric matrix)
  average eigenvalue GAMMA=   1.8264
  1.2969  2.3560

 Free energy of the ion-electron system (eV)
  ---------------------------------------------------
  alpha Z        PSCENC =        36.80884744
  Ewald energy   TEWEN  =     11893.33392002
  -Hartree energ DENC   =    -15019.81427770
  -exchange      EXHF   =         0.00000000
  -V(xc)+E(xc)   XCENC  =       -81.77880630
  PAW double counting   =      1162.08684785     -840.94678975
  entropy T*S    EENTRO =        -0.03282492
  eigenvalues    EBANDS =      -629.71637281
  atomic energy  EATOM  =      3354.04126044
  ---------------------------------------------------
  free energy    TOTEN  =      -126.01819572 eV

  energy without entropy =     -125.98537080  energy(sigma->0) =     -126.00178326


--------------------------------------------------------------------------------------------------------




----------------------------------------- Iteration    1(   8)  ---------------------------------------


    POTLOK:  cpu time   16.35: real time   16.71
    SETDIJ:  cpu time    0.01: real time    0.01
     EDDAV:  cpu time   79.20: real time   79.23
       DOS:  cpu time    0.01: real time    0.01
    CHARGE:  cpu time    4.18: real time    4.18
    MIXING:  cpu time    0.01: real time    0.01
    --------------------------------------------
      LOOP:  cpu time   99.77: real time  100.15

 eigenvalue-minimisations  :  8984
 total energy-change (2. order) : 0.6046565E-02  (-0.2837978E-01)
 number of electron     107.9999995 magnetization 
 augmentation part       -9.2734178 magnetization 

 Broyden mixing:
  rms(total) = 0.58088E-01    rms(broyden)= 0.58082E-01
  rms(prec ) = 0.61492E-01
  weight for this iteration     100.00

 eigenvalues of (default mixing * dielectric matrix)
  average eigenvalue GAMMA=   1.6953
  2.5886  0.9305  1.5670

 Free energy of the ion-electron system (eV)
  ---------------------------------------------------
  alpha Z        PSCENC =        36.80884744
  Ewald energy   TEWEN  =     11893.33392002
  -Hartree energ DENC   =    -15026.33534114
  -exchange      EXHF   =         0.00000000
  -V(xc)+E(xc)   XCENC  =       -81.13725623
  PAW double counting   =      1160.31362262     -839.15416333
  entropy T*S    EENTRO =        -0.03078192
  eigenvalues    EBANDS =      -623.85225705
  atomic energy  EATOM  =      3354.04126044
  ---------------------------------------------------
  free energy    TOTEN  =      -126.01214915 eV

  energy without entropy =     -125.98136723  energy(sigma->0) =     -125.99675819


--------------------------------------------------------------------------------------------------------




----------------------------------------- Iteration    1(   9)  ---------------------------------------


    POTLOK:  cpu time   15.15: real time   15.15
    SETDIJ:  cpu time    0.01: real time    0.01
     EDDAV:  cpu time   82.37: real time   82.44
       DOS:  cpu time    0.01: real time    0.01
    CHARGE:  cpu time    4.29: real time    4.30
    MIXING:  cpu time    0.02: real time    0.02
    --------------------------------------------
      LOOP:  cpu time  101.85: real time  101.93

 eigenvalue-minimisations  :  9176
 total energy-change (2. order) : 0.2078483E-01  (-0.4722202E-02)
 number of electron     107.9999995 magnetization 
 augmentation part       -9.2805283 magnetization 

 Broyden mixing:
  rms(total) = 0.20194E-01    rms(broyden)= 0.20193E-01
  rms(prec ) = 0.22675E-01
  weight for this iteration     100.00

 eigenvalues of (default mixing * dielectric matrix)
  average eigenvalue GAMMA=   1.5909
  2.6067  1.6568  1.2524  0.8478

 Free energy of the ion-electron system (eV)
  ---------------------------------------------------
  alpha Z        PSCENC =        36.80884744
  Ewald energy   TEWEN  =     11893.33392002
  -Hartree energ DENC   =    -15027.93188418
  -exchange      EXHF   =         0.00000000
  -V(xc)+E(xc)   XCENC  =       -80.91342488
  PAW double counting   =      1157.20293736     -835.95917121
  entropy T*S    EENTRO =        -0.03199404
  eigenvalues    EBANDS =      -622.54185528
  atomic energy  EATOM  =      3354.04126044
  ---------------------------------------------------
  free energy    TOTEN  =      -125.99136432 eV

  energy without entropy =     -125.95937028  energy(sigma->0) =     -125.97536730


--------------------------------------------------------------------------------------------------------




----------------------------------------- Iteration    1(  10)  ---------------------------------------


    POTLOK:  cpu time   15.16: real time   15.16
    SETDIJ:  cpu time    0.01: real time    0.01
     EDDAV:  cpu time   84.70: real time   84.73
       DOS:  cpu time    0.01: real time    0.01
    CHARGE:  cpu time    5.77: real time    5.77
    MIXING:  cpu time    0.02: real time    0.02
    --------------------------------------------
      LOOP:  cpu time  105.67: real time  105.70

 eigenvalue-minimisations  :  8992
 total energy-change (2. order) : 0.1087807E-01  (-0.1022225E-02)
 number of electron     107.9999995 magnetization 
 augmentation part       -9.2811154 magnetization 

 Broyden mixing:
  rms(total) = 0.99354E-02    rms(broyden)= 0.99341E-02
  rms(prec ) = 0.11795E-01
  weight for this iteration     100.00

 eigenvalues of (default mixing * dielectric matrix)
  average eigenvalue GAMMA=   1.5027
  2.6355  1.8230  1.3687  0.9697  0.7168

 Free energy of the ion-electron system (eV)
  ---------------------------------------------------
  alpha Z        PSCENC =        36.80884744
  Ewald energy   TEWEN  =     11893.33392002
  -Hartree energ DENC   =    -15029.41876096
  -exchange      EXHF   =         0.00000000
  -V(xc)+E(xc)   XCENC  =       -80.87478981
  PAW double counting   =      1155.89785480     -834.61272608
  entropy T*S    EENTRO =        -0.03118258
  eigenvalues    EBANDS =      -621.12490952
  atomic energy  EATOM  =      3354.04126044
  ---------------------------------------------------
  free energy    TOTEN  =      -125.98048625 eV

  energy without entropy =     -125.94930367  energy(sigma->0) =     -125.96489496


--------------------------------------------------------------------------------------------------------




----------------------------------------- Iteration    1(  11)  ---------------------------------------


    POTLOK:  cpu time   16.03: real time   16.03
    SETDIJ:  cpu time    0.01: real time    0.01
     EDDAV:  cpu time   96.41: real time   96.43
       DOS:  cpu time    0.01: real time    0.01
    CHARGE:  cpu time    5.42: real time    5.42
    MIXING:  cpu time    0.02: real time    0.02
    --------------------------------------------
      LOOP:  cpu time  117.90: real time  117.94

 eigenvalue-minimisations  :  8936
 total energy-change (2. order) : 0.6078289E-02  (-0.2604188E-03)
 number of electron     107.9999995 magnetization 
 augmentation part       -9.2807473 magnetization 

 Broyden mixing:
  rms(total) = 0.44922E-02    rms(broyden)= 0.44916E-02
  rms(prec ) = 0.59193E-02
  weight for this iteration     100.00

 eigenvalues of (default mixing * dielectric matrix)
  average eigenvalue GAMMA=   1.4881
  2.6906  2.0675  1.3028  1.3028  0.9313  0.6338

 Free energy of the ion-electron system (eV)
  ---------------------------------------------------
  alpha Z        PSCENC =        36.80884744
  Ewald energy   TEWEN  =     11893.33392002
  -Hartree energ DENC   =    -15030.23428086
  -exchange      EXHF   =         0.00000000
  -V(xc)+E(xc)   XCENC  =       -80.86007677
  PAW double counting   =      1155.09005569     -833.78116675
  entropy T*S    EENTRO =        -0.03160000
  eigenvalues    EBANDS =      -620.34136718
  atomic energy  EATOM  =      3354.04126044
  ---------------------------------------------------
  free energy    TOTEN  =      -125.97440796 eV

  energy without entropy =     -125.94280796  energy(sigma->0) =     -125.95860796


--------------------------------------------------------------------------------------------------------




----------------------------------------- Iteration    1(  12)  ---------------------------------------


    POTLOK:  cpu time   15.85: real time   15.85
    SETDIJ:  cpu time    0.01: real time    0.01
     EDDAV:  cpu time   93.53: real time   93.84
       DOS:  cpu time    0.01: real time    0.01
    CHARGE:  cpu time    4.28: real time    4.28
    MIXING:  cpu time    0.02: real time    0.02
    --------------------------------------------
      LOOP:  cpu time  113.70: real time  114.02

 eigenvalue-minimisations  :  8720
 total energy-change (2. order) : 0.3692564E-02  (-0.6607191E-04)
 number of electron     107.9999995 magnetization 
 augmentation part       -9.2803107 magnetization 

 Broyden mixing:
  rms(total) = 0.23903E-02    rms(broyden)= 0.23900E-02
  rms(prec ) = 0.35449E-02
  weight for this iteration     100.00

 eigenvalues of (default mixing * dielectric matrix)
  average eigenvalue GAMMA=   1.4880
  2.7160  2.1349  1.4754  1.4754  1.0509  0.9246  0.6387

 Free energy of the ion-electron system (eV)
  ---------------------------------------------------
  alpha Z        PSCENC =        36.80884744
  Ewald energy   TEWEN  =     11893.33392002
  -Hartree energ DENC   =    -15031.26876143
  -exchange      EXHF   =         0.00000000
  -V(xc)+E(xc)   XCENC  =       -80.85328245
  PAW double counting   =      1154.48116633     -833.15650216
  entropy T*S    EENTRO =        -0.03147532
  eigenvalues    EBANDS =      -619.32588827
  atomic energy  EATOM  =      3354.04126044
  ---------------------------------------------------
  free energy    TOTEN  =      -125.97071540 eV

  energy without entropy =     -125.93924008  energy(sigma->0) =     -125.95497774


--------------------------------------------------------------------------------------------------------




----------------------------------------- Iteration    1(  13)  ---------------------------------------


    POTLOK:  cpu time   15.16: real time   15.17
    SETDIJ:  cpu time    0.01: real time    0.01
     EDDAV:  cpu time   86.19: real time   86.21
       DOS:  cpu time    0.01: real time    0.01
    CHARGE:  cpu time    4.22: real time    4.23
    MIXING:  cpu time    0.01: real time    0.02
    --------------------------------------------
      LOOP:  cpu time  105.61: real time  105.64

 eigenvalue-minimisations  : 10088
 total energy-change (2. order) : 0.1824751E-02  (-0.1472914E-04)
 number of electron     107.9999995 magnetization 
 augmentation part       -9.2801684 magnetization 

 Broyden mixing:
  rms(total) = 0.13458E-02    rms(broyden)= 0.13457E-02
  rms(prec ) = 0.22845E-02
  weight for this iteration     100.00

 eigenvalues of (default mixing * dielectric matrix)
  average eigenvalue GAMMA=   1.5383
  2.8588  2.5375  1.7062  1.3198  1.3198  0.9573  0.9573  0.6497

 Free energy of the ion-electron system (eV)
  ---------------------------------------------------
  alpha Z        PSCENC =        36.80884744
  Ewald energy   TEWEN  =     11893.33392002
  -Hartree energ DENC   =    -15032.15873948
  -exchange      EXHF   =         0.00000000
  -V(xc)+E(xc)   XCENC  =       -80.84808128
  PAW double counting   =      1154.21246381     -832.88120073
  entropy T*S    EENTRO =        -0.03142913
  eigenvalues    EBANDS =      -618.44593174
  atomic energy  EATOM  =      3354.04126044
  ---------------------------------------------------
  free energy    TOTEN  =      -125.96889064 eV

  energy without entropy =     -125.93746151  energy(sigma->0) =     -125.95317608


--------------------------------------------------------------------------------------------------------




----------------------------------------- Iteration    1(  14)  ---------------------------------------


    POTLOK:  cpu time   15.13: real time   15.13
    SETDIJ:  cpu time    0.01: real time    0.01
     EDDAV:  cpu time   81.33: real time   81.36
       DOS:  cpu time    0.01: real time    0.01
    CHARGE:  cpu time    4.27: real time    4.27
    MIXING:  cpu time    0.03: real time    0.03
    --------------------------------------------
      LOOP:  cpu time  100.78: real time  100.81

 eigenvalue-minimisations  :  8560
 total energy-change (2. order) : 0.1077734E-02  (-0.6301627E-05)
 number of electron     107.9999995 magnetization 
 augmentation part       -9.2800789 magnetization 

 Broyden mixing:
  rms(total) = 0.75190E-03    rms(broyden)= 0.75186E-03
  rms(prec ) = 0.14305E-02
  weight for this iteration     100.00

 eigenvalues of (default mixing * dielectric matrix)
  average eigenvalue GAMMA=   1.5518
  3.1050  2.6307  1.6082  1.6082  1.2432  1.2432  0.9387  0.9387  0.6506

 Free energy of the ion-electron system (eV)
  ---------------------------------------------------
  alpha Z        PSCENC =        36.80884744
  Ewald energy   TEWEN  =     11893.33392002
  -Hartree energ DENC   =    -15032.96742245
  -exchange      EXHF   =         0.00000000
  -V(xc)+E(xc)   XCENC  =       -80.84244643
  PAW double counting   =      1154.06276909     -832.72762938
  entropy T*S    EENTRO =        -0.03145650
  eigenvalues    EBANDS =      -617.64565515
  atomic energy  EATOM  =      3354.04126044
  ---------------------------------------------------
  free energy    TOTEN  =      -125.96781291 eV

  energy without entropy =     -125.93635641  energy(sigma->0) =     -125.95208466


--------------------------------------------------------------------------------------------------------




----------------------------------------- Iteration    1(  15)  ---------------------------------------


    POTLOK:  cpu time   15.24: real time   15.24
    SETDIJ:  cpu time    0.01: real time    0.01
     EDDAV:  cpu time   78.46: real time   78.48
       DOS:  cpu time    0.01: real time    0.01
    CHARGE:  cpu time    4.25: real time    4.25
    MIXING:  cpu time    0.01: real time    0.02
    --------------------------------------------
      LOOP:  cpu time   97.99: real time   98.02

 eigenvalue-minimisations  :  8128
 total energy-change (2. order) :-0.8787598E-04  (-0.4662384E-05)
 number of electron     107.9999995 magnetization 
 augmentation part       -9.2799617 magnetization 

 Broyden mixing:
  rms(total) = 0.51102E-03    rms(broyden)= 0.51100E-03
  rms(prec ) = 0.91434E-03
  weight for this iteration     100.00

 eigenvalues of (default mixing * dielectric matrix)
  average eigenvalue GAMMA=   1.6974
  4.0845  2.7083  2.3115  1.7207  1.2422  1.2422  1.1427  0.9350  0.9350  0.6522

 Free energy of the ion-electron system (eV)
  ---------------------------------------------------
  alpha Z        PSCENC =        36.80884744
  Ewald energy   TEWEN  =     11893.33392002
  -Hartree energ DENC   =    -15033.63161875
  -exchange      EXHF   =         0.00000000
  -V(xc)+E(xc)   XCENC  =       -80.83863922
  PAW double counting   =      1154.04146233     -832.70593163
  entropy T*S    EENTRO =        -0.03143500
  eigenvalues    EBANDS =      -616.98576643
  atomic energy  EATOM  =      3354.04126044
  ---------------------------------------------------
  free energy    TOTEN  =      -125.96790079 eV

  energy without entropy =     -125.93646579  energy(sigma->0) =     -125.95218329


--------------------------------------------------------------------------------------------------------




----------------------------------------- Iteration    1(  16)  ---------------------------------------


    POTLOK:  cpu time   14.94: real time   14.94
    SETDIJ:  cpu time    0.01: real time    0.01
     EDDAV:  cpu time   74.54: real time   74.57
       DOS:  cpu time    0.01: real time    0.01
    CHARGE:  cpu time    4.47: real time    4.47
    MIXING:  cpu time    0.01: real time    0.01
    --------------------------------------------
      LOOP:  cpu time   93.99: real time   94.02

 eigenvalue-minimisations  :  8248
 total energy-change (2. order) :-0.6640820E-03  (-0.1871459E-04)
 number of electron     107.9999995 magnetization 
 augmentation part       -9.2798490 magnetization 

 Broyden mixing:
  rms(total) = 0.26582E-03    rms(broyden)= 0.26580E-03
  rms(prec ) = 0.45723E-03
  weight for this iteration     100.00

 eigenvalues of (default mixing * dielectric matrix)
  average eigenvalue GAMMA=   1.8497
  5.6065  2.8448  2.4663  1.6894  1.6894  1.2273  1.2273  0.6521  1.0555  0.9442
  0.9442

 Free energy of the ion-electron system (eV)
  ---------------------------------------------------
  alpha Z        PSCENC =        36.80884744
  Ewald energy   TEWEN  =     11893.33392002
  -Hartree energ DENC   =    -15034.26958749
  -exchange      EXHF   =         0.00000000
  -V(xc)+E(xc)   XCENC  =       -80.83535369
  PAW double counting   =      1154.07152482     -832.73693441
  entropy T*S    EENTRO =        -0.03144193
  eigenvalues    EBANDS =      -616.35080009
  atomic energy  EATOM  =      3354.04126044
  ---------------------------------------------------
  free energy    TOTEN  =      -125.96856487 eV

  energy without entropy =     -125.93712294  energy(sigma->0) =     -125.95284390


--------------------------------------------------------------------------------------------------------




----------------------------------------- Iteration    1(  17)  ---------------------------------------


    POTLOK:  cpu time   15.41: real time   15.41
    SETDIJ:  cpu time    0.01: real time    0.01
     EDDAV:  cpu time   74.73: real time   74.75
       DOS:  cpu time    0.01: real time    0.01
    CHARGE:  cpu time    4.92: real time    4.92
    MIXING:  cpu time    0.01: real time    0.01
    --------------------------------------------
      LOOP:  cpu time   95.09: real time   95.13

 eigenvalue-minimisations  :  7696
 total energy-change (2. order) :-0.2006352E-03  (-0.9814886E-05)
 number of electron     107.9999995 magnetization 
 augmentation part       -9.2798270 magnetization 

 Broyden mixing:
  rms(total) = 0.14955E-03    rms(broyden)= 0.14954E-03
  rms(prec ) = 0.26945E-03
  weight for this iteration     100.00

 eigenvalues of (default mixing * dielectric matrix)
  average eigenvalue GAMMA=   1.8870
  6.1504  2.9091  2.6155  2.1047  1.6298  1.2917  1.2917  0.6520  1.0967  1.0007
  0.9508  0.9508

 Free energy of the ion-electron system (eV)
  ---------------------------------------------------
  alpha Z        PSCENC =        36.80884744
  Ewald energy   TEWEN  =     11893.33392002
  -Hartree energ DENC   =    -15034.54954620
  -exchange      EXHF   =         0.00000000
  -V(xc)+E(xc)   XCENC  =       -80.83435720
  PAW double counting   =      1154.09013375     -832.75586459
  entropy T*S    EENTRO =        -0.03144158
  eigenvalues    EBANDS =      -616.07171759
  atomic energy  EATOM  =      3354.04126044
  ---------------------------------------------------
  free energy    TOTEN  =      -125.96876550 eV

  energy without entropy =     -125.93732392  energy(sigma->0) =     -125.95304471


--------------------------------------------------------------------------------------------------------




----------------------------------------- Iteration    1(  18)  ---------------------------------------


    POTLOK:  cpu time   15.86: real time   15.86
    SETDIJ:  cpu time    0.01: real time    0.01
     EDDAV:  cpu time   64.21: real time   64.23
       DOS:  cpu time    0.01: real time    0.01
    CHARGE:  cpu time    4.15: real time    4.15
    MIXING:  cpu time    0.02: real time    0.02
    --------------------------------------------
      LOOP:  cpu time   84.26: real time   84.29

 eigenvalue-minimisations  :  6328
 total energy-change (2. order) : 0.1982242E-05  (-0.1451071E-05)
 number of electron     107.9999995 magnetization 
 augmentation part       -9.2798388 magnetization 

 Broyden mixing:
  rms(total) = 0.99052E-04    rms(broyden)= 0.99046E-04
  rms(prec ) = 0.18005E-03
  weight for this iteration     100.00

 eigenvalues of (default mixing * dielectric matrix)
  average eigenvalue GAMMA=   1.9099
  6.5489  3.0274  2.6745  2.2110  1.6298  1.6298  1.2336  1.2336  0.6520  1.1014
  0.9777  0.9544  0.9544

 Free energy of the ion-electron system (eV)
  ---------------------------------------------------
  alpha Z        PSCENC =        36.80884744
  Ewald energy   TEWEN  =     11893.33392002
  -Hartree energ DENC   =    -15034.66074387
  -exchange      EXHF   =         0.00000000
  -V(xc)+E(xc)   XCENC  =       -80.83388972
  PAW double counting   =      1154.09033759     -832.75593802
  entropy T*S    EENTRO =        -0.03144304
  eigenvalues    EBANDS =      -615.96111437
  atomic energy  EATOM  =      3354.04126044
  ---------------------------------------------------
  free energy    TOTEN  =      -125.96876352 eV

  energy without entropy =     -125.93732048  energy(sigma->0) =     -125.95304200


--------------------------------------------------------------------------------------------------------




----------------------------------------- Iteration    1(  19)  ---------------------------------------


    POTLOK:  cpu time   15.31: real time   15.31
    SETDIJ:  cpu time    0.01: real time    0.01
     EDDAV:  cpu time   64.03: real time   64.05
       DOS:  cpu time    0.01: real time    0.01
    CHARGE:  cpu time    4.20: real time    4.21
    MIXING:  cpu time    0.02: real time    0.02
    --------------------------------------------
      LOOP:  cpu time   83.59: real time   83.61

 eigenvalue-minimisations  :  6680
 total energy-change (2. order) :-0.2280609E-04  (-0.1753272E-05)
 number of electron     107.9999995 magnetization 
 augmentation part       -9.2798361 magnetization 

 Broyden mixing:
  rms(total) = 0.69734E-04    rms(broyden)= 0.69732E-04
  rms(prec ) = 0.11958E-03
  weight for this iteration     100.00

 eigenvalues of (default mixing * dielectric matrix)
  average eigenvalue GAMMA=   1.9406
  6.8529  3.3886  2.7530  2.3250  1.9259  1.6546  1.2776  1.2776  0.6520  0.9527
  0.9527  1.0260  1.0647  1.0647

 Free energy of the ion-electron system (eV)
  ---------------------------------------------------
  alpha Z        PSCENC =        36.80884744
  Ewald energy   TEWEN  =     11893.33392002
  -Hartree energ DENC   =    -15034.71596397
  -exchange      EXHF   =         0.00000000
  -V(xc)+E(xc)   XCENC  =       -80.83392410
  PAW double counting   =      1154.08618417     -832.75168339
  entropy T*S    EENTRO =        -0.03144196
  eigenvalues    EBANDS =      -615.90598499
  atomic energy  EATOM  =      3354.04126044
  ---------------------------------------------------
  free energy    TOTEN  =      -125.96878633 eV

  energy without entropy =     -125.93734437  energy(sigma->0) =     -125.95306535


--------------------------------------------------------------------------------------------------------




----------------------------------------- Iteration    1(  20)  ---------------------------------------


    POTLOK:  cpu time   15.78: real time   15.79
    SETDIJ:  cpu time    0.01: real time    0.01
     EDDAV:  cpu time   82.89: real time   82.91
       DOS:  cpu time    0.01: real time    0.01
    CHARGE:  cpu time    5.39: real time    5.40
    MIXING:  cpu time    0.02: real time    0.02
    --------------------------------------------
      LOOP:  cpu time  104.12: real time  104.15

 eigenvalue-minimisations  :  6976
 total energy-change (2. order) : 0.2262822E-05  (-0.2119626E-05)
 number of electron     107.9999995 magnetization 
 augmentation part       -9.2798349 magnetization 

 Broyden mixing:
  rms(total) = 0.45147E-04    rms(broyden)= 0.45145E-04
  rms(prec ) = 0.68802E-04
  weight for this iteration     100.00

 eigenvalues of (default mixing * dielectric matrix)
  average eigenvalue GAMMA=   2.0499
  7.1463  4.7045  2.8550  2.5741  1.8517  1.6965  1.6965  1.2553  1.2553  0.6520
  1.1050  1.1050  0.9559  0.9559  0.9388

 Free energy of the ion-electron system (eV)
  ---------------------------------------------------
  alpha Z        PSCENC =        36.80884744
  Ewald energy   TEWEN  =     11893.33392002
  -Hartree energ DENC   =    -15034.74694253
  -exchange      EXHF   =         0.00000000
  -V(xc)+E(xc)   XCENC  =       -80.83402316
  PAW double counting   =      1154.08398090     -832.74945922
  entropy T*S    EENTRO =        -0.03144209
  eigenvalues    EBANDS =      -615.87492587
  atomic energy  EATOM  =      3354.04126044
  ---------------------------------------------------
  free energy    TOTEN  =      -125.96878406 eV

  energy without entropy =     -125.93734198  energy(sigma->0) =     -125.95306302


--------------------------------------------------------------------------------------------------------




----------------------------------------- Iteration    1(  21)  ---------------------------------------


    POTLOK:  cpu time   15.89: real time   15.89
    SETDIJ:  cpu time    0.01: real time    0.01
     EDDAV:  cpu time   78.38: real time   78.40
       DOS:  cpu time    0.01: real time    0.01
    CHARGE:  cpu time    5.11: real time    5.11
    MIXING:  cpu time    0.02: real time    0.02
    --------------------------------------------
      LOOP:  cpu time   99.42: real time   99.46

 eigenvalue-minimisations  :  6616
 total energy-change (2. order) : 0.7047933E-04  (-0.2026067E-05)
 number of electron     107.9999995 magnetization 
 augmentation part       -9.2798366 magnetization 

 Broyden mixing:
  rms(total) = 0.22276E-04    rms(broyden)= 0.22274E-04
  rms(prec ) = 0.29067E-04
  weight for this iteration     100.00

 eigenvalues of (default mixing * dielectric matrix)
  average eigenvalue GAMMA=   2.1902
  8.0208  6.0940  2.9873  2.6828  2.0862  1.9062  1.5512  1.5512  1.2443  1.2443
  0.6520  0.9551  0.9551  0.9482  1.0819  1.0819

 Free energy of the ion-electron system (eV)
  ---------------------------------------------------
  alpha Z        PSCENC =        36.80884744
  Ewald energy   TEWEN  =     11893.33392002
  -Hartree energ DENC   =    -15034.76173746
  -exchange      EXHF   =         0.00000000
  -V(xc)+E(xc)   XCENC  =       -80.83406588
  PAW double counting   =      1154.08271300     -832.74816895
  entropy T*S    EENTRO =        -0.03144254
  eigenvalues    EBANDS =      -615.86003966
  atomic energy  EATOM  =      3354.04126044
  ---------------------------------------------------
  free energy    TOTEN  =      -125.96871358 eV

  energy without entropy =     -125.93727105  energy(sigma->0) =     -125.95299232


--------------------------------------------------------------------------------------------------------




----------------------------------------- Iteration    1(  22)  ---------------------------------------


    POTLOK:  cpu time   16.30: real time   16.30
    SETDIJ:  cpu time    0.01: real time    0.01
     EDDAV:  cpu time   77.82: real time   77.84
       DOS:  cpu time    0.01: real time    0.01
    CHARGE:  cpu time    4.59: real time    4.59
    MIXING:  cpu time    0.02: real time    0.02
    --------------------------------------------
      LOOP:  cpu time   98.75: real time   98.78

 eigenvalue-minimisations  :  6736
 total energy-change (2. order) : 0.4727227E-04  (-0.1082392E-05)
 number of electron     107.9999995 magnetization 
 augmentation part       -9.2798355 magnetization 

 Broyden mixing:
  rms(total) = 0.11251E-04    rms(broyden)= 0.11247E-04
  rms(prec ) = 0.13448E-04
  weight for this iteration     100.00

 eigenvalues of (default mixing * dielectric matrix)
  average eigenvalue GAMMA=   2.2246
  8.3879  6.6470  3.0805  2.6662  2.3175  1.8284  1.8284  1.5744  1.2593  1.2593
  0.6520  1.2507  0.9539  0.9539  0.9400  1.1091  1.1091

 Free energy of the ion-electron system (eV)
  ---------------------------------------------------
  alpha Z        PSCENC =        36.80884744
  Ewald energy   TEWEN  =     11893.33392002
  -Hartree energ DENC   =    -15034.76769733
  -exchange      EXHF   =         0.00000000
  -V(xc)+E(xc)   XCENC  =       -80.83407480
  PAW double counting   =      1154.08248890     -832.74794789
  entropy T*S    EENTRO =        -0.03144225
  eigenvalues    EBANDS =      -615.85402086
  atomic energy  EATOM  =      3354.04126044
  ---------------------------------------------------
  free energy    TOTEN  =      -125.96866631 eV

  energy without entropy =     -125.93722406  energy(sigma->0) =     -125.95294519


--------------------------------------------------------------------------------------------------------




----------------------------------------- Iteration    1(  23)  ---------------------------------------


    POTLOK:  cpu time   15.24: real time   15.25
    SETDIJ:  cpu time    0.01: real time    0.01
     EDDAV:  cpu time   72.32: real time   72.34
       DOS:  cpu time    0.01: real time    0.01
    CHARGE:  cpu time    4.54: real time    4.54
    MIXING:  cpu time    0.02: real time    0.02
    --------------------------------------------
      LOOP:  cpu time   92.15: real time   92.18

 eigenvalue-minimisations  :  6464
 total energy-change (2. order) : 0.8954733E-05  (-0.7488135E-06)
 number of electron     107.9999995 magnetization 
 augmentation part       -9.2798354 magnetization 

 Broyden mixing:
  rms(total) = 0.53000E-05    rms(broyden)= 0.52978E-05
  rms(prec ) = 0.64984E-05
  weight for this iteration     100.00

 eigenvalues of (default mixing * dielectric matrix)
  average eigenvalue GAMMA=   2.2508
  9.1150  6.7386  3.2569  2.7244  2.5199  1.8741  1.8741  1.5977  1.5977  1.2461
  1.2461  0.6520  0.9594  0.9594  1.0889  1.0889  0.9878  0.9878

 Free energy of the ion-electron system (eV)
  ---------------------------------------------------
  alpha Z        PSCENC =        36.80884744
  Ewald energy   TEWEN  =     11893.33392002
  -Hartree energ DENC   =    -15034.76456194
  -exchange      EXHF   =         0.00000000
  -V(xc)+E(xc)   XCENC  =       -80.83409940
  PAW double counting   =      1154.08276109     -832.74822891
  entropy T*S    EENTRO =        -0.03144226
  eigenvalues    EBANDS =      -615.85711385
  atomic energy  EATOM  =      3354.04126044
  ---------------------------------------------------
  free energy    TOTEN  =      -125.96865736 eV

  energy without entropy =     -125.93721510  energy(sigma->0) =     -125.95293623


[...]
     31      -4.1402      2.00000
     32      -4.0502      2.00000
     33      -3.8085      2.00000
     34      -3.7607      2.00000
     35      -3.3877      2.00000
     36      -3.2957      2.00000
     37      -3.2015      2.00000
     38      -3.1287      2.00000
     39      -2.8695      2.00000
     40      -2.7353      2.00000
     41      -2.6101      2.00000
     42      -2.5891      2.00000
     43      -2.4911      2.00000
     44      -2.0837      2.00000
     45      -2.0146      2.00000
     46      -1.9126      2.00000
     47      -1.8306      2.00000
     48      -1.7168      2.00000
     49      -1.4588      2.00000
     50      -1.3296      2.00000
     51      -1.1337      2.00000
     52      -0.9455      2.00000
     53      -0.6381      2.00000
     54      -0.2555      1.94711
     55       0.1762      0.00003
     56       0.7222      0.00000
     57       1.1934      0.00000
     58       1.3727      0.00000
     59       1.5097      0.00000
     60       1.7641      0.00000
     61       2.1402      0.00000
     62       2.4240      0.00000
     63       2.5065      0.00000
     64       2.6559      0.00000
     65       2.6946      0.00000
     66       2.9897      0.00000
     67       3.1742      0.00000
     68       3.2300      0.00000

 k-point    52 :       0.3077    0.5000    0.5000
  band No.  band energies     occupation 
      1     -13.0871      2.00000
      2     -12.5767      2.00000
      3     -12.2298      2.00000
      4     -12.0132      2.00000
      5     -11.7182      2.00000
      6     -11.5695      2.00000
      7     -11.1325      2.00000
      8     -11.0735      2.00000
      9     -10.8749      2.00000
     10     -10.7814      2.00000
     11     -10.4603      2.00000
     12     -10.1174      2.00000
     13      -8.9895      2.00000
     14      -8.5904      2.00000
     15      -8.0654      2.00000
     16      -7.8426      2.00000
     17      -7.3088      2.00000
     18      -7.1309      2.00000
     19      -7.0341      2.00000
     20      -6.5315      2.00000
     21      -6.2537      2.00000
     22      -6.2175      2.00000
     23      -5.9927      2.00000
     24      -5.7277      2.00000
     25      -5.4238      2.00000
     26      -5.1220      2.00000
     27      -4.9615      2.00000
     28      -4.7026      2.00000
     29      -4.6135      2.00000
     30      -4.5256      2.00000
     31      -4.4147      2.00000
     32      -4.2981      2.00000
     33      -4.1447      2.00000
     34      -3.7729      2.00000
     35      -3.3641      2.00000
     36      -3.3242      2.00000
     37      -3.1880      2.00000
     38      -3.1137      2.00000
     39      -3.0149      2.00000
     40      -2.9555      2.00000
     41      -2.7690      2.00000
     42      -2.6052      2.00000
     43      -2.5078      2.00000
     44      -2.3431      2.00000
     45      -2.2769      2.00000
     46      -2.0118      2.00000
     47      -1.9722      2.00000
     48      -1.9133      2.00000
     49      -1.7939      2.00000
     50      -1.4931      2.00000
     51      -1.3690      2.00000
     52      -1.1112      2.00000
     53      -0.6673      2.00000
     54      -0.3207      1.99575
     55      -0.1691      1.52552
     56       0.3056      0.00000
     57       0.9900      0.00000
     58       1.2231      0.00000
     59       1.2764      0.00000
     60       1.3648      0.00000
     61       2.0509      0.00000
     62       2.1146      0.00000
     63       2.2331      0.00000
     64       2.3662      0.00000
     65       2.4042      0.00000
     66       2.5558      0.00000
     67       2.9013      0.00000
     68       3.0306      0.00000

 k-point    53 :       0.3846    0.5000    0.5000
  band No.  band energies     occupation 
      1     -12.6141      2.00000
      2     -12.1002      2.00000
      3     -11.7330      2.00000
      4     -11.5974      2.00000
      5     -11.3216      2.00000
      6     -11.2185      2.00000
      7     -10.9842      2.00000
      8     -10.8374      2.00000
      9     -10.6843      2.00000
     10     -10.6756      2.00000
     11     -10.5274      2.00000
     12     -10.0566      2.00000
     13      -8.9736      2.00000
     14      -8.8572      2.00000
     15      -8.3177      2.00000
     16      -8.1423      2.00000
     17      -7.7426      2.00000
     18      -7.6806      2.00000
     19      -7.4512      2.00000
     20      -7.0480      2.00000
     21      -6.7860      2.00000
     22      -6.7264      2.00000
     23      -6.6628      2.00000
     24      -6.2042      2.00000
     25      -5.3661      2.00000
     26      -5.1681      2.00000
     27      -4.7431      2.00000
     28      -4.6987      2.00000
     29      -4.5258      2.00000
     30      -4.4048      2.00000
     31      -4.2084      2.00000
     32      -4.1242      2.00000
     33      -4.0974      2.00000
     34      -3.9328      2.00000
     35      -3.5983      2.00000
     36      -3.4298      2.00000
     37      -3.2909      2.00000
     38      -3.2516      2.00000
     39      -3.1926      2.00000
     40      -2.9874      2.00000
     41      -2.9336      2.00000
     42      -2.7246      2.00000
     43      -2.5690      2.00000
     44      -2.5042      2.00000
     45      -2.3815      2.00000
     46      -2.2222      2.00000
     47      -2.1379      2.00000
     48      -2.0811      2.00000
     49      -1.9061      2.00000
     50      -1.6423      2.00000
     51      -1.4957      2.00000
     52      -1.3152      2.00000
     53      -0.8044      2.00000
     54      -0.4138      1.99997
     55      -0.2888      1.98395
     56       0.2161      0.00000
     57       0.8732      0.00000
     58       1.0695      0.00000
     59       1.2110      0.00000
     60       1.4663      0.00000
     61       1.7401      0.00000
     62       1.9607      0.00000
     63       1.9923      0.00000
     64       2.0980      0.00000
     65       2.2146      0.00000
     66       2.2968      0.00000
     67       2.5372      0.00000
     68       2.6757      0.00000

 k-point    54 :       0.4615    0.5000    0.5000
  band No.  band energies     occupation 
      1     -12.1520      2.00000
      2     -11.5573      2.00000
      3     -11.3093      2.00000
      4     -11.2346      2.00000
      5     -11.2061      2.00000
      6     -11.0193      2.00000
      7     -10.9153      2.00000
      8     -10.8202      2.00000
      9     -10.7886      2.00000
     10     -10.6882      2.00000
     11     -10.6734      2.00000
     12     -10.0614      2.00000
     13      -9.0340      2.00000
     14      -8.7307      2.00000
     15      -8.5076      2.00000
     16      -8.2517      2.00000
     17      -8.1833      2.00000
     18      -7.7161      2.00000
     19      -7.6272      2.00000
     20      -7.4984      2.00000
     21      -7.3569      2.00000
     22      -7.2350      2.00000
     23      -7.1686      2.00000
     24      -6.3456      2.00000
     25      -5.0830      2.00000
     26      -5.0111      2.00000
     27      -4.6481      2.00000
     28      -4.5450      2.00000
     29      -4.3821      2.00000
     30      -4.2206      2.00000
     31      -4.1289      2.00000
     32      -4.0124      2.00000
     33      -3.9918      2.00000
     34      -3.8420      2.00000
     35      -3.8060      2.00000
     36      -3.6272      2.00000
     37      -3.5470      2.00000
     38      -3.4227      2.00000
     39      -3.3228      2.00000
     40      -3.1104      2.00000
     41      -3.0660      2.00000
     42      -2.8672      2.00000
     43      -2.7565      2.00000
     44      -2.5508      2.00000
     45      -2.4447      2.00000
     46      -2.3107      2.00000
     47      -2.2339      2.00000
     48      -2.1318      2.00000
     49      -1.7945      2.00000
     50      -1.6331      2.00000
     51      -1.5954      2.00000
     52      -1.3878      2.00000
     53      -1.0039      2.00000
     54      -0.4766      2.00000
     55      -0.2579      1.95129
     56       0.2907      0.00000
     57       0.6149      0.00000
     58       1.1279      0.00000
     59       1.2900      0.00000
     60       1.5301      0.00000
     61       1.5698      0.00000
     62       1.7771      0.00000
     63       1.9507      0.00000
     64       1.9891      0.00000
     65       2.1101      0.00000
     66       2.2841      0.00000
     67       2.3753      0.00000
     68       2.4668      0.00000


--------------------------------------------------------------------------------------------------------


 soft charge-density along one line, spin component           1
         0         1         2         3         4         5         6         7         8         9
 total charge-density along one line
 
 pseudopotential strength for first ion, spin component:           1
 29.794   0.008  -0.001  -0.023  -0.000  -0.000  -0.001  -0.000
  0.008   0.009  -0.000  -0.000  -0.000   0.000   0.000   0.000
 -0.001  -0.000   6.551  -0.001  -0.000  -0.003   0.000   0.000
 -0.023  -0.000  -0.001   6.546  -0.000   0.000  -0.003   0.000
 -0.000  -0.000  -0.000  -0.000   6.552   0.000   0.000  -0.003
 -0.000   0.000  -0.003   0.000   0.000   0.015  -0.000  -0.000
 -0.001   0.000   0.000  -0.003   0.000  -0.000   0.015   0.000
 -0.000   0.000   0.000   0.000  -0.003  -0.000   0.000   0.015
 total augmentation occupancy for first ion, spin component:           1
  1.814  -0.354   0.006   0.253   0.000   0.004   0.115  -0.000
 -0.354   1.288   0.024   0.854   0.001   0.003  -0.432   0.000
  0.006   0.024   1.144   0.010   0.000  -0.502   0.014   0.000
  0.253   0.854   0.010   1.287   0.001   0.014  -0.418  -0.000
  0.000   0.001   0.000   0.001   1.145   0.000  -0.000  -0.526
  0.004   0.003  -0.502   0.014   0.000   0.291  -0.015  -0.000
  0.115  -0.432   0.014  -0.418  -0.000  -0.015   0.227   0.000
 -0.000   0.000   0.000  -0.000  -0.526  -0.000   0.000   0.325


------------------------ aborting loop because EDIFF is reached ----------------------------------------


    CHARGE:  cpu time    4.67: real time    4.68
    FORLOC:  cpu time    0.06: real time    0.06
    FORNL :  cpu time   18.75: real time   18.75
    STRESS:  cpu time   55.86: real time   55.87
    FORCOR:  cpu time   14.79: real time   14.80
    FORHAR:  cpu time    0.15: real time    0.15
    MIXING:  cpu time    0.02: real time    0.02
    OFIELD:  cpu time    0.00: real time    0.00

  FORCE on cell =-STRESS in cart. coord.  units (eV):
  Direction    XX          YY          ZZ          XY          YZ          ZX
  --------------------------------------------------------------------------------------
  Alpha Z    36.80885    36.80885    36.80885
  Ewald   14341.26814 13984.31529-16432.25691    10.45424    -9.66260    -9.27705
  Hartree 14870.13716 14592.18244-14427.55194     3.77752    -4.24939    -1.86726
  E(xc)    -356.22824  -355.96934  -354.55218    -0.08018     0.00633    -0.24007
  Local  -30752.44229-30131.04554 29271.77577   -15.45756    11.12028     7.13314
  n-local  1143.91733  1152.20735  1138.72636     1.70500     1.78647     2.69995
  augment  -199.82888  -201.89415  -204.19256    -0.12317     0.12212    -0.61562
  Kinetic   912.30995   926.31445   979.30920    -0.70583    -7.63068     2.18486
  Fock        0.00000     0.00000     0.00000     0.00000     0.00000     0.00000
  -------------------------------------------------------------------------------------
  Total      -4.05797     2.91936     8.06658    -0.42998    -8.50747     0.01797
  in kB      -6.48654     4.66651    12.89418    -0.68730   -13.59892     0.02872
  external pressure =        3.69 kB  Pullay stress =        0.00 kB


 VOLUME and BASIS-vectors are now :
 -----------------------------------------------------------------------------
  energy-cutoff  :      300.00
  volume of cell :     1002.32
      direct lattice vectors                 reciprocal lattice vectors
     3.540400000  0.000000000  0.000000000     0.282453960  0.048570342  0.000000000
    -1.770200000 10.294348000  0.000000000     0.000000000  0.097140683  0.000000000
     0.000000000  0.000000000 27.501429000     0.000000000  0.000000000  0.036361747

  length of vectors
     3.540400000 10.445439617 27.501429000     0.286599577  0.097140683  0.036361747


 FORCES acting on ions
    electron-ion (+dipol)            ewald-force                    non-local-force                 convergence-correction
 -----------------------------------------------------------------------------------------------
   0.163E-01 0.596E+01 0.271E+02   0.263E-02 -.582E+01 -.226E+02   -.260E-01 -.181E+00 -.449E+01   0.219E-06 0.188E-05 -.173E-04
   -.563E-01 -.874E+01 -.571E+03   -.134E+00 0.939E+01 0.575E+03   -.464E-01 -.897E+00 -.369E+01   0.253E-07 0.579E-05 0.464E-04
   0.107E-01 0.631E+02 0.505E+02   -.806E-02 -.646E+02 -.463E+02   -.348E-02 0.154E+01 -.416E+01   -.210E-07 0.638E-06 -.230E-04
   0.766E+00 0.586E+02 -.543E+03   -.579E+00 -.601E+02 0.548E+03   -.749E+00 0.935E+00 -.368E+01   -.339E-06 0.116E-04 0.388E-04
   -.240E-02 -.570E+02 0.526E+03   0.739E-04 0.586E+02 -.531E+03   0.247E-03 -.154E+01 0.429E+01   -.286E-07 -.114E-04 -.396E-04
   0.844E+01 -.407E+02 -.593E+02   -.103E+02 0.427E+02 0.535E+02   0.113E+01 -.139E+01 0.421E+01   0.629E-06 -.847E-05 0.162E-04
   0.297E-02 0.538E+02 0.526E+03   0.304E-04 -.557E+02 -.530E+03   -.119E-02 0.192E+01 0.417E+01   0.635E-07 -.519E-06 -.232E-04
   -.130E+02 0.692E+02 -.400E+02   0.122E+02 -.725E+02 0.385E+02   0.165E+01 0.366E+01 -.109E+01   -.398E-05 0.801E-05 0.235E-04
   0.540E-03 0.170E+01 0.572E+03   -.846E-04 -.190E+01 -.577E+03   0.773E-03 0.203E+00 0.477E+01   0.177E-06 0.151E-04 -.348E-04
   -.497E+00 -.205E+02 -.274E+02   0.412E-01 0.200E+02 0.236E+02   0.802E+00 0.967E+00 0.332E+01   -.414E-06 -.376E-05 0.138E-04
   -.736E-02 -.629E+02 0.580E+02   0.338E-02 0.648E+02 -.538E+02   0.290E-02 -.194E+01 -.407E+01   -.777E-07 -.210E-05 -.245E-04
   -.741E+00 -.485E+02 -.516E+03   0.112E+01 0.506E+02 0.519E+03   -.795E-01 -.242E+01 -.334E+01   -.102E-05 -.117E-04 0.448E-04
   0.194E-02 0.310E+02 0.209E+03   0.514E-03 -.331E+02 -.210E+03   0.719E-03 0.213E+01 0.343E+00   0.248E-07 0.192E-05 -.209E-04
   0.429E+01 0.464E+02 -.290E+03   -.331E+01 -.469E+02 0.289E+03   -.883E-01 -.147E+01 0.368E+01   0.197E-05 0.865E-05 0.241E-04
   0.244E-02 -.122E+02 0.138E+03   -.250E-03 0.125E+02 -.140E+03   -.369E-02 -.288E+00 0.254E+01   -.979E-07 -.246E-05 -.225E-04
   0.404E+01 -.166E+02 -.314E+03   -.371E+01 0.167E+02 0.315E+03   -.438E-01 -.424E+00 -.985E+00   -.322E-08 -.750E-05 0.385E-04
   0.412E-03 -.520E+01 0.345E+03   0.675E-04 0.566E+01 -.343E+03   0.960E-04 -.470E+00 -.252E+01   0.610E-07 0.378E-05 -.310E-04
   -.155E+01 -.221E+02 -.140E+03   0.141E+01 0.225E+02 0.140E+03   -.458E-03 0.210E+00 0.769E+00   -.573E-07 -.109E-04 0.224E-04
   -.130E-02 0.954E+01 0.335E+03   -.222E-04 -.977E+01 -.333E+03   -.150E-02 0.223E+00 -.250E+01   0.371E-07 0.190E-05 -.213E-04
   0.377E+01 -.667E+01 -.133E+03   -.418E+01 0.695E+01 0.135E+03   -.836E+00 0.250E+01 -.360E+01   0.259E-05 0.777E-05 0.213E-04
   -.518E-03 0.101E+02 0.127E+03   -.838E-03 -.106E+02 -.129E+03   0.557E-02 0.390E+00 0.253E+01   0.102E-06 0.231E-05 -.186E-04
   0.169E+01 -.732E+01 -.337E+03   -.163E+01 0.737E+01 0.337E+03   -.383E-01 -.118E+00 -.771E+00   -.384E-06 0.887E-05 0.328E-04
   0.291E-02 -.310E+02 0.254E+03   0.665E-04 0.331E+02 -.254E+03   -.895E-03 -.211E+01 -.374E+00   -.629E-07 -.272E-05 -.268E-04
   -.106E+02 -.989E+01 -.192E+03   0.906E+01 0.101E+02 0.195E+03   0.169E+01 -.151E+01 -.111E+01   0.790E-06 -.530E-06 0.315E-04
 -----------------------------------------------------------------------------------------------
   -.336E+01 0.834E-01 0.577E+01   -.142E-13 0.480E-13 -.568E-13   0.336E+01 -.829E-01 -.576E+01   0.195E-06 0.161E-04 0.506E-04
 
 
 POSITION                                       TOTAL-FORCE (eV/Angst)
 -----------------------------------------------------------------------------------
      0.00000      2.34757      6.41229        -0.007283     -0.036390      0.019255
      2.65530      3.37701     14.16300        -0.236846     -0.244950      0.280352
     -0.00000      9.43147      5.75866        -0.001036     -0.013397      0.087759
      0.88510      0.16655     13.50937        -0.562415     -0.547374      1.264086
     -0.00000      6.40009      2.31424        -0.002290     -0.005133      0.006257
     -0.00000      6.40009     10.06495        -0.721707      0.598124     -1.517638
      1.77020     10.27849      2.37372         0.001602      0.002787      0.005929
      1.77020     10.27849     10.12443         0.887581      0.362967     -2.565659
      1.77020      3.18974      1.66157         0.001015     -0.001032      0.018668
      1.77020      3.18974      9.41228         0.346186      0.415819     -0.475881
      1.77020      5.55354      5.69975        -0.001290      0.005077      0.095781
      0.88510      6.58298     13.45047         0.301816     -0.232892      0.164610
      1.77020      9.05319      4.34076         0.002960     -0.003241      0.012591
      0.88510     10.08262     12.09147         0.885715     -1.937912      2.863198
      0.00000      4.22380      5.10944        -0.001715      0.029693      0.061783
     -0.88510      5.25324     12.86016         0.285947     -0.327133     -0.324508
     -0.00000      4.15582      2.74166         0.000362     -0.002652     -0.029929
     -0.00000      4.15582     10.49237        -0.145049      0.570559      1.126421
      1.77020      1.31366      2.96438        -0.003028     -0.005460     -0.034190
      1.77020      1.31366     10.71510        -1.239345      2.777237     -1.547124
      1.77020      1.38163      5.33187         0.004000     -0.034444      0.021519
      0.88510      2.41106     13.08259         0.024918     -0.063382     -0.662884
      1.77020      6.77850      3.73234         0.001864      0.004306      0.000401
      0.88510      7.80793     11.48306         0.178037     -1.311177      1.129205
 -----------------------------------------------------------------------------------
    total drift:                                0.005114      0.000503      0.002681


--------------------------------------------------------------------------------------------------------



  FREE ENERGIE OF THE ION-ELECTRON SYSTEM (eV)
  ---------------------------------------------------
  free  energy   TOTEN  =      -125.96864629 eV

  energy  without entropy=     -125.93720401  energy(sigma->0) =     -125.95292515
 


--------------------------------------------------------------------------------------------------------


    POTLOK:  cpu time   14.77: real time   14.78


--------------------------------------------------------------------------------------------------------


     LOOP+:  cpu time 2611.40: real time 2613.02
    4ORBIT:  cpu time    0.00: real time    0.00

 total amount of memory used by VASP on root node   146493. kBytes
========================================================================

   base      :      30000. kBytes
   nonlr-proj:       3452. kBytes
   fftplans  :       9347. kBytes
   grid      :      14649. kBytes
   one-center:         36. kBytes
   wavefun   :      89009. kBytes
 
  
  
 General timing and accounting informations for this job:
 ========================================================
  
                  Total CPU time used (sec):     2629.905
                            User time (sec):     2590.110
                          System time (sec):       39.795
                         Elapsed time (sec):     2632.597
  
                   Maximum memory used (kb):      335256.
                   Average memory used (kb):           0.
  
                          Minor page faults:      7471103
                          Major page faults:            8
                 Voluntary context switches:         1356
