<?xml version="1.0" encoding="ISO-8859-1"?>
<modeling>
 <generator>
  <i name="program" type="string">vasp </i>
  <i name="version" type="string">5.4.1  </i>
  <i name="subversion" type="string">24Jun15 (build May 10 2016 14:18:23) complex                          parallel </i>
  <i name="platform" type="string">IFC91_ompi </i>
  <i name="date" type="string">2016 12 12 </i>
  <i name="time" type="string">06:32:49 </i>
 </generator>
 <incar>
  <i type="string" name="PREC">accurate</i>
  <i type="string" name="ALGO"> Fast</i>
  <i type="int" name="ISPIN">     2</i>
  <i type="int" name="IBRION">     2</i>
  <i name="EDIFF">      0.00010000</i>
  <i type="int" name="NSW">     0</i>
  <i type="int" name="ISIF">     3</i>
  <i name="ENCUT">    500.00000000</i>
  <v name="MAGMOM">      6.00000000      0.50000000      0.50000000      6.00000000      0.50000000      0.50000000</v>
  <i type="string" name="LREAL"> Auto</i>
  <i type="int" name="ISMEAR">     1</i>
  <i name="SIGMA">      0.10000000</i>
  <i type="logical" name="LWAVE"> F  </i>
  <i type="logical" name="LCHARG"> F  </i>
  <i type="logical" name="LVTOT"> T  </i>
  <i type="logical" name="LVHAR"> T  </i>
  <i type="logical" name="LAECHG"> F  </i>
  <v type="int" name="KPOINT_BSE">    -1     0     0     0</v>
  <i type="string" name="GGA"> Bo</i>
  <i name="PARAM1">      0.18333333</i>
  <i name="PARAM2">      0.22000000</i>
  <i type="logical" name="LUSE_VDW"> T  </i>
  <i name="AGGAC">      0.00000000</i>
 </incar>
 <kpoints>
  <generation param="Gamma">
   <v type="int" name="divisions">      13       13        1 </v>
   <v name="usershift">      0.00000000       0.00000000       0.00000000 </v>
   <v name="genvec1">      0.07692308       0.00000000       0.00000000 </v>
   <v name="genvec2">      0.00000000       0.07692308       0.00000000 </v>
   <v name="genvec3">      0.00000000       0.00000000       1.00000000 </v>
   <v name="shift">      0.00000000       0.00000000       0.00000000 </v>
  </generation>
  <varray name="kpointlist" >
   <v>       0.00000000       0.00000000       0.00000000 </v>
   <v>       0.07692308      -0.00000000       0.00000000 </v>
   <v>       0.15384615       0.00000000       0.00000000 </v>
   <v>       0.23076923       0.00000000       0.00000000 </v>
   <v>       0.30769231      -0.00000000       0.00000000 </v>
   <v>       0.38461538       0.00000000       0.00000000 </v>
   <v>       0.46153846       0.00000000       0.00000000 </v>
   <v>       0.07692308       0.07692308       0.00000000 </v>
   <v>       0.15384615       0.07692308       0.00000000 </v>
   <v>       0.23076923       0.07692308       0.00000000 </v>
   <v>       0.30769231       0.07692308       0.00000000 </v>
   <v>       0.38461538       0.07692308       0.00000000 </v>
   <v>       0.46153846       0.07692308       0.00000000 </v>
   <v>       0.15384615       0.15384615       0.00000000 </v>
   <v>       0.23076923       0.15384615       0.00000000 </v>
   <v>       0.30769231       0.15384615       0.00000000 </v>
   <v>       0.38461538       0.15384615       0.00000000 </v>
   <v>       0.23076923       0.23076923       0.00000000 </v>
   <v>       0.30769231       0.23076923       0.00000000 </v>
   <v>       0.38461538       0.23076923       0.00000000 </v>
   <v>       0.30769231       0.30769231       0.00000000 </v>
  </varray>
  <varray name="weights" >
   <v>       0.00591716 </v>
   <v>       0.03550296 </v>
   <v>       0.03550296 </v>
   <v>       0.03550296 </v>
   <v>       0.03550296 </v>
   <v>       0.03550296 </v>
   <v>       0.03550296 </v>
   <v>       0.03550296 </v>
   <v>       0.07100592 </v>
   <v>       0.07100592 </v>
   <v>       0.07100592 </v>
   <v>       0.07100592 </v>
   <v>       0.03550296 </v>
   <v>       0.03550296 </v>
   <v>       0.07100592 </v>
   <v>       0.07100592 </v>
   <v>       0.07100592 </v>
   <v>       0.03550296 </v>
   <v>       0.07100592 </v>
   <v>       0.03550296 </v>
   <v>       0.03550296 </v>
  </varray>
 </kpoints>
 <parameters>
  <separator name="general" >
   <i type="string" name="SYSTEM">unknown system</i>
   <i type="logical" name="LCOMPAT"> F  </i>
  </separator>
  <separator name="electronic" >
   <i type="string" name="PREC">accura</i>
   <i name="ENMAX">    500.00000000</i>
   <i name="ENAUG">    392.42700000</i>
   <i name="EDIFF">      0.00010000</i>
   <i type="int" name="IALGO">    68</i>
   <i type="int" name="IWAVPR">    10</i>
   <i type="int" name="NBANDS">    36</i>
   <i name="NELECT">     48.00000000</i>
   <i type="int" name="TURBO">     0</i>
   <i type="int" name="IRESTART">     0</i>
   <i type="int" name="NREBOOT">     0</i>
   <i type="int" name="NMIN">     0</i>
   <i name="EREF">      0.00000000</i>
   <separator name="electronic smearing" >
    <i type="int" name="ISMEAR">     1</i>
    <i name="SIGMA">      0.10000000</i>
    <i name="KSPACING">      0.50000000</i>
    <i type="logical" name="KGAMMA"> T  </i>
   </separator>
   <separator name="electronic projectors" >
    <i type="logical" name="LREAL"> T  </i>
    <v name="ROPT">     -0.00025000     -0.00025000     -0.00025000     -0.00025000</v>
    <i type="int" name="LMAXPAW">  -100</i>
    <i type="int" name="LMAXMIX">     2</i>
    <i type="logical" name="NLSPLINE"> F  </i>
   </separator>
   <separator name="electronic startup" >
    <i type="int" name="ISTART">     0</i>
    <i type="int" name="ICHARG">     2</i>
    <i type="int" name="INIWAV">     1</i>
   </separator>
   <separator name="electronic spin" >
    <i type="int" name="ISPIN">     2</i>
    <i type="logical" name="LNONCOLLINEAR"> F  </i>
    <v name="MAGMOM">      6.00000000      0.50000000      0.50000000      6.00000000      0.50000000      0.50000000</v>
    <i name="NUPDOWN">     -1.00000000</i>
    <i type="logical" name="LSORBIT"> F  </i>
    <v name="SAXIS">      0.00000000      0.00000000      1.00000000</v>
    <i type="logical" name="LSPIRAL"> F  </i>
    <v name="QSPIRAL">      0.00000000      0.00000000      0.00000000</v>
    <i type="logical" name="LZEROZ"> F  </i>
   </separator>
   <separator name="electronic exchange-correlation" >
    <i type="logical" name="LASPH"> F  </i>
    <i type="logical" name="LMETAGGA"> F  </i>
   </separator>
   <separator name="electronic convergence" >
    <i type="int" name="NELM">    60</i>
    <i type="int" name="NELMDL">     0</i>
    <i type="int" name="NELMIN">     2</i>
    <i name="ENINI">    500.00000000</i>
    <separator name="electronic convergence detail" >
     <i type="logical" name="LDIAG"> T  </i>
     <i type="logical" name="LSUBROT"> F  </i>
     <i name="WEIMIN">      0.00000000</i>
     <i name="EBREAK">      0.00000069</i>
     <i name="DEPER">      0.30000000</i>
     <i type="int" name="NRMM">     4</i>
     <i name="TIME">      0.40000000</i>
    </separator>
   </separator>
   <separator name="electronic mixer" >
    <i name="AMIX">      0.40000000</i>
    <i name="BMIX">      1.00000000</i>
    <i name="AMIN">      0.10000000</i>
    <i name="AMIX_MAG">      1.60000000</i>
    <i name="BMIX_MAG">      1.00000000</i>
    <separator name="electronic mixer details" >
     <i type="int" name="IMIX">     4</i>
     <i type="logical" name="MIXFIRST"> F  </i>
     <i type="int" name="MAXMIX">   -45</i>
     <i name="WC">    100.00000000</i>
     <i type="int" name="INIMIX">     1</i>
     <i type="int" name="MIXPRE">     1</i>
     <i type="int" name="MREMOVE">     5</i>
    </separator>
   </separator>
   <separator name="electronic dipolcorrection" >
    <i type="logical" name="LDIPOL"> F  </i>
    <i type="logical" name="LMONO"> F  </i>
    <i type="int" name="IDIPOL">     0</i>
    <i name="EPSILON">      1.00000000</i>
    <v name="DIPOL">   -100.00000000   -100.00000000   -100.00000000</v>
    <i name="EFIELD">      0.00000000</i>
   </separator>
  </separator>
  <separator name="grids" >
   <i type="int" name="NGX">    24</i>
   <i type="int" name="NGY">    24</i>
   <i type="int" name="NGZ">   180</i>
   <i type="int" name="NGXF">    48</i>
   <i type="int" name="NGYF">    48</i>
   <i type="int" name="NGZF">   360</i>
   <i type="logical" name="ADDGRID"> F  </i>
  </separator>
  <separator name="ionic" >
   <i type="int" name="NSW">     0</i>
   <i type="int" name="IBRION">    -1</i>
   <i type="int" name="ISIF">     3</i>
   <i name="PSTRESS">      0.00000000</i>
   <i name="EDIFFG">      0.00100000</i>
   <i type="int" name="NFREE">     1</i>
   <i name="POTIM">      0.50000000</i>
   <i name="SMASS">     -3.00000000</i>
   <i name="SCALEE">      1.00000000</i>
  </separator>
  <separator name="ionic md" >
   <i name="TEBEG">      0.00010000</i>
   <i name="TEEND">      0.00010000</i>
   <i type="int" name="NBLOCK">     1</i>
   <i type="int" name="KBLOCK">     1</i>
   <i type="int" name="NPACO">   256</i>
   <i name="APACO">     16.00000000</i>
  </separator>
  <separator name="symmetry" >
   <i type="int" name="ISYM">     2</i>
   <i name="SYMPREC">      0.00001000</i>
  </separator>
  <separator name="dos" >
   <i type="logical" name="LORBIT"> F  </i>
   <v name="RWIGS">     -1.00000000     -1.00000000     -1.00000000     -1.00000000</v>
   <i type="int" name="NEDOS">   301</i>
   <i name="EMIN">     10.00000000</i>
   <i name="EMAX">    -10.00000000</i>
   <i name="EFERMI">      0.00000000</i>
  </separator>
  <separator name="writing" >
   <i type="int" name="NWRITE">     2</i>
   <i type="logical" name="LWAVE"> F  </i>
   <i type="logical" name="LCHARG"> F  </i>
   <i type="logical" name="LPARD"> F  </i>
   <i type="logical" name="LVTOT"> F  </i>
   <i type="logical" name="LVHAR"> T  </i>
   <i type="logical" name="LELF"> F  </i>
   <i type="logical" name="LOPTICS"> F  </i>
   <v name="STM">      0.00000000      0.00000000      0.00000000      0.00000000      0.00000000      0.00000000      0.00000000</v>
  </separator>
  <separator name="performance" >
   <i type="int" name="NPAR">     4</i>
   <i type="int" name="NSIM">     4</i>
   <i type="int" name="NBLK">    -1</i>
   <i type="logical" name="LPLANE"> T  </i>
   <i type="logical" name="LSCALAPACK"> T  </i>
   <i type="logical" name="LSCAAWARE"> F  </i>
   <i type="logical" name="LSCALU"> F  </i>
   <i type="logical" name="LASYNC"> F  </i>
   <i type="logical" name="LORBITALREAL"> F  </i>
  </separator>
  <separator name="miscellaneous" >
   <i type="int" name="IDIOT">     3</i>
   <i type="logical" name="LMUSIC"> F  </i>
   <v name="POMASS">     95.94000000     32.06600000     95.94000000     32.06600000</v>
   <v name="DARWINR">      0.00000000      0.00000000      0.00000000      0.00000000</v>
   <v name="DARWINV">      1.00000000      1.00000000      1.00000000      1.00000000</v>
   <i type="logical" name="LCORR"> T  </i>
  </separator>
  <i type="logical" name="GGA_COMPAT"> T  </i>
  <i type="logical" name="LBERRY"> F  </i>
  <i type="int" name="ICORELEVEL">     0</i>
  <i type="logical" name="LDAU"> F  </i>
  <i type="int" name="I_CONSTRAINED_M">     0</i>
  <separator name="electronic exchange-correlation" >
   <i type="string" name="GGA">BO</i>
   <i type="int" name="VOSKOWN">     0</i>
   <i type="logical" name="LHFCALC"> F  </i>
   <i type="string" name="PRECFOCK"></i>
   <i type="logical" name="LSYMGRAD"> F  </i>
   <i type="logical" name="LHFONE"> F  </i>
   <i type="logical" name="LRHFCALC"> F  </i>
   <i type="logical" name="LTHOMAS"> F  </i>
   <i type="logical" name="LMODELHF"> F  </i>
   <i name="ENCUT4O">     -1.00000000</i>
   <i type="int" name="EXXOEP">     0</i>
   <i type="int" name="FOURORBIT">     0</i>
   <i name="AEXX">      0.00000000</i>
   <i name="HFALPHA">      0.00000000</i>
   <i name="MCALPHA">      0.00000000</i>
   <i name="ALDAX">      1.00000000</i>
   <i name="AGGAX">      1.00000000</i>
   <i name="ALDAC">      1.00000000</i>
   <i name="AGGAC">      0.00000000</i>
   <i type="int" name="NKREDX">     1</i>
   <i type="int" name="NKREDY">     1</i>
   <i type="int" name="NKREDZ">     1</i>
   <i type="logical" name="SHIFTRED"> F  </i>
   <i type="logical" name="ODDONLY"> F  </i>
   <i type="logical" name="EVENONLY"> F  </i>
   <i type="int" name="LMAXFOCK">     0</i>
   <i type="int" name="NMAXFOCKAE">     0</i>
   <i type="logical" name="LFOCKAEDFT"> F  </i>
   <i name="HFSCREEN">      0.00000000</i>
   <i name="HFSCREENC">      0.00000000</i>
   <i type="int" name="NBANDSGWLOW">     0</i>
  </separator>
  <separator name="vdW DFT" >
   <i type="logical" name="LUSE_VDW"> T  </i>
   <i name="Zab_VDW">     -0.84910000</i>
   <i name="PARAM1">      0.18333333</i>
   <i name="PARAM2">      0.22000000</i>
   <i name="PARAM3">      0.00000000</i>
  </separator>
  <separator name="model GW" >
   <i type="int" name="MODEL_GW">     0</i>
   <i name="MODEL_EPS0">     20.39722663</i>
   <i name="MODEL_ALPHA">      1.00000000</i>
  </separator>
  <separator name="linear response parameters" >
   <i type="logical" name="LEPSILON"> F  </i>
   <i type="logical" name="LRPA"> F  </i>
   <i type="logical" name="LNABLA"> F  </i>
   <i type="logical" name="LVEL"> F  </i>
   <i type="int" name="KINTER">     0</i>
   <i name="CSHIFT">      0.10000000</i>
   <i name="OMEGAMAX">     -1.00000000</i>
   <i name="DEG_THRESHOLD">      0.00200000</i>
  </separator>
  <separator name="orbital magnetization" >
   <i type="logical" name="NUCIND"> F  </i>
   <v name="MAGPOS">      0.00000000      0.00000000      0.00000000</v>
   <i type="logical" name="LNICSALL"> T  </i>
   <i type="logical" name="ORBITALMAG"> F  </i>
   <i type="logical" name="LMAGBLOCH"> F  </i>
   <i type="logical" name="LCHIMAG"> F  </i>
   <i type="logical" name="LGAUGE"> T  </i>
   <i type="int" name="MAGATOM">     0</i>
   <v name="MAGDIPOL">      0.00000000      0.00000000      0.00000000</v>
   <v name="AVECCONST">      0.00000000      0.00000000      0.00000000</v>
  </separator>
  <separator name="response functions" >
   <i type="logical" name="LADDER"> F  </i>
   <i type="logical" name="LFXC"> F  </i>
   <i type="logical" name="LHARTREE"> T  </i>
   <i type="int" name="IBSE">     0</i>
   <v type="int" name="KPOINT">    -1     0     0     0</v>
   <i type="logical" name="LTCTE"> F  </i>
   <i type="logical" name="LTETE"> F  </i>
   <i type="logical" name="LTRIPLET"> F  </i>
   <i type="logical" name="LFXCEPS"> F  </i>
   <i type="logical" name="LFXHEG"> F  </i>
   <i type="int" name="NATURALO">     0</i>
   <i type="logical" name="L2ORDER"> F  </i>
   <i type="logical" name="LUSEW"> F  </i>
   <i name="ENCUTGW">     -2.00000000</i>
   <i name="ENCUTGWSOFT">     -2.00000000</i>
   <i name="ENCUTLF">     -1.00000000</i>
   <i type="int" name="LMAXMP2">    -1</i>
   <i name="SCISSOR">      0.00000000</i>
   <i type="int" name="NOMEGA">     0</i>
   <i type="int" name="NOMEGAR">     0</i>
   <i type="int" name="NBANDSGW">    -1</i>
   <i type="int" name="NBANDSO">    -1</i>
   <i type="int" name="NBANDSV">    -1</i>
   <i type="int" name="NELM">     1</i>
   <i type="int" name="NELMHF">     1</i>
   <i type="int" name="DIM">     3</i>
   <i type="int" name="ANTIRES">     0</i>
   <i name="OMEGAMAX">    -30.00000000</i>
   <i name="OMEGAMIN">    -30.00000000</i>
   <i name="OMEGATL">   -200.00000000</i>
   <i type="int" name="OMEGAGRID">     0</i>
   <i name="CSHIFT">     -0.10000000</i>
   <i type="logical" name="SELFENERGY"> F  </i>
   <i type="logical" name="LSPECTRAL"> F  </i>
   <i type="logical" name="LSPECTRALGW"> F  </i>
   <i type="logical" name="LSINGLES"> F  </i>
   <i type="logical" name="LFERMIGW"> F  </i>
   <i type="logical" name="ODDONLYGW"> F  </i>
   <i type="logical" name="EVENONLYGW"> F  </i>
   <i type="int" name="NKREDLFX">     1</i>
   <i type="int" name="NKREDLFY">     1</i>
   <i type="int" name="NKREDLFZ">     1</i>
   <i type="int" name="MAXMEM">  1800</i>
   <i type="int" name="TELESCOPE">     0</i>
   <i type="int" name="TAUPAR">     1</i>
   <i type="int" name="OMEGAPAR">    -1</i>
   <i name="LAMBDA">      1.00000000</i>
  </separator>
  <separator name="External order field" >
   <i name="OFIELD_KAPPA">      0.00000000</i>
   <v name="OFIELD_K">      0.00000000      0.00000000      0.00000000</v>
   <i name="OFIELD_Q6_NEAR">      0.00000000</i>
   <i name="OFIELD_Q6_FAR">      0.00000000</i>
   <i name="OFIELD_A">      0.00000000</i>
  </separator>
 </parameters>
 <atominfo>
  <atoms>       6 </atoms>
  <types>       4 </types>
  <array name="atoms" >
   <dimension dim="1">ion</dimension>
   <field type="string">element</field>
   <field type="int">atomtype</field>
   <set>
    <rc><c>Mo</c><c>   1</c></rc>
    <rc><c>S </c><c>   2</c></rc>
    <rc><c>S </c><c>   2</c></rc>
    <rc><c>Mo</c><c>   3</c></rc>
    <rc><c>S </c><c>   4</c></rc>
    <rc><c>S </c><c>   4</c></rc>
   </set>
  </array>
  <array name="atomtypes" >
   <dimension dim="1">type</dimension>
   <field type="int">atomspertype</field>
   <field type="string">element</field>
   <field>mass</field>
   <field>valence</field>
   <field type="string">pseudopotential</field>
   <set>
    <rc><c>   1</c><c>Mo</c><c>     95.94000000</c><c>     12.00000000</c><c> PAW_PBE Mo_pv 08Apr2002                </c></rc>
    <rc><c>   2</c><c>S </c><c>     32.06600000</c><c>      6.00000000</c><c>  PAW_PBE S 17Jan2003                   </c></rc>
    <rc><c>   1</c><c>Mo</c><c>     95.94000000</c><c>     12.00000000</c><c> PAW_PBE Mo_pv 08Apr2002                </c></rc>
    <rc><c>   2</c><c>S </c><c>     32.06600000</c><c>      6.00000000</c><c>  PAW_PBE S 17Jan2003                   </c></rc>
   </set>
  </array>
 </atominfo>
 <structure name="initialpos" >
  <crystal>
   <varray name="basis" >
    <v>       3.19031700       0.00000000       0.00000000 </v>
    <v>      -1.59515800       2.76289700       0.00000000 </v>
    <v>       0.00000000       0.00000000      23.14049200 </v>
   </varray>
   <i name="volume">    203.97226633 </i>
   <varray name="rec_basis" >
    <v>       0.31344848       0.18096941       0.00000000 </v>
    <v>       0.00000000       0.36193894       0.00000000 </v>
    <v>       0.00000000       0.00000000       0.04321429 </v>
   </varray>
  </crystal>
  <varray name="positions" >
   <v>       0.66666700       0.33333300       0.06785900 </v>
   <v>       0.33333300       0.66666700       0.00000000 </v>
   <v>       0.33333300       0.66666700       0.13571500 </v>
   <v>       0.66666700       0.33333300       0.27919800 </v>
   <v>       0.33333300       0.66666700       0.21134000 </v>
   <v>       0.33333300       0.66666700       0.34705400 </v>
  </varray>
 </structure>
 <calculation>
  <scstep>
   <time name="dav">   13.97   13.98</time>
   <time name="total">   24.13   24.17</time>
   <energy>
    <i name="alphaZ">    104.15310261 </i>
    <i name="ewald">  12908.00650995 </i>
    <i name="hartreedc"> -16299.16578341 </i>
    <i name="XCdc">    130.50919055 </i>
    <i name="pawpsdc">   2252.92270536 </i>
    <i name="pawaedc">  -2205.68654582 </i>
    <i name="eentropy">     -0.00006451 </i>
    <i name="bandstr">   -164.37884374 </i>
    <i name="atom">   3688.31848598 </i>
    <i name="e_fr_energy">    414.67875697 </i>
    <i name="e_wo_entrp">    414.67882148 </i>
    <i name="e_0_energy">    414.67877848 </i>
   </energy>
  </scstep>
  <scstep>
   <time name="dav">   15.05   15.06</time>
   <time name="total">   15.05   15.06</time>
   <energy>
    <i name="e_fr_energy">      4.68382438 </i>
    <i name="e_wo_entrp">      4.68433387 </i>
    <i name="e_0_energy">      4.68399421 </i>
   </energy>
  </scstep>
  <scstep>
   <time name="dav">   15.36   15.37</time>
   <time name="total">   15.36   15.37</time>
   <energy>
    <i name="e_fr_energy">    -28.91478597 </i>
    <i name="e_wo_entrp">    -28.91563108 </i>
    <i name="e_0_energy">    -28.91506767 </i>
   </energy>
  </scstep>
  <scstep>
   <time name="dav">   15.79   15.80</time>
   <time name="total">   15.79   15.81</time>
   <energy>
    <i name="e_fr_energy">    -29.91904917 </i>
    <i name="e_wo_entrp">    -29.91838183 </i>
    <i name="e_0_energy">    -29.91882673 </i>
   </energy>
  </scstep>
  <scstep>
   <time name="dav">   15.81   15.83</time>
   <time name="total">   17.09   17.11</time>
   <energy>
    <i name="e_fr_energy">    -29.94612489 </i>
    <i name="e_wo_entrp">    -29.94531901 </i>
    <i name="e_0_energy">    -29.94585626 </i>
   </energy>
  </scstep>
  <scstep>
   <time name="diag">    2.92    2.92</time>
   <time name="diis">   10.57   10.57</time>
   <time name="orth">    0.10    0.10</time>
   <time name="total">   24.58   24.60</time>
   <energy>
    <i name="e_fr_energy">    -26.81167641 </i>
    <i name="e_wo_entrp">    -26.81049972 </i>
    <i name="e_0_energy">    -26.81128418 </i>
   </energy>
  </scstep>
  <scstep>
   <time name="diag">    2.84    2.84</time>
   <time name="diis">   10.54   10.55</time>
   <time name="orth">    0.10    0.10</time>
   <time name="total">   24.50   24.52</time>
   <energy>
    <i name="e_fr_energy">    -29.55799178 </i>
    <i name="e_wo_entrp">    -29.55728794 </i>
    <i name="e_0_energy">    -29.55775717 </i>
   </energy>
  </scstep>
  <scstep>
   <time name="diag">    2.89    2.89</time>
   <time name="diis">   10.96   10.97</time>
   <time name="orth">    0.10    0.10</time>
   <time name="total">   25.05   25.07</time>
   <energy>
    <i name="e_fr_energy">    -31.16299642 </i>
    <i name="e_wo_entrp">    -31.16320449 </i>
    <i name="e_0_energy">    -31.16306578 </i>
   </energy>
  </scstep>
  <scstep>
   <time name="diag">    2.86    2.87</time>
   <time name="diis">   10.52   10.53</time>
   <time name="orth">    0.09    0.10</time>
   <time name="total">   24.55   24.57</time>
   <energy>
    <i name="e_fr_energy">    -33.54602338 </i>
    <i name="e_wo_entrp">    -33.54644026 </i>
    <i name="e_0_energy">    -33.54616234 </i>
   </energy>
  </scstep>
  <scstep>
   <time name="diag">    2.85    2.85</time>
   <time name="diis">   11.24   11.25</time>
   <time name="orth">    0.10    0.10</time>
   <time name="total">   25.25   25.27</time>
   <energy>
    <i name="e_fr_energy">    -34.51199650 </i>
    <i name="e_wo_entrp">    -34.51044574 </i>
    <i name="e_0_energy">    -34.51147958 </i>
   </energy>
  </scstep>
  <scstep>
   <time name="diag">    2.89    2.89</time>
   <time name="diis">   11.10   11.10</time>
   <time name="orth">    0.10    0.10</time>
   <time name="total">   25.18   25.20</time>
   <energy>
    <i name="e_fr_energy">    -34.72595669 </i>
    <i name="e_wo_entrp">    -34.72765057 </i>
    <i name="e_0_energy">    -34.72652131 </i>
   </energy>
  </scstep>
  <scstep>
   <time name="diag">    2.86    2.86</time>
   <time name="diis">   10.82   10.83</time>
   <time name="orth">    0.10    0.10</time>
   <time name="total">   24.79   24.81</time>
   <energy>
    <i name="e_fr_energy">    -34.93401525 </i>
    <i name="e_wo_entrp">    -34.93393405 </i>
    <i name="e_0_energy">    -34.93398818 </i>
   </energy>
  </scstep>
  <scstep>
   <time name="diag">    2.88    2.88</time>
   <time name="diis">   10.25   10.25</time>
   <time name="orth">    0.09    0.09</time>
   <time name="total">   24.26   24.28</time>
   <energy>
    <i name="e_fr_energy">    -34.95157338 </i>
    <i name="e_wo_entrp">    -34.95074803 </i>
    <i name="e_0_energy">    -34.95129827 </i>
   </energy>
  </scstep>
  <scstep>
   <time name="diag">    2.84    2.85</time>
   <time name="diis">    9.82    9.83</time>
   <time name="orth">    0.10    0.10</time>
   <time name="total">   23.74   24.14</time>
   <energy>
    <i name="e_fr_energy">    -34.96020275 </i>
    <i name="e_wo_entrp">    -34.95895319 </i>
    <i name="e_0_energy">    -34.95978623 </i>
   </energy>
  </scstep>
  <scstep>
   <time name="diag">    2.87    2.87</time>
   <time name="diis">    9.47    9.47</time>
   <time name="orth">    0.10    0.10</time>
   <time name="total">   23.46   23.58</time>
   <energy>
    <i name="e_fr_energy">    -34.95913942 </i>
    <i name="e_wo_entrp">    -34.95795603 </i>
    <i name="e_0_energy">    -34.95874496 </i>
   </energy>
  </scstep>
  <scstep>
   <time name="diag">    2.90    2.90</time>
   <time name="diis">    8.19    8.19</time>
   <time name="orth">    0.10    0.10</time>
   <time name="total">   22.22   22.29</time>
   <energy>
    <i name="e_fr_energy">    -34.96104521 </i>
    <i name="e_wo_entrp">    -34.95983950 </i>
    <i name="e_0_energy">    -34.96064331 </i>
   </energy>
  </scstep>
  <scstep>
   <time name="diag">    2.87    2.87</time>
   <time name="diis">    7.30    7.31</time>
   <time name="orth">    0.09    0.10</time>
   <time name="total">   21.31   21.33</time>
   <energy>
    <i name="e_fr_energy">    -34.96131758 </i>
    <i name="e_wo_entrp">    -34.96012034 </i>
    <i name="e_0_energy">    -34.96091850 </i>
   </energy>
  </scstep>
  <scstep>
   <time name="diag">    2.82    2.82</time>
   <time name="diis">    7.61    7.61</time>
   <time name="orth">    0.10    0.10</time>
   <time name="total">   21.53   21.55</time>
   <energy>
    <i name="e_fr_energy">    -34.96162125 </i>
    <i name="e_wo_entrp">    -34.96042129 </i>
    <i name="e_0_energy">    -34.96122126 </i>
   </energy>
  </scstep>
  <scstep>
   <time name="diag">    2.90    2.90</time>
   <time name="diis">    7.26    7.26</time>
   <time name="orth">    0.10    0.10</time>
   <time name="total">   21.29   21.31</time>
   <energy>
    <i name="e_fr_energy">    -34.96183520 </i>
    <i name="e_wo_entrp">    -34.96063824 </i>
    <i name="e_0_energy">    -34.96143622 </i>
   </energy>
  </scstep>
  <scstep>
   <time name="diag">    2.90    2.91</time>
   <time name="diis">    7.12    7.12</time>
   <time name="orth">    0.10    0.10</time>
   <time name="total">   21.15   21.16</time>
   <energy>
    <i name="e_fr_energy">    -34.96238769 </i>
    <i name="e_wo_entrp">    -34.96119128 </i>
    <i name="e_0_energy">    -34.96198888 </i>
   </energy>
  </scstep>
  <scstep>
   <time name="diag">    2.85    2.85</time>
   <time name="diis">    6.93    6.93</time>
   <time name="orth">    0.09    0.10</time>
   <time name="total">   20.94   21.05</time>
   <energy>
    <i name="e_fr_energy">    -34.96255307 </i>
    <i name="e_wo_entrp">    -34.96135580 </i>
    <i name="e_0_energy">    -34.96215398 </i>
   </energy>
  </scstep>
  <scstep>
   <time name="diag">    2.83    2.83</time>
   <time name="diis">    6.58    6.58</time>
   <time name="orth">    0.10    0.10</time>
   <time name="total">   19.19   19.21</time>
   <energy>
    <i name="alphaZ">    104.15310261 </i>
    <i name="ewald">  12908.00650995 </i>
    <i name="hartreedc"> -16284.10657013 </i>
    <i name="XCdc">    125.17003408 </i>
    <i name="pawpsdc">   2443.97417644 </i>
    <i name="pawaedc">  -2404.84435901 </i>
    <i name="eentropy">     -0.00119790 </i>
    <i name="bandstr">   -615.63277121 </i>
    <i name="atom">   3688.31848598 </i>
    <i name="e_fr_energy">    -34.96258918 </i>
    <i name="e_wo_entrp">    -34.96139129 </i>
    <i name="e_0_energy">    -34.96218988 </i>
   </energy>
  </scstep>
  <structure>
   <crystal>
    <varray name="basis" >
     <v>       3.19031700       0.00000000       0.00000000 </v>
     <v>      -1.59515800       2.76289700       0.00000000 </v>
     <v>       0.00000000       0.00000000      23.14049200 </v>
    </varray>
    <i name="volume">    203.97226633 </i>
    <varray name="rec_basis" >
     <v>       0.31344848       0.18096941       0.00000000 </v>
     <v>       0.00000000       0.36193894       0.00000000 </v>
     <v>       0.00000000       0.00000000       0.04321429 </v>
    </varray>
   </crystal>
   <varray name="positions" >
    <v>       0.66666700       0.33333300       0.06785900 </v>
    <v>       0.33333300       0.66666700       0.00000000 </v>
    <v>       0.33333300       0.66666700       0.13571500 </v>
    <v>       0.66666700       0.33333300       0.27919800 </v>
    <v>       0.33333300       0.66666700       0.21134000 </v>
    <v>       0.33333300       0.66666700       0.34705400 </v>
   </varray>
  </structure>
  <varray name="forces" >
   <v>       0.00000000       0.00000000      -1.39679600 </v>
   <v>      -0.00000000       0.00000000       0.03916323 </v>
   <v>      -0.00000000       0.00000000      -7.25821765 </v>
   <v>       0.00000000      -0.00000000       1.39789698 </v>
   <v>       0.00000000      -0.00000000       7.25089363 </v>
   <v>       0.00000000      -0.00000000      -0.03294020 </v>
  </varray>
  <varray name="stress" >
   <v>      37.37598072       0.00000676       0.00000000 </v>
   <v>       0.00000676      37.37601946      -0.00000000 </v>
   <v>       0.00000000      -0.00000000     150.34860972 </v>
  </varray>
  <energy>
   <i name="e_fr_energy">    -34.96258918 </i>
   <i name="e_wo_entrp">    -34.96218988 </i>
   <i name="e_0_energy">     -0.00119790 </i>
  </energy>
  <time name="totalsc">  520.47  521.60</time>
  <eigenvalues>
   <array>
    <dimension dim="1">band</dimension>
    <dimension dim="2">kpoint</dimension>
    <dimension dim="3">spin</dimension>
    <field>eigene</field>
    <field>occ</field>
    <set>
     <set comment="spin 1">
      <set comment="kpoint 1">
       <r>  -34.7133    1.0000 </r>
       <r>  -34.7105    1.0000 </r>
       <r>  -34.3958    1.0000 </r>
       <r>  -34.3958    1.0000 </r>
       <r>  -34.3957    1.0000 </r>
       <r>  -34.3957    1.0000 </r>
       <r>  -18.5831    1.0000 </r>
       <r>  -13.7533    1.0000 </r>
       <r>  -13.2187    1.0000 </r>
       <r>  -12.1768    1.0000 </r>
       <r>   -8.2113    1.0000 </r>
       <r>   -4.5773    1.0000 </r>
       <r>   -4.0652    1.0000 </r>
       <r>   -4.0652    1.0000 </r>
       <r>   -3.5028    1.0000 </r>
       <r>   -2.5723    1.0000 </r>
       <r>   -2.5723    1.0000 </r>
       <r>   -1.9434    1.0000 </r>
       <r>   -1.9434    1.0000 </r>
       <r>   -1.4438    1.0000 </r>
       <r>   -1.4438    1.0000 </r>
       <r>   -0.6141    1.0000 </r>
       <r>   -0.5323    1.0000 </r>
       <r>    0.6631    1.0000 </r>
       <r>    0.6631    1.0000 </r>
       <r>    2.8196   -0.0000 </r>
       <r>    2.8196   -0.0000 </r>
       <r>    2.8847   -0.0000 </r>
       <r>    2.8847   -0.0000 </r>
       <r>    3.5294   -0.0000 </r>
       <r>    3.5294   -0.0000 </r>
       <r>    4.4879    0.0000 </r>
       <r>    5.0880    0.0000 </r>
       <r>    5.5557    0.0000 </r>
       <r>    5.5935    0.0000 </r>
       <r>    6.6245    0.0000 </r>
      </set>
      <set comment="kpoint 2">
       <r>  -34.7089    1.0000 </r>
       <r>  -34.7062    1.0000 </r>
       <r>  -34.4181    1.0000 </r>
       <r>  -34.4179    1.0000 </r>
       <r>  -34.4008    1.0000 </r>
       <r>  -34.4007    1.0000 </r>
       <r>  -18.5312    1.0000 </r>
       <r>  -13.6651    1.0000 </r>
       <r>  -13.1528    1.0000 </r>
       <r>  -12.1506    1.0000 </r>
       <r>   -8.1686    1.0000 </r>
       <r>   -4.4991    1.0000 </r>
       <r>   -4.4307    1.0000 </r>
       <r>   -4.1100    1.0000 </r>
       <r>   -3.5044    1.0000 </r>
       <r>   -2.7608    1.0000 </r>
       <r>   -2.4833    1.0000 </r>
       <r>   -2.1096    1.0000 </r>
       <r>   -1.9623    1.0000 </r>
       <r>   -1.6767    1.0000 </r>
       <r>   -1.5782    1.0000 </r>
       <r>   -0.5099    1.0000 </r>
       <r>   -0.4688    1.0000 </r>
       <r>    0.6977    1.0000 </r>
       <r>    0.7258    1.0000 </r>
       <r>    2.6193   -0.0000 </r>
       <r>    2.7252   -0.0000 </r>
       <r>    2.8628   -0.0000 </r>
       <r>    2.9571   -0.0000 </r>
       <r>    3.2472   -0.0000 </r>
       <r>    3.5275   -0.0000 </r>
       <r>    4.8633    0.0000 </r>
       <r>    5.2490    0.0000 </r>
       <r>    5.6922    0.0000 </r>
       <r>    5.7204    0.0000 </r>
       <r>    7.0854    0.0000 </r>
      </set>
      <set comment="kpoint 3">
       <r>  -34.6966    1.0000 </r>
       <r>  -34.6942    1.0000 </r>
       <r>  -34.4793    1.0000 </r>
       <r>  -34.4791    1.0000 </r>
       <r>  -34.4147    1.0000 </r>
       <r>  -34.4147    1.0000 </r>
       <r>  -18.3836    1.0000 </r>
       <r>  -13.4133    1.0000 </r>
       <r>  -12.9650    1.0000 </r>
       <r>  -12.0761    1.0000 </r>
       <r>   -8.0606    1.0000 </r>
       <r>   -5.2617    1.0000 </r>
       <r>   -4.3309    1.0000 </r>
       <r>   -4.2530    1.0000 </r>
       <r>   -3.5797    1.0000 </r>
       <r>   -3.1888    1.0000 </r>
       <r>   -2.4594    1.0000 </r>
       <r>   -2.2519    1.0000 </r>
       <r>   -2.1369    1.0000 </r>
       <r>   -1.9713    1.0000 </r>
       <r>   -1.8842    1.0000 </r>
       <r>   -0.4873    1.0000 </r>
       <r>   -0.4811    1.0000 </r>
       <r>    0.7799    1.0000 </r>
       <r>    0.8794    1.0000 </r>
       <r>    2.3362   -0.0000 </r>
       <r>    2.3587   -0.0000 </r>
       <r>    2.8579   -0.0000 </r>
       <r>    2.9143   -0.0000 </r>
       <r>    2.9900   -0.0000 </r>
       <r>    3.7399   -0.0000 </r>
       <r>    5.5006    0.0000 </r>
       <r>    5.6774    0.0000 </r>
       <r>    6.0651    0.0000 </r>
       <r>    6.0872    0.0000 </r>
       <r>    7.4317    0.0000 </r>
      </set>
      <set comment="kpoint 4">
       <r>  -34.6793    1.0000 </r>
       <r>  -34.6772    1.0000 </r>
       <r>  -34.5645    1.0000 </r>
       <r>  -34.5642    1.0000 </r>
       <r>  -34.4343    1.0000 </r>
       <r>  -34.4342    1.0000 </r>
       <r>  -18.1639    1.0000 </r>
       <r>  -13.0362    1.0000 </r>
       <r>  -12.6850    1.0000 </r>
       <r>  -11.9654    1.0000 </r>
       <r>   -7.9386    1.0000 </r>
       <r>   -6.2258    1.0000 </r>
       <r>   -4.4787    1.0000 </r>
       <r>   -4.3711    1.0000 </r>
       <r>   -3.8031    1.0000 </r>
       <r>   -3.5113    1.0000 </r>
       <r>   -2.7323    1.0000 </r>
       <r>   -2.5958    1.0000 </r>
       <r>   -2.3571    1.0000 </r>
       <r>   -1.9362    1.0000 </r>
       <r>   -1.7933    1.0000 </r>
       <r>   -0.7641    1.0000 </r>
       <r>   -0.6946    1.0000 </r>
       <r>    0.9347    1.0000 </r>
       <r>    1.0726    1.0001 </r>
       <r>    1.8777   -0.0000 </r>
       <r>    2.4544   -0.0000 </r>
       <r>    2.7048   -0.0000 </r>
       <r>    2.8565   -0.0000 </r>
       <r>    3.1473   -0.0000 </r>
       <r>    4.1488    0.0000 </r>
       <r>    5.6572    0.0000 </r>
       <r>    6.0462    0.0000 </r>
       <r>    6.5856    0.0000 </r>
       <r>    6.6133    0.0000 </r>
       <r>    7.8405    0.0000 </r>
      </set>
      <set comment="kpoint 5">
       <r>  -34.6619    1.0000 </r>
       <r>  -34.6600    1.0000 </r>
       <r>  -34.6526    1.0000 </r>
       <r>  -34.6523    1.0000 </r>
       <r>  -34.4550    1.0000 </r>
       <r>  -34.4549    1.0000 </r>
       <r>  -17.9129    1.0000 </r>
       <r>  -12.5994    1.0000 </r>
       <r>  -12.3628    1.0000 </r>
       <r>  -11.8393    1.0000 </r>
       <r>   -7.8654    1.0000 </r>
       <r>   -7.1032    1.0000 </r>
       <r>   -4.7683    1.0000 </r>
       <r>   -4.7240    1.0000 </r>
       <r>   -4.1649    1.0000 </r>
       <r>   -3.7538    1.0000 </r>
       <r>   -2.8829    1.0000 </r>
       <r>   -2.8378    1.0000 </r>
       <r>   -2.6972    1.0000 </r>
       <r>   -1.9044    1.0000 </r>
       <r>   -1.3907    1.0000 </r>
       <r>   -1.0507    1.0000 </r>
       <r>   -0.9479    1.0000 </r>
       <r>    1.2356    1.0298 </r>
       <r>    1.3656    0.6255 </r>
       <r>    1.6995   -0.0000 </r>
       <r>    2.5245   -0.0000 </r>
       <r>    2.7832   -0.0000 </r>
       <r>    3.0790   -0.0000 </r>
       <r>    3.2475   -0.0000 </r>
       <r>    4.5190    0.0000 </r>
       <r>    5.6470    0.0000 </r>
       <r>    5.6861    0.0000 </r>
       <r>    7.0260    0.0000 </r>
       <r>    7.2038    0.0000 </r>
       <r>    7.4215    0.0000 </r>
      </set>
      <set comment="kpoint 6">
       <r>  -34.7267    1.0000 </r>
       <r>  -34.7261    1.0000 </r>
       <r>  -34.6452    1.0000 </r>
       <r>  -34.6439    1.0000 </r>
       <r>  -34.4721    1.0000 </r>
       <r>  -34.4720    1.0000 </r>
       <r>  -17.6876    1.0000 </r>
       <r>  -12.1987    1.0000 </r>
       <r>  -12.0699    1.0000 </r>
       <r>  -11.7260    1.0000 </r>
       <r>   -7.9743    1.0000 </r>
       <r>   -7.6415    1.0000 </r>
       <r>   -5.1703    1.0000 </r>
       <r>   -4.9222    1.0000 </r>
       <r>   -4.5013    1.0000 </r>
       <r>   -4.1206    1.0000 </r>
       <r>   -3.0900    1.0000 </r>
       <r>   -2.9918    1.0000 </r>
       <r>   -2.9544    1.0000 </r>
       <r>   -1.9070    1.0000 </r>
       <r>   -1.0548    1.0000 </r>
       <r>   -1.0445    1.0000 </r>
       <r>   -0.9928    1.0000 </r>
       <r>    1.6554   -0.0004 </r>
       <r>    1.7739   -0.0000 </r>
       <r>    1.9292   -0.0000 </r>
       <r>    2.4456   -0.0000 </r>
       <r>    3.0739   -0.0000 </r>
       <r>    3.2496   -0.0000 </r>
       <r>    3.2819   -0.0000 </r>
       <r>    4.7623    0.0000 </r>
       <r>    5.1283    0.0000 </r>
       <r>    5.4265    0.0000 </r>
       <r>    6.6327    0.0000 </r>
       <r>    7.6407    0.0000 </r>
       <r>    7.9213    0.0000 </r>
      </set>
      <set comment="kpoint 7">
       <r>  -34.7674    1.0000 </r>
       <r>  -34.7668    1.0000 </r>
       <r>  -34.6365    1.0000 </r>
       <r>  -34.6354    1.0000 </r>
       <r>  -34.4817    1.0000 </r>
       <r>  -34.4816    1.0000 </r>
       <r>  -17.5519    1.0000 </r>
       <r>  -11.9530    1.0000 </r>
       <r>  -11.8911    1.0000 </r>
       <r>  -11.6563    1.0000 </r>
       <r>   -8.2604    1.0000 </r>
       <r>   -7.7244    1.0000 </r>
       <r>   -5.4066    1.0000 </r>
       <r>   -5.0309    1.0000 </r>
       <r>   -4.6953    1.0000 </r>
       <r>   -4.3673    1.0000 </r>
       <r>   -3.2690    1.0000 </r>
       <r>   -3.1431    1.0000 </r>
       <r>   -3.0897    1.0000 </r>
       <r>   -1.9217    1.0000 </r>
       <r>   -0.9314    1.0000 </r>
       <r>   -0.9296    1.0000 </r>
       <r>   -0.8525    1.0000 </r>
       <r>    2.0048   -0.0000 </r>
       <r>    2.1778   -0.0000 </r>
       <r>    2.3750   -0.0000 </r>
       <r>    2.4416   -0.0000 </r>
       <r>    3.1872   -0.0000 </r>
       <r>    3.2159   -0.0000 </r>
       <r>    3.3193   -0.0000 </r>
       <r>    4.5939    0.0000 </r>
       <r>    4.8736    0.0000 </r>
       <r>    5.1026    0.0000 </r>
       <r>    6.3712    0.0000 </r>
       <r>    7.4256    0.0000 </r>
       <r>    8.2556    0.0000 </r>
      </set>
      <set comment="kpoint 8">
       <r>  -34.7006    1.0000 </r>
       <r>  -34.6980    1.0000 </r>
       <r>  -34.4588    1.0000 </r>
       <r>  -34.4587    1.0000 </r>
       <r>  -34.4113    1.0000 </r>
       <r>  -34.4112    1.0000 </r>
       <r>  -18.4315    1.0000 </r>
       <r>  -13.4950    1.0000 </r>
       <r>  -13.0259    1.0000 </r>
       <r>  -12.1002    1.0000 </r>
       <r>   -8.0930    1.0000 </r>
       <r>   -4.9946    1.0000 </r>
       <r>   -4.3705    1.0000 </r>
       <r>   -4.2397    1.0000 </r>
       <r>   -3.5353    1.0000 </r>
       <r>   -3.0677    1.0000 </r>
       <r>   -2.3727    1.0000 </r>
       <r>   -2.3246    1.0000 </r>
       <r>   -1.9849    1.0000 </r>
       <r>   -1.9700    1.0000 </r>
       <r>   -1.8321    1.0000 </r>
       <r>   -0.4475    1.0000 </r>
       <r>   -0.4456    1.0000 </r>
       <r>    0.7039    1.0000 </r>
       <r>    0.8855    1.0000 </r>
       <r>    2.3859   -0.0000 </r>
       <r>    2.4572   -0.0000 </r>
       <r>    2.9108   -0.0000 </r>
       <r>    2.9576   -0.0000 </r>
       <r>    2.9625   -0.0000 </r>
       <r>    3.6414   -0.0000 </r>
       <r>    5.4527    0.0000 </r>
       <r>    5.4814    0.0000 </r>
       <r>    5.9486    0.0000 </r>
       <r>    5.9546    0.0000 </r>
       <r>    7.3283    0.0000 </r>
      </set>
      <set comment="kpoint 9">
       <r>  -34.6857    1.0000 </r>
       <r>  -34.6835    1.0000 </r>
       <r>  -34.5295    1.0000 </r>
       <r>  -34.5293    1.0000 </r>
       <r>  -34.4305    1.0000 </r>
       <r>  -34.4304    1.0000 </r>
       <r>  -18.2474    1.0000 </r>
       <r>  -13.1800    1.0000 </r>
       <r>  -12.7914    1.0000 </r>
       <r>  -12.0069    1.0000 </r>
       <r>   -7.9766    1.0000 </r>
       <r>   -5.8354    1.0000 </r>
       <r>   -4.4905    1.0000 </r>
       <r>   -4.2770    1.0000 </r>
       <r>   -3.6712    1.0000 </r>
       <r>   -3.4296    1.0000 </r>
       <r>   -2.6821    1.0000 </r>
       <r>   -2.5339    1.0000 </r>
       <r>   -2.1848    1.0000 </r>
       <r>   -1.9506    1.0000 </r>
       <r>   -1.9453    1.0000 </r>
       <r>   -0.6100    1.0000 </r>
       <r>   -0.5454    1.0000 </r>
       <r>    0.7437    1.0000 </r>
       <r>    1.1314    1.0012 </r>
       <r>    2.0381   -0.0000 </r>
       <r>    2.3014   -0.0000 </r>
       <r>    2.6784   -0.0000 </r>
       <r>    2.8370   -0.0000 </r>
       <r>    3.1368   -0.0000 </r>
       <r>    3.9859   -0.0000 </r>
       <r>    5.6733    0.0000 </r>
       <r>    6.1585    0.0000 </r>
       <r>    6.3916    0.0000 </r>
       <r>    6.5252    0.0000 </r>
       <r>    7.7186    0.0000 </r>
      </set>
      <set comment="kpoint 10">
       <r>  -34.6679    1.0000 </r>
       <r>  -34.6660    1.0000 </r>
       <r>  -34.6134    1.0000 </r>
       <r>  -34.6131    1.0000 </r>
       <r>  -34.4538    1.0000 </r>
       <r>  -34.4537    1.0000 </r>
       <r>  -18.0110    1.0000 </r>
       <r>  -12.7709    1.0000 </r>
       <r>  -12.4882    1.0000 </r>
       <r>  -11.8866    1.0000 </r>
       <r>   -7.8746    1.0000 </r>
       <r>   -6.7123    1.0000 </r>
       <r>   -4.7864    1.0000 </r>
       <r>   -4.5388    1.0000 </r>
       <r>   -3.9847    1.0000 </r>
       <r>   -3.5984    1.0000 </r>
       <r>   -3.0226    1.0000 </r>
       <r>   -2.8303    1.0000 </r>
       <r>   -2.3734    1.0000 </r>
       <r>   -1.9263    1.0000 </r>
       <r>   -1.6645    1.0000 </r>
       <r>   -0.9356    1.0000 </r>
       <r>   -0.7922    1.0000 </r>
       <r>    0.9213    1.0000 </r>
       <r>    1.4321    0.1221 </r>
       <r>    1.6895   -0.0001 </r>
       <r>    2.5198   -0.0000 </r>
       <r>    2.5711   -0.0000 </r>
       <r>    2.9207   -0.0000 </r>
       <r>    3.3128   -0.0000 </r>
       <r>    4.3511    0.0000 </r>
       <r>    5.7770    0.0000 </r>
       <r>    6.1881    0.0000 </r>
       <r>    6.9248    0.0000 </r>
       <r>    6.9767    0.0000 </r>
       <r>    7.6073    0.0000 </r>
      </set>
      <set comment="kpoint 11">
       <r>  -34.6918    1.0000 </r>
       <r>  -34.6912    1.0000 </r>
       <r>  -34.6506    1.0000 </r>
       <r>  -34.6491    1.0000 </r>
       <r>  -34.4756    1.0000 </r>
       <r>  -34.4755    1.0000 </r>
       <r>  -17.7705    1.0000 </r>
       <r>  -12.3475    1.0000 </r>
       <r>  -12.1764    1.0000 </r>
       <r>  -11.7635    1.0000 </r>
       <r>   -7.8579    1.0000 </r>
       <r>   -7.4232    1.0000 </r>
       <r>   -5.0700    1.0000 </r>
       <r>   -4.9443    1.0000 </r>
       <r>   -4.3234    1.0000 </r>
       <r>   -3.9902    1.0000 </r>
       <r>   -3.1694    1.0000 </r>
       <r>   -2.9591    1.0000 </r>
       <r>   -2.5753    1.0000 </r>
       <r>   -1.9820    1.0000 </r>
       <r>   -1.4681    1.0000 </r>
       <r>   -1.0696    1.0000 </r>
       <r>   -0.8335    1.0000 </r>
       <r>    1.2894    1.0134 </r>
       <r>    1.6157   -0.0022 </r>
       <r>    1.7952   -0.0000 </r>
       <r>    2.5784   -0.0000 </r>
       <r>    2.8179   -0.0000 </r>
       <r>    3.1445   -0.0000 </r>
       <r>    3.4012   -0.0000 </r>
       <r>    4.6002    0.0000 </r>
       <r>    5.6782    0.0000 </r>
       <r>    5.6944    0.0000 </r>
       <r>    6.8965    0.0000 </r>
       <r>    7.5824    0.0000 </r>
       <r>    7.6995    0.0000 </r>
      </set>
      <set comment="kpoint 12">
       <r>  -34.7463    1.0000 </r>
       <r>  -34.7457    1.0000 </r>
       <r>  -34.6387    1.0000 </r>
       <r>  -34.6374    1.0000 </r>
       <r>  -34.4911    1.0000 </r>
       <r>  -34.4909    1.0000 </r>
       <r>  -17.5870    1.0000 </r>
       <r>  -12.0178    1.0000 </r>
       <r>  -11.9349    1.0000 </r>
       <r>  -11.6679    1.0000 </r>
       <r>   -8.0958    1.0000 </r>
       <r>   -7.6780    1.0000 </r>
       <r>   -5.2835    1.0000 </r>
       <r>   -5.2453    1.0000 </r>
       <r>   -4.5418    1.0000 </r>
       <r>   -4.3692    1.0000 </r>
       <r>   -3.2631    1.0000 </r>
       <r>   -3.1581    1.0000 </r>
       <r>   -2.7872    1.0000 </r>
       <r>   -2.0685    1.0000 </r>
       <r>   -1.3529    1.0000 </r>
       <r>   -0.9330    1.0000 </r>
       <r>   -0.6787    1.0000 </r>
       <r>    1.7515   -0.0000 </r>
       <r>    1.8269   -0.0000 </r>
       <r>    2.1424   -0.0000 </r>
       <r>    2.6325   -0.0000 </r>
       <r>    3.0022   -0.0000 </r>
       <r>    3.3525   -0.0000 </r>
       <r>    3.3905   -0.0000 </r>
       <r>    4.7089    0.0000 </r>
       <r>    5.0928    0.0000 </r>
       <r>    5.4278    0.0000 </r>
       <r>    6.5550    0.0000 </r>
       <r>    7.7641    0.0000 </r>
       <r>    8.2753    0.0000 </r>
      </set>
      <set comment="kpoint 13">
       <r>  -34.7659    1.0000 </r>
       <r>  -34.7653    1.0000 </r>
       <r>  -34.6343    1.0000 </r>
       <r>  -34.6332    1.0000 </r>
       <r>  -34.4966    1.0000 </r>
       <r>  -34.4965    1.0000 </r>
       <r>  -17.5178    1.0000 </r>
       <r>  -11.8920    1.0000 </r>
       <r>  -11.8425    1.0000 </r>
       <r>  -11.6305    1.0000 </r>
       <r>   -8.2521    1.0000 </r>
       <r>   -7.7021    1.0000 </r>
       <r>   -5.3645    1.0000 </r>
       <r>   -5.3550    1.0000 </r>
       <r>   -4.6122    1.0000 </r>
       <r>   -4.5126    1.0000 </r>
       <r>   -3.3208    1.0000 </r>
       <r>   -3.2568    1.0000 </r>
       <r>   -2.8687    1.0000 </r>
       <r>   -2.1030    1.0000 </r>
       <r>   -1.3082    1.0000 </r>
       <r>   -0.8343    1.0000 </r>
       <r>   -0.6006    1.0000 </r>
       <r>    2.0185   -0.0000 </r>
       <r>    2.0385   -0.0000 </r>
       <r>    2.2867   -0.0000 </r>
       <r>    2.5875   -0.0000 </r>
       <r>    3.0399   -0.0000 </r>
       <r>    3.3723   -0.0000 </r>
       <r>    3.4779   -0.0000 </r>
       <r>    4.7254    0.0000 </r>
       <r>    4.7682    0.0000 </r>
       <r>    5.2397    0.0000 </r>
       <r>    6.4608    0.0000 </r>
       <r>    7.6279    0.0000 </r>
       <r>    8.5062    0.0000 </r>
      </set>
      <set comment="kpoint 14">
       <r>  -34.6704    1.0000 </r>
       <r>  -34.6685    1.0000 </r>
       <r>  -34.5944    1.0000 </r>
       <r>  -34.5941    1.0000 </r>
       <r>  -34.4579    1.0000 </r>
       <r>  -34.4578    1.0000 </r>
       <r>  -18.0458    1.0000 </r>
       <r>  -12.8314    1.0000 </r>
       <r>  -12.5322    1.0000 </r>
       <r>  -11.9025    1.0000 </r>
       <r>   -7.8771    1.0000 </r>
       <r>   -6.5063    1.0000 </r>
       <r>   -4.9085    1.0000 </r>
       <r>   -4.4181    1.0000 </r>
       <r>   -3.9028    1.0000 </r>
       <r>   -3.5132    1.0000 </r>
       <r>   -3.1592    1.0000 </r>
       <r>   -2.8352    1.0000 </r>
       <r>   -2.2335    1.0000 </r>
       <r>   -1.9294    1.0000 </r>
       <r>   -1.8171    1.0000 </r>
       <r>   -0.8599    1.0000 </r>
       <r>   -0.6927    1.0000 </r>
       <r>    0.7949    1.0000 </r>
       <r>    1.4917   -0.0331 </r>
       <r>    1.7116   -0.0000 </r>
       <r>    2.3609   -0.0000 </r>
       <r>    2.5399   -0.0000 </r>
       <r>    2.8330   -0.0000 </r>
       <r>    3.3738   -0.0000 </r>
       <r>    4.2813    0.0000 </r>
       <r>    5.8698    0.0000 </r>
       <r>    6.7512    0.0000 </r>
       <r>    6.9044    0.0000 </r>
       <r>    6.9903    0.0000 </r>
       <r>    7.9350    0.0000 </r>
      </set>
      <set comment="kpoint 15">
       <r>  -34.6614    1.0000 </r>
       <r>  -34.6605    1.0000 </r>
       <r>  -34.6527    1.0000 </r>
       <r>  -34.6515    1.0000 </r>
       <r>  -34.4895    1.0000 </r>
       <r>  -34.4894    1.0000 </r>
       <r>  -17.8171    1.0000 </r>
       <r>  -12.4305    1.0000 </r>
       <r>  -12.2344    1.0000 </r>
       <r>  -11.7809    1.0000 </r>
       <r>   -7.8107    1.0000 </r>
       <r>   -7.1402    1.0000 </r>
       <r>   -5.3563    1.0000 </r>
       <r>   -4.7213    1.0000 </r>
       <r>   -4.2060    1.0000 </r>
       <r>   -3.9108    1.0000 </r>
       <r>   -3.3175    1.0000 </r>
       <r>   -2.9048    1.0000 </r>
       <r>   -2.2702    1.0000 </r>
       <r>   -2.0201    1.0000 </r>
       <r>   -1.8768    1.0000 </r>
       <r>   -1.0749    1.0000 </r>
       <r>   -0.7330    1.0000 </r>
       <r>    1.0620    1.0000 </r>
       <r>    1.4432    0.0689 </r>
       <r>    1.8383   -0.0000 </r>
       <r>    2.5914   -0.0000 </r>
       <r>    2.6344   -0.0000 </r>
       <r>    2.9642   -0.0000 </r>
       <r>    3.5816   -0.0000 </r>
       <r>    4.4921    0.0000 </r>
       <r>    5.9515    0.0000 </r>
       <r>    6.5648    0.0000 </r>
       <r>    7.1870    0.0000 </r>
       <r>    7.5234    0.0000 </r>
       <r>    7.5846    0.0000 </r>
      </set>
      <set comment="kpoint 16">
       <r>  -34.7132    1.0000 </r>
       <r>  -34.7127    1.0000 </r>
       <r>  -34.6401    1.0000 </r>
       <r>  -34.6389    1.0000 </r>
       <r>  -34.5166    1.0000 </r>
       <r>  -34.5164    1.0000 </r>
       <r>  -17.6136    1.0000 </r>
       <r>  -12.0674    1.0000 </r>
       <r>  -11.9646    1.0000 </r>
       <r>  -11.6688    1.0000 </r>
       <r>   -7.8753    1.0000 </r>
       <r>   -7.5476    1.0000 </r>
       <r>   -5.7270    1.0000 </r>
       <r>   -4.9748    1.0000 </r>
       <r>   -4.4411    1.0000 </r>
       <r>   -4.4222    1.0000 </r>
       <r>   -3.2639    1.0000 </r>
       <r>   -3.0406    1.0000 </r>
       <r>   -2.5125    1.0000 </r>
       <r>   -2.2442    1.0000 </r>
       <r>   -1.9068    1.0000 </r>
       <r>   -0.9705    1.0000 </r>
       <r>   -0.5565    1.0000 </r>
       <r>    1.3656    0.6258 </r>
       <r>    1.4747   -0.0178 </r>
       <r>    2.0891   -0.0000 </r>
       <r>    2.7412   -0.0000 </r>
       <r>    2.8324   -0.0000 </r>
       <r>    3.2165   -0.0000 </r>
       <r>    3.7052   -0.0000 </r>
       <r>    4.5736    0.0000 </r>
       <r>    5.8917    0.0000 </r>
       <r>    5.9664    0.0000 </r>
       <r>    6.9523    0.0000 </r>
       <r>    8.0292    0.0000 </r>
       <r>    8.1026    0.0000 </r>
      </set>
      <set comment="kpoint 17">
       <r>  -34.7426    1.0000 </r>
       <r>  -34.7420    1.0000 </r>
       <r>  -34.6325    1.0000 </r>
       <r>  -34.6314    1.0000 </r>
       <r>  -34.5320    1.0000 </r>
       <r>  -34.5319    1.0000 </r>
       <r>  -17.4920    1.0000 </r>
       <r>  -11.8483    1.0000 </r>
       <r>  -11.8009    1.0000 </r>
       <r>  -11.5984    1.0000 </r>
       <r>   -8.0675    1.0000 </r>
       <r>   -7.6295    1.0000 </r>
       <r>   -5.9369    1.0000 </r>
       <r>   -5.1010    1.0000 </r>
       <r>   -4.7432    1.0000 </r>
       <r>   -4.5138    1.0000 </r>
       <r>   -3.3350    1.0000 </r>
       <r>   -3.1905    1.0000 </r>
       <r>   -2.6543    1.0000 </r>
       <r>   -2.4063    1.0000 </r>
       <r>   -1.9083    1.0000 </r>
       <r>   -0.7502    1.0000 </r>
       <r>   -0.3881    1.0000 </r>
       <r>    1.5410   -0.0229 </r>
       <r>    1.8513   -0.0000 </r>
       <r>    2.1613   -0.0000 </r>
       <r>    2.4940   -0.0000 </r>
       <r>    2.9515   -0.0000 </r>
       <r>    3.6406   -0.0000 </r>
       <r>    3.7682   -0.0000 </r>
       <r>    4.5096    0.0000 </r>
       <r>    5.4368    0.0000 </r>
       <r>    5.7923    0.0000 </r>
       <r>    6.8765    0.0000 </r>
       <r>    7.9898    0.0000 </r>
       <r>    8.0893    0.0000 </r>
      </set>
      <set comment="kpoint 18">
       <r>  -34.6944    1.0000 </r>
       <r>  -34.6938    1.0000 </r>
       <r>  -34.6407    1.0000 </r>
       <r>  -34.6394    1.0000 </r>
       <r>  -34.5328    1.0000 </r>
       <r>  -34.5327    1.0000 </r>
       <r>  -17.6234    1.0000 </r>
       <r>  -12.0860    1.0000 </r>
       <r>  -11.9751    1.0000 </r>
       <r>  -11.6676    1.0000 </r>
       <r>   -7.7913    1.0000 </r>
       <r>   -7.4227    1.0000 </r>
       <r>   -5.9725    1.0000 </r>
       <r>   -4.8258    1.0000 </r>
       <r>   -4.4831    1.0000 </r>
       <r>   -4.3795    1.0000 </r>
       <r>   -3.2073    1.0000 </r>
       <r>   -3.0292    1.0000 </r>
       <r>   -2.4351    1.0000 </r>
       <r>   -2.2602    1.0000 </r>
       <r>   -2.1807    1.0000 </r>
       <r>   -1.0209    1.0000 </r>
       <r>   -0.5077    1.0000 </r>
       <r>    1.2043    1.0159 </r>
       <r>    1.3703    0.5866 </r>
       <r>    2.0245   -0.0000 </r>
       <r>    2.7735   -0.0000 </r>
       <r>    2.7982   -0.0000 </r>
       <r>    3.1019   -0.0000 </r>
       <r>    3.8710   -0.0000 </r>
       <r>    4.5527    0.0000 </r>
       <r>    6.1139    0.0000 </r>
       <r>    6.4154    0.0000 </r>
       <r>    7.5809    0.0000 </r>
       <r>    8.0104    0.0000 </r>
       <r>    8.1059    0.0000 </r>
      </set>
      <set comment="kpoint 19">
       <r>  -34.7119    1.0000 </r>
       <r>  -34.7114    1.0000 </r>
       <r>  -34.6315    1.0000 </r>
       <r>  -34.6304    1.0000 </r>
       <r>  -34.5699    1.0000 </r>
       <r>  -34.5696    1.0000 </r>
       <r>  -17.4786    1.0000 </r>
       <r>  -11.8266    1.0000 </r>
       <r>  -11.7769    1.0000 </r>
       <r>  -11.5758    1.0000 </r>
       <r>   -7.8320    1.0000 </r>
       <r>   -7.5336    1.0000 </r>
       <r>   -6.4391    1.0000 </r>
       <r>   -4.9122    1.0000 </r>
       <r>   -4.7977    1.0000 </r>
       <r>   -4.4541    1.0000 </r>
       <r>   -3.2132    1.0000 </r>
       <r>   -3.2063    1.0000 </r>
       <r>   -2.7828    1.0000 </r>
       <r>   -2.5175    1.0000 </r>
       <r>   -2.2613    1.0000 </r>
       <r>   -0.7485    1.0000 </r>
       <r>   -0.2012    1.0000 </r>
       <r>    1.1425    1.0019 </r>
       <r>    1.6394   -0.0008 </r>
       <r>    2.0243   -0.0000 </r>
       <r>    2.4281   -0.0000 </r>
       <r>    2.9593   -0.0000 </r>
       <r>    3.5658   -0.0000 </r>
       <r>    4.1653    0.0000 </r>
       <r>    4.4990    0.0000 </r>
       <r>    5.9922    0.0000 </r>
       <r>    6.3386    0.0000 </r>
       <r>    7.4049    0.0000 </r>
       <r>    7.7683    0.0000 </r>
       <r>    8.3055    0.0000 </r>
      </set>
      <set comment="kpoint 20">
       <r>  -34.7165    1.0000 </r>
       <r>  -34.7160    1.0000 </r>
       <r>  -34.6281    1.0000 </r>
       <r>  -34.6271    1.0000 </r>
       <r>  -34.5849    1.0000 </r>
       <r>  -34.5847    1.0000 </r>
       <r>  -17.4246    1.0000 </r>
       <r>  -11.7306    1.0000 </r>
       <r>  -11.7019    1.0000 </r>
       <r>  -11.5387    1.0000 </r>
       <r>   -7.8528    1.0000 </r>
       <r>   -7.5613    1.0000 </r>
       <r>   -6.6133    1.0000 </r>
       <r>   -5.0603    1.0000 </r>
       <r>   -4.7502    1.0000 </r>
       <r>   -4.4633    1.0000 </r>
       <r>   -3.3923    1.0000 </r>
       <r>   -3.3103    1.0000 </r>
       <r>   -2.7316    1.0000 </r>
       <r>   -2.6205    1.0000 </r>
       <r>   -2.3425    1.0000 </r>
       <r>   -0.5788    1.0000 </r>
       <r>   -0.0661    1.0000 </r>
       <r>    1.2736    1.0310 </r>
       <r>    1.7336   -0.0000 </r>
       <r>    1.9786   -0.0000 </r>
       <r>    2.0891   -0.0000 </r>
       <r>    3.0241   -0.0000 </r>
       <r>    3.8787   -0.0000 </r>
       <r>    4.2994    0.0000 </r>
       <r>    4.3688    0.0000 </r>
       <r>    5.7742    0.0000 </r>
       <r>    6.4765    0.0000 </r>
       <r>    7.1734    0.0000 </r>
       <r>    7.8034    0.0000 </r>
       <r>    8.3216    0.0000 </r>
      </set>
      <set comment="kpoint 21">
       <r>  -34.6914    1.0000 </r>
       <r>  -34.6909    1.0000 </r>
       <r>  -34.6265    1.0000 </r>
       <r>  -34.6255    1.0000 </r>
       <r>  -34.6198    1.0000 </r>
       <r>  -34.6196    1.0000 </r>
       <r>  -17.4003    1.0000 </r>
       <r>  -11.6889    1.0000 </r>
       <r>  -11.6655    1.0000 </r>
       <r>  -11.5148    1.0000 </r>
       <r>   -7.6375    1.0000 </r>
       <r>   -7.5065    1.0000 </r>
       <r>   -7.0191    1.0000 </r>
       <r>   -5.1798    1.0000 </r>
       <r>   -4.4604    1.0000 </r>
       <r>   -4.4287    1.0000 </r>
       <r>   -3.5779    1.0000 </r>
       <r>   -3.4110    1.0000 </r>
       <r>   -2.8710    1.0000 </r>
       <r>   -2.6608    1.0000 </r>
       <r>   -2.3839    1.0000 </r>
       <r>   -0.4978    1.0000 </r>
       <r>    0.1393    1.0000 </r>
       <r>    1.1100    1.0004 </r>
       <r>    1.6222   -0.0017 </r>
       <r>    1.8891   -0.0000 </r>
       <r>    1.8929   -0.0000 </r>
       <r>    3.0754   -0.0000 </r>
       <r>    3.9094   -0.0000 </r>
       <r>    4.3750    0.0000 </r>
       <r>    4.5785    0.0000 </r>
       <r>    5.9284    0.0000 </r>
       <r>    6.7654    0.0000 </r>
       <r>    6.8984    0.0000 </r>
       <r>    8.4502    0.0000 </r>
       <r>    8.9148    0.0000 </r>
      </set>
     </set>
     <set comment="spin 2">
      <set comment="kpoint 1">
       <r>  -34.7134    1.0000 </r>
       <r>  -34.7105    1.0000 </r>
       <r>  -34.3958    1.0000 </r>
       <r>  -34.3958    1.0000 </r>
       <r>  -34.3957    1.0000 </r>
       <r>  -34.3957    1.0000 </r>
       <r>  -18.5829    1.0000 </r>
       <r>  -13.7533    1.0000 </r>
       <r>  -13.2187    1.0000 </r>
       <r>  -12.1768    1.0000 </r>
       <r>   -8.2112    1.0000 </r>
       <r>   -4.5774    1.0000 </r>
       <r>   -4.0652    1.0000 </r>
       <r>   -4.0652    1.0000 </r>
       <r>   -3.5028    1.0000 </r>
       <r>   -2.5723    1.0000 </r>
       <r>   -2.5723    1.0000 </r>
       <r>   -1.9434    1.0000 </r>
       <r>   -1.9434    1.0000 </r>
       <r>   -1.4438    1.0000 </r>
       <r>   -1.4438    1.0000 </r>
       <r>   -0.6143    1.0000 </r>
       <r>   -0.5324    1.0000 </r>
       <r>    0.6631    1.0000 </r>
       <r>    0.6631    1.0000 </r>
       <r>    2.8196   -0.0000 </r>
       <r>    2.8196   -0.0000 </r>
       <r>    2.8847   -0.0000 </r>
       <r>    2.8847   -0.0000 </r>
       <r>    3.5294   -0.0000 </r>
       <r>    3.5294   -0.0000 </r>
       <r>    4.4881    0.0000 </r>
       <r>    5.0882    0.0000 </r>
       <r>    5.5582    0.0000 </r>
       <r>    5.6010    0.0000 </r>
       <r>    6.9522    0.0000 </r>
      </set>
      <set comment="kpoint 2">
       <r>  -34.7089    1.0000 </r>
       <r>  -34.7062    1.0000 </r>
       <r>  -34.4181    1.0000 </r>
       <r>  -34.4180    1.0000 </r>
       <r>  -34.4009    1.0000 </r>
       <r>  -34.4008    1.0000 </r>
       <r>  -18.5311    1.0000 </r>
       <r>  -13.6651    1.0000 </r>
       <r>  -13.1529    1.0000 </r>
       <r>  -12.1506    1.0000 </r>
       <r>   -8.1686    1.0000 </r>
       <r>   -4.4991    1.0000 </r>
       <r>   -4.4306    1.0000 </r>
       <r>   -4.1099    1.0000 </r>
       <r>   -3.5045    1.0000 </r>
       <r>   -2.7607    1.0000 </r>
       <r>   -2.4833    1.0000 </r>
       <r>   -2.1096    1.0000 </r>
       <r>   -1.9623    1.0000 </r>
       <r>   -1.6767    1.0000 </r>
       <r>   -1.5782    1.0000 </r>
       <r>   -0.5101    1.0000 </r>
       <r>   -0.4689    1.0000 </r>
       <r>    0.6978    1.0000 </r>
       <r>    0.7258    1.0000 </r>
       <r>    2.6193   -0.0000 </r>
       <r>    2.7251   -0.0000 </r>
       <r>    2.8628   -0.0000 </r>
       <r>    2.9571   -0.0000 </r>
       <r>    3.2472   -0.0000 </r>
       <r>    3.5276   -0.0000 </r>
       <r>    4.8634    0.0000 </r>
       <r>    5.2491    0.0000 </r>
       <r>    5.6909    0.0000 </r>
       <r>    5.7270    0.0000 </r>
       <r>    7.0736    0.0000 </r>
      </set>
      <set comment="kpoint 3">
       <r>  -34.6967    1.0000 </r>
       <r>  -34.6942    1.0000 </r>
       <r>  -34.4793    1.0000 </r>
       <r>  -34.4791    1.0000 </r>
       <r>  -34.4148    1.0000 </r>
       <r>  -34.4147    1.0000 </r>
       <r>  -18.3835    1.0000 </r>
       <r>  -13.4133    1.0000 </r>
       <r>  -12.9651    1.0000 </r>
       <r>  -12.0761    1.0000 </r>
       <r>   -8.0605    1.0000 </r>
       <r>   -5.2616    1.0000 </r>
       <r>   -4.3310    1.0000 </r>
       <r>   -4.2529    1.0000 </r>
       <r>   -3.5798    1.0000 </r>
       <r>   -3.1887    1.0000 </r>
       <r>   -2.4594    1.0000 </r>
       <r>   -2.2518    1.0000 </r>
       <r>   -2.1369    1.0000 </r>
       <r>   -1.9713    1.0000 </r>
       <r>   -1.8842    1.0000 </r>
       <r>   -0.4873    1.0000 </r>
       <r>   -0.4812    1.0000 </r>
       <r>    0.7799    1.0000 </r>
       <r>    0.8794    1.0000 </r>
       <r>    2.3361   -0.0000 </r>
       <r>    2.3586   -0.0000 </r>
       <r>    2.8579   -0.0000 </r>
       <r>    2.9143   -0.0000 </r>
       <r>    2.9899   -0.0000 </r>
       <r>    3.7400   -0.0000 </r>
       <r>    5.5007    0.0000 </r>
       <r>    5.6787    0.0000 </r>
       <r>    6.0721    0.0000 </r>
       <r>    6.0935    0.0000 </r>
       <r>    7.4052    0.0000 </r>
      </set>
      <set comment="kpoint 4">
       <r>  -34.6793    1.0000 </r>
       <r>  -34.6772    1.0000 </r>
       <r>  -34.5645    1.0000 </r>
       <r>  -34.5642    1.0000 </r>
       <r>  -34.4343    1.0000 </r>
       <r>  -34.4342    1.0000 </r>
       <r>  -18.1638    1.0000 </r>
       <r>  -13.0362    1.0000 </r>
       <r>  -12.6851    1.0000 </r>
       <r>  -11.9654    1.0000 </r>
       <r>   -7.9385    1.0000 </r>
       <r>   -6.2257    1.0000 </r>
       <r>   -4.4786    1.0000 </r>
       <r>   -4.3712    1.0000 </r>
       <r>   -3.8032    1.0000 </r>
       <r>   -3.5113    1.0000 </r>
       <r>   -2.7323    1.0000 </r>
       <r>   -2.5958    1.0000 </r>
       <r>   -2.3571    1.0000 </r>
       <r>   -1.9362    1.0000 </r>
       <r>   -1.7933    1.0000 </r>
       <r>   -0.7641    1.0000 </r>
       <r>   -0.6947    1.0000 </r>
       <r>    0.9347    1.0000 </r>
       <r>    1.0726    1.0001 </r>
       <r>    1.8776   -0.0000 </r>
       <r>    2.4543   -0.0000 </r>
       <r>    2.7048   -0.0000 </r>
       <r>    2.8564   -0.0000 </r>
       <r>    3.1472   -0.0000 </r>
       <r>    4.1488    0.0000 </r>
       <r>    5.6572    0.0000 </r>
       <r>    6.0465    0.0000 </r>
       <r>    6.5919    0.0000 </r>
       <r>    6.6157    0.0000 </r>
       <r>    7.8886    0.0000 </r>
      </set>
      <set comment="kpoint 5">
       <r>  -34.6619    1.0000 </r>
       <r>  -34.6600    1.0000 </r>
       <r>  -34.6526    1.0000 </r>
       <r>  -34.6523    1.0000 </r>
       <r>  -34.4550    1.0000 </r>
       <r>  -34.4549    1.0000 </r>
       <r>  -17.9128    1.0000 </r>
       <r>  -12.5994    1.0000 </r>
       <r>  -12.3629    1.0000 </r>
       <r>  -11.8393    1.0000 </r>
       <r>   -7.8653    1.0000 </r>
       <r>   -7.1031    1.0000 </r>
       <r>   -4.7683    1.0000 </r>
       <r>   -4.7239    1.0000 </r>
       <r>   -4.1649    1.0000 </r>
       <r>   -3.7539    1.0000 </r>
       <r>   -2.8830    1.0000 </r>
       <r>   -2.8378    1.0000 </r>
       <r>   -2.6972    1.0000 </r>
       <r>   -1.9045    1.0000 </r>
       <r>   -1.3907    1.0000 </r>
       <r>   -1.0508    1.0000 </r>
       <r>   -0.9479    1.0000 </r>
       <r>    1.2356    1.0298 </r>
       <r>    1.3656    0.6254 </r>
       <r>    1.6995   -0.0000 </r>
       <r>    2.5245   -0.0000 </r>
       <r>    2.7831   -0.0000 </r>
       <r>    3.0789   -0.0000 </r>
       <r>    3.2475   -0.0000 </r>
       <r>    4.5189    0.0000 </r>
       <r>    5.6470    0.0000 </r>
       <r>    5.6862    0.0000 </r>
       <r>    7.0280    0.0000 </r>
       <r>    7.2079    0.0000 </r>
       <r>    7.4731    0.0000 </r>
      </set>
      <set comment="kpoint 6">
       <r>  -34.7267    1.0000 </r>
       <r>  -34.7261    1.0000 </r>
       <r>  -34.6452    1.0000 </r>
       <r>  -34.6439    1.0000 </r>
       <r>  -34.4721    1.0000 </r>
       <r>  -34.4720    1.0000 </r>
       <r>  -17.6875    1.0000 </r>
       <r>  -12.1988    1.0000 </r>
       <r>  -12.0700    1.0000 </r>
       <r>  -11.7259    1.0000 </r>
       <r>   -7.9742    1.0000 </r>
       <r>   -7.6415    1.0000 </r>
       <r>   -5.1703    1.0000 </r>
       <r>   -4.9221    1.0000 </r>
       <r>   -4.5014    1.0000 </r>
       <r>   -4.1206    1.0000 </r>
       <r>   -3.0901    1.0000 </r>
       <r>   -2.9918    1.0000 </r>
       <r>   -2.9544    1.0000 </r>
       <r>   -1.9070    1.0000 </r>
       <r>   -1.0549    1.0000 </r>
       <r>   -1.0445    1.0000 </r>
       <r>   -0.9928    1.0000 </r>
       <r>    1.6554   -0.0004 </r>
       <r>    1.7739   -0.0000 </r>
       <r>    1.9292   -0.0000 </r>
       <r>    2.4456   -0.0000 </r>
       <r>    3.0739   -0.0000 </r>
       <r>    3.2496   -0.0000 </r>
       <r>    3.2818   -0.0000 </r>
       <r>    4.7623    0.0000 </r>
       <r>    5.1284    0.0000 </r>
       <r>    5.4264    0.0000 </r>
       <r>    6.6327    0.0000 </r>
       <r>    7.6397    0.0000 </r>
       <r>    7.9235    0.0000 </r>
      </set>
      <set comment="kpoint 7">
       <r>  -34.7674    1.0000 </r>
       <r>  -34.7668    1.0000 </r>
       <r>  -34.6366    1.0000 </r>
       <r>  -34.6354    1.0000 </r>
       <r>  -34.4817    1.0000 </r>
       <r>  -34.4816    1.0000 </r>
       <r>  -17.5518    1.0000 </r>
       <r>  -11.9530    1.0000 </r>
       <r>  -11.8911    1.0000 </r>
       <r>  -11.6563    1.0000 </r>
       <r>   -8.2603    1.0000 </r>
       <r>   -7.7243    1.0000 </r>
       <r>   -5.4066    1.0000 </r>
       <r>   -5.0308    1.0000 </r>
       <r>   -4.6954    1.0000 </r>
       <r>   -4.3673    1.0000 </r>
       <r>   -3.2691    1.0000 </r>
       <r>   -3.1431    1.0000 </r>
       <r>   -3.0897    1.0000 </r>
       <r>   -1.9217    1.0000 </r>
       <r>   -0.9314    1.0000 </r>
       <r>   -0.9297    1.0000 </r>
       <r>   -0.8525    1.0000 </r>
       <r>    2.0048   -0.0000 </r>
       <r>    2.1778   -0.0000 </r>
       <r>    2.3750   -0.0000 </r>
       <r>    2.4416   -0.0000 </r>
       <r>    3.1871   -0.0000 </r>
       <r>    3.2159   -0.0000 </r>
       <r>    3.3193   -0.0000 </r>
       <r>    4.5940    0.0000 </r>
       <r>    4.8736    0.0000 </r>
       <r>    5.1025    0.0000 </r>
       <r>    6.3711    0.0000 </r>
       <r>    7.4253    0.0000 </r>
       <r>    8.2539    0.0000 </r>
      </set>
      <set comment="kpoint 8">
       <r>  -34.7006    1.0000 </r>
       <r>  -34.6980    1.0000 </r>
       <r>  -34.4589    1.0000 </r>
       <r>  -34.4587    1.0000 </r>
       <r>  -34.4113    1.0000 </r>
       <r>  -34.4112    1.0000 </r>
       <r>  -18.4314    1.0000 </r>
       <r>  -13.4951    1.0000 </r>
       <r>  -13.0260    1.0000 </r>
       <r>  -12.1002    1.0000 </r>
       <r>   -8.0930    1.0000 </r>
       <r>   -4.9946    1.0000 </r>
       <r>   -4.3706    1.0000 </r>
       <r>   -4.2396    1.0000 </r>
       <r>   -3.5354    1.0000 </r>
       <r>   -3.0677    1.0000 </r>
       <r>   -2.3727    1.0000 </r>
       <r>   -2.3245    1.0000 </r>
       <r>   -1.9849    1.0000 </r>
       <r>   -1.9700    1.0000 </r>
       <r>   -1.8321    1.0000 </r>
       <r>   -0.4476    1.0000 </r>
       <r>   -0.4457    1.0000 </r>
       <r>    0.7039    1.0000 </r>
       <r>    0.8855    1.0000 </r>
       <r>    2.3859   -0.0000 </r>
       <r>    2.4571   -0.0000 </r>
       <r>    2.9108   -0.0000 </r>
       <r>    2.9576   -0.0000 </r>
       <r>    2.9625   -0.0000 </r>
       <r>    3.6414   -0.0000 </r>
       <r>    5.4527    0.0000 </r>
       <r>    5.4823    0.0000 </r>
       <r>    5.9550    0.0000 </r>
       <r>    5.9634    0.0000 </r>
       <r>    7.2993    0.0000 </r>
      </set>
      <set comment="kpoint 9">
       <r>  -34.6858    1.0000 </r>
       <r>  -34.6835    1.0000 </r>
       <r>  -34.5296    1.0000 </r>
       <r>  -34.5293    1.0000 </r>
       <r>  -34.4305    1.0000 </r>
       <r>  -34.4305    1.0000 </r>
       <r>  -18.2473    1.0000 </r>
       <r>  -13.1800    1.0000 </r>
       <r>  -12.7915    1.0000 </r>
       <r>  -12.0069    1.0000 </r>
       <r>   -7.9766    1.0000 </r>
       <r>   -5.8353    1.0000 </r>
       <r>   -4.4904    1.0000 </r>
       <r>   -4.2770    1.0000 </r>
       <r>   -3.6713    1.0000 </r>
       <r>   -3.4295    1.0000 </r>
       <r>   -2.6821    1.0000 </r>
       <r>   -2.5339    1.0000 </r>
       <r>   -2.1847    1.0000 </r>
       <r>   -1.9506    1.0000 </r>
       <r>   -1.9453    1.0000 </r>
       <r>   -0.6101    1.0000 </r>
       <r>   -0.5455    1.0000 </r>
       <r>    0.7437    1.0000 </r>
       <r>    1.1314    1.0012 </r>
       <r>    2.0380   -0.0000 </r>
       <r>    2.3013   -0.0000 </r>
       <r>    2.6784   -0.0000 </r>
       <r>    2.8370   -0.0000 </r>
       <r>    3.1367   -0.0000 </r>
       <r>    3.9859   -0.0000 </r>
       <r>    5.6733    0.0000 </r>
       <r>    6.1613    0.0000 </r>
       <r>    6.3986    0.0000 </r>
       <r>    6.5289    0.0000 </r>
       <r>    7.7100    0.0000 </r>
      </set>
      <set comment="kpoint 10">
       <r>  -34.6679    1.0000 </r>
       <r>  -34.6660    1.0000 </r>
       <r>  -34.6135    1.0000 </r>
       <r>  -34.6131    1.0000 </r>
       <r>  -34.4538    1.0000 </r>
       <r>  -34.4537    1.0000 </r>
       <r>  -18.0109    1.0000 </r>
       <r>  -12.7710    1.0000 </r>
       <r>  -12.4883    1.0000 </r>
       <r>  -11.8866    1.0000 </r>
       <r>   -7.8745    1.0000 </r>
       <r>   -6.7122    1.0000 </r>
       <r>   -4.7863    1.0000 </r>
       <r>   -4.5388    1.0000 </r>
       <r>   -3.9848    1.0000 </r>
       <r>   -3.5984    1.0000 </r>
       <r>   -3.0226    1.0000 </r>
       <r>   -2.8303    1.0000 </r>
       <r>   -2.3734    1.0000 </r>
       <r>   -1.9264    1.0000 </r>
       <r>   -1.6645    1.0000 </r>
       <r>   -0.9356    1.0000 </r>
       <r>   -0.7923    1.0000 </r>
       <r>    0.9214    1.0000 </r>
       <r>    1.4321    0.1221 </r>
       <r>    1.6895   -0.0001 </r>
       <r>    2.5197   -0.0000 </r>
       <r>    2.5710   -0.0000 </r>
       <r>    2.9207   -0.0000 </r>
       <r>    3.3128   -0.0000 </r>
       <r>    4.3511    0.0000 </r>
       <r>    5.7770    0.0000 </r>
       <r>    6.1882    0.0000 </r>
       <r>    6.9264    0.0000 </r>
       <r>    6.9826    0.0000 </r>
       <r>    8.0887    0.0000 </r>
      </set>
      <set comment="kpoint 11">
       <r>  -34.6918    1.0000 </r>
       <r>  -34.6913    1.0000 </r>
       <r>  -34.6506    1.0000 </r>
       <r>  -34.6492    1.0000 </r>
       <r>  -34.4757    1.0000 </r>
       <r>  -34.4755    1.0000 </r>
       <r>  -17.7704    1.0000 </r>
       <r>  -12.3475    1.0000 </r>
       <r>  -12.1765    1.0000 </r>
       <r>  -11.7635    1.0000 </r>
       <r>   -7.8578    1.0000 </r>
       <r>   -7.4231    1.0000 </r>
       <r>   -5.0699    1.0000 </r>
       <r>   -4.9443    1.0000 </r>
       <r>   -4.3234    1.0000 </r>
       <r>   -3.9902    1.0000 </r>
       <r>   -3.1695    1.0000 </r>
       <r>   -2.9592    1.0000 </r>
       <r>   -2.5753    1.0000 </r>
       <r>   -1.9820    1.0000 </r>
       <r>   -1.4681    1.0000 </r>
       <r>   -1.0696    1.0000 </r>
       <r>   -0.8335    1.0000 </r>
       <r>    1.2894    1.0134 </r>
       <r>    1.6157   -0.0022 </r>
       <r>    1.7952   -0.0000 </r>
       <r>    2.5783   -0.0000 </r>
       <r>    2.8178   -0.0000 </r>
       <r>    3.1444   -0.0000 </r>
       <r>    3.4012   -0.0000 </r>
       <r>    4.6002    0.0000 </r>
       <r>    5.6783    0.0000 </r>
       <r>    5.6944    0.0000 </r>
       <r>    6.8966    0.0000 </r>
       <r>    7.5846    0.0000 </r>
       <r>    7.7035    0.0000 </r>
      </set>
      <set comment="kpoint 12">
       <r>  -34.7464    1.0000 </r>
       <r>  -34.7458    1.0000 </r>
       <r>  -34.6387    1.0000 </r>
       <r>  -34.6375    1.0000 </r>
       <r>  -34.4911    1.0000 </r>
       <r>  -34.4910    1.0000 </r>
       <r>  -17.5869    1.0000 </r>
       <r>  -12.0178    1.0000 </r>
       <r>  -11.9349    1.0000 </r>
       <r>  -11.6679    1.0000 </r>
       <r>   -8.0956    1.0000 </r>
       <r>   -7.6779    1.0000 </r>
       <r>   -5.2834    1.0000 </r>
       <r>   -5.2453    1.0000 </r>
       <r>   -4.5419    1.0000 </r>
       <r>   -4.3692    1.0000 </r>
       <r>   -3.2631    1.0000 </r>
       <r>   -3.1581    1.0000 </r>
       <r>   -2.7872    1.0000 </r>
       <r>   -2.0686    1.0000 </r>
       <r>   -1.3530    1.0000 </r>
       <r>   -0.9330    1.0000 </r>
       <r>   -0.6788    1.0000 </r>
       <r>    1.7516   -0.0000 </r>
       <r>    1.8269   -0.0000 </r>
       <r>    2.1425   -0.0000 </r>
       <r>    2.6325   -0.0000 </r>
       <r>    3.0021   -0.0000 </r>
       <r>    3.3525   -0.0000 </r>
       <r>    3.3905   -0.0000 </r>
       <r>    4.7089    0.0000 </r>
       <r>    5.0929    0.0000 </r>
       <r>    5.4278    0.0000 </r>
       <r>    6.5549    0.0000 </r>
       <r>    7.7636    0.0000 </r>
       <r>    8.2763    0.0000 </r>
      </set>
      <set comment="kpoint 13">
       <r>  -34.7659    1.0000 </r>
       <r>  -34.7653    1.0000 </r>
       <r>  -34.6344    1.0000 </r>
       <r>  -34.6332    1.0000 </r>
       <r>  -34.4967    1.0000 </r>
       <r>  -34.4965    1.0000 </r>
       <r>  -17.5177    1.0000 </r>
       <r>  -11.8920    1.0000 </r>
       <r>  -11.8426    1.0000 </r>
       <r>  -11.6305    1.0000 </r>
       <r>   -8.2520    1.0000 </r>
       <r>   -7.7021    1.0000 </r>
       <r>   -5.3644    1.0000 </r>
       <r>   -5.3550    1.0000 </r>
       <r>   -4.6122    1.0000 </r>
       <r>   -4.5127    1.0000 </r>
       <r>   -3.3208    1.0000 </r>
       <r>   -3.2568    1.0000 </r>
       <r>   -2.8687    1.0000 </r>
       <r>   -2.1031    1.0000 </r>
       <r>   -1.3083    1.0000 </r>
       <r>   -0.8343    1.0000 </r>
       <r>   -0.6006    1.0000 </r>
       <r>    2.0185   -0.0000 </r>
       <r>    2.0385   -0.0000 </r>
       <r>    2.2867   -0.0000 </r>
       <r>    2.5875   -0.0000 </r>
       <r>    3.0398   -0.0000 </r>
       <r>    3.3723   -0.0000 </r>
       <r>    3.4778   -0.0000 </r>
       <r>    4.7254    0.0000 </r>
       <r>    4.7683    0.0000 </r>
       <r>    5.2396    0.0000 </r>
       <r>    6.4607    0.0000 </r>
       <r>    7.6276    0.0000 </r>
       <r>    8.5053    0.0000 </r>
      </set>
      <set comment="kpoint 14">
       <r>  -34.6704    1.0000 </r>
       <r>  -34.6685    1.0000 </r>
       <r>  -34.5945    1.0000 </r>
       <r>  -34.5941    1.0000 </r>
       <r>  -34.4580    1.0000 </r>
       <r>  -34.4579    1.0000 </r>
       <r>  -18.0457    1.0000 </r>
       <r>  -12.8315    1.0000 </r>
       <r>  -12.5323    1.0000 </r>
       <r>  -11.9025    1.0000 </r>
       <r>   -7.8770    1.0000 </r>
       <r>   -6.5062    1.0000 </r>
       <r>   -4.9084    1.0000 </r>
       <r>   -4.4181    1.0000 </r>
       <r>   -3.9028    1.0000 </r>
       <r>   -3.5132    1.0000 </r>
       <r>   -3.1592    1.0000 </r>
       <r>   -2.8352    1.0000 </r>
       <r>   -2.2335    1.0000 </r>
       <r>   -1.9294    1.0000 </r>
       <r>   -1.8171    1.0000 </r>
       <r>   -0.8600    1.0000 </r>
       <r>   -0.6928    1.0000 </r>
       <r>    0.7949    1.0000 </r>
       <r>    1.4917   -0.0331 </r>
       <r>    1.7116   -0.0000 </r>
       <r>    2.3608   -0.0000 </r>
       <r>    2.5398   -0.0000 </r>
       <r>    2.8329   -0.0000 </r>
       <r>    3.3737   -0.0000 </r>
       <r>    4.2812    0.0000 </r>
       <r>    5.8699    0.0000 </r>
       <r>    6.7520    0.0000 </r>
       <r>    6.9099    0.0000 </r>
       <r>    6.9904    0.0000 </r>
       <r>    8.1317    0.0000 </r>
      </set>
      <set comment="kpoint 15">
       <r>  -34.6615    1.0000 </r>
       <r>  -34.6606    1.0000 </r>
       <r>  -34.6527    1.0000 </r>
       <r>  -34.6516    1.0000 </r>
       <r>  -34.4895    1.0000 </r>
       <r>  -34.4894    1.0000 </r>
       <r>  -17.8170    1.0000 </r>
       <r>  -12.4305    1.0000 </r>
       <r>  -12.2344    1.0000 </r>
       <r>  -11.7809    1.0000 </r>
       <r>   -7.8106    1.0000 </r>
       <r>   -7.1401    1.0000 </r>
       <r>   -5.3562    1.0000 </r>
       <r>   -4.7213    1.0000 </r>
       <r>   -4.2061    1.0000 </r>
       <r>   -3.9107    1.0000 </r>
       <r>   -3.3175    1.0000 </r>
       <r>   -2.9049    1.0000 </r>
       <r>   -2.2702    1.0000 </r>
       <r>   -2.0201    1.0000 </r>
       <r>   -1.8768    1.0000 </r>
       <r>   -1.0749    1.0000 </r>
       <r>   -0.7330    1.0000 </r>
       <r>    1.0620    1.0000 </r>
       <r>    1.4432    0.0690 </r>
       <r>    1.8383   -0.0000 </r>
       <r>    2.5913   -0.0000 </r>
       <r>    2.6343   -0.0000 </r>
       <r>    2.9642   -0.0000 </r>
       <r>    3.5816   -0.0000 </r>
       <r>    4.4921    0.0000 </r>
       <r>    5.9515    0.0000 </r>
       <r>    6.5649    0.0000 </r>
       <r>    7.1877    0.0000 </r>
       <r>    7.5269    0.0000 </r>
       <r>    7.5985    0.0000 </r>
      </set>
      <set comment="kpoint 16">
       <r>  -34.7133    1.0000 </r>
       <r>  -34.7127    1.0000 </r>
       <r>  -34.6402    1.0000 </r>
       <r>  -34.6389    1.0000 </r>
       <r>  -34.5166    1.0000 </r>
       <r>  -34.5165    1.0000 </r>
       <r>  -17.6135    1.0000 </r>
       <r>  -12.0675    1.0000 </r>
       <r>  -11.9647    1.0000 </r>
       <r>  -11.6688    1.0000 </r>
       <r>   -7.8752    1.0000 </r>
       <r>   -7.5475    1.0000 </r>
       <r>   -5.7269    1.0000 </r>
       <r>   -4.9748    1.0000 </r>
       <r>   -4.4410    1.0000 </r>
       <r>   -4.4223    1.0000 </r>
       <r>   -3.2640    1.0000 </r>
       <r>   -3.0406    1.0000 </r>
       <r>   -2.5125    1.0000 </r>
       <r>   -2.2442    1.0000 </r>
       <r>   -1.9068    1.0000 </r>
       <r>   -0.9705    1.0000 </r>
       <r>   -0.5565    1.0000 </r>
       <r>    1.3656    0.6259 </r>
       <r>    1.4747   -0.0178 </r>
       <r>    2.0891   -0.0000 </r>
       <r>    2.7412   -0.0000 </r>
       <r>    2.8323   -0.0000 </r>
       <r>    3.2164   -0.0000 </r>
       <r>    3.7052   -0.0000 </r>
       <r>    4.5736    0.0000 </r>
       <r>    5.8916    0.0000 </r>
       <r>    5.9665    0.0000 </r>
       <r>    6.9523    0.0000 </r>
       <r>    8.0295    0.0000 </r>
       <r>    8.1143    0.0000 </r>
      </set>
      <set comment="kpoint 17">
       <r>  -34.7426    1.0000 </r>
       <r>  -34.7420    1.0000 </r>
       <r>  -34.6325    1.0000 </r>
       <r>  -34.6314    1.0000 </r>
       <r>  -34.5321    1.0000 </r>
       <r>  -34.5319    1.0000 </r>
       <r>  -17.4919    1.0000 </r>
       <r>  -11.8483    1.0000 </r>
       <r>  -11.8010    1.0000 </r>
       <r>  -11.5984    1.0000 </r>
       <r>   -8.0674    1.0000 </r>
       <r>   -7.6295    1.0000 </r>
       <r>   -5.9368    1.0000 </r>
       <r>   -5.1010    1.0000 </r>
       <r>   -4.7432    1.0000 </r>
       <r>   -4.5138    1.0000 </r>
       <r>   -3.3351    1.0000 </r>
       <r>   -3.1905    1.0000 </r>
       <r>   -2.6543    1.0000 </r>
       <r>   -2.4064    1.0000 </r>
       <r>   -1.9083    1.0000 </r>
       <r>   -0.7502    1.0000 </r>
       <r>   -0.3882    1.0000 </r>
       <r>    1.5410   -0.0229 </r>
       <r>    1.8513   -0.0000 </r>
       <r>    2.1613   -0.0000 </r>
       <r>    2.4939   -0.0000 </r>
       <r>    2.9514   -0.0000 </r>
       <r>    3.6405   -0.0000 </r>
       <r>    3.7682   -0.0000 </r>
       <r>    4.5095    0.0000 </r>
       <r>    5.4369    0.0000 </r>
[...]
       <r>    -2.1950     2.8781    19.2551 </r>
       <r>    -2.0349     1.7478    19.5351 </r>
       <r>    -1.8747     5.0685    20.3469 </r>
       <r>    -1.7145     1.4861    20.5849 </r>
       <r>    -1.5544     0.6872    20.6950 </r>
       <r>    -1.3942     0.7397    20.8134 </r>
       <r>    -1.2340     0.7079    20.9268 </r>
       <r>    -1.0739     0.6095    21.0244 </r>
       <r>    -0.9137     2.8940    21.4880 </r>
       <r>    -0.7535     2.6973    21.9200 </r>
       <r>    -0.5934     2.4823    22.3176 </r>
       <r>    -0.4332     2.7514    22.7583 </r>
       <r>    -0.2730     0.6657    22.8649 </r>
       <r>    -0.1129     0.4368    22.9348 </r>
       <r>     0.0473     0.1900    22.9653 </r>
       <r>     0.2075     0.2066    22.9984 </r>
       <r>     0.3676     0.0109    23.0001 </r>
       <r>     0.5278    -0.0150    22.9977 </r>
       <r>     0.6880     0.3143    23.0480 </r>
       <r>     0.8481     1.4347    23.2778 </r>
       <r>     1.0083     1.0363    23.4438 </r>
       <r>     1.1685     1.5450    23.6913 </r>
       <r>     1.3286     1.3435    23.9064 </r>
       <r>     1.4888     2.0408    24.2333 </r>
       <r>     1.6490     1.7594    24.5151 </r>
       <r>     1.8092     2.7124    24.9496 </r>
       <r>     1.9693     2.3330    25.3232 </r>
       <r>     2.1295     2.6405    25.7462 </r>
       <r>     2.2897     1.2250    25.9424 </r>
       <r>     2.4498     2.2109    26.2965 </r>
       <r>     2.6100     3.3935    26.8400 </r>
       <r>     2.7702     2.7059    27.2734 </r>
       <r>     2.9303     3.9108    27.8998 </r>
       <r>     3.0905     3.5243    28.4643 </r>
       <r>     3.2507     2.5147    28.8670 </r>
       <r>     3.4108     2.6072    29.2846 </r>
       <r>     3.5710     1.3581    29.5021 </r>
       <r>     3.7312     1.6676    29.7692 </r>
       <r>     3.8913     0.9704    29.9247 </r>
       <r>     4.0515     0.6969    30.0363 </r>
       <r>     4.2117     0.5998    30.1323 </r>
       <r>     4.3718     0.9957    30.2918 </r>
       <r>     4.5320     1.8275    30.5845 </r>
       <r>     4.6922     2.0225    30.9085 </r>
       <r>     4.8523     1.0160    31.0712 </r>
       <r>     5.0125     0.2649    31.1136 </r>
       <r>     5.1727     0.8815    31.2548 </r>
       <r>     5.3329     0.4406    31.3254 </r>
       <r>     5.4930     1.4426    31.5565 </r>
       <r>     5.6532     1.1746    31.7446 </r>
       <r>     5.8134     2.8065    32.1941 </r>
       <r>     5.9735     2.0835    32.5278 </r>
       <r>     6.1337     1.7882    32.8142 </r>
       <r>     6.2939     0.8721    32.9539 </r>
       <r>     6.4540     1.3297    33.1669 </r>
       <r>     6.6142     1.9699    33.4824 </r>
       <r>     6.7744     0.6583    33.5878 </r>
       <r>     6.9345     1.8161    33.8787 </r>
       <r>     7.0947     1.6570    34.1441 </r>
       <r>     7.2549     0.8844    34.2857 </r>
       <r>     7.4150     0.7763    34.4101 </r>
       <r>     7.5752     1.6225    34.6699 </r>
       <r>     7.7354     2.3448    35.0455 </r>
       <r>     7.8955     1.3951    35.2690 </r>
       <r>     8.0557     1.4852    35.5068 </r>
       <r>     8.2159     1.1973    35.6986 </r>
       <r>     8.3760     1.1940    35.8899 </r>
       <r>     8.5362     0.4123    35.9559 </r>
       <r>     8.6964     0.0556    35.9648 </r>
       <r>     8.8565     0.0177    35.9676 </r>
       <r>     9.0167     0.2081    36.0010 </r>
       <r>     9.1769    -0.0058    36.0000 </r>
       <r>     9.3371    -0.0001    36.0000 </r>
       <r>     9.4972    -0.0000    36.0000 </r>
       <r>     9.6574    -0.0000    36.0000 </r>
       <r>     9.8176     0.0000    36.0000 </r>
       <r>     9.9777     0.0000    36.0000 </r>
       <r>    10.1379     0.0000    36.0000 </r>
       <r>    10.2981     0.0000    36.0000 </r>
       <r>    10.4582     0.0000    36.0000 </r>
       <r>    10.6184     0.0000    36.0000 </r>
       <r>    10.7786     0.0000    36.0000 </r>
       <r>    10.9387     0.0000    36.0000 </r>
       <r>    11.0989     0.0000    36.0000 </r>
      </set>
      <set comment="spin 2">
       <r>   -36.9515     0.0000     0.0000 </r>
       <r>   -36.7914     0.0000     0.0000 </r>
       <r>   -36.6312     0.0000     0.0000 </r>
       <r>   -36.4710     0.0000     0.0000 </r>
       <r>   -36.3108     0.0000     0.0000 </r>
       <r>   -36.1507     0.0000     0.0000 </r>
       <r>   -35.9905     0.0000     0.0000 </r>
       <r>   -35.8303     0.0000     0.0000 </r>
       <r>   -35.6702    -0.0000    -0.0000 </r>
       <r>   -35.5100    -0.0000    -0.0000 </r>
       <r>   -35.3498    -0.0000    -0.0000 </r>
       <r>   -35.1897    -0.0000    -0.0000 </r>
       <r>   -35.0295    -0.0011    -0.0002 </r>
       <r>   -34.8693    -0.2694    -0.0433 </r>
       <r>   -34.7092     6.1835     0.9471 </r>
       <r>   -34.5490    19.3560     4.0473 </r>
       <r>   -34.3888    11.4420     5.8799 </r>
       <r>   -34.2287     0.7975     6.0077 </r>
       <r>   -34.0685    -0.0479     6.0000 </r>
       <r>   -33.9083    -0.0000     6.0000 </r>
       <r>   -33.7482    -0.0000     6.0000 </r>
       <r>   -33.5880     0.0000     6.0000 </r>
       <r>   -33.4278     0.0000     6.0000 </r>
       <r>   -33.2677     0.0000     6.0000 </r>
       <r>   -33.1075     0.0000     6.0000 </r>
       <r>   -32.9473     0.0000     6.0000 </r>
       <r>   -32.7872     0.0000     6.0000 </r>
       <r>   -32.6270     0.0000     6.0000 </r>
       <r>   -32.4668     0.0000     6.0000 </r>
       <r>   -32.3066     0.0000     6.0000 </r>
       <r>   -32.1465     0.0000     6.0000 </r>
       <r>   -31.9863     0.0000     6.0000 </r>
       <r>   -31.8261     0.0000     6.0000 </r>
       <r>   -31.6660     0.0000     6.0000 </r>
       <r>   -31.5058     0.0000     6.0000 </r>
       <r>   -31.3456     0.0000     6.0000 </r>
       <r>   -31.1855     0.0000     6.0000 </r>
       <r>   -31.0253     0.0000     6.0000 </r>
       <r>   -30.8651     0.0000     6.0000 </r>
       <r>   -30.7050     0.0000     6.0000 </r>
       <r>   -30.5448     0.0000     6.0000 </r>
       <r>   -30.3846     0.0000     6.0000 </r>
       <r>   -30.2245     0.0000     6.0000 </r>
       <r>   -30.0643     0.0000     6.0000 </r>
       <r>   -29.9041     0.0000     6.0000 </r>
       <r>   -29.7440     0.0000     6.0000 </r>
       <r>   -29.5838     0.0000     6.0000 </r>
       <r>   -29.4236     0.0000     6.0000 </r>
       <r>   -29.2635     0.0000     6.0000 </r>
       <r>   -29.1033     0.0000     6.0000 </r>
       <r>   -28.9431     0.0000     6.0000 </r>
       <r>   -28.7829     0.0000     6.0000 </r>
       <r>   -28.6228     0.0000     6.0000 </r>
       <r>   -28.4626     0.0000     6.0000 </r>
       <r>   -28.3024     0.0000     6.0000 </r>
       <r>   -28.1423     0.0000     6.0000 </r>
       <r>   -27.9821     0.0000     6.0000 </r>
       <r>   -27.8219     0.0000     6.0000 </r>
       <r>   -27.6618     0.0000     6.0000 </r>
       <r>   -27.5016     0.0000     6.0000 </r>
       <r>   -27.3414     0.0000     6.0000 </r>
       <r>   -27.1813     0.0000     6.0000 </r>
       <r>   -27.0211     0.0000     6.0000 </r>
       <r>   -26.8609     0.0000     6.0000 </r>
       <r>   -26.7008     0.0000     6.0000 </r>
       <r>   -26.5406     0.0000     6.0000 </r>
       <r>   -26.3804     0.0000     6.0000 </r>
       <r>   -26.2203     0.0000     6.0000 </r>
       <r>   -26.0601     0.0000     6.0000 </r>
       <r>   -25.8999     0.0000     6.0000 </r>
       <r>   -25.7398     0.0000     6.0000 </r>
       <r>   -25.5796     0.0000     6.0000 </r>
       <r>   -25.4194     0.0000     6.0000 </r>
       <r>   -25.2593     0.0000     6.0000 </r>
       <r>   -25.0991     0.0000     6.0000 </r>
       <r>   -24.9389     0.0000     6.0000 </r>
       <r>   -24.7787     0.0000     6.0000 </r>
       <r>   -24.6186     0.0000     6.0000 </r>
       <r>   -24.4584     0.0000     6.0000 </r>
       <r>   -24.2982     0.0000     6.0000 </r>
       <r>   -24.1381     0.0000     6.0000 </r>
       <r>   -23.9779     0.0000     6.0000 </r>
       <r>   -23.8177     0.0000     6.0000 </r>
       <r>   -23.6576     0.0000     6.0000 </r>
       <r>   -23.4974     0.0000     6.0000 </r>
       <r>   -23.3372     0.0000     6.0000 </r>
       <r>   -23.1771     0.0000     6.0000 </r>
       <r>   -23.0169     0.0000     6.0000 </r>
       <r>   -22.8567     0.0000     6.0000 </r>
       <r>   -22.6966     0.0000     6.0000 </r>
       <r>   -22.5364     0.0000     6.0000 </r>
       <r>   -22.3762     0.0000     6.0000 </r>
       <r>   -22.2161     0.0000     6.0000 </r>
       <r>   -22.0559     0.0000     6.0000 </r>
       <r>   -21.8957     0.0000     6.0000 </r>
       <r>   -21.7356     0.0000     6.0000 </r>
       <r>   -21.5754     0.0000     6.0000 </r>
       <r>   -21.4152     0.0000     6.0000 </r>
       <r>   -21.2550     0.0000     6.0000 </r>
       <r>   -21.0949     0.0000     6.0000 </r>
       <r>   -20.9347     0.0000     6.0000 </r>
       <r>   -20.7745     0.0000     6.0000 </r>
       <r>   -20.6144     0.0000     6.0000 </r>
       <r>   -20.4542     0.0000     6.0000 </r>
       <r>   -20.2940     0.0000     6.0000 </r>
       <r>   -20.1339     0.0000     6.0000 </r>
       <r>   -19.9737     0.0000     6.0000 </r>
       <r>   -19.8135     0.0000     6.0000 </r>
       <r>   -19.6534     0.0000     6.0000 </r>
       <r>   -19.4932    -0.0000     6.0000 </r>
       <r>   -19.3330    -0.0000     6.0000 </r>
       <r>   -19.1729    -0.0000     6.0000 </r>
       <r>   -19.0127    -0.0000     6.0000 </r>
       <r>   -18.8525    -0.0000     6.0000 </r>
       <r>   -18.6924    -0.0063     5.9990 </r>
       <r>   -18.5322     0.1354     6.0207 </r>
       <r>   -18.3720     0.4534     6.0933 </r>
       <r>   -18.2119     0.4936     6.1723 </r>
       <r>   -18.0517     0.4756     6.2485 </r>
       <r>   -17.8915     0.6452     6.3518 </r>
       <r>   -17.7314     0.8563     6.4890 </r>
       <r>   -17.5712     1.2498     6.6892 </r>
       <r>   -17.4110     1.7242     6.9653 </r>
       <r>   -17.2508     0.2287     7.0019 </r>
       <r>   -17.0907    -0.0122     7.0000 </r>
       <r>   -16.9305    -0.0000     7.0000 </r>
       <r>   -16.7703    -0.0000     7.0000 </r>
       <r>   -16.6102     0.0000     7.0000 </r>
       <r>   -16.4500     0.0000     7.0000 </r>
       <r>   -16.2898     0.0000     7.0000 </r>
       <r>   -16.1297     0.0000     7.0000 </r>
       <r>   -15.9695     0.0000     7.0000 </r>
       <r>   -15.8093     0.0000     7.0000 </r>
       <r>   -15.6492     0.0000     7.0000 </r>
       <r>   -15.4890     0.0000     7.0000 </r>
       <r>   -15.3288     0.0000     7.0000 </r>
       <r>   -15.1687     0.0000     7.0000 </r>
       <r>   -15.0085     0.0000     7.0000 </r>
       <r>   -14.8483     0.0000     7.0000 </r>
       <r>   -14.6882    -0.0000     7.0000 </r>
       <r>   -14.5280    -0.0000     7.0000 </r>
       <r>   -14.3678    -0.0000     7.0000 </r>
       <r>   -14.2077    -0.0000     7.0000 </r>
       <r>   -14.0475    -0.0000     7.0000 </r>
       <r>   -13.8873    -0.0021     6.9997 </r>
       <r>   -13.7271     0.0436     7.0067 </r>
       <r>   -13.5670     0.2243     7.0426 </r>
       <r>   -13.4068     0.3374     7.0966 </r>
       <r>   -13.2466     0.1307     7.1176 </r>
       <r>   -13.0865     0.7044     7.2304 </r>
       <r>   -12.9263     0.5699     7.3217 </r>
       <r>   -12.7661     0.8211     7.4532 </r>
       <r>   -12.6060     0.6633     7.5594 </r>
       <r>   -12.4458     0.8753     7.6996 </r>
       <r>   -12.2856     1.0283     7.8643 </r>
       <r>   -12.1255     1.3862     8.0864 </r>
       <r>   -11.9653     2.7351     8.5244 </r>
       <r>   -11.8051     3.6628     9.1111 </r>
       <r>   -11.6450     3.6610     9.6975 </r>
       <r>   -11.4848     1.8599     9.9954 </r>
       <r>   -11.3246     0.0332    10.0007 </r>
       <r>   -11.1645    -0.0042    10.0000 </r>
       <r>   -11.0043    -0.0000    10.0000 </r>
       <r>   -10.8441    -0.0000    10.0000 </r>
       <r>   -10.6840     0.0000    10.0000 </r>
       <r>   -10.5238     0.0000    10.0000 </r>
       <r>   -10.3636     0.0000    10.0000 </r>
       <r>   -10.2035     0.0000    10.0000 </r>
       <r>   -10.0433     0.0000    10.0000 </r>
       <r>    -9.8831     0.0000    10.0000 </r>
       <r>    -9.7229     0.0000    10.0000 </r>
       <r>    -9.5628     0.0000    10.0000 </r>
       <r>    -9.4026     0.0000    10.0000 </r>
       <r>    -9.2424     0.0000    10.0000 </r>
       <r>    -9.0823    -0.0000    10.0000 </r>
       <r>    -8.9221    -0.0000    10.0000 </r>
       <r>    -8.7619    -0.0000    10.0000 </r>
       <r>    -8.6018    -0.0000    10.0000 </r>
       <r>    -8.4416    -0.0057     9.9991 </r>
       <r>    -8.2814     0.1189    10.0181 </r>
       <r>    -8.1213     0.8013    10.1465 </r>
       <r>    -7.9611     1.5839    10.4002 </r>
       <r>    -7.8009     2.9694    10.8758 </r>
       <r>    -7.6408     1.7243    11.1519 </r>
       <r>    -7.4806     1.8820    11.4534 </r>
       <r>    -7.3204     0.7337    11.5709 </r>
       <r>    -7.1603     0.1441    11.5940 </r>
       <r>    -7.0001     0.6691    11.7011 </r>
       <r>    -6.8399     0.0430    11.7080 </r>
       <r>    -6.6798     0.3564    11.7651 </r>
       <r>    -6.5196     0.4192    11.8322 </r>
       <r>    -6.3594     0.5614    11.9222 </r>
       <r>    -6.1992     0.1642    11.9485 </r>
       <r>    -6.0391     0.0622    11.9584 </r>
       <r>    -5.8789     0.6920    12.0693 </r>
       <r>    -5.7187     0.6869    12.1793 </r>
       <r>    -5.5586     0.1693    12.2064 </r>
       <r>    -5.3984     0.2606    12.2481 </r>
       <r>    -5.2382     1.6637    12.5146 </r>
       <r>    -5.0781     1.3245    12.7267 </r>
       <r>    -4.9179     2.0668    13.0578 </r>
       <r>    -4.7577     2.1411    13.4007 </r>
       <r>    -4.5976     1.6062    13.6580 </r>
       <r>    -4.4374     4.1071    14.3158 </r>
       <r>    -4.2772     3.5999    14.8924 </r>
       <r>    -4.1171     1.4188    15.1196 </r>
       <r>    -3.9569     1.0845    15.2933 </r>
       <r>    -3.7967     0.9624    15.4475 </r>
       <r>    -3.6366     0.7239    15.5634 </r>
       <r>    -3.4764     1.6846    15.8332 </r>
       <r>    -3.3162     1.8250    16.1256 </r>
       <r>    -3.1561     4.0798    16.7790 </r>
       <r>    -2.9959     2.6118    17.1973 </r>
       <r>    -2.8357     2.4069    17.5829 </r>
       <r>    -2.6756     2.6629    18.0094 </r>
       <r>    -2.5154     2.4283    18.3983 </r>
       <r>    -2.3552     2.4715    18.7942 </r>
       <r>    -2.1950     2.8781    19.2551 </r>
       <r>    -2.0349     1.7482    19.5351 </r>
       <r>    -1.8747     5.0686    20.3470 </r>
       <r>    -1.7145     1.4855    20.5849 </r>
       <r>    -1.5544     0.6872    20.6950 </r>
       <r>    -1.3942     0.7398    20.8135 </r>
       <r>    -1.2340     0.7078    20.9268 </r>
       <r>    -1.0739     0.6098    21.0245 </r>
       <r>    -0.9137     2.8943    21.4881 </r>
       <r>    -0.7535     2.6972    21.9201 </r>
       <r>    -0.5934     2.4825    22.3177 </r>
       <r>    -0.4332     2.7516    22.7584 </r>
       <r>    -0.2730     0.6647    22.8649 </r>
       <r>    -0.1129     0.4369    22.9348 </r>
       <r>     0.0473     0.1900    22.9653 </r>
       <r>     0.2075     0.2066    22.9984 </r>
       <r>     0.3676     0.0109    23.0001 </r>
       <r>     0.5278    -0.0150    22.9977 </r>
       <r>     0.6880     0.3140    23.0480 </r>
       <r>     0.8481     1.4348    23.2778 </r>
       <r>     1.0083     1.0364    23.4438 </r>
       <r>     1.1685     1.5450    23.6913 </r>
       <r>     1.3286     1.3435    23.9064 </r>
       <r>     1.4888     2.0408    24.2333 </r>
       <r>     1.6490     1.7597    24.5152 </r>
       <r>     1.8092     2.7123    24.9496 </r>
       <r>     1.9693     2.3330    25.3233 </r>
       <r>     2.1295     2.6403    25.7462 </r>
       <r>     2.2897     1.2254    25.9424 </r>
       <r>     2.4498     2.2113    26.2966 </r>
       <r>     2.6100     3.3936    26.8402 </r>
       <r>     2.7702     2.7058    27.2735 </r>
       <r>     2.9303     3.9112    27.9000 </r>
       <r>     3.0905     3.5239    28.4644 </r>
       <r>     3.2507     2.5145    28.8671 </r>
       <r>     3.4108     2.6070    29.2847 </r>
       <r>     3.5710     1.3582    29.5022 </r>
       <r>     3.7312     1.6672    29.7693 </r>
       <r>     3.8913     0.9706    29.9247 </r>
       <r>     4.0515     0.6965    30.0363 </r>
       <r>     4.2117     0.5999    30.1324 </r>
       <r>     4.3718     0.9959    30.2919 </r>
       <r>     4.5320     1.8276    30.5846 </r>
       <r>     4.6922     2.0222    30.9085 </r>
       <r>     4.8523     1.0156    31.0712 </r>
       <r>     5.0125     0.2651    31.1136 </r>
       <r>     5.1727     0.8814    31.2548 </r>
       <r>     5.3329     0.4409    31.3254 </r>
       <r>     5.4930     1.4403    31.5561 </r>
       <r>     5.6532     1.1695    31.7434 </r>
       <r>     5.8134     2.8129    32.1940 </r>
       <r>     5.9735     2.0550    32.5231 </r>
       <r>     6.1337     1.7943    32.8105 </r>
       <r>     6.2939     0.8935    32.9536 </r>
       <r>     6.4540     1.3136    33.1640 </r>
       <r>     6.6142     1.9548    33.4771 </r>
       <r>     6.7744     0.6535    33.5818 </r>
       <r>     6.9345     1.7978    33.8697 </r>
       <r>     7.0947     1.7319    34.1471 </r>
       <r>     7.2549     0.8889    34.2895 </r>
       <r>     7.4150     0.7371    34.4075 </r>
       <r>     7.5752     1.4604    34.6415 </r>
       <r>     7.7354     2.0890    34.9760 </r>
       <r>     7.8955     1.2570    35.1774 </r>
       <r>     8.0557     1.4901    35.4160 </r>
       <r>     8.2159     1.7775    35.7007 </r>
       <r>     8.3760     1.1787    35.8895 </r>
       <r>     8.5362     0.4146    35.9559 </r>
       <r>     8.6964     0.0585    35.9653 </r>
       <r>     8.8565     0.2147    35.9997 </r>
       <r>     9.0167     0.0022    36.0001 </r>
       <r>     9.1769    -0.0004    36.0000 </r>
       <r>     9.3371    -0.0000    36.0000 </r>
       <r>     9.4972    -0.0000    36.0000 </r>
       <r>     9.6574     0.0000    36.0000 </r>
       <r>     9.8176     0.0000    36.0000 </r>
       <r>     9.9777     0.0000    36.0000 </r>
       <r>    10.1379     0.0000    36.0000 </r>
       <r>    10.2981     0.0000    36.0000 </r>
       <r>    10.4582     0.0000    36.0000 </r>
       <r>    10.6184     0.0000    36.0000 </r>
       <r>    10.7786     0.0000    36.0000 </r>
       <r>    10.9387     0.0000    36.0000 </r>
       <r>    11.0989     0.0000    36.0000 </r>
      </set>
     </set>
    </array>
   </total>
  </dos>
 </calculation>
 <structure name="finalpos" >
  <crystal>
   <varray name="basis" >
    <v>       3.19031700       0.00000000       0.00000000 </v>
    <v>      -1.59515800       2.76289700       0.00000000 </v>
    <v>       0.00000000       0.00000000      23.14049200 </v>
   </varray>
   <i name="volume">    203.97226633 </i>
   <varray name="rec_basis" >
    <v>       0.31344848       0.18096941       0.00000000 </v>
    <v>       0.00000000       0.36193894       0.00000000 </v>
    <v>       0.00000000       0.00000000       0.04321429 </v>
   </varray>
  </crystal>
  <varray name="positions" >
   <v>       0.66666700       0.33333300       0.06785900 </v>
   <v>       0.33333300       0.66666700       0.00000000 </v>
   <v>       0.33333300       0.66666700       0.13571500 </v>
   <v>       0.66666700       0.33333300       0.27919800 </v>
   <v>       0.33333300       0.66666700       0.21134000 </v>
   <v>       0.33333300       0.66666700       0.34705400 </v>
  </varray>
 </structure>
</modeling>
