<?xml version="1.0" encoding="ISO-8859-1"?>
<modeling>
 <generator>
  <i name="program" type="string">vasp </i>
  <i name="version" type="string">5.4.1  </i>
  <i name="subversion" type="string">24Jun15 (build May 10 2016 14:18:23) complex                          parallel </i>
  <i name="platform" type="string">IFC91_ompi </i>
  <i name="date" type="string">2016 12 09 </i>
  <i name="time" type="string">14:59:18 </i>
 </generator>
 <incar>
  <i type="string" name="PREC">accurate</i>
  <i type="string" name="ALGO"> Fast</i>
  <i type="int" name="ISPIN">     2</i>
  <i type="int" name="IBRION">     2</i>
  <i name="EDIFF">      0.00010000</i>
  <i type="int" name="NSW">     0</i>
  <i type="int" name="ISIF">     3</i>
  <i name="ENCUT">    500.00000000</i>
  <v name="MAGMOM">      6.00000000      0.50000000      0.50000000      6.00000000      0.50000000      0.50000000</v>
  <i type="string" name="LREAL"> Auto</i>
  <i type="int" name="ISMEAR">     1</i>
  <i name="SIGMA">      0.10000000</i>
  <i type="logical" name="LWAVE"> F  </i>
  <i type="logical" name="LCHARG"> F  </i>
  <i type="logical" name="LVTOT"> T  </i>
  <i type="logical" name="LVHAR"> T  </i>
  <i type="logical" name="LAECHG"> F  </i>
  <v type="int" name="KPOINT_BSE">    -1     0     0     0</v>
  <i type="string" name="GGA"> Bo</i>
  <i name="PARAM1">      0.18333333</i>
  <i name="PARAM2">      0.22000000</i>
  <i type="logical" name="LUSE_VDW"> T  </i>
  <i name="AGGAC">      0.00000000</i>
 </incar>
 <kpoints>
  <generation param="Gamma">
   <v type="int" name="divisions">      13       13        1 </v>
   <v name="usershift">      0.00000000       0.00000000       0.00000000 </v>
   <v name="genvec1">      0.07692308       0.00000000       0.00000000 </v>
   <v name="genvec2">      0.00000000       0.07692308       0.00000000 </v>
   <v name="genvec3">      0.00000000       0.00000000       1.00000000 </v>
   <v name="shift">      0.00000000       0.00000000       0.00000000 </v>
  </generation>
  <varray name="kpointlist" >
   <v>       0.00000000       0.00000000       0.00000000 </v>
   <v>       0.07692308      -0.00000000       0.00000000 </v>
   <v>       0.15384615       0.00000000       0.00000000 </v>
   <v>       0.23076923       0.00000000       0.00000000 </v>
   <v>       0.30769231      -0.00000000       0.00000000 </v>
   <v>       0.38461538       0.00000000       0.00000000 </v>
   <v>       0.46153846       0.00000000       0.00000000 </v>
   <v>       0.00000000       0.07692308       0.00000000 </v>
   <v>       0.07692308       0.07692308       0.00000000 </v>
   <v>       0.15384615       0.07692308       0.00000000 </v>
   <v>       0.23076923       0.07692308       0.00000000 </v>
   <v>       0.30769231       0.07692308       0.00000000 </v>
   <v>       0.38461538       0.07692308       0.00000000 </v>
   <v>       0.46153846       0.07692308       0.00000000 </v>
   <v>      -0.46153846       0.07692308       0.00000000 </v>
   <v>      -0.38461538       0.07692308       0.00000000 </v>
   <v>      -0.30769231       0.07692308       0.00000000 </v>
   <v>      -0.23076923       0.07692308       0.00000000 </v>
   <v>      -0.15384615       0.07692308       0.00000000 </v>
   <v>      -0.07692308       0.07692308       0.00000000 </v>
   <v>       0.00000000       0.15384615       0.00000000 </v>
   <v>       0.07692308       0.15384615       0.00000000 </v>
   <v>       0.15384615       0.15384615       0.00000000 </v>
   <v>       0.23076923       0.15384615       0.00000000 </v>
   <v>       0.30769231       0.15384615       0.00000000 </v>
   <v>       0.38461538       0.15384615       0.00000000 </v>
   <v>       0.46153846       0.15384615       0.00000000 </v>
   <v>      -0.46153846       0.15384615       0.00000000 </v>
   <v>      -0.38461538       0.15384615       0.00000000 </v>
   <v>      -0.30769231       0.15384615       0.00000000 </v>
   <v>      -0.23076923       0.15384615       0.00000000 </v>
   <v>      -0.15384615       0.15384615       0.00000000 </v>
   <v>      -0.07692308       0.15384615       0.00000000 </v>
   <v>       0.00000000       0.23076923       0.00000000 </v>
   <v>       0.07692308       0.23076923       0.00000000 </v>
   <v>       0.15384615       0.23076923       0.00000000 </v>
   <v>       0.23076923       0.23076923       0.00000000 </v>
   <v>       0.30769231       0.23076923       0.00000000 </v>
   <v>       0.38461538       0.23076923       0.00000000 </v>
   <v>       0.46153846       0.23076923       0.00000000 </v>
   <v>      -0.46153846       0.23076923       0.00000000 </v>
   <v>      -0.38461538       0.23076923       0.00000000 </v>
   <v>      -0.30769231       0.23076923       0.00000000 </v>
   <v>      -0.23076923       0.23076923       0.00000000 </v>
   <v>      -0.15384615       0.23076923       0.00000000 </v>
   <v>      -0.07692308       0.23076923       0.00000000 </v>
   <v>       0.00000000       0.30769231       0.00000000 </v>
   <v>       0.07692308       0.30769231       0.00000000 </v>
   <v>       0.15384615       0.30769231       0.00000000 </v>
   <v>       0.23076923       0.30769231       0.00000000 </v>
   <v>       0.30769231       0.30769231       0.00000000 </v>
   <v>       0.38461538       0.30769231       0.00000000 </v>
   <v>       0.46153846       0.30769231       0.00000000 </v>
   <v>      -0.46153846       0.30769231       0.00000000 </v>
   <v>      -0.38461538       0.30769231       0.00000000 </v>
   <v>      -0.30769231       0.30769231       0.00000000 </v>
   <v>      -0.23076923       0.30769231       0.00000000 </v>
   <v>      -0.15384615       0.30769231       0.00000000 </v>
   <v>      -0.07692308       0.30769231       0.00000000 </v>
   <v>       0.00000000       0.38461538       0.00000000 </v>
   <v>       0.07692308       0.38461538       0.00000000 </v>
   <v>       0.15384615       0.38461538       0.00000000 </v>
   <v>       0.23076923       0.38461538       0.00000000 </v>
   <v>       0.30769231       0.38461538       0.00000000 </v>
   <v>       0.38461538       0.38461538       0.00000000 </v>
   <v>       0.46153846       0.38461538       0.00000000 </v>
   <v>      -0.46153846       0.38461538       0.00000000 </v>
   <v>      -0.38461538       0.38461538       0.00000000 </v>
   <v>      -0.30769231       0.38461538       0.00000000 </v>
   <v>      -0.23076923       0.38461538       0.00000000 </v>
   <v>      -0.15384615       0.38461538       0.00000000 </v>
   <v>      -0.07692308       0.38461538       0.00000000 </v>
   <v>       0.00000000       0.46153846       0.00000000 </v>
   <v>       0.07692308       0.46153846       0.00000000 </v>
   <v>       0.15384615       0.46153846       0.00000000 </v>
   <v>       0.23076923       0.46153846       0.00000000 </v>
   <v>       0.30769231       0.46153846       0.00000000 </v>
   <v>       0.38461538       0.46153846       0.00000000 </v>
   <v>       0.46153846       0.46153846       0.00000000 </v>
   <v>      -0.46153846       0.46153846       0.00000000 </v>
   <v>      -0.38461538       0.46153846       0.00000000 </v>
   <v>      -0.30769231       0.46153846       0.00000000 </v>
   <v>      -0.23076923       0.46153846       0.00000000 </v>
   <v>      -0.15384615       0.46153846       0.00000000 </v>
   <v>      -0.07692308       0.46153846       0.00000000 </v>
  </varray>
  <varray name="weights" >
   <v>       0.00591716 </v>
   <v>       0.01183432 </v>
   <v>       0.01183432 </v>
   <v>       0.01183432 </v>
   <v>       0.01183432 </v>
   <v>       0.01183432 </v>
   <v>       0.01183432 </v>
   <v>       0.01183432 </v>
   <v>       0.01183432 </v>
   <v>       0.01183432 </v>
   <v>       0.01183432 </v>
   <v>       0.01183432 </v>
   <v>       0.01183432 </v>
   <v>       0.01183432 </v>
   <v>       0.01183432 </v>
   <v>       0.01183432 </v>
   <v>       0.01183432 </v>
   <v>       0.01183432 </v>
   <v>       0.01183432 </v>
   <v>       0.01183432 </v>
   <v>       0.01183432 </v>
   <v>       0.01183432 </v>
   <v>       0.01183432 </v>
   <v>       0.01183432 </v>
   <v>       0.01183432 </v>
   <v>       0.01183432 </v>
   <v>       0.01183432 </v>
   <v>       0.01183432 </v>
   <v>       0.01183432 </v>
   <v>       0.01183432 </v>
   <v>       0.01183432 </v>
   <v>       0.01183432 </v>
   <v>       0.01183432 </v>
   <v>       0.01183432 </v>
   <v>       0.01183432 </v>
   <v>       0.01183432 </v>
   <v>       0.01183432 </v>
   <v>       0.01183432 </v>
   <v>       0.01183432 </v>
   <v>       0.01183432 </v>
   <v>       0.01183432 </v>
   <v>       0.01183432 </v>
   <v>       0.01183432 </v>
   <v>       0.01183432 </v>
   <v>       0.01183432 </v>
   <v>       0.01183432 </v>
   <v>       0.01183432 </v>
   <v>       0.01183432 </v>
   <v>       0.01183432 </v>
   <v>       0.01183432 </v>
   <v>       0.01183432 </v>
   <v>       0.01183432 </v>
   <v>       0.01183432 </v>
   <v>       0.01183432 </v>
   <v>       0.01183432 </v>
   <v>       0.01183432 </v>
   <v>       0.01183432 </v>
   <v>       0.01183432 </v>
   <v>       0.01183432 </v>
   <v>       0.01183432 </v>
   <v>       0.01183432 </v>
   <v>       0.01183432 </v>
   <v>       0.01183432 </v>
   <v>       0.01183432 </v>
   <v>       0.01183432 </v>
   <v>       0.01183432 </v>
   <v>       0.01183432 </v>
   <v>       0.01183432 </v>
   <v>       0.01183432 </v>
   <v>       0.01183432 </v>
   <v>       0.01183432 </v>
   <v>       0.01183432 </v>
   <v>       0.01183432 </v>
   <v>       0.01183432 </v>
   <v>       0.01183432 </v>
   <v>       0.01183432 </v>
   <v>       0.01183432 </v>
   <v>       0.01183432 </v>
   <v>       0.01183432 </v>
   <v>       0.01183432 </v>
   <v>       0.01183432 </v>
   <v>       0.01183432 </v>
   <v>       0.01183432 </v>
   <v>       0.01183432 </v>
   <v>       0.01183432 </v>
  </varray>
 </kpoints>
 <parameters>
  <separator name="general" >
   <i type="string" name="SYSTEM">unknown system</i>
   <i type="logical" name="LCOMPAT"> F  </i>
  </separator>
  <separator name="electronic" >
   <i type="string" name="PREC">accura</i>
   <i name="ENMAX">    500.00000000</i>
   <i name="ENAUG">    392.42700000</i>
   <i name="EDIFF">      0.00010000</i>
   <i type="int" name="IALGO">    68</i>
   <i type="int" name="IWAVPR">    10</i>
   <i type="int" name="NBANDS">    36</i>
   <i name="NELECT">     48.00000000</i>
   <i type="int" name="TURBO">     0</i>
   <i type="int" name="IRESTART">     0</i>
   <i type="int" name="NREBOOT">     0</i>
   <i type="int" name="NMIN">     0</i>
   <i name="EREF">      0.00000000</i>
   <separator name="electronic smearing" >
    <i type="int" name="ISMEAR">     1</i>
    <i name="SIGMA">      0.10000000</i>
    <i name="KSPACING">      0.50000000</i>
    <i type="logical" name="KGAMMA"> T  </i>
   </separator>
   <separator name="electronic projectors" >
    <i type="logical" name="LREAL"> T  </i>
    <v name="ROPT">     -0.00025000     -0.00025000     -0.00025000     -0.00025000</v>
    <i type="int" name="LMAXPAW">  -100</i>
    <i type="int" name="LMAXMIX">     2</i>
    <i type="logical" name="NLSPLINE"> F  </i>
   </separator>
   <separator name="electronic startup" >
    <i type="int" name="ISTART">     0</i>
    <i type="int" name="ICHARG">     2</i>
    <i type="int" name="INIWAV">     1</i>
   </separator>
   <separator name="electronic spin" >
    <i type="int" name="ISPIN">     2</i>
    <i type="logical" name="LNONCOLLINEAR"> F  </i>
    <v name="MAGMOM">      6.00000000      0.50000000      0.50000000      6.00000000      0.50000000      0.50000000</v>
    <i name="NUPDOWN">     -1.00000000</i>
    <i type="logical" name="LSORBIT"> F  </i>
    <v name="SAXIS">      0.00000000      0.00000000      1.00000000</v>
    <i type="logical" name="LSPIRAL"> F  </i>
    <v name="QSPIRAL">      0.00000000      0.00000000      0.00000000</v>
    <i type="logical" name="LZEROZ"> F  </i>
   </separator>
   <separator name="electronic exchange-correlation" >
    <i type="logical" name="LASPH"> F  </i>
    <i type="logical" name="LMETAGGA"> F  </i>
   </separator>
   <separator name="electronic convergence" >
    <i type="int" name="NELM">    60</i>
    <i type="int" name="NELMDL">     0</i>
    <i type="int" name="NELMIN">     2</i>
    <i name="ENINI">    500.00000000</i>
    <separator name="electronic convergence detail" >
     <i type="logical" name="LDIAG"> T  </i>
     <i type="logical" name="LSUBROT"> F  </i>
     <i name="WEIMIN">      0.00000000</i>
     <i name="EBREAK">      0.00000069</i>
     <i name="DEPER">      0.30000000</i>
     <i type="int" name="NRMM">     4</i>
     <i name="TIME">      0.40000000</i>
    </separator>
   </separator>
   <separator name="electronic mixer" >
    <i name="AMIX">      0.40000000</i>
    <i name="BMIX">      1.00000000</i>
    <i name="AMIN">      0.10000000</i>
    <i name="AMIX_MAG">      1.60000000</i>
    <i name="BMIX_MAG">      1.00000000</i>
    <separator name="electronic mixer details" >
     <i type="int" name="IMIX">     4</i>
     <i type="logical" name="MIXFIRST"> F  </i>
     <i type="int" name="MAXMIX">   -45</i>
     <i name="WC">    100.00000000</i>
     <i type="int" name="INIMIX">     1</i>
     <i type="int" name="MIXPRE">     1</i>
     <i type="int" name="MREMOVE">     5</i>
    </separator>
   </separator>
   <separator name="electronic dipolcorrection" >
    <i type="logical" name="LDIPOL"> F  </i>
    <i type="logical" name="LMONO"> F  </i>
    <i type="int" name="IDIPOL">     0</i>
    <i name="EPSILON">      1.00000000</i>
    <v name="DIPOL">   -100.00000000   -100.00000000   -100.00000000</v>
    <i name="EFIELD">      0.00000000</i>
   </separator>
  </separator>
  <separator name="grids" >
   <i type="int" name="NGX">    24</i>
   <i type="int" name="NGY">    24</i>
   <i type="int" name="NGZ">   180</i>
   <i type="int" name="NGXF">    48</i>
   <i type="int" name="NGYF">    48</i>
   <i type="int" name="NGZF">   360</i>
   <i type="logical" name="ADDGRID"> F  </i>
  </separator>
  <separator name="ionic" >
   <i type="int" name="NSW">     0</i>
   <i type="int" name="IBRION">    -1</i>
   <i type="int" name="ISIF">     3</i>
   <i name="PSTRESS">      0.00000000</i>
   <i name="EDIFFG">      0.00100000</i>
   <i type="int" name="NFREE">     1</i>
   <i name="POTIM">      0.50000000</i>
   <i name="SMASS">     -3.00000000</i>
   <i name="SCALEE">      1.00000000</i>
  </separator>
  <separator name="ionic md" >
   <i name="TEBEG">      0.00010000</i>
   <i name="TEEND">      0.00010000</i>
   <i type="int" name="NBLOCK">     1</i>
   <i type="int" name="KBLOCK">     1</i>
   <i type="int" name="NPACO">   256</i>
   <i name="APACO">     16.00000000</i>
  </separator>
  <separator name="symmetry" >
   <i type="int" name="ISYM">     2</i>
   <i name="SYMPREC">      0.00001000</i>
  </separator>
  <separator name="dos" >
   <i type="logical" name="LORBIT"> F  </i>
   <v name="RWIGS">     -1.00000000     -1.00000000     -1.00000000     -1.00000000</v>
   <i type="int" name="NEDOS">   301</i>
   <i name="EMIN">     10.00000000</i>
   <i name="EMAX">    -10.00000000</i>
   <i name="EFERMI">      0.00000000</i>
  </separator>
  <separator name="writing" >
   <i type="int" name="NWRITE">     2</i>
   <i type="logical" name="LWAVE"> F  </i>
   <i type="logical" name="LCHARG"> F  </i>
   <i type="logical" name="LPARD"> F  </i>
   <i type="logical" name="LVTOT"> F  </i>
   <i type="logical" name="LVHAR"> T  </i>
   <i type="logical" name="LELF"> F  </i>
   <i type="logical" name="LOPTICS"> F  </i>
   <v name="STM">      0.00000000      0.00000000      0.00000000      0.00000000      0.00000000      0.00000000      0.00000000</v>
  </separator>
  <separator name="performance" >
   <i type="int" name="NPAR">     4</i>
   <i type="int" name="NSIM">     4</i>
   <i type="int" name="NBLK">    -1</i>
   <i type="logical" name="LPLANE"> T  </i>
   <i type="logical" name="LSCALAPACK"> T  </i>
   <i type="logical" name="LSCAAWARE"> F  </i>
   <i type="logical" name="LSCALU"> F  </i>
   <i type="logical" name="LASYNC"> F  </i>
   <i type="logical" name="LORBITALREAL"> F  </i>
  </separator>
  <separator name="miscellaneous" >
   <i type="int" name="IDIOT">     3</i>
   <i type="logical" name="LMUSIC"> F  </i>
   <v name="POMASS">     95.94000000     32.06600000     95.94000000     32.06600000</v>
   <v name="DARWINR">      0.00000000      0.00000000      0.00000000      0.00000000</v>
   <v name="DARWINV">      1.00000000      1.00000000      1.00000000      1.00000000</v>
   <i type="logical" name="LCORR"> T  </i>
  </separator>
  <i type="logical" name="GGA_COMPAT"> T  </i>
  <i type="logical" name="LBERRY"> F  </i>
  <i type="int" name="ICORELEVEL">     0</i>
  <i type="logical" name="LDAU"> F  </i>
  <i type="int" name="I_CONSTRAINED_M">     0</i>
  <separator name="electronic exchange-correlation" >
   <i type="string" name="GGA">BO</i>
   <i type="int" name="VOSKOWN">     0</i>
   <i type="logical" name="LHFCALC"> F  </i>
   <i type="string" name="PRECFOCK"></i>
   <i type="logical" name="LSYMGRAD"> F  </i>
   <i type="logical" name="LHFONE"> F  </i>
   <i type="logical" name="LRHFCALC"> F  </i>
   <i type="logical" name="LTHOMAS"> F  </i>
   <i type="logical" name="LMODELHF"> F  </i>
   <i name="ENCUT4O">     -1.00000000</i>
   <i type="int" name="EXXOEP">     0</i>
   <i type="int" name="FOURORBIT">     0</i>
   <i name="AEXX">      0.00000000</i>
   <i name="HFALPHA">      0.00000000</i>
   <i name="MCALPHA">      0.00000000</i>
   <i name="ALDAX">      1.00000000</i>
   <i name="AGGAX">      1.00000000</i>
   <i name="ALDAC">      1.00000000</i>
   <i name="AGGAC">      0.00000000</i>
   <i type="int" name="NKREDX">     1</i>
   <i type="int" name="NKREDY">     1</i>
   <i type="int" name="NKREDZ">     1</i>
   <i type="logical" name="SHIFTRED"> F  </i>
   <i type="logical" name="ODDONLY"> F  </i>
   <i type="logical" name="EVENONLY"> F  </i>
   <i type="int" name="LMAXFOCK">     0</i>
   <i type="int" name="NMAXFOCKAE">     0</i>
   <i type="logical" name="LFOCKAEDFT"> F  </i>
   <i name="HFSCREEN">      0.00000000</i>
   <i name="HFSCREENC">      0.00000000</i>
   <i type="int" name="NBANDSGWLOW">     0</i>
  </separator>
  <separator name="vdW DFT" >
   <i type="logical" name="LUSE_VDW"> T  </i>
   <i name="Zab_VDW">     -0.84910000</i>
   <i name="PARAM1">      0.18333333</i>
   <i name="PARAM2">      0.22000000</i>
   <i name="PARAM3">      0.00000000</i>
  </separator>
  <separator name="model GW" >
   <i type="int" name="MODEL_GW">     0</i>
   <i name="MODEL_EPS0">     20.39722663</i>
   <i name="MODEL_ALPHA">      1.00000000</i>
  </separator>
  <separator name="linear response parameters" >
   <i type="logical" name="LEPSILON"> F  </i>
   <i type="logical" name="LRPA"> F  </i>
   <i type="logical" name="LNABLA"> F  </i>
   <i type="logical" name="LVEL"> F  </i>
   <i type="int" name="KINTER">     0</i>
   <i name="CSHIFT">      0.10000000</i>
   <i name="OMEGAMAX">     -1.00000000</i>
   <i name="DEG_THRESHOLD">      0.00200000</i>
  </separator>
  <separator name="orbital magnetization" >
   <i type="logical" name="NUCIND"> F  </i>
   <v name="MAGPOS">      0.00000000      0.00000000      0.00000000</v>
   <i type="logical" name="LNICSALL"> T  </i>
   <i type="logical" name="ORBITALMAG"> F  </i>
   <i type="logical" name="LMAGBLOCH"> F  </i>
   <i type="logical" name="LCHIMAG"> F  </i>
   <i type="logical" name="LGAUGE"> T  </i>
   <i type="int" name="MAGATOM">     0</i>
   <v name="MAGDIPOL">      0.00000000      0.00000000      0.00000000</v>
   <v name="AVECCONST">      0.00000000      0.00000000      0.00000000</v>
  </separator>
  <separator name="response functions" >
   <i type="logical" name="LADDER"> F  </i>
   <i type="logical" name="LFXC"> F  </i>
   <i type="logical" name="LHARTREE"> T  </i>
   <i type="int" name="IBSE">     0</i>
   <v type="int" name="KPOINT">    -1     0     0     0</v>
   <i type="logical" name="LTCTE"> F  </i>
   <i type="logical" name="LTETE"> F  </i>
   <i type="logical" name="LTRIPLET"> F  </i>
   <i type="logical" name="LFXCEPS"> F  </i>
   <i type="logical" name="LFXHEG"> F  </i>
   <i type="int" name="NATURALO">     0</i>
   <i type="logical" name="L2ORDER"> F  </i>
   <i type="logical" name="LUSEW"> F  </i>
   <i name="ENCUTGW">     -2.00000000</i>
   <i name="ENCUTGWSOFT">     -2.00000000</i>
   <i name="ENCUTLF">     -1.00000000</i>
   <i type="int" name="LMAXMP2">    -1</i>
   <i name="SCISSOR">      0.00000000</i>
   <i type="int" name="NOMEGA">     0</i>
   <i type="int" name="NOMEGAR">     0</i>
   <i type="int" name="NBANDSGW">    -1</i>
   <i type="int" name="NBANDSO">    -1</i>
   <i type="int" name="NBANDSV">    -1</i>
   <i type="int" name="NELM">     1</i>
   <i type="int" name="NELMHF">     1</i>
   <i type="int" name="DIM">     3</i>
   <i type="int" name="ANTIRES">     0</i>
   <i name="OMEGAMAX">    -30.00000000</i>
   <i name="OMEGAMIN">    -30.00000000</i>
   <i name="OMEGATL">   -200.00000000</i>
   <i type="int" name="OMEGAGRID">     0</i>
   <i name="CSHIFT">     -0.10000000</i>
   <i type="logical" name="SELFENERGY"> F  </i>
   <i type="logical" name="LSPECTRAL"> F  </i>
   <i type="logical" name="LSPECTRALGW"> F  </i>
   <i type="logical" name="LSINGLES"> F  </i>
   <i type="logical" name="LFERMIGW"> F  </i>
   <i type="logical" name="ODDONLYGW"> F  </i>
   <i type="logical" name="EVENONLYGW"> F  </i>
   <i type="int" name="NKREDLFX">     1</i>
   <i type="int" name="NKREDLFY">     1</i>
   <i type="int" name="NKREDLFZ">     1</i>
   <i type="int" name="MAXMEM">  1800</i>
   <i type="int" name="TELESCOPE">     0</i>
   <i type="int" name="TAUPAR">     1</i>
   <i type="int" name="OMEGAPAR">    -1</i>
   <i name="LAMBDA">      1.00000000</i>
  </separator>
  <separator name="External order field" >
   <i name="OFIELD_KAPPA">      0.00000000</i>
   <v name="OFIELD_K">      0.00000000      0.00000000      0.00000000</v>
   <i name="OFIELD_Q6_NEAR">      0.00000000</i>
   <i name="OFIELD_Q6_FAR">      0.00000000</i>
   <i name="OFIELD_A">      0.00000000</i>
  </separator>
 </parameters>
 <atominfo>
  <atoms>       6 </atoms>
  <types>       4 </types>
  <array name="atoms" >
   <dimension dim="1">ion</dimension>
   <field type="string">element</field>
   <field type="int">atomtype</field>
   <set>
    <rc><c>Mo</c><c>   1</c></rc>
    <rc><c>S </c><c>   2</c></rc>
    <rc><c>S </c><c>   2</c></rc>
    <rc><c>Mo</c><c>   3</c></rc>
    <rc><c>S </c><c>   4</c></rc>
    <rc><c>S </c><c>   4</c></rc>
   </set>
  </array>
  <array name="atomtypes" >
   <dimension dim="1">type</dimension>
   <field type="int">atomspertype</field>
   <field type="string">element</field>
   <field>mass</field>
   <field>valence</field>
   <field type="string">pseudopotential</field>
   <set>
    <rc><c>   1</c><c>Mo</c><c>     95.94000000</c><c>     12.00000000</c><c> PAW_PBE Mo_pv 08Apr2002                </c></rc>
    <rc><c>   2</c><c>S </c><c>     32.06600000</c><c>      6.00000000</c><c>  PAW_PBE S 17Jan2003                   </c></rc>
    <rc><c>   1</c><c>Mo</c><c>     95.94000000</c><c>     12.00000000</c><c> PAW_PBE Mo_pv 08Apr2002                </c></rc>
    <rc><c>   2</c><c>S </c><c>     32.06600000</c><c>      6.00000000</c><c>  PAW_PBE S 17Jan2003                   </c></rc>
   </set>
  </array>
 </atominfo>
 <structure name="initialpos" >
  <crystal>
   <varray name="basis" >
    <v>       3.19031700       0.00000000       0.00000000 </v>
    <v>      -1.59515800       2.76289700       0.00000000 </v>
    <v>       0.00000000       0.00000000      23.14049200 </v>
   </varray>
   <i name="volume">    203.97226633 </i>
   <varray name="rec_basis" >
    <v>       0.31344848       0.18096941       0.00000000 </v>
    <v>       0.00000000       0.36193894       0.00000000 </v>
    <v>       0.00000000       0.00000000       0.04321429 </v>
   </varray>
  </crystal>
  <varray name="positions" >
   <v>       0.66666700       0.33333300       0.06785900 </v>
   <v>       0.33333300       0.66666700       0.00000000 </v>
   <v>       0.33333300       0.66666700       0.13571500 </v>
   <v>       0.09523843       0.47619014       0.35482300 </v>
   <v>       0.76190443       0.80952414       0.28696500 </v>
   <v>       0.76190443       0.80952414       0.42267900 </v>
  </varray>
 </structure>
 <calculation>
  <scstep>
   <time name="dav">  107.76  107.84</time>
   <time name="total">  127.25  127.38</time>
   <energy>
    <i name="alphaZ">    104.15310261 </i>
    <i name="ewald">   7699.04583359 </i>
    <i name="hartreedc"> -11109.09877583 </i>
    <i name="XCdc">    128.46409974 </i>
    <i name="pawpsdc">   2252.92270536 </i>
    <i name="pawaedc">  -2205.68654582 </i>
    <i name="eentropy">      0.00034784 </i>
    <i name="bandstr">   -160.45184034 </i>
    <i name="atom">   3688.31848598 </i>
    <i name="e_fr_energy">    397.66741312 </i>
    <i name="e_wo_entrp">    397.66706528 </i>
    <i name="e_0_energy">    397.66729717 </i>
   </energy>
  </scstep>
  <scstep>
   <time name="dav">  117.59  117.68</time>
   <time name="total">  117.60  117.69</time>
   <energy>
    <i name="e_fr_energy">     -1.77557763 </i>
    <i name="e_wo_entrp">     -1.77526280 </i>
    <i name="e_0_energy">     -1.77547269 </i>
   </energy>
  </scstep>
  <scstep>
   <time name="dav">  120.35  120.44</time>
   <time name="total">  120.36  120.45</time>
   <energy>
    <i name="e_fr_energy">    -32.97866282 </i>
    <i name="e_wo_entrp">    -32.97954675 </i>
    <i name="e_0_energy">    -32.97895747 </i>
   </energy>
  </scstep>
  <scstep>
   <time name="dav">  115.66  115.74</time>
   <time name="total">  115.67  115.76</time>
   <energy>
    <i name="e_fr_energy">    -33.84604787 </i>
    <i name="e_wo_entrp">    -33.84725384 </i>
    <i name="e_0_energy">    -33.84644986 </i>
   </energy>
  </scstep>
  <scstep>
   <time name="dav">  119.80  119.89</time>
   <time name="total">  129.07  129.17</time>
   <energy>
    <i name="e_fr_energy">    -33.87255684 </i>
    <i name="e_wo_entrp">    -33.87378559 </i>
    <i name="e_0_energy">    -33.87296642 </i>
   </energy>
  </scstep>
  <scstep>
   <time name="diag">   22.15   22.17</time>
   <time name="diis">   78.40   78.46</time>
   <time name="orth">    0.76    0.76</time>
   <time name="total">  129.74  129.84</time>
   <energy>
    <i name="e_fr_energy">    -30.03147865 </i>
    <i name="e_wo_entrp">    -30.03117392 </i>
    <i name="e_0_energy">    -30.03137707 </i>
   </energy>
  </scstep>
  <scstep>
   <time name="diag">   22.20   22.21</time>
   <time name="diis">   80.25   80.31</time>
   <time name="orth">    0.76    0.76</time>
   <time name="total">  131.15  131.25</time>
   <energy>
    <i name="e_fr_energy">    -32.81132073 </i>
    <i name="e_wo_entrp">    -32.81149694 </i>
    <i name="e_0_energy">    -32.81137947 </i>
   </energy>
  </scstep>
  <scstep>
   <time name="diag">   22.07   22.09</time>
   <time name="diis">   83.17   83.23</time>
   <time name="orth">    0.76    0.76</time>
   <time name="total">  134.06  134.16</time>
   <energy>
    <i name="e_fr_energy">    -34.32833340 </i>
    <i name="e_wo_entrp">    -34.32849906 </i>
    <i name="e_0_energy">    -34.32838862 </i>
   </energy>
  </scstep>
  <scstep>
   <time name="diag">   22.18   22.20</time>
   <time name="diis">   78.07   78.12</time>
   <time name="orth">    0.76    0.76</time>
   <time name="total">  129.16  129.26</time>
   <energy>
    <i name="e_fr_energy">    -37.09059196 </i>
    <i name="e_wo_entrp">    -37.09075944 </i>
    <i name="e_0_energy">    -37.09064779 </i>
   </energy>
  </scstep>
  <scstep>
   <time name="diag">   22.22   22.23</time>
   <time name="diis">   72.78   72.84</time>
   <time name="orth">    0.76    0.76</time>
   <time name="total">  124.02  124.14</time>
   <energy>
    <i name="e_fr_energy">    -39.07799151 </i>
    <i name="e_wo_entrp">    -39.07815868 </i>
    <i name="e_0_energy">    -39.07804724 </i>
   </energy>
  </scstep>
  <scstep>
   <time name="diag">   22.19   22.21</time>
   <time name="diis">   77.00   77.06</time>
   <time name="orth">    0.76    0.76</time>
   <time name="total">  128.18  128.27</time>
   <energy>
    <i name="e_fr_energy">    -39.39484791 </i>
    <i name="e_wo_entrp">    -39.39518081 </i>
    <i name="e_0_energy">    -39.39495888 </i>
   </energy>
  </scstep>
  <scstep>
   <time name="diag">   22.44   22.46</time>
   <time name="diis">   74.86   74.92</time>
   <time name="orth">    0.76    0.76</time>
   <time name="total">  126.33  126.43</time>
   <energy>
    <i name="e_fr_energy">    -39.40368217 </i>
    <i name="e_wo_entrp">    -39.40401492 </i>
    <i name="e_0_energy">    -39.40379308 </i>
   </energy>
  </scstep>
  <scstep>
   <time name="diag">   22.28   22.29</time>
   <time name="diis">   86.48   86.55</time>
   <time name="orth">    0.76    0.76</time>
   <time name="total">  137.75  137.85</time>
   <energy>
    <i name="e_fr_energy">    -39.41647300 </i>
    <i name="e_wo_entrp">    -39.41680608 </i>
    <i name="e_0_energy">    -39.41658403 </i>
   </energy>
  </scstep>
  <scstep>
   <time name="diag">   22.18   22.20</time>
   <time name="diis">   81.15   81.21</time>
   <time name="orth">    0.76    0.76</time>
   <time name="total">  132.42  132.51</time>
   <energy>
    <i name="e_fr_energy">    -39.42029406 </i>
    <i name="e_wo_entrp">    -39.42062820 </i>
    <i name="e_0_energy">    -39.42040544 </i>
   </energy>
  </scstep>
  <scstep>
   <time name="diag">   22.17   22.19</time>
   <time name="diis">   73.44   73.49</time>
   <time name="orth">    0.76    0.76</time>
   <time name="total">  124.68  124.77</time>
   <energy>
    <i name="e_fr_energy">    -39.41993038 </i>
    <i name="e_wo_entrp">    -39.42026449 </i>
    <i name="e_0_energy">    -39.42004175 </i>
   </energy>
  </scstep>
  <scstep>
   <time name="diag">   22.05   22.07</time>
   <time name="diis">   56.48   56.52</time>
   <time name="orth">    0.76    0.76</time>
   <time name="total">  107.54  107.62</time>
   <energy>
    <i name="e_fr_energy">    -39.42016709 </i>
    <i name="e_wo_entrp">    -39.42050125 </i>
    <i name="e_0_energy">    -39.42027848 </i>
   </energy>
  </scstep>
  <scstep>
   <time name="diag">   22.24   22.26</time>
   <time name="diis">   54.86   54.90</time>
   <time name="orth">    0.76    0.76</time>
   <time name="total">  106.20  106.28</time>
   <energy>
    <i name="e_fr_energy">    -39.42034040 </i>
    <i name="e_wo_entrp">    -39.42067454 </i>
    <i name="e_0_energy">    -39.42045178 </i>
   </energy>
  </scstep>
  <scstep>
   <time name="diag">   22.19   22.20</time>
   <time name="diis">   52.45   52.49</time>
   <time name="orth">    0.76    0.76</time>
   <time name="total">  103.66  103.74</time>
   <energy>
    <i name="e_fr_energy">    -39.42074294 </i>
    <i name="e_wo_entrp">    -39.42107705 </i>
    <i name="e_0_energy">    -39.42085431 </i>
   </energy>
  </scstep>
  <scstep>
   <time name="diag">   22.39   22.41</time>
   <time name="diis">   53.20   53.24</time>
   <time name="orth">    0.76    0.76</time>
   <time name="total">  104.84  104.92</time>
   <energy>
    <i name="e_fr_energy">    -39.42122723 </i>
    <i name="e_wo_entrp">    -39.42156131 </i>
    <i name="e_0_energy">    -39.42133859 </i>
   </energy>
  </scstep>
  <scstep>
   <time name="diag">   22.38   22.40</time>
   <time name="diis">   53.71   53.75</time>
   <time name="orth">    0.76    0.76</time>
   <time name="total">  105.22  105.30</time>
   <energy>
    <i name="e_fr_energy">    -39.42141045 </i>
    <i name="e_wo_entrp">    -39.42174452 </i>
    <i name="e_0_energy">    -39.42152181 </i>
   </energy>
  </scstep>
  <scstep>
   <time name="diag">   22.14   22.16</time>
   <time name="diis">   50.03   50.07</time>
   <time name="orth">    0.76    0.76</time>
   <time name="total">   91.55   91.65</time>
   <energy>
    <i name="alphaZ">    104.15310261 </i>
    <i name="ewald">   7699.04583359 </i>
    <i name="hartreedc"> -11092.71635495 </i>
    <i name="XCdc">    122.66127149 </i>
    <i name="pawpsdc">   2399.31480270 </i>
    <i name="pawaedc">  -2361.49901152 </i>
    <i name="eentropy">      0.00033407 </i>
    <i name="bandstr">   -598.69990517 </i>
    <i name="atom">   3688.31848598 </i>
    <i name="e_fr_energy">    -39.42144121 </i>
    <i name="e_wo_entrp">    -39.42177528 </i>
    <i name="e_0_energy">    -39.42155256 </i>
   </energy>
  </scstep>
  <structure>
   <crystal>
    <varray name="basis" >
     <v>       3.19031700       0.00000000       0.00000000 </v>
     <v>      -1.59515800       2.76289700       0.00000000 </v>
     <v>       0.00000000       0.00000000      23.14049200 </v>
    </varray>
    <i name="volume">    203.97226633 </i>
    <varray name="rec_basis" >
     <v>       0.31344848       0.18096941       0.00000000 </v>
     <v>       0.00000000       0.36193894       0.00000000 </v>
     <v>       0.00000000       0.00000000       0.04321429 </v>
    </varray>
   </crystal>
   <varray name="positions" >
    <v>       0.66666700       0.33333300       0.06785900 </v>
    <v>       0.33333300       0.66666700       0.00000000 </v>
    <v>       0.33333300       0.66666700       0.13571500 </v>
    <v>       0.09523843       0.47619014       0.35482300 </v>
    <v>       0.76190443       0.80952414       0.28696500 </v>
    <v>       0.76190443       0.80952414       0.42267900 </v>
   </varray>
  </structure>
  <varray name="forces" >
   <v>      -0.00395556      -0.00208157      -0.00283533 </v>
   <v>      -0.00013030      -0.00153265      -0.05522105 </v>
   <v>      -0.02443668      -0.01057157       0.10811642 </v>
   <v>       0.00346695       0.00154935       0.00814253 </v>
   <v>       0.02592315       0.01218150      -0.11504651 </v>
   <v>      -0.00086755       0.00045494       0.05684394 </v>
  </varray>
  <varray name="stress" >
   <v>       3.75326071       0.12871619       0.85532545 </v>
   <v>       0.12871618       3.28189600       0.33999930 </v>
   <v>       0.85532550       0.33999926       0.31737727 </v>
  </varray>
  <energy>
   <i name="e_fr_energy">    -39.42144121 </i>
   <i name="e_wo_entrp">    -39.42155256 </i>
   <i name="e_0_energy">      0.00033407 </i>
  </energy>
  <time name="totalsc"> 2719.24 2721.39</time>
  <eigenvalues>
   <array>
    <dimension dim="1">band</dimension>
    <dimension dim="2">kpoint</dimension>
    <dimension dim="3">spin</dimension>
    <field>eigene</field>
    <field>occ</field>
    <set>
     <set comment="spin 1">
      <set comment="kpoint 1">
       <r>  -34.9957    1.0000 </r>
       <r>  -34.9863    1.0000 </r>
       <r>  -34.8049    1.0000 </r>
       <r>  -34.8047    1.0000 </r>
       <r>  -34.7955    1.0000 </r>
       <r>  -34.7954    1.0000 </r>
       <r>  -13.9755    1.0000 </r>
       <r>  -13.9192    1.0000 </r>
       <r>  -12.7095    1.0000 </r>
       <r>  -12.6159    1.0000 </r>
       <r>   -5.6867    1.0000 </r>
       <r>   -5.3979    1.0000 </r>
       <r>   -2.6252    1.0000 </r>
       <r>   -2.6251    1.0000 </r>
       <r>   -2.6155    1.0000 </r>
       <r>   -2.6153    1.0000 </r>
       <r>   -2.1774    1.0000 </r>
       <r>   -1.5325    1.0000 </r>
       <r>   -1.5315    1.0000 </r>
       <r>   -1.5217    1.0000 </r>
       <r>   -1.5214    1.0000 </r>
       <r>   -1.4736    1.0000 </r>
       <r>   -0.2237    1.0000 </r>
       <r>    0.2145    0.7958 </r>
       <r>    2.6914   -0.0000 </r>
       <r>    2.6972   -0.0000 </r>
       <r>    2.7117   -0.0000 </r>
       <r>    2.7163   -0.0000 </r>
       <r>    2.8722   -0.0000 </r>
       <r>    2.8789   -0.0000 </r>
       <r>    2.8958   -0.0000 </r>
       <r>    2.9040   -0.0000 </r>
       <r>    5.2780    0.0000 </r>
       <r>    5.3980    0.0000 </r>
       <r>    6.3851    0.0000 </r>
       <r>    6.5428    0.0000 </r>
      </set>
      <set comment="kpoint 2">
       <r>  -34.9916    1.0000 </r>
       <r>  -34.9822    1.0000 </r>
       <r>  -34.8262    1.0000 </r>
       <r>  -34.8167    1.0000 </r>
       <r>  -34.8096    1.0000 </r>
       <r>  -34.8003    1.0000 </r>
       <r>  -13.8887    1.0000 </r>
       <r>  -13.8327    1.0000 </r>
       <r>  -12.6728    1.0000 </r>
       <r>  -12.5816    1.0000 </r>
       <r>   -5.5873    1.0000 </r>
       <r>   -5.2993    1.0000 </r>
       <r>   -2.8123    1.0000 </r>
       <r>   -2.8019    1.0000 </r>
       <r>   -2.5344    1.0000 </r>
       <r>   -2.5247    1.0000 </r>
       <r>   -2.4632    1.0000 </r>
       <r>   -2.0727    1.0000 </r>
       <r>   -1.6693    1.0000 </r>
       <r>   -1.6588    1.0000 </r>
       <r>   -1.3564    1.0000 </r>
       <r>   -1.0750    1.0000 </r>
       <r>   -0.2441    1.0000 </r>
       <r>    0.1359    1.0348 </r>
       <r>    2.5911   -0.0000 </r>
       <r>    2.6051   -0.0000 </r>
       <r>    2.6470   -0.0000 </r>
       <r>    2.6955   -0.0000 </r>
       <r>    2.7806   -0.0000 </r>
       <r>    2.8034   -0.0000 </r>
       <r>    2.8465   -0.0000 </r>
       <r>    2.8603   -0.0000 </r>
       <r>    5.4203    0.0000 </r>
       <r>    5.5352    0.0000 </r>
       <r>    6.7405    0.0000 </r>
       <r>    6.9262    0.0000 </r>
      </set>
      <set comment="kpoint 3">
       <r>  -34.9803    1.0000 </r>
       <r>  -34.9708    1.0000 </r>
       <r>  -34.8846    1.0000 </r>
       <r>  -34.8751    1.0000 </r>
       <r>  -34.8230    1.0000 </r>
       <r>  -34.8137    1.0000 </r>
       <r>  -13.6400    1.0000 </r>
       <r>  -13.5852    1.0000 </r>
       <r>  -12.5675    1.0000 </r>
       <r>  -12.4837    1.0000 </r>
       <r>   -5.3266    1.0000 </r>
       <r>   -5.0457    1.0000 </r>
       <r>   -3.2627    1.0000 </r>
       <r>   -3.2496    1.0000 </r>
       <r>   -2.9623    1.0000 </r>
       <r>   -2.6889    1.0000 </r>
       <r>   -2.2792    1.0000 </r>
       <r>   -2.2686    1.0000 </r>
       <r>   -2.0052    1.0000 </r>
       <r>   -1.9930    1.0000 </r>
       <r>   -1.2624    1.0000 </r>
       <r>   -0.9521    1.0000 </r>
       <r>   -0.3718    1.0000 </r>
       <r>   -0.1500    1.0000 </r>
       <r>    2.1856   -0.0000 </r>
       <r>    2.3564   -0.0000 </r>
       <r>    2.4976   -0.0000 </r>
       <r>    2.5475   -0.0000 </r>
       <r>    2.5810   -0.0000 </r>
       <r>    2.6102   -0.0000 </r>
       <r>    3.1886    0.0000 </r>
       <r>    3.2135    0.0000 </r>
       <r>    5.7775    0.0000 </r>
       <r>    5.8838    0.0000 </r>
       <r>    7.4074    0.0000 </r>
       <r>    7.8215    0.0000 </r>
      </set>
      <set comment="kpoint 4">
       <r>  -34.9661    1.0000 </r>
       <r>  -34.9641    1.0000 </r>
       <r>  -34.9569    1.0000 </r>
       <r>  -34.9544    1.0000 </r>
       <r>  -34.8418    1.0000 </r>
       <r>  -34.8326    1.0000 </r>
       <r>  -13.2642    1.0000 </r>
       <r>  -13.2123    1.0000 </r>
       <r>  -12.4091    1.0000 </r>
       <r>  -12.3372    1.0000 </r>
       <r>   -5.0628    1.0000 </r>
       <r>   -4.8290    1.0000 </r>
       <r>   -3.7210    1.0000 </r>
       <r>   -3.6843    1.0000 </r>
       <r>   -3.4907    1.0000 </r>
       <r>   -3.3099    1.0000 </r>
       <r>   -2.4010    1.0000 </r>
       <r>   -2.3874    1.0000 </r>
       <r>   -1.9109    1.0000 </r>
       <r>   -1.8980    1.0000 </r>
       <r>   -1.4226    1.0000 </r>
       <r>   -1.1524    1.0000 </r>
       <r>   -0.6858    1.0000 </r>
       <r>   -0.6051    1.0000 </r>
       <r>    1.9508   -0.0000 </r>
       <r>    2.2337   -0.0000 </r>
       <r>    2.2963   -0.0000 </r>
       <r>    2.3332   -0.0000 </r>
       <r>    2.6944   -0.0000 </r>
       <r>    2.8935   -0.0000 </r>
       <r>    3.5648    0.0000 </r>
       <r>    3.6050    0.0000 </r>
       <r>    6.2912    0.0000 </r>
       <r>    6.3911    0.0000 </r>
       <r>    7.8674    0.0000 </r>
       <r>    8.2863    0.0000 </r>
      </set>
      <set comment="kpoint 5">
       <r>  -35.0514    1.0000 </r>
       <r>  -35.0419    1.0000 </r>
       <r>  -34.9470    1.0000 </r>
       <r>  -34.9376    1.0000 </r>
       <r>  -34.8617    1.0000 </r>
       <r>  -34.8525    1.0000 </r>
       <r>  -12.8226    1.0000 </r>
       <r>  -12.7770    1.0000 </r>
       <r>  -12.2256    1.0000 </r>
       <r>  -12.1693    1.0000 </r>
       <r>   -5.1171    1.0000 </r>
       <r>   -5.0001    1.0000 </r>
       <r>   -4.0548    1.0000 </r>
       <r>   -3.9403    1.0000 </r>
       <r>   -3.8491    1.0000 </r>
       <r>   -3.7647    1.0000 </r>
       <r>   -2.7568    1.0000 </r>
       <r>   -2.7421    1.0000 </r>
       <r>   -1.6826    1.0000 </r>
       <r>   -1.5180    1.0000 </r>
       <r>   -1.4992    1.0000 </r>
       <r>   -1.4643    1.0000 </r>
       <r>   -0.9779    1.0000 </r>
       <r>   -0.9265    1.0000 </r>
       <r>    2.0417   -0.0000 </r>
       <r>    2.1297   -0.0000 </r>
       <r>    2.1618   -0.0000 </r>
       <r>    2.3163   -0.0000 </r>
       <r>    3.1083    0.0000 </r>
       <r>    3.3347    0.0000 </r>
       <r>    3.8614    0.0000 </r>
       <r>    3.9190    0.0000 </r>
       <r>    6.9172    0.0000 </r>
       <r>    6.9983    0.0000 </r>
       <r>    7.8994    0.0000 </r>
       <r>    8.0720    0.0000 </r>
      </set>
      <set comment="kpoint 6">
       <r>  -35.1211    1.0000 </r>
       <r>  -35.1116    1.0000 </r>
       <r>  -34.9328    1.0000 </r>
       <r>  -34.9234    1.0000 </r>
       <r>  -34.8782    1.0000 </r>
       <r>  -34.8689    1.0000 </r>
       <r>  -12.4086    1.0000 </r>
       <r>  -12.3739    1.0000 </r>
       <r>  -12.0576    1.0000 </r>
       <r>  -12.0194    1.0000 </r>
       <r>   -5.4283    1.0000 </r>
       <r>   -5.3780    1.0000 </r>
       <r>   -4.4677    1.0000 </r>
       <r>   -4.4018    1.0000 </r>
       <r>   -3.9257    1.0000 </r>
       <r>   -3.8516    1.0000 </r>
       <r>   -3.0170    1.0000 </r>
       <r>   -3.0016    1.0000 </r>
       <r>   -1.8785    1.0000 </r>
       <r>   -1.7118    1.0000 </r>
       <r>   -1.2037    1.0000 </r>
       <r>   -1.1769    1.0000 </r>
       <r>   -0.9378    1.0000 </r>
       <r>   -0.8594    1.0000 </r>
       <r>    2.0891   -0.0000 </r>
       <r>    2.1108   -0.0000 </r>
       <r>    2.3056   -0.0000 </r>
       <r>    2.4906   -0.0000 </r>
       <r>    3.5204    0.0000 </r>
       <r>    3.7003    0.0000 </r>
       <r>    4.0446    0.0000 </r>
       <r>    4.1174    0.0000 </r>
       <r>    6.8958    0.0000 </r>
       <r>    7.0801    0.0000 </r>
       <r>    7.5680    0.0000 </r>
       <r>    7.8795    0.0000 </r>
      </set>
      <set comment="kpoint 7">
       <r>  -35.1602    1.0000 </r>
       <r>  -35.1507    1.0000 </r>
       <r>  -34.9247    1.0000 </r>
       <r>  -34.9153    1.0000 </r>
       <r>  -34.8874    1.0000 </r>
       <r>  -34.8782    1.0000 </r>
       <r>  -12.1459    1.0000 </r>
       <r>  -12.1249    1.0000 </r>
       <r>  -11.9535    1.0000 </r>
       <r>  -11.9317    1.0000 </r>
       <r>   -5.6608    1.0000 </r>
       <r>   -5.6381    1.0000 </r>
       <r>   -4.7091    1.0000 </r>
       <r>   -4.6778    1.0000 </r>
       <r>   -4.0246    1.0000 </r>
       <r>   -3.9669    1.0000 </r>
       <r>   -3.1531    1.0000 </r>
       <r>   -3.1374    1.0000 </r>
       <r>   -1.9671    1.0000 </r>
       <r>   -1.8402    1.0000 </r>
       <r>   -1.0392    1.0000 </r>
       <r>   -1.0060    1.0000 </r>
       <r>   -0.7125    1.0000 </r>
       <r>   -0.6386    1.0000 </r>
       <r>    2.1184   -0.0000 </r>
       <r>    2.1322   -0.0000 </r>
       <r>    2.5643   -0.0000 </r>
       <r>    2.6310   -0.0000 </r>
       <r>    3.7692    0.0000 </r>
       <r>    3.8639    0.0000 </r>
       <r>    4.1272    0.0000 </r>
       <r>    4.2087    0.0000 </r>
       <r>    6.1707    0.0000 </r>
       <r>    6.3575    0.0000 </r>
       <r>    7.8458    0.0000 </r>
       <r>    8.0267    0.0000 </r>
      </set>
      <set comment="kpoint 8">
       <r>  -34.9916    1.0000 </r>
       <r>  -34.9822    1.0000 </r>
       <r>  -34.8260    1.0000 </r>
       <r>  -34.8167    1.0000 </r>
       <r>  -34.8097    1.0000 </r>
       <r>  -34.8003    1.0000 </r>
       <r>  -13.8888    1.0000 </r>
       <r>  -13.8327    1.0000 </r>
       <r>  -12.6729    1.0000 </r>
       <r>  -12.5815    1.0000 </r>
       <r>   -5.5876    1.0000 </r>
       <r>   -5.2990    1.0000 </r>
       <r>   -2.8123    1.0000 </r>
       <r>   -2.8020    1.0000 </r>
       <r>   -2.5346    1.0000 </r>
       <r>   -2.5246    1.0000 </r>
       <r>   -2.4620    1.0000 </r>
       <r>   -2.0727    1.0000 </r>
       <r>   -1.6698    1.0000 </r>
       <r>   -1.6584    1.0000 </r>
       <r>   -1.3661    1.0000 </r>
       <r>   -1.0672    1.0000 </r>
       <r>   -0.2454    1.0000 </r>
       <r>    0.1423    1.0326 </r>
       <r>    2.5726   -0.0000 </r>
       <r>    2.6063   -0.0000 </r>
       <r>    2.6338   -0.0000 </r>
       <r>    2.7208   -0.0000 </r>
       <r>    2.7754   -0.0000 </r>
       <r>    2.8067   -0.0000 </r>
       <r>    2.8427   -0.0000 </r>
       <r>    2.8662   -0.0000 </r>
       <r>    5.4203    0.0000 </r>
       <r>    5.5354    0.0000 </r>
       <r>    6.7436    0.0000 </r>
       <r>    6.9254    0.0000 </r>
      </set>
      <set comment="kpoint 9">
       <r>  -34.9839    1.0000 </r>
       <r>  -34.9745    1.0000 </r>
       <r>  -34.8650    1.0000 </r>
       <r>  -34.8556    1.0000 </r>
       <r>  -34.8197    1.0000 </r>
       <r>  -34.8104    1.0000 </r>
       <r>  -13.7211    1.0000 </r>
       <r>  -13.6655    1.0000 </r>
       <r>  -12.6019    1.0000 </r>
       <r>  -12.5152    1.0000 </r>
       <r>   -5.4058    1.0000 </r>
       <r>   -5.1203    1.0000 </r>
       <r>   -3.1265    1.0000 </r>
       <r>   -3.1145    1.0000 </r>
       <r>   -2.8002    1.0000 </r>
       <r>   -2.4866    1.0000 </r>
       <r>   -2.3663    1.0000 </r>
       <r>   -2.3564    1.0000 </r>
       <r>   -1.9826    1.0000 </r>
       <r>   -1.9716    1.0000 </r>
       <r>   -1.2037    1.0000 </r>
       <r>   -0.8881    1.0000 </r>
       <r>   -0.3196    1.0000 </r>
       <r>   -0.0373    1.0002 </r>
       <r>    2.2880   -0.0000 </r>
       <r>    2.4170   -0.0000 </r>
       <r>    2.4542   -0.0000 </r>
       <r>    2.5443   -0.0000 </r>
       <r>    2.6201   -0.0000 </r>
       <r>    2.6398   -0.0000 </r>
       <r>    3.1256    0.0000 </r>
       <r>    3.1392    0.0000 </r>
       <r>    5.6670    0.0000 </r>
       <r>    5.7762    0.0000 </r>
       <r>    7.2798    0.0000 </r>
       <r>    7.5935    0.0000 </r>
      </set>
      <set comment="kpoint 10">
       <r>  -34.9702    1.0000 </r>
       <r>  -34.9607    1.0000 </r>
       <r>  -34.9326    1.0000 </r>
       <r>  -34.9232    1.0000 </r>
       <r>  -34.8381    1.0000 </r>
       <r>  -34.8289    1.0000 </r>
       <r>  -13.4083    1.0000 </r>
       <r>  -13.3546    1.0000 </r>
       <r>  -12.4696    1.0000 </r>
       <r>  -12.3922    1.0000 </r>
       <r>   -5.1261    1.0000 </r>
       <r>   -4.8621    1.0000 </r>
       <r>   -3.5685    1.0000 </r>
       <r>   -3.5460    1.0000 </r>
       <r>   -3.2347    1.0000 </r>
       <r>   -3.0081    1.0000 </r>
       <r>   -2.4707    1.0000 </r>
       <r>   -2.4426    1.0000 </r>
       <r>   -2.0827    1.0000 </r>
       <r>   -2.0714    1.0000 </r>
       <r>   -1.1735    1.0000 </r>
       <r>   -0.9015    1.0000 </r>
       <r>   -0.5480    1.0000 </r>
       <r>   -0.4184    1.0000 </r>
       <r>    1.9542   -0.0000 </r>
       <r>    2.1814   -0.0000 </r>
       <r>    2.3856   -0.0000 </r>
       <r>    2.4244   -0.0000 </r>
       <r>    2.4605   -0.0000 </r>
       <r>    2.6249   -0.0000 </r>
       <r>    3.5250    0.0000 </r>
       <r>    3.5610    0.0000 </r>
       <r>    6.0985    0.0000 </r>
       <r>    6.2061    0.0000 </r>
       <r>    7.7999    0.0000 </r>
       <r>    8.2916    0.0000 </r>
      </set>
      <set comment="kpoint 11">
       <r>  -35.0130    1.0000 </r>
       <r>  -35.0035    1.0000 </r>
       <r>  -34.9535    1.0000 </r>
       <r>  -34.9441    1.0000 </r>
       <r>  -34.8605    1.0000 </r>
       <r>  -34.8513    1.0000 </r>
       <r>  -12.9977    1.0000 </r>
       <r>  -12.9483    1.0000 </r>
       <r>  -12.2969    1.0000 </r>
       <r>  -12.2328    1.0000 </r>
       <r>   -5.0026    1.0000 </r>
       <r>   -4.8322    1.0000 </r>
       <r>   -3.8706    1.0000 </r>
       <r>   -3.7822    1.0000 </r>
       <r>   -3.7175    1.0000 </r>
       <r>   -3.6017    1.0000 </r>
       <r>   -2.8658    1.0000 </r>
       <r>   -2.8056    1.0000 </r>
       <r>   -1.8025    1.0000 </r>
       <r>   -1.7852    1.0000 </r>
       <r>   -1.3716    1.0000 </r>
       <r>   -1.1621    1.0000 </r>
       <r>   -0.8499    1.0000 </r>
       <r>   -0.8021    1.0000 </r>
       <r>    1.8451   -0.0000 </r>
       <r>    2.0627   -0.0000 </r>
       <r>    2.2734   -0.0000 </r>
       <r>    2.3715   -0.0000 </r>
       <r>    2.7377   -0.0000 </r>
       <r>    2.9523   -0.0000 </r>
       <r>    3.8714    0.0000 </r>
       <r>    3.9290    0.0000 </r>
       <r>    6.6933    0.0000 </r>
       <r>    6.7800    0.0000 </r>
       <r>    8.2075    0.0000 </r>
       <r>    8.4892    0.0000 </r>
      </set>
      <set comment="kpoint 12">
       <r>  -35.0876    1.0000 </r>
       <r>  -35.0781    1.0000 </r>
       <r>  -34.9378    1.0000 </r>
       <r>  -34.9284    1.0000 </r>
       <r>  -34.8815    1.0000 </r>
       <r>  -34.8723    1.0000 </r>
       <r>  -12.5650    1.0000 </r>
       <r>  -12.5240    1.0000 </r>
       <r>  -12.1176    1.0000 </r>
       <r>  -12.0701    1.0000 </r>
       <r>   -5.2220    1.0000 </r>
       <r>   -5.1453    1.0000 </r>
       <r>   -4.2902    1.0000 </r>
       <r>   -4.2187    1.0000 </r>
       <r>   -3.8519    1.0000 </r>
       <r>   -3.7617    1.0000 </r>
       <r>   -3.0803    1.0000 </r>
       <r>   -3.0197    1.0000 </r>
       <r>   -1.6939    1.0000 </r>
       <r>   -1.6275    1.0000 </r>
       <r>   -1.6067    1.0000 </r>
       <r>   -1.4823    1.0000 </r>
       <r>   -0.8727    1.0000 </r>
       <r>   -0.8362    1.0000 </r>
       <r>    1.9487   -0.0000 </r>
       <r>    2.0957   -0.0000 </r>
       <r>    2.3179   -0.0000 </r>
       <r>    2.4329   -0.0000 </r>
       <r>    3.1619    0.0000 </r>
       <r>    3.3787    0.0000 </r>
       <r>    4.0714    0.0000 </r>
       <r>    4.1415    0.0000 </r>
       <r>    7.2737    0.0000 </r>
       <r>    7.3818    0.0000 </r>
       <r>    7.5853    0.0000 </r>
       <r>    8.0612    0.0000 </r>
      </set>
      <set comment="kpoint 13">
       <r>  -35.1400    1.0000 </r>
       <r>  -35.1305    1.0000 </r>
       <r>  -34.9267    1.0000 </r>
       <r>  -34.9173    1.0000 </r>
       <r>  -34.8964    1.0000 </r>
       <r>  -34.8872    1.0000 </r>
       <r>  -12.2187    1.0000 </r>
       <r>  -12.1905    1.0000 </r>
       <r>  -11.9770    1.0000 </r>
       <r>  -11.9473    1.0000 </r>
       <r>   -5.4962    1.0000 </r>
       <r>   -5.4611    1.0000 </r>
       <r>   -4.6687    1.0000 </r>
       <r>   -4.6319    1.0000 </r>
       <r>   -3.9457    1.0000 </r>
       <r>   -3.8806    1.0000 </r>
       <r>   -3.1662    1.0000 </r>
       <r>   -3.1280    1.0000 </r>
       <r>   -1.8849    1.0000 </r>
       <r>   -1.7506    1.0000 </r>
       <r>   -1.5134    1.0000 </r>
       <r>   -1.4476    1.0000 </r>
       <r>   -0.6552    1.0000 </r>
       <r>   -0.6145    1.0000 </r>
       <r>    2.0984   -0.0000 </r>
       <r>    2.1574   -0.0000 </r>
       <r>    2.4951   -0.0000 </r>
       <r>    2.5868   -0.0000 </r>
       <r>    3.5644    0.0000 </r>
       <r>    3.7446    0.0000 </r>
       <r>    4.0797    0.0000 </r>
       <r>    4.1637    0.0000 </r>
       <r>    6.5648    0.0000 </r>
       <r>    6.7789    0.0000 </r>
       <r>    8.0005    0.0000 </r>
       <r>    8.1921    0.0000 </r>
      </set>
      <set comment="kpoint 14">
       <r>  -35.1588    1.0000 </r>
       <r>  -35.1493    1.0000 </r>
       <r>  -34.9227    1.0000 </r>
       <r>  -34.9132    1.0000 </r>
       <r>  -34.9017    1.0000 </r>
       <r>  -34.8925    1.0000 </r>
       <r>  -12.0812    1.0000 </r>
       <r>  -12.0630    1.0000 </r>
       <r>  -11.9217    1.0000 </r>
       <r>  -11.9028    1.0000 </r>
       <r>   -5.6076    1.0000 </r>
       <r>   -5.5892    1.0000 </r>
       <r>   -4.8062    1.0000 </r>
       <r>   -4.7838    1.0000 </r>
       <r>   -4.0137    1.0000 </r>
       <r>   -3.9566    1.0000 </r>
       <r>   -3.1829    1.0000 </r>
       <r>   -3.1624    1.0000 </r>
       <r>   -1.9635    1.0000 </r>
       <r>   -1.8410    1.0000 </r>
       <r>   -1.4462    1.0000 </r>
       <r>   -1.3839    1.0000 </r>
       <r>   -0.5186    1.0000 </r>
       <r>   -0.4765    1.0000 </r>
       <r>    2.1388   -0.0000 </r>
       <r>    2.1551   -0.0000 </r>
       <r>    2.6607   -0.0000 </r>
       <r>    2.6799   -0.0000 </r>
       <r>    3.8490    0.0000 </r>
       <r>    3.8906    0.0000 </r>
       <r>    3.9972    0.0000 </r>
       <r>    4.0649    0.0000 </r>
       <r>    6.1697    0.0000 </r>
       <r>    6.3458    0.0000 </r>
       <r>    8.2868    0.0000 </r>
       <r>    8.3601    0.0000 </r>
      </set>
      <set comment="kpoint 15">
       <r>  -35.1400    1.0000 </r>
       <r>  -35.1305    1.0000 </r>
       <r>  -34.9267    1.0000 </r>
       <r>  -34.9173    1.0000 </r>
       <r>  -34.8964    1.0000 </r>
       <r>  -34.8872    1.0000 </r>
       <r>  -12.2180    1.0000 </r>
       <r>  -12.1910    1.0000 </r>
       <r>  -11.9763    1.0000 </r>
       <r>  -11.9480    1.0000 </r>
       <r>   -5.4961    1.0000 </r>
       <r>   -5.4613    1.0000 </r>
       <r>   -4.6674    1.0000 </r>
       <r>   -4.6331    1.0000 </r>
       <r>   -3.9452    1.0000 </r>
       <r>   -3.8814    1.0000 </r>
       <r>   -3.1668    1.0000 </r>
       <r>   -3.1269    1.0000 </r>
       <r>   -1.8788    1.0000 </r>
       <r>   -1.7529    1.0000 </r>
       <r>   -1.5087    1.0000 </r>
       <r>   -1.4577    1.0000 </r>
       <r>   -0.6567    1.0000 </r>
       <r>   -0.6128    1.0000 </r>
       <r>    2.0962   -0.0000 </r>
       <r>    2.1604   -0.0000 </r>
       <r>    2.4965   -0.0000 </r>
       <r>    2.5854   -0.0000 </r>
       <r>    3.5780    0.0000 </r>
       <r>    3.7315    0.0000 </r>
       <r>    4.0744    0.0000 </r>
       <r>    4.1672    0.0000 </r>
       <r>    6.5641    0.0000 </r>
       <r>    6.7795    0.0000 </r>
       <r>    8.0313    0.0000 </r>
       <r>    8.2414    0.0000 </r>
      </set>
      <set comment="kpoint 16">
       <r>  -35.0876    1.0000 </r>
       <r>  -35.0781    1.0000 </r>
       <r>  -34.9378    1.0000 </r>
       <r>  -34.9284    1.0000 </r>
       <r>  -34.8815    1.0000 </r>
       <r>  -34.8723    1.0000 </r>
       <r>  -12.5643    1.0000 </r>
       <r>  -12.5245    1.0000 </r>
       <r>  -12.1169    1.0000 </r>
       <r>  -12.0709    1.0000 </r>
       <r>   -5.2220    1.0000 </r>
       <r>   -5.1455    1.0000 </r>
       <r>   -4.2887    1.0000 </r>
       <r>   -4.2198    1.0000 </r>
       <r>   -3.8499    1.0000 </r>
       <r>   -3.7643    1.0000 </r>
       <r>   -3.0797    1.0000 </r>
       <r>   -3.0192    1.0000 </r>
       <r>   -1.6785    1.0000 </r>
       <r>   -1.6280    1.0000 </r>
       <r>   -1.6106    1.0000 </r>
       <r>   -1.4958    1.0000 </r>
       <r>   -0.8720    1.0000 </r>
       <r>   -0.8372    1.0000 </r>
       <r>    1.9501   -0.0000 </r>
       <r>    2.0960   -0.0000 </r>
       <r>    2.3186   -0.0000 </r>
       <r>    2.4313   -0.0000 </r>
       <r>    3.1733    0.0000 </r>
       <r>    3.3660    0.0000 </r>
       <r>    4.0719    0.0000 </r>
       <r>    4.1419    0.0000 </r>
       <r>    7.2719    0.0000 </r>
       <r>    7.3790    0.0000 </r>
       <r>    7.5807    0.0000 </r>
       <r>    8.0667    0.0000 </r>
      </set>
      <set comment="kpoint 17">
       <r>  -35.0130    1.0000 </r>
       <r>  -35.0035    1.0000 </r>
       <r>  -34.9535    1.0000 </r>
       <r>  -34.9441    1.0000 </r>
       <r>  -34.8605    1.0000 </r>
       <r>  -34.8513    1.0000 </r>
       <r>  -12.9972    1.0000 </r>
       <r>  -12.9487    1.0000 </r>
       <r>  -12.2963    1.0000 </r>
       <r>  -12.2335    1.0000 </r>
       <r>   -5.0026    1.0000 </r>
       <r>   -4.8321    1.0000 </r>
       <r>   -3.8674    1.0000 </r>
       <r>   -3.7850    1.0000 </r>
       <r>   -3.7169    1.0000 </r>
       <r>   -3.6030    1.0000 </r>
       <r>   -2.8641    1.0000 </r>
       <r>   -2.8063    1.0000 </r>
       <r>   -1.8023    1.0000 </r>
       <r>   -1.7844    1.0000 </r>
       <r>   -1.3645    1.0000 </r>
       <r>   -1.1705    1.0000 </r>
       <r>   -0.8486    1.0000 </r>
       <r>   -0.8065    1.0000 </r>
       <r>    1.8483   -0.0000 </r>
       <r>    2.0606   -0.0000 </r>
       <r>    2.2742   -0.0000 </r>
       <r>    2.3700   -0.0000 </r>
       <r>    2.7459   -0.0000 </r>
       <r>    2.9445   -0.0000 </r>
       <r>    3.8715    0.0000 </r>
       <r>    3.9303    0.0000 </r>
       <r>    6.6930    0.0000 </r>
       <r>    6.7801    0.0000 </r>
       <r>    8.2085    0.0000 </r>
       <r>    8.5129    0.0000 </r>
      </set>
      <set comment="kpoint 18">
       <r>  -34.9702    1.0000 </r>
       <r>  -34.9607    1.0000 </r>
       <r>  -34.9326    1.0000 </r>
       <r>  -34.9232    1.0000 </r>
       <r>  -34.8381    1.0000 </r>
       <r>  -34.8289    1.0000 </r>
       <r>  -13.4080    1.0000 </r>
       <r>  -13.3549    1.0000 </r>
       <r>  -12.4692    1.0000 </r>
       <r>  -12.3926    1.0000 </r>
       <r>   -5.1256    1.0000 </r>
       <r>   -4.8624    1.0000 </r>
       <r>   -3.5677    1.0000 </r>
       <r>   -3.5468    1.0000 </r>
       <r>   -3.2355    1.0000 </r>
       <r>   -3.0073    1.0000 </r>
       <r>   -2.4692    1.0000 </r>
       <r>   -2.4437    1.0000 </r>
       <r>   -2.0828    1.0000 </r>
       <r>   -2.0712    1.0000 </r>
       <r>   -1.1650    1.0000 </r>
       <r>   -0.9083    1.0000 </r>
       <r>   -0.5452    1.0000 </r>
       <r>   -0.4278    1.0000 </r>
       <r>    1.9583   -0.0000 </r>
       <r>    2.1824   -0.0000 </r>
       <r>    2.3850   -0.0000 </r>
       <r>    2.4205   -0.0000 </r>
       <r>    2.4673   -0.0000 </r>
       <r>    2.6212   -0.0000 </r>
       <r>    3.5225    0.0000 </r>
       <r>    3.5644    0.0000 </r>
       <r>    6.0989    0.0000 </r>
       <r>    6.2058    0.0000 </r>
       <r>    7.7956    0.0000 </r>
       <r>    8.2479    0.0000 </r>
      </set>
      <set comment="kpoint 19">
       <r>  -34.9839    1.0000 </r>
       <r>  -34.9745    1.0000 </r>
       <r>  -34.8651    1.0000 </r>
       <r>  -34.8556    1.0000 </r>
       <r>  -34.8197    1.0000 </r>
       <r>  -34.8103    1.0000 </r>
       <r>  -13.7209    1.0000 </r>
       <r>  -13.6657    1.0000 </r>
       <r>  -12.6017    1.0000 </r>
       <r>  -12.5154    1.0000 </r>
       <r>   -5.4053    1.0000 </r>
       <r>   -5.1207    1.0000 </r>
       <r>   -3.1270    1.0000 </r>
       <r>   -3.1140    1.0000 </r>
       <r>   -2.8013    1.0000 </r>
       <r>   -2.4856    1.0000 </r>
       <r>   -2.3663    1.0000 </r>
       <r>   -2.3565    1.0000 </r>
       <r>   -1.9828    1.0000 </r>
       <r>   -1.9712    1.0000 </r>
       <r>   -1.1959    1.0000 </r>
       <r>   -0.8945    1.0000 </r>
       <r>   -0.3174    1.0000 </r>
       <r>   -0.0464    1.0001 </r>
       <r>    2.3000   -0.0000 </r>
       <r>    2.4179   -0.0000 </r>
       <r>    2.4588   -0.0000 </r>
       <r>    2.5364   -0.0000 </r>
       <r>    2.6160   -0.0000 </r>
       <r>    2.6400   -0.0000 </r>
       <r>    3.1216    0.0000 </r>
       <r>    3.1433    0.0000 </r>
       <r>    5.6654    0.0000 </r>
       <r>    5.7760    0.0000 </r>
       <r>    7.2675    0.0000 </r>
       <r>    7.5932    0.0000 </r>
      </set>
      <set comment="kpoint 20">
       <r>  -34.9916    1.0000 </r>
       <r>  -34.9822    1.0000 </r>
       <r>  -34.8260    1.0000 </r>
       <r>  -34.8167    1.0000 </r>
       <r>  -34.8097    1.0000 </r>
       <r>  -34.8003    1.0000 </r>
       <r>  -13.8888    1.0000 </r>
       <r>  -13.8327    1.0000 </r>
       <r>  -12.6729    1.0000 </r>
       <r>  -12.5816    1.0000 </r>
       <r>   -5.5875    1.0000 </r>
       <r>   -5.2992    1.0000 </r>
       <r>   -2.8122    1.0000 </r>
       <r>   -2.8020    1.0000 </r>
       <r>   -2.5343    1.0000 </r>
       <r>   -2.5249    1.0000 </r>
       <r>   -2.4626    1.0000 </r>
       <r>   -2.0727    1.0000 </r>
       <r>   -1.6690    1.0000 </r>
       <r>   -1.6593    1.0000 </r>
       <r>   -1.3607    1.0000 </r>
       <r>   -1.0715    1.0000 </r>
       <r>   -0.2446    1.0000 </r>
       <r>    0.1387    1.0341 </r>
       <r>    2.5840   -0.0000 </r>
       <r>    2.6044   -0.0000 </r>
       <r>    2.6389   -0.0000 </r>
       <r>    2.7061   -0.0000 </r>
       <r>    2.7881   -0.0000 </r>
       <r>    2.8005   -0.0000 </r>
       <r>    2.8473   -0.0000 </r>
       <r>    2.8580   -0.0000 </r>
       <r>    5.4204    0.0000 </r>
       <r>    5.5353    0.0000 </r>
       <r>    6.7435    0.0000 </r>
       <r>    6.9257    0.0000 </r>
      </set>
      <set comment="kpoint 21">
       <r>  -34.9803    1.0000 </r>
       <r>  -34.9708    1.0000 </r>
       <r>  -34.8845    1.0000 </r>
       <r>  -34.8752    1.0000 </r>
       <r>  -34.8231    1.0000 </r>
       <r>  -34.8137    1.0000 </r>
       <r>  -13.6404    1.0000 </r>
       <r>  -13.5848    1.0000 </r>
       <r>  -12.5682    1.0000 </r>
       <r>  -12.4829    1.0000 </r>
       <r>   -5.3277    1.0000 </r>
       <r>   -5.0448    1.0000 </r>
       <r>   -3.2652    1.0000 </r>
       <r>   -3.2474    1.0000 </r>
       <r>   -2.9614    1.0000 </r>
       <r>   -2.6885    1.0000 </r>
       <r>   -2.2791    1.0000 </r>
       <r>   -2.2686    1.0000 </r>
       <r>   -2.0051    1.0000 </r>
       <r>   -1.9932    1.0000 </r>
       <r>   -1.2882    1.0000 </r>
       <r>   -0.9320    1.0000 </r>
       <r>   -0.3778    1.0000 </r>
       <r>   -0.1259    1.0000 </r>
       <r>    2.1577   -0.0000 </r>
       <r>    2.3596   -0.0000 </r>
       <r>    2.4879   -0.0000 </r>
       <r>    2.5494   -0.0000 </r>
       <r>    2.5795   -0.0000 </r>
       <r>    2.6291   -0.0000 </r>
       <r>    3.1869    0.0000 </r>
       <r>    3.2153    0.0000 </r>
       <r>    5.7730    0.0000 </r>
       <r>    5.8847    0.0000 </r>
       <r>    7.4103    0.0000 </r>
       <r>    7.8206    0.0000 </r>
      </set>
      <set comment="kpoint 22">
       <r>  -34.9702    1.0000 </r>
       <r>  -34.9607    1.0000 </r>
       <r>  -34.9326    1.0000 </r>
       <r>  -34.9232    1.0000 </r>
       <r>  -34.8382    1.0000 </r>
       <r>  -34.8289    1.0000 </r>
       <r>  -13.4087    1.0000 </r>
       <r>  -13.3543    1.0000 </r>
       <r>  -12.4702    1.0000 </r>
       <r>  -12.3915    1.0000 </r>
       <r>   -5.1266    1.0000 </r>
       <r>   -4.8618    1.0000 </r>
       <r>   -3.5736    1.0000 </r>
       <r>   -3.5409    1.0000 </r>
       <r>   -3.2351    1.0000 </r>
       <r>   -3.0068    1.0000 </r>
       <r>   -2.4691    1.0000 </r>
       <r>   -2.4450    1.0000 </r>
       <r>   -2.0823    1.0000 </r>
       <r>   -2.0717    1.0000 </r>
       <r>   -1.1918    1.0000 </r>
       <r>   -0.8879    1.0000 </r>
       <r>   -0.5527    1.0000 </r>
       <r>   -0.4007    1.0000 </r>
       <r>    1.9442   -0.0000 </r>
       <r>    2.1813   -0.0000 </r>
       <r>    2.3917   -0.0000 </r>
       <r>    2.4091   -0.0000 </r>
       <r>    2.4661   -0.0000 </r>
       <r>    2.6285   -0.0000 </r>
       <r>    3.5348    0.0000 </r>
       <r>    3.5524    0.0000 </r>
       <r>    6.0979    0.0000 </r>
       <r>    6.2074    0.0000 </r>
       <r>    7.7943    0.0000 </r>
       <r>    8.2470    0.0000 </r>
      </set>
      <set comment="kpoint 23">
       <r>  -34.9947    1.0000 </r>
       <r>  -34.9853    1.0000 </r>
       <r>  -34.9559    1.0000 </r>
       <r>  -34.9464    1.0000 </r>
       <r>  -34.8645    1.0000 </r>
       <r>  -34.8552    1.0000 </r>
       <r>  -13.0597    1.0000 </r>
       <r>  -13.0083    1.0000 </r>
       <r>  -12.3221    1.0000 </r>
       <r>  -12.2541    1.0000 </r>
       <r>   -4.9538    1.0000 </r>
       <r>   -4.7564    1.0000 </r>
       <r>   -3.8187    1.0000 </r>
       <r>   -3.7347    1.0000 </r>
       <r>   -3.5258    1.0000 </r>
       <r>   -3.4017    1.0000 </r>
       <r>   -3.0995    1.0000 </r>
       <r>   -2.9981    1.0000 </r>
       <r>   -1.9531    1.0000 </r>
       <r>   -1.9381    1.0000 </r>
       <r>   -1.1570    1.0000 </r>
       <r>   -0.9342    1.0000 </r>
       <r>   -0.7881    1.0000 </r>
       <r>   -0.7264    1.0000 </r>
       <r>    1.7536   -0.0000 </r>
       <r>    1.9847   -0.0000 </r>
       <r>    2.3163   -0.0000 </r>
       <r>    2.3991   -0.0000 </r>
       <r>    2.5131   -0.0000 </r>
       <r>    2.7083   -0.0000 </r>
       <r>    3.9204    0.0000 </r>
       <r>    3.9810    0.0000 </r>
       <r>    6.6157    0.0000 </r>
       <r>    6.7134    0.0000 </r>
       <r>    8.3135    0.0000 </r>
       <r>    8.5999    0.0000 </r>
      </set>
      <set comment="kpoint 24">
       <r>  -35.0576    1.0000 </r>
       <r>  -35.0481    1.0000 </r>
       <r>  -34.9407    1.0000 </r>
       <r>  -34.9313    1.0000 </r>
       <r>  -34.8948    1.0000 </r>
       <r>  -34.8856    1.0000 </r>
       <r>  -12.6525    1.0000 </r>
       <r>  -12.6073    1.0000 </r>
       <r>  -12.1493    1.0000 </r>
       <r>  -12.0952    1.0000 </r>
       <r>   -5.0298    1.0000 </r>
       <r>   -4.9252    1.0000 </r>
       <r>   -4.1047    1.0000 </r>
       <r>   -4.0617    1.0000 </r>
       <r>   -3.7782    1.0000 </r>
       <r>   -3.6589    1.0000 </r>
       <r>   -3.3191    1.0000 </r>
       <r>   -3.1703    1.0000 </r>
       <r>   -2.0827    1.0000 </r>
       <r>   -2.0568    1.0000 </r>
       <r>   -1.3561    1.0000 </r>
       <r>   -1.1966    1.0000 </r>
       <r>   -0.8456    1.0000 </r>
       <r>   -0.8170    1.0000 </r>
       <r>    1.7790   -0.0000 </r>
       <r>    2.0387   -0.0000 </r>
       <r>    2.3868   -0.0000 </r>
       <r>    2.4451   -0.0000 </r>
       <r>    2.7661   -0.0000 </r>
       <r>    2.9728   -0.0000 </r>
       <r>    4.1766    0.0000 </r>
       <r>    4.2601    0.0000 </r>
       <r>    7.2568    0.0000 </r>
       <r>    7.3380    0.0000 </r>
       <r>    8.1871    0.0000 </r>
       <r>    8.4991    0.0000 </r>
      </set>
      <set comment="kpoint 25">
       <r>  -35.1082    1.0000 </r>
       <r>  -35.0987    1.0000 </r>
       <r>  -34.9281    1.0000 </r>
       <r>  -34.9208    1.0000 </r>
       <r>  -34.9187    1.0000 </r>
       <r>  -34.9116    1.0000 </r>
       <r>  -12.2759    1.0000 </r>
       <r>  -12.2408    1.0000 </r>
       <r>  -11.9898    1.0000 </r>
       <r>  -11.9519    1.0000 </r>
       <r>   -5.2260    1.0000 </r>
       <r>   -5.1684    1.0000 </r>
       <r>   -4.6409    1.0000 </r>
       <r>   -4.6164    1.0000 </r>
       <r>   -3.7840    1.0000 </r>
       <r>   -3.7001    1.0000 </r>
       <r>   -3.2881    1.0000 </r>
       <r>   -3.1723    1.0000 </r>
       <r>   -2.2327    1.0000 </r>
       <r>   -2.1650    1.0000 </r>
       <r>   -1.6775    1.0000 </r>
       <r>   -1.5488    1.0000 </r>
       <r>   -0.6689    1.0000 </r>
       <r>   -0.6454    1.0000 </r>
       <r>    2.0034   -0.0000 </r>
       <r>    2.2070   -0.0000 </r>
       <r>    2.5077   -0.0000 </r>
       <r>    2.5484   -0.0000 </r>
       <r>    3.1087    0.0000 </r>
       <r>    3.2995    0.0000 </r>
       <r>    4.2646    0.0000 </r>
       <r>    4.3467    0.0000 </r>
       <r>    7.1859    0.0000 </r>
       <r>    7.3886    0.0000 </r>
       <r>    8.0898    0.0000 </r>
       <r>    8.4386    0.0000 </r>
      </set>
      <set comment="kpoint 26">
       <r>  -35.1364    1.0000 </r>
       <r>  -35.1269    1.0000 </r>
       <r>  -34.9356    1.0000 </r>
       <r>  -34.9264    1.0000 </r>
       <r>  -34.9210    1.0000 </r>
       <r>  -34.9115    1.0000 </r>
       <r>  -12.0403    1.0000 </r>
       <r>  -12.0176    1.0000 </r>
       <r>  -11.8903    1.0000 </r>
       <r>  -11.8673    1.0000 </r>
       <r>   -5.3477    1.0000 </r>
       <r>   -5.3216    1.0000 </r>
       <r>   -4.9461    1.0000 </r>
       <r>   -4.9271    1.0000 </r>
       <r>   -3.9161    1.0000 </r>
       <r>   -3.8557    1.0000 </r>
       <r>   -3.1845    1.0000 </r>
       <r>   -3.1314    1.0000 </r>
       <r>   -2.2407    1.0000 </r>
       <r>   -2.1529    1.0000 </r>
       <r>   -1.9265    1.0000 </r>
       <r>   -1.8007    1.0000 </r>
       <r>   -0.4347    1.0000 </r>
       <r>   -0.4116    1.0000 </r>
       <r>    2.0592   -0.0000 </r>
       <r>    2.1028   -0.0000 </r>
       <r>    2.7701   -0.0000 </r>
       <r>    2.8341   -0.0000 </r>
       <r>    3.3701    0.0000 </r>
       <r>    3.5126    0.0000 </r>
       <r>    4.2380    0.0000 </r>
       <r>    4.3121    0.0000 </r>
       <r>    6.5231    0.0000 </r>
       <r>    6.7219    0.0000 </r>
       <r>    8.7388    0.0000 </r>
       <r>    8.7777    0.0000 </r>
      </set>
      <set comment="kpoint 27">
       <r>  -35.1364    1.0000 </r>
       <r>  -35.1269    1.0000 </r>
       <r>  -34.9356    1.0000 </r>
       <r>  -34.9264    1.0000 </r>
       <r>  -34.9210    1.0000 </r>
       <r>  -34.9115    1.0000 </r>
       <r>  -12.0392    1.0000 </r>
       <r>  -12.0185    1.0000 </r>
       <r>  -11.8895    1.0000 </r>
       <r>  -11.8684    1.0000 </r>
       <r>   -5.3475    1.0000 </r>
       <r>   -5.3220    1.0000 </r>
       <r>   -4.9454    1.0000 </r>
       <r>   -4.9277    1.0000 </r>
       <r>   -3.9159    1.0000 </r>
       <r>   -3.8558    1.0000 </r>
       <r>   -3.1853    1.0000 </r>
       <r>   -3.1300    1.0000 </r>
       <r>   -2.2332    1.0000 </r>
       <r>   -2.1568    1.0000 </r>
       <r>   -1.9293    1.0000 </r>
       <r>   -1.8031    1.0000 </r>
       <r>   -0.4346    1.0000 </r>
       <r>   -0.4114    1.0000 </r>
       <r>    2.0575   -0.0000 </r>
       <r>    2.1044   -0.0000 </r>
       <r>    2.7696   -0.0000 </r>
       <r>    2.8350   -0.0000 </r>
       <r>    3.3865    0.0000 </r>
       <r>    3.4948    0.0000 </r>
       <r>    4.2374    0.0000 </r>
       <r>    4.3127    0.0000 </r>
       <r>    6.5229    0.0000 </r>
       <r>    6.7233    0.0000 </r>
       <r>    8.7526    0.0000 </r>
       <r>    8.8313    0.0000 </r>
      </set>
      <set comment="kpoint 28">
       <r>  -35.1082    1.0000 </r>
       <r>  -35.0987    1.0000 </r>
       <r>  -34.9281    1.0000 </r>
       <r>  -34.9208    1.0000 </r>
       <r>  -34.9187    1.0000 </r>
       <r>  -34.9115    1.0000 </r>
       <r>  -12.2742    1.0000 </r>
       <r>  -12.2420    1.0000 </r>
       <r>  -11.9883    1.0000 </r>
       <r>  -11.9537    1.0000 </r>
       <r>   -5.2260    1.0000 </r>
       <r>   -5.1689    1.0000 </r>
       <r>   -4.6391    1.0000 </r>
       <r>   -4.6182    1.0000 </r>
       <r>   -3.7807    1.0000 </r>
       <r>   -3.7029    1.0000 </r>
       <r>   -3.2870    1.0000 </r>
       <r>   -3.1721    1.0000 </r>
       <r>   -2.2234    1.0000 </r>
       <r>   -2.1716    1.0000 </r>
       <r>   -1.6768    1.0000 </r>
       <r>   -1.5567    1.0000 </r>
       <r>   -0.6689    1.0000 </r>
       <r>   -0.6446    1.0000 </r>
       <r>    2.0012   -0.0000 </r>
       <r>    2.2106   -0.0000 </r>
       <r>    2.5095   -0.0000 </r>
       <r>    2.5455   -0.0000 </r>
       <r>    3.1270    0.0000 </r>
       <r>    3.2785    0.0000 </r>
       <r>    4.2665    0.0000 </r>
       <r>    4.3458    0.0000 </r>
       <r>    7.1800    0.0000 </r>
       <r>    7.3944    0.0000 </r>
       <r>    8.0904    0.0000 </r>
       <r>    8.4092    0.0000 </r>
      </set>
      <set comment="kpoint 29">
       <r>  -35.0576    1.0000 </r>
       <r>  -35.0481    1.0000 </r>
       <r>  -34.9407    1.0000 </r>
       <r>  -34.9313    1.0000 </r>
       <r>  -34.8948    1.0000 </r>
       <r>  -34.8855    1.0000 </r>
       <r>  -12.6513    1.0000 </r>
       <r>  -12.6083    1.0000 </r>
       <r>  -12.1478    1.0000 </r>
       <r>  -12.0968    1.0000 </r>
       <r>   -5.0303    1.0000 </r>
       <r>   -4.9251    1.0000 </r>
       <r>   -4.1031    1.0000 </r>
       <r>   -4.0648    1.0000 </r>
       <r>   -3.7682    1.0000 </r>
       <r>   -3.6663    1.0000 </r>
       <r>   -3.3170    1.0000 </r>
       <r>   -3.1719    1.0000 </r>
       <r>   -2.0838    1.0000 </r>
       <r>   -2.0549    1.0000 </r>
       <r>   -1.3458    1.0000 </r>
       <r>   -1.2121    1.0000 </r>
       <r>   -0.8481    1.0000 </r>
       <r>   -0.8150    1.0000 </r>
       <r>    1.7801   -0.0000 </r>
       <r>    2.0388   -0.0000 </r>
       <r>    2.3882   -0.0000 </r>
       <r>    2.4420   -0.0000 </r>
       <r>    2.7767   -0.0000 </r>
       <r>    2.9629   -0.0000 </r>
       <r>    4.1809    0.0000 </r>
       <r>    4.2571    0.0000 </r>
       <r>    7.2565    0.0000 </r>
       <r>    7.3379    0.0000 </r>
       <r>    8.1598    0.0000 </r>
       <r>    8.5829    0.0000 </r>
      </set>
      <set comment="kpoint 30">
       <r>  -34.9947    1.0000 </r>
       <r>  -34.9853    1.0000 </r>
       <r>  -34.9559    1.0000 </r>
       <r>  -34.9465    1.0000 </r>
       <r>  -34.8645    1.0000 </r>
       <r>  -34.8552    1.0000 </r>
       <r>  -13.0588    1.0000 </r>
       <r>  -13.0090    1.0000 </r>
       <r>  -12.3210    1.0000 </r>
       <r>  -12.2553    1.0000 </r>
       <r>   -4.9539    1.0000 </r>
       <r>   -4.7560    1.0000 </r>
       <r>   -3.8116    1.0000 </r>
       <r>   -3.7431    1.0000 </r>
       <r>   -3.5248    1.0000 </r>
       <r>   -3.4013    1.0000 </r>
       <r>   -3.0959    1.0000 </r>
       <r>   -3.0012    1.0000 </r>
       <r>   -1.9541    1.0000 </r>
       <r>   -1.9369    1.0000 </r>
       <r>   -1.1395    1.0000 </r>
       <r>   -0.9481    1.0000 </r>
       <r>   -0.7865    1.0000 </r>
       <r>   -0.7388    1.0000 </r>
       <r>    1.7569   -0.0000 </r>
       <r>    1.9842   -0.0000 </r>
       <r>    2.3180   -0.0000 </r>
       <r>    2.3970   -0.0000 </r>
       <r>    2.5184   -0.0000 </r>
       <r>    2.7057   -0.0000 </r>
       <r>    3.9206    0.0000 </r>
       <r>    3.9814    0.0000 </r>
       <r>    6.6161    0.0000 </r>
       <r>    6.7124    0.0000 </r>
       <r>    8.3283    0.0000 </r>
       <r>    8.7034    0.0000 </r>
      </set>
      <set comment="kpoint 31">
       <r>  -34.9702    1.0000 </r>
       <r>  -34.9607    1.0000 </r>
       <r>  -34.9326    1.0000 </r>
       <r>  -34.9232    1.0000 </r>
       <r>  -34.8382    1.0000 </r>
       <r>  -34.8288    1.0000 </r>
       <r>  -13.4082    1.0000 </r>
       <r>  -13.3548    1.0000 </r>
       <r>  -12.4694    1.0000 </r>
       <r>  -12.3924    1.0000 </r>
       <r>   -5.1258    1.0000 </r>
       <r>   -4.8623    1.0000 </r>
       <r>   -3.5701    1.0000 </r>
       <r>   -3.5443    1.0000 </r>
       <r>   -3.2357    1.0000 </r>
       <r>   -3.0067    1.0000 </r>
       <r>   -2.4680    1.0000 </r>
       <r>   -2.4453    1.0000 </r>
       <r>   -2.0821    1.0000 </r>
       <r>   -2.0720    1.0000 </r>
       <r>   -1.1739    1.0000 </r>
       <r>   -0.9014    1.0000 </r>
       <r>   -0.5476    1.0000 </r>
       <r>   -0.4197    1.0000 </r>
       <r>    1.9538   -0.0000 </r>
       <r>    2.1824   -0.0000 </r>
       <r>    2.3899   -0.0000 </r>
       <r>    2.4123   -0.0000 </r>
       <r>    2.4689   -0.0000 </r>
       <r>    2.6230   -0.0000 </r>
       <r>    3.5288    0.0000 </r>
       <r>    3.5585    0.0000 </r>
       <r>    6.0983    0.0000 </r>
       <r>    6.2065    0.0000 </r>
       <r>    7.7976    0.0000 </r>
       <r>    8.2835    0.0000 </r>
      </set>
      <set comment="kpoint 32">
       <r>  -34.9803    1.0000 </r>
       <r>  -34.9708    1.0000 </r>
       <r>  -34.8845    1.0000 </r>
       <r>  -34.8752    1.0000 </r>
       <r>  -34.8231    1.0000 </r>
       <r>  -34.8137    1.0000 </r>
       <r>  -13.6402    1.0000 </r>
       <r>  -13.5850    1.0000 </r>
       <r>  -12.5678    1.0000 </r>
       <r>  -12.4833    1.0000 </r>
       <r>   -5.3271    1.0000 </r>
       <r>   -5.0453    1.0000 </r>
       <r>   -3.2637    1.0000 </r>
       <r>   -3.2487    1.0000 </r>
       <r>   -2.9619    1.0000 </r>
       <r>   -2.6887    1.0000 </r>
       <r>   -2.2786    1.0000 </r>
       <r>   -2.2691    1.0000 </r>
       <r>   -2.0041    1.0000 </r>
       <r>   -1.9943    1.0000 </r>
       <r>   -1.2742    1.0000 </r>
       <r>   -0.9428    1.0000 </r>
       <r>   -0.3745    1.0000 </r>
       <r>   -0.1394    1.0000 </r>
       <r>    2.1729   -0.0000 </r>
       <r>    2.3580   -0.0000 </r>
       <r>    2.4919   -0.0000 </r>
       <r>    2.5585   -0.0000 </r>
       <r>    2.5707   -0.0000 </r>
       <r>    2.6198   -0.0000 </r>
       <r>    3.1949    0.0000 </r>
       <r>    3.2070    0.0000 </r>
       <r>    5.7754    0.0000 </r>
       <r>    5.8845    0.0000 </r>
       <r>    7.4077    0.0000 </r>
       <r>    7.8254    0.0000 </r>
      </set>
      <set comment="kpoint 33">
       <r>  -34.9839    1.0000 </r>
       <r>  -34.9745    1.0000 </r>
       <r>  -34.8649    1.0000 </r>
       <r>  -34.8557    1.0000 </r>
       <r>  -34.8198    1.0000 </r>
       <r>  -34.8103    1.0000 </r>
       <r>  -13.7212    1.0000 </r>
       <r>  -13.6654    1.0000 </r>
       <r>  -12.6021    1.0000 </r>
       <r>  -12.5149    1.0000 </r>
       <r>   -5.4061    1.0000 </r>
       <r>   -5.1200    1.0000 </r>
       <r>   -3.1262    1.0000 </r>
       <r>   -3.1149    1.0000 </r>
       <r>   -2.7994    1.0000 </r>
       <r>   -2.4873    1.0000 </r>
       <r>   -2.3661    1.0000 </r>
       <r>   -2.3566    1.0000 </r>
       <r>   -1.9825    1.0000 </r>
       <r>   -1.9720    1.0000 </r>
       <r>   -1.2095    1.0000 </r>
       <r>   -0.8834    1.0000 </r>
       <r>   -0.3211    1.0000 </r>
       <r>   -0.0303    1.0002 </r>
       <r>    2.2785   -0.0000 </r>
       <r>    2.4161   -0.0000 </r>
       <r>    2.4515   -0.0000 </r>
       <r>    2.5526   -0.0000 </r>
       <r>    2.6231   -0.0000 </r>
       <r>    2.6373   -0.0000 </r>
       <r>    3.1259    0.0000 </r>
       <r>    3.1386    0.0000 </r>
       <r>    5.6651    0.0000 </r>
       <r>    5.7764    0.0000 </r>
       <r>    7.2629    0.0000 </r>
       <r>    7.5939    0.0000 </r>
      </set>
      <set comment="kpoint 34">
       <r>  -34.9660    1.0000 </r>
       <r>  -34.9642    1.0000 </r>
       <r>  -34.9568    1.0000 </r>
       <r>  -34.9546    1.0000 </r>
       <r>  -34.8419    1.0000 </r>
       <r>  -34.8325    1.0000 </r>
       <r>  -13.2654    1.0000 </r>
       <r>  -13.2113    1.0000 </r>
       <r>  -12.4109    1.0000 </r>
       <r>  -12.3352    1.0000 </r>
       <r>   -5.0636    1.0000 </r>
       <r>   -4.8286    1.0000 </r>
       <r>   -3.7376    1.0000 </r>
       <r>   -3.6681    1.0000 </r>
       <r>   -3.4928    1.0000 </r>
       <r>   -3.3059    1.0000 </r>
       <r>   -2.4004    1.0000 </r>
       <r>   -2.3880    1.0000 </r>
       <r>   -1.9105    1.0000 </r>
       <r>   -1.8985    1.0000 </r>
       <r>   -1.4697    1.0000 </r>
       <r>   -1.1135    1.0000 </r>
       <r>   -0.6986    1.0000 </r>
       <r>   -0.5686    1.0000 </r>
       <r>    1.9319   -0.0000 </r>
       <r>    2.2345   -0.0000 </r>
       <r>    2.2998   -0.0000 </r>
       <r>    2.3301   -0.0000 </r>
       <r>    2.6843   -0.0000 </r>
[...]
       <r>    -2.2200     1.5209    18.3989 </r>
       <r>    -2.0580     3.0450    18.8921 </r>
       <r>    -1.8960     4.0520    19.5484 </r>
       <r>    -1.7341     3.0373    20.0404 </r>
       <r>    -1.5721     3.1041    20.5432 </r>
       <r>    -1.4101     3.2608    21.0714 </r>
       <r>    -1.2481     1.6852    21.3443 </r>
       <r>    -1.0862     2.3184    21.7198 </r>
       <r>    -0.9242     1.5620    21.9729 </r>
       <r>    -0.7622     3.7468    22.5798 </r>
       <r>    -0.6002     2.9305    23.0544 </r>
       <r>    -0.4382     2.0803    23.3914 </r>
       <r>    -0.2763     2.1049    23.7323 </r>
       <r>    -0.1143     1.0311    23.8993 </r>
       <r>     0.0477     0.3697    23.9592 </r>
       <r>     0.2097     0.2239    23.9955 </r>
       <r>     0.3716     0.0292    24.0002 </r>
       <r>     0.5336    -0.0014    24.0000 </r>
       <r>     0.6956    -0.0000    24.0000 </r>
       <r>     0.8576    -0.0000    24.0000 </r>
       <r>     1.0195    -0.0000    24.0000 </r>
       <r>     1.1815    -0.0000    24.0000 </r>
       <r>     1.3435    -0.0000    24.0000 </r>
       <r>     1.5055    -0.0074    23.9988 </r>
       <r>     1.6675     0.1400    24.0215 </r>
       <r>     1.8294     1.1921    24.2146 </r>
       <r>     1.9914     2.5927    24.6345 </r>
       <r>     2.1534     5.2686    25.4879 </r>
       <r>     2.3154     3.6180    26.0740 </r>
       <r>     2.4773     4.8498    26.8595 </r>
       <r>     2.6393     4.9991    27.6693 </r>
       <r>     2.8013     3.3944    28.2191 </r>
       <r>     2.9633     2.9672    28.6997 </r>
       <r>     3.1252     2.5827    29.1180 </r>
       <r>     3.2872     2.6161    29.5418 </r>
       <r>     3.4492     1.6066    29.8020 </r>
       <r>     3.6112     2.1418    30.1490 </r>
       <r>     3.7732     0.9560    30.3038 </r>
       <r>     3.9351     1.8871    30.6095 </r>
       <r>     4.0971     2.0184    30.9364 </r>
       <r>     4.2591     3.0598    31.4320 </r>
       <r>     4.4211     1.5836    31.6885 </r>
       <r>     4.5830     1.0963    31.8661 </r>
       <r>     4.7450     0.7148    31.9819 </r>
       <r>     4.9070     0.1182    32.0010 </r>
       <r>     5.0690    -0.0066    32.0000 </r>
       <r>     5.2309     0.0024    32.0004 </r>
       <r>     5.3929     0.1063    32.0176 </r>
       <r>     5.5549     0.3283    32.0707 </r>
       <r>     5.7169     0.3024    32.1197 </r>
       <r>     5.8789     0.5408    32.2073 </r>
       <r>     6.0408     0.3451    32.2632 </r>
       <r>     6.2028     0.8154    32.3953 </r>
       <r>     6.3648     0.8738    32.5368 </r>
       <r>     6.5268     0.9399    32.6891 </r>
       <r>     6.6887     0.9613    32.8448 </r>
       <r>     6.8507     1.7229    33.1238 </r>
       <r>     7.0127     1.6400    33.3895 </r>
       <r>     7.1747     0.8353    33.5248 </r>
       <r>     7.3366     1.9152    33.8350 </r>
       <r>     7.4986     1.5813    34.0911 </r>
       <r>     7.6606     1.1015    34.2696 </r>
       <r>     7.8226     0.8592    34.4087 </r>
       <r>     7.9845     1.2858    34.6170 </r>
       <r>     8.1465     2.1171    34.9599 </r>
       <r>     8.3085     2.5402    35.3714 </r>
       <r>     8.4705     1.2359    35.5716 </r>
       <r>     8.6325     1.3310    35.7872 </r>
       <r>     8.7944     0.9474    35.9406 </r>
       <r>     8.9564     0.3293    35.9940 </r>
       <r>     9.1184     0.0393    36.0003 </r>
       <r>     9.2804    -0.0020    36.0000 </r>
       <r>     9.4423    -0.0000    36.0000 </r>
       <r>     9.6043    -0.0000    36.0000 </r>
       <r>     9.7663     0.0000    36.0000 </r>
       <r>     9.9283     0.0000    36.0000 </r>
       <r>    10.0902     0.0000    36.0000 </r>
       <r>    10.2522     0.0000    36.0000 </r>
       <r>    10.4142     0.0000    36.0000 </r>
       <r>    10.5762     0.0000    36.0000 </r>
       <r>    10.7382     0.0000    36.0000 </r>
       <r>    10.9001     0.0000    36.0000 </r>
       <r>    11.0621     0.0000    36.0000 </r>
       <r>    11.2241     0.0000    36.0000 </r>
      </set>
      <set comment="spin 2">
       <r>   -37.3689     0.0000     0.0000 </r>
       <r>   -37.2070     0.0000     0.0000 </r>
       <r>   -37.0450     0.0000     0.0000 </r>
       <r>   -36.8830     0.0000     0.0000 </r>
       <r>   -36.7210     0.0000     0.0000 </r>
       <r>   -36.5591     0.0000     0.0000 </r>
       <r>   -36.3971     0.0000     0.0000 </r>
       <r>   -36.2351     0.0000     0.0000 </r>
       <r>   -36.0731    -0.0000    -0.0000 </r>
       <r>   -35.9112    -0.0000    -0.0000 </r>
       <r>   -35.7492    -0.0000    -0.0000 </r>
       <r>   -35.5872    -0.0000    -0.0000 </r>
       <r>   -35.4252    -0.0008    -0.0001 </r>
       <r>   -35.2633    -0.1856    -0.0302 </r>
       <r>   -35.1013     4.0676     0.6287 </r>
       <r>   -34.9393    15.0782     3.0710 </r>
       <r>   -34.7773    18.0590     5.9961 </r>
       <r>   -34.6153     0.0522     6.0046 </r>
       <r>   -34.4534    -0.0283     6.0000 </r>
       <r>   -34.2914    -0.0000     6.0000 </r>
       <r>   -34.1294    -0.0000     6.0000 </r>
       <r>   -33.9674     0.0000     6.0000 </r>
       <r>   -33.8055     0.0000     6.0000 </r>
       <r>   -33.6435     0.0000     6.0000 </r>
       <r>   -33.4815     0.0000     6.0000 </r>
       <r>   -33.3195     0.0000     6.0000 </r>
       <r>   -33.1576     0.0000     6.0000 </r>
       <r>   -32.9956     0.0000     6.0000 </r>
       <r>   -32.8336     0.0000     6.0000 </r>
       <r>   -32.6716     0.0000     6.0000 </r>
       <r>   -32.5096     0.0000     6.0000 </r>
       <r>   -32.3477     0.0000     6.0000 </r>
       <r>   -32.1857     0.0000     6.0000 </r>
       <r>   -32.0237     0.0000     6.0000 </r>
       <r>   -31.8617     0.0000     6.0000 </r>
       <r>   -31.6998     0.0000     6.0000 </r>
       <r>   -31.5378     0.0000     6.0000 </r>
       <r>   -31.3758     0.0000     6.0000 </r>
       <r>   -31.2138     0.0000     6.0000 </r>
       <r>   -31.0519     0.0000     6.0000 </r>
       <r>   -30.8899     0.0000     6.0000 </r>
       <r>   -30.7279     0.0000     6.0000 </r>
       <r>   -30.5659     0.0000     6.0000 </r>
       <r>   -30.4039     0.0000     6.0000 </r>
       <r>   -30.2420     0.0000     6.0000 </r>
       <r>   -30.0800     0.0000     6.0000 </r>
       <r>   -29.9180     0.0000     6.0000 </r>
       <r>   -29.7560     0.0000     6.0000 </r>
       <r>   -29.5941     0.0000     6.0000 </r>
       <r>   -29.4321     0.0000     6.0000 </r>
       <r>   -29.2701     0.0000     6.0000 </r>
       <r>   -29.1081     0.0000     6.0000 </r>
       <r>   -28.9462     0.0000     6.0000 </r>
       <r>   -28.7842     0.0000     6.0000 </r>
       <r>   -28.6222     0.0000     6.0000 </r>
       <r>   -28.4602     0.0000     6.0000 </r>
       <r>   -28.2982     0.0000     6.0000 </r>
       <r>   -28.1363     0.0000     6.0000 </r>
       <r>   -27.9743     0.0000     6.0000 </r>
       <r>   -27.8123     0.0000     6.0000 </r>
       <r>   -27.6503     0.0000     6.0000 </r>
       <r>   -27.4884     0.0000     6.0000 </r>
       <r>   -27.3264     0.0000     6.0000 </r>
       <r>   -27.1644     0.0000     6.0000 </r>
       <r>   -27.0024     0.0000     6.0000 </r>
       <r>   -26.8405     0.0000     6.0000 </r>
       <r>   -26.6785     0.0000     6.0000 </r>
       <r>   -26.5165     0.0000     6.0000 </r>
       <r>   -26.3545     0.0000     6.0000 </r>
       <r>   -26.1926     0.0000     6.0000 </r>
       <r>   -26.0306     0.0000     6.0000 </r>
       <r>   -25.8686     0.0000     6.0000 </r>
       <r>   -25.7066     0.0000     6.0000 </r>
       <r>   -25.5446     0.0000     6.0000 </r>
       <r>   -25.3827     0.0000     6.0000 </r>
       <r>   -25.2207     0.0000     6.0000 </r>
       <r>   -25.0587     0.0000     6.0000 </r>
       <r>   -24.8967     0.0000     6.0000 </r>
       <r>   -24.7348     0.0000     6.0000 </r>
       <r>   -24.5728     0.0000     6.0000 </r>
       <r>   -24.4108     0.0000     6.0000 </r>
       <r>   -24.2488     0.0000     6.0000 </r>
       <r>   -24.0869     0.0000     6.0000 </r>
       <r>   -23.9249     0.0000     6.0000 </r>
       <r>   -23.7629     0.0000     6.0000 </r>
       <r>   -23.6009     0.0000     6.0000 </r>
       <r>   -23.4389     0.0000     6.0000 </r>
       <r>   -23.2770     0.0000     6.0000 </r>
       <r>   -23.1150     0.0000     6.0000 </r>
       <r>   -22.9530     0.0000     6.0000 </r>
       <r>   -22.7910     0.0000     6.0000 </r>
       <r>   -22.6291     0.0000     6.0000 </r>
       <r>   -22.4671     0.0000     6.0000 </r>
       <r>   -22.3051     0.0000     6.0000 </r>
       <r>   -22.1431     0.0000     6.0000 </r>
       <r>   -21.9812     0.0000     6.0000 </r>
       <r>   -21.8192     0.0000     6.0000 </r>
       <r>   -21.6572     0.0000     6.0000 </r>
       <r>   -21.4952     0.0000     6.0000 </r>
       <r>   -21.3332     0.0000     6.0000 </r>
       <r>   -21.1713     0.0000     6.0000 </r>
       <r>   -21.0093     0.0000     6.0000 </r>
       <r>   -20.8473     0.0000     6.0000 </r>
       <r>   -20.6853     0.0000     6.0000 </r>
       <r>   -20.5234     0.0000     6.0000 </r>
       <r>   -20.3614     0.0000     6.0000 </r>
       <r>   -20.1994     0.0000     6.0000 </r>
       <r>   -20.0374     0.0000     6.0000 </r>
       <r>   -19.8755     0.0000     6.0000 </r>
       <r>   -19.7135     0.0000     6.0000 </r>
       <r>   -19.5515     0.0000     6.0000 </r>
       <r>   -19.3895     0.0000     6.0000 </r>
       <r>   -19.2275     0.0000     6.0000 </r>
       <r>   -19.0656     0.0000     6.0000 </r>
       <r>   -18.9036     0.0000     6.0000 </r>
       <r>   -18.7416     0.0000     6.0000 </r>
       <r>   -18.5796     0.0000     6.0000 </r>
       <r>   -18.4177     0.0000     6.0000 </r>
       <r>   -18.2557     0.0000     6.0000 </r>
       <r>   -18.0937     0.0000     6.0000 </r>
       <r>   -17.9317     0.0000     6.0000 </r>
       <r>   -17.7698     0.0000     6.0000 </r>
       <r>   -17.6078     0.0000     6.0000 </r>
       <r>   -17.4458     0.0000     6.0000 </r>
       <r>   -17.2838     0.0000     6.0000 </r>
       <r>   -17.1219     0.0000     6.0000 </r>
       <r>   -16.9599     0.0000     6.0000 </r>
       <r>   -16.7979     0.0000     6.0000 </r>
       <r>   -16.6359     0.0000     6.0000 </r>
       <r>   -16.4739     0.0000     6.0000 </r>
       <r>   -16.3120     0.0000     6.0000 </r>
       <r>   -16.1500     0.0000     6.0000 </r>
       <r>   -15.9880     0.0000     6.0000 </r>
       <r>   -15.8260     0.0000     6.0000 </r>
       <r>   -15.6641     0.0000     6.0000 </r>
       <r>   -15.5021     0.0000     6.0000 </r>
       <r>   -15.3401     0.0000     6.0000 </r>
       <r>   -15.1781     0.0000     6.0000 </r>
       <r>   -15.0162     0.0000     6.0000 </r>
       <r>   -14.8542    -0.0000     6.0000 </r>
       <r>   -14.6922    -0.0000     6.0000 </r>
       <r>   -14.5302    -0.0000     6.0000 </r>
       <r>   -14.3682    -0.0000     6.0000 </r>
       <r>   -14.2063    -0.0001     6.0000 </r>
       <r>   -14.0443    -0.0063     5.9990 </r>
       <r>   -13.8823     0.2166     6.0341 </r>
       <r>   -13.7203     0.4418     6.1056 </r>
       <r>   -13.5584     0.6692     6.2140 </r>
       <r>   -13.3964     0.4012     6.2790 </r>
       <r>   -13.2344     0.7921     6.4073 </r>
       <r>   -13.0724     0.2938     6.4549 </r>
       <r>   -12.9105     1.1243     6.6370 </r>
       <r>   -12.7485     0.4290     6.7065 </r>
       <r>   -12.5865     1.5544     6.9583 </r>
       <r>   -12.4245     2.3137     7.3330 </r>
       <r>   -12.2625     2.6616     7.7641 </r>
       <r>   -12.1006     3.8971     8.3954 </r>
       <r>   -11.9386     5.4716     9.2816 </r>
       <r>   -11.7766     4.2029     9.9624 </r>
       <r>   -11.6146     0.2478    10.0026 </r>
       <r>   -11.4527    -0.0158    10.0000 </r>
       <r>   -11.2907    -0.0000    10.0000 </r>
       <r>   -11.1287    -0.0000    10.0000 </r>
       <r>   -10.9667     0.0000    10.0000 </r>
       <r>   -10.8048     0.0000    10.0000 </r>
       <r>   -10.6428     0.0000    10.0000 </r>
       <r>   -10.4808     0.0000    10.0000 </r>
       <r>   -10.3188     0.0000    10.0000 </r>
       <r>   -10.1569     0.0000    10.0000 </r>
       <r>    -9.9949     0.0000    10.0000 </r>
       <r>    -9.8329     0.0000    10.0000 </r>
       <r>    -9.6709     0.0000    10.0000 </r>
       <r>    -9.5089     0.0000    10.0000 </r>
       <r>    -9.3470     0.0000    10.0000 </r>
       <r>    -9.1850     0.0000    10.0000 </r>
       <r>    -9.0230     0.0000    10.0000 </r>
       <r>    -8.8610     0.0000    10.0000 </r>
       <r>    -8.6991     0.0000    10.0000 </r>
       <r>    -8.5371     0.0000    10.0000 </r>
       <r>    -8.3751     0.0000    10.0000 </r>
       <r>    -8.2131     0.0000    10.0000 </r>
       <r>    -8.0512     0.0000    10.0000 </r>
       <r>    -7.8892     0.0000    10.0000 </r>
       <r>    -7.7272     0.0000    10.0000 </r>
       <r>    -7.5652     0.0000    10.0000 </r>
       <r>    -7.4032     0.0000    10.0000 </r>
       <r>    -7.2413     0.0000    10.0000 </r>
       <r>    -7.0793     0.0000    10.0000 </r>
       <r>    -6.9173     0.0000    10.0000 </r>
       <r>    -6.7553     0.0000    10.0000 </r>
       <r>    -6.5934    -0.0000    10.0000 </r>
       <r>    -6.4314    -0.0000    10.0000 </r>
       <r>    -6.2694    -0.0000    10.0000 </r>
       <r>    -6.1074    -0.0000    10.0000 </r>
       <r>    -5.9455    -0.0001    10.0000 </r>
       <r>    -5.7835    -0.0215     9.9965 </r>
       <r>    -5.6215     0.5260    10.0817 </r>
       <r>    -5.4595     1.2515    10.2844 </r>
       <r>    -5.2975     2.0891    10.6228 </r>
       <r>    -5.1356     2.7848    11.0739 </r>
       <r>    -4.9736     4.6985    11.8349 </r>
       <r>    -4.8116     2.9253    12.3088 </r>
       <r>    -4.6496     2.2643    12.6755 </r>
       <r>    -4.4877     1.6803    12.9477 </r>
       <r>    -4.3257     0.3748    13.0084 </r>
       <r>    -4.1637     0.7352    13.1275 </r>
       <r>    -4.0017     1.6763    13.3990 </r>
       <r>    -3.8398     3.7329    14.0036 </r>
       <r>    -3.6778     4.9763    14.8097 </r>
       <r>    -3.5158     2.9062    15.2804 </r>
       <r>    -3.3538     1.1452    15.4659 </r>
       <r>    -3.1918     3.1532    15.9767 </r>
       <r>    -3.0299     5.4802    16.8643 </r>
       <r>    -2.8679     3.2317    17.3878 </r>
       <r>    -2.7059     1.8348    17.6850 </r>
       <r>    -2.5439     0.9020    17.8311 </r>
       <r>    -2.3820     1.9845    18.1525 </r>
       <r>    -2.2200     1.5210    18.3989 </r>
       <r>    -2.0580     3.0453    18.8922 </r>
       <r>    -1.8960     4.0521    19.5485 </r>
       <r>    -1.7341     3.0376    20.0405 </r>
       <r>    -1.5721     3.1037    20.5433 </r>
       <r>    -1.4101     3.2610    21.0715 </r>
       <r>    -1.2481     1.6848    21.3444 </r>
       <r>    -1.0862     2.3185    21.7199 </r>
       <r>    -0.9242     1.5623    21.9730 </r>
       <r>    -0.7622     3.7463    22.5798 </r>
       <r>    -0.6002     2.9305    23.0545 </r>
       <r>    -0.4382     2.0802    23.3914 </r>
       <r>    -0.2763     2.1049    23.7324 </r>
       <r>    -0.1143     1.0310    23.8993 </r>
       <r>     0.0477     0.3697    23.9592 </r>
       <r>     0.2097     0.2240    23.9955 </r>
       <r>     0.3716     0.0292    24.0002 </r>
       <r>     0.5336    -0.0014    24.0000 </r>
       <r>     0.6956    -0.0000    24.0000 </r>
       <r>     0.8576    -0.0000    24.0000 </r>
       <r>     1.0195    -0.0000    24.0000 </r>
       <r>     1.1815    -0.0000    24.0000 </r>
       <r>     1.3435    -0.0000    24.0000 </r>
       <r>     1.5055    -0.0074    23.9988 </r>
       <r>     1.6675     0.1400    24.0215 </r>
       <r>     1.8294     1.1922    24.2146 </r>
       <r>     1.9914     2.5931    24.6346 </r>
       <r>     2.1534     5.2687    25.4880 </r>
       <r>     2.3154     3.6180    26.0740 </r>
       <r>     2.4773     4.8501    26.8596 </r>
       <r>     2.6393     4.9988    27.6693 </r>
       <r>     2.8013     3.3944    28.2191 </r>
       <r>     2.9633     2.9673    28.6998 </r>
       <r>     3.1252     2.5828    29.1181 </r>
       <r>     3.2872     2.6159    29.5418 </r>
       <r>     3.4492     1.6066    29.8021 </r>
       <r>     3.6112     2.1417    30.1490 </r>
       <r>     3.7732     0.9560    30.3038 </r>
       <r>     3.9351     1.8872    30.6095 </r>
       <r>     4.0971     2.0185    30.9365 </r>
       <r>     4.2591     3.0597    31.4321 </r>
       <r>     4.4211     1.5836    31.6886 </r>
       <r>     4.5830     1.0963    31.8661 </r>
       <r>     4.7450     0.7147    31.9819 </r>
       <r>     4.9070     0.1181    32.0010 </r>
       <r>     5.0690    -0.0065    32.0000 </r>
       <r>     5.2309    -0.0007    31.9999 </r>
       <r>     5.3929     0.0826    32.0133 </r>
       <r>     5.5549     0.3329    32.0672 </r>
       <r>     5.7169     0.2922    32.1145 </r>
       <r>     5.8789     0.5446    32.2027 </r>
       <r>     6.0408     0.3512    32.2596 </r>
       <r>     6.2028     0.7815    32.3862 </r>
       <r>     6.3648     0.8960    32.5313 </r>
       <r>     6.5268     0.9605    32.6869 </r>
       <r>     6.6887     0.8524    32.8250 </r>
       <r>     6.8507     1.7682    33.1114 </r>
       <r>     7.0127     1.4815    33.3513 </r>
       <r>     7.1747     0.9753    33.5093 </r>
       <r>     7.3366     1.9017    33.8173 </r>
       <r>     7.4986     1.6805    34.0895 </r>
       <r>     7.6606     1.0635    34.2618 </r>
       <r>     7.8226     0.8832    34.4049 </r>
       <r>     7.9845     1.4026    34.6321 </r>
       <r>     8.1465     1.8072    34.9248 </r>
       <r>     8.3085     2.7107    35.3638 </r>
       <r>     8.4705     1.2605    35.5680 </r>
       <r>     8.6325     0.9200    35.7170 </r>
       <r>     8.7944     0.9367    35.8688 </r>
       <r>     8.9564     0.4851    35.9473 </r>
       <r>     9.1184     0.3384    36.0021 </r>
       <r>     9.2804    -0.0131    36.0000 </r>
       <r>     9.4423    -0.0001    36.0000 </r>
       <r>     9.6043    -0.0000    36.0000 </r>
       <r>     9.7663    -0.0000    36.0000 </r>
       <r>     9.9283     0.0000    36.0000 </r>
       <r>    10.0902     0.0000    36.0000 </r>
       <r>    10.2522     0.0000    36.0000 </r>
       <r>    10.4142     0.0000    36.0000 </r>
       <r>    10.5762     0.0000    36.0000 </r>
       <r>    10.7382     0.0000    36.0000 </r>
       <r>    10.9001     0.0000    36.0000 </r>
       <r>    11.0621     0.0000    36.0000 </r>
       <r>    11.2241     0.0000    36.0000 </r>
      </set>
     </set>
    </array>
   </total>
  </dos>
 </calculation>
 <structure name="finalpos" >
  <crystal>
   <varray name="basis" >
    <v>       3.19031700       0.00000000       0.00000000 </v>
    <v>      -1.59515800       2.76289700       0.00000000 </v>
    <v>       0.00000000       0.00000000      23.14049200 </v>
   </varray>
   <i name="volume">    203.97226633 </i>
   <varray name="rec_basis" >
    <v>       0.31344848       0.18096941       0.00000000 </v>
    <v>       0.00000000       0.36193894       0.00000000 </v>
    <v>       0.00000000       0.00000000       0.04321429 </v>
   </varray>
  </crystal>
  <varray name="positions" >
   <v>       0.66666700       0.33333300       0.06785900 </v>
   <v>       0.33333300       0.66666700       0.00000000 </v>
   <v>       0.33333300       0.66666700       0.13571500 </v>
   <v>       0.09523843       0.47619014       0.35482300 </v>
   <v>       0.76190443       0.80952414       0.28696500 </v>
   <v>       0.76190443       0.80952414       0.42267900 </v>
  </varray>
 </structure>
</modeling>
