<?xml version="1.0" encoding="ISO-8859-1"?>
<modeling>
 <generator>
  <i name="program" type="string">vasp </i>
  <i name="version" type="string">5.3.5  </i>
  <i name="subversion" type="string">31Mar14 (build Oct 29 2014 16:16:03) complex                          parallel </i>
  <i name="platform" type="string">Linux-UFHPC </i>
  <i name="date" type="string">2016 02 09 </i>
  <i name="time" type="string">17:25:17 </i>
 </generator>
 <incar>
  <i type="string" name="PREC">accurate</i>
  <i type="int" name="IBRION">     2</i>
  <i name="EDIFF">      0.00000100</i>
  <i type="int" name="NSW">     0</i>
  <i type="int" name="ISIF">     3</i>
  <i name="ENCUT">    300.00000000</i>
  <i type="string" name="LREAL"> Auto</i>
  <i type="int" name="ISMEAR">     0</i>
  <i name="SIGMA">      0.10000000</i>
  <i type="logical" name="LWAVE"> F  </i>
  <i type="logical" name="LCHARG"> F  </i>
  <i type="logical" name="LAECHG"> F  </i>
  <i type="string" name="GGA"> Bo</i>
  <i name="PARAM1">      0.18333333</i>
  <i name="PARAM2">      0.22000000</i>
  <i type="logical" name="LUSE_VDW"> T  </i>
  <i name="AGGAC">      0.00000000</i>
 </incar>
 <kpoints>
  <generation param="Gamma">
   <v type="int" name="divisions">      13        4        2 </v>
   <v name="usershift">      0.00000000       0.00000000       0.00000000 </v>
   <v name="genvec1">      0.07692308      -0.00000000       0.00000000 </v>
   <v name="genvec2">      0.00000000       0.25000000       0.00000000 </v>
   <v name="genvec3">      0.00000000       0.00000000       0.50000000 </v>
   <v name="shift">      0.00000000       0.00000000       0.00000000 </v>
  </generation>
  <varray name="kpointlist" >
   <v>       0.00000000       0.00000000       0.00000000 </v>
   <v>       0.07692308      -0.00000000       0.00000000 </v>
   <v>       0.15384615      -0.00000000       0.00000000 </v>
   <v>       0.23076923      -0.00000000       0.00000000 </v>
   <v>       0.30769231      -0.00000000       0.00000000 </v>
   <v>       0.38461538      -0.00000000       0.00000000 </v>
   <v>       0.46153846      -0.00000000       0.00000000 </v>
   <v>       0.00000000       0.25000000       0.00000000 </v>
   <v>       0.07692308       0.25000000       0.00000000 </v>
   <v>       0.15384615       0.25000000       0.00000000 </v>
   <v>       0.23076923       0.25000000       0.00000000 </v>
   <v>       0.30769231       0.25000000       0.00000000 </v>
   <v>       0.38461538       0.25000000       0.00000000 </v>
   <v>       0.46153846       0.25000000       0.00000000 </v>
   <v>      -0.46153846       0.25000000       0.00000000 </v>
   <v>      -0.38461538       0.25000000       0.00000000 </v>
   <v>      -0.30769231       0.25000000       0.00000000 </v>
   <v>      -0.23076923       0.25000000       0.00000000 </v>
   <v>      -0.15384615       0.25000000       0.00000000 </v>
   <v>      -0.07692308       0.25000000       0.00000000 </v>
   <v>       0.00000000       0.50000000       0.00000000 </v>
   <v>       0.07692308       0.50000000       0.00000000 </v>
   <v>       0.15384615       0.50000000       0.00000000 </v>
   <v>       0.23076923       0.50000000       0.00000000 </v>
   <v>       0.30769231       0.50000000       0.00000000 </v>
   <v>       0.38461538       0.50000000       0.00000000 </v>
   <v>       0.46153846       0.50000000       0.00000000 </v>
   <v>       0.00000000       0.00000000       0.50000000 </v>
   <v>       0.07692308      -0.00000000       0.50000000 </v>
   <v>       0.15384615      -0.00000000       0.50000000 </v>
   <v>       0.23076923      -0.00000000       0.50000000 </v>
   <v>       0.30769231      -0.00000000       0.50000000 </v>
   <v>       0.38461538      -0.00000000       0.50000000 </v>
   <v>       0.46153846      -0.00000000       0.50000000 </v>
   <v>       0.00000000       0.25000000       0.50000000 </v>
   <v>       0.07692308       0.25000000       0.50000000 </v>
   <v>       0.15384615       0.25000000       0.50000000 </v>
   <v>       0.23076923       0.25000000       0.50000000 </v>
   <v>       0.30769231       0.25000000       0.50000000 </v>
   <v>       0.38461538       0.25000000       0.50000000 </v>
   <v>       0.46153846       0.25000000       0.50000000 </v>
   <v>      -0.46153846       0.25000000       0.50000000 </v>
   <v>      -0.38461538       0.25000000       0.50000000 </v>
   <v>      -0.30769231       0.25000000       0.50000000 </v>
   <v>      -0.23076923       0.25000000       0.50000000 </v>
   <v>      -0.15384615       0.25000000       0.50000000 </v>
   <v>      -0.07692308       0.25000000       0.50000000 </v>
   <v>       0.00000000       0.50000000       0.50000000 </v>
   <v>       0.07692308       0.50000000       0.50000000 </v>
   <v>       0.15384615       0.50000000       0.50000000 </v>
   <v>       0.23076923       0.50000000       0.50000000 </v>
   <v>       0.30769231       0.50000000       0.50000000 </v>
   <v>       0.38461538       0.50000000       0.50000000 </v>
   <v>       0.46153846       0.50000000       0.50000000 </v>
  </varray>
  <varray name="weights" >
   <v>       0.00961538 </v>
   <v>       0.01923077 </v>
   <v>       0.01923077 </v>
   <v>       0.01923077 </v>
   <v>       0.01923077 </v>
   <v>       0.01923077 </v>
   <v>       0.01923077 </v>
   <v>       0.01923077 </v>
   <v>       0.01923077 </v>
   <v>       0.01923077 </v>
   <v>       0.01923077 </v>
   <v>       0.01923077 </v>
   <v>       0.01923077 </v>
   <v>       0.01923077 </v>
   <v>       0.01923077 </v>
   <v>       0.01923077 </v>
   <v>       0.01923077 </v>
   <v>       0.01923077 </v>
   <v>       0.01923077 </v>
   <v>       0.01923077 </v>
   <v>       0.00961538 </v>
   <v>       0.01923077 </v>
   <v>       0.01923077 </v>
   <v>       0.01923077 </v>
   <v>       0.01923077 </v>
   <v>       0.01923077 </v>
   <v>       0.01923077 </v>
   <v>       0.00961538 </v>
   <v>       0.01923077 </v>
   <v>       0.01923077 </v>
   <v>       0.01923077 </v>
   <v>       0.01923077 </v>
   <v>       0.01923077 </v>
   <v>       0.01923077 </v>
   <v>       0.01923077 </v>
   <v>       0.01923077 </v>
   <v>       0.01923077 </v>
   <v>       0.01923077 </v>
   <v>       0.01923077 </v>
   <v>       0.01923077 </v>
   <v>       0.01923077 </v>
   <v>       0.01923077 </v>
   <v>       0.01923077 </v>
   <v>       0.01923077 </v>
   <v>       0.01923077 </v>
   <v>       0.01923077 </v>
   <v>       0.01923077 </v>
   <v>       0.00961538 </v>
   <v>       0.01923077 </v>
   <v>       0.01923077 </v>
   <v>       0.01923077 </v>
   <v>       0.01923077 </v>
   <v>       0.01923077 </v>
   <v>       0.01923077 </v>
  </varray>
 </kpoints>
 <parameters>
  <separator name="general" >
   <i type="string" name="SYSTEM">unknown system</i>
   <i type="logical" name="LCOMPAT"> F  </i>
  </separator>
  <separator name="electronic" >
   <i type="string" name="PREC">accura</i>
   <i name="ENMAX">    300.00000000</i>
   <i name="ENAUG">    342.92400000</i>
   <i name="EDIFF">      0.00000100</i>
   <i type="int" name="IALGO">    38</i>
   <i type="int" name="IWAVPR">    10</i>
   <i type="int" name="NBANDS">    68</i>
   <i name="NELECT">    108.00000000</i>
   <i type="int" name="TURBO">     0</i>
   <i type="int" name="IRESTART">     0</i>
   <i type="int" name="NREBOOT">     0</i>
   <i type="int" name="NMIN">     0</i>
   <i name="EREF">      0.00000000</i>
   <separator name="electronic smearing" >
    <i type="int" name="ISMEAR">     0</i>
    <i name="SIGMA">      0.10000000</i>
    <i name="KSPACING">      0.50000000</i>
    <i type="logical" name="KGAMMA"> T  </i>
   </separator>
   <separator name="electronic projectors" >
    <i type="logical" name="LREAL"> T  </i>
    <v name="ROPT">     -0.00025000     -0.00025000</v>
    <i type="int" name="LMAXPAW">  -100</i>
    <i type="int" name="LMAXMIX">     2</i>
    <i type="logical" name="NLSPLINE"> F  </i>
   </separator>
   <separator name="electronic startup" >
    <i type="int" name="ISTART">     0</i>
    <i type="int" name="ICHARG">     2</i>
    <i type="int" name="INIWAV">     1</i>
   </separator>
   <separator name="electronic spin" >
    <i type="int" name="ISPIN">     1</i>
    <i type="logical" name="LNONCOLLINEAR"> F  </i>
    <v name="MAGMOM">      1.00000000      1.00000000      1.00000000      1.00000000      1.00000000      1.00000000      1.00000000      1.00000000      1.00000000      1.00000000      1.00000000      1.00000000      1.00000000      1.00000000      1.00000000      1.00000000      1.00000000      1.00000000      1.00000000      1.00000000
      1.00000000      1.00000000      1.00000000      1.00000000</v>
    <i name="NUPDOWN">     -1.00000000</i>
    <i type="logical" name="LSORBIT"> F  </i>
    <v name="SAXIS">      0.00000000      0.00000000      1.00000000</v>
    <i type="logical" name="LSPIRAL"> F  </i>
    <v name="QSPIRAL">      0.00000000      0.00000000      0.00000000</v>
    <i type="logical" name="LZEROZ"> F  </i>
   </separator>
   <separator name="electronic exchange-correlation" >
    <i type="logical" name="LASPH"> F  </i>
    <i type="logical" name="LMETAGGA"> F  </i>
   </separator>
   <separator name="electronic convergence" >
    <i type="int" name="NELM">    60</i>
    <i type="int" name="NELMDL">    -5</i>
    <i type="int" name="NELMIN">     2</i>
    <i name="ENINI">    300.00000000</i>
    <separator name="electronic convergence detail" >
     <i type="logical" name="LDIAG"> T  </i>
     <i type="logical" name="LSUBROT"> F  </i>
     <i name="WEIMIN">      0.00000000</i>
     <i name="EBREAK">      0.00000000</i>
     <i name="DEPER">      0.30000000</i>
     <i type="int" name="NRMM">     4</i>
     <i name="TIME">      0.40000000</i>
    </separator>
   </separator>
   <separator name="electronic mixer" >
    <i name="AMIX">      0.40000000</i>
    <i name="BMIX">      1.00000000</i>
    <i name="AMIN">      0.10000000</i>
    <i name="AMIX_MAG">      1.60000000</i>
    <i name="BMIX_MAG">      1.00000000</i>
    <separator name="electronic mixer details" >
     <i type="int" name="IMIX">     4</i>
     <i type="int" name="MAXMIX">   -45</i>
     <i name="WC">    100.00000000</i>
     <i type="int" name="INIMIX">     1</i>
     <i type="int" name="MIXPRE">     1</i>
     <i type="int" name="MREMOVE">     5</i>
    </separator>
   </separator>
   <separator name="electronic dipolcorrection" >
    <i type="logical" name="LDIPOL"> F  </i>
    <i type="logical" name="LMONO"> F  </i>
    <i type="int" name="IDIPOL">     0</i>
    <i name="EPSILON">      1.00000000</i>
    <v name="DIPOL">   -100.00000000   -100.00000000   -100.00000000</v>
    <i name="EFIELD">      0.00000000</i>
   </separator>
  </separator>
  <separator name="grids" >
   <i type="int" name="NGX">    20</i>
   <i type="int" name="NGY">    60</i>
   <i type="int" name="NGZ">   160</i>
   <i type="int" name="NGXF">    40</i>
   <i type="int" name="NGYF">   120</i>
   <i type="int" name="NGZF">   320</i>
   <i type="logical" name="ADDGRID"> F  </i>
  </separator>
  <separator name="ionic" >
   <i type="int" name="NSW">     0</i>
   <i type="int" name="IBRION">    -1</i>
   <i type="int" name="ISIF">     3</i>
   <i name="PSTRESS">      0.00000000</i>
   <i name="EDIFFG">      0.00001000</i>
   <i type="int" name="NFREE">     1</i>
   <i name="POTIM">      0.50000000</i>
   <i name="SMASS">     -3.00000000</i>
   <i name="SCALEE">      1.00000000</i>
  </separator>
  <separator name="ionic md" >
   <i name="TEBEG">      0.00010000</i>
   <i name="TEEND">      0.00010000</i>
   <i type="int" name="NBLOCK">     1</i>
   <i type="int" name="KBLOCK">     1</i>
   <i type="int" name="NPACO">   256</i>
   <i name="APACO">     16.00000000</i>
  </separator>
  <separator name="symmetry" >
   <i type="int" name="ISYM">     2</i>
   <i name="SYMPREC">      0.00001000</i>
  </separator>
  <separator name="dos" >
   <i type="logical" name="LORBIT"> F  </i>
   <v name="RWIGS">     -1.00000000     -1.00000000</v>
   <i type="int" name="NEDOS">   301</i>
   <i name="EMIN">     10.00000000</i>
   <i name="EMAX">    -10.00000000</i>
   <i name="EFERMI">      0.00000000</i>
  </separator>
  <separator name="writing" >
   <i type="int" name="NWRITE">     2</i>
   <i type="logical" name="LWAVE"> F  </i>
   <i type="logical" name="LCHARG"> F  </i>
   <i type="logical" name="LPARD"> F  </i>
   <i type="logical" name="LVTOT"> F  </i>
   <i type="logical" name="LVHAR"> F  </i>
   <i type="logical" name="LELF"> F  </i>
   <i type="logical" name="LOPTICS"> F  </i>
   <v name="STM">      0.00000000      0.00000000      0.00000000      0.00000000      0.00000000      0.00000000      0.00000000</v>
  </separator>
  <separator name="performance" >
   <i type="int" name="NPAR">     4</i>
   <i type="int" name="NSIM">     4</i>
   <i type="int" name="NBLK">    -1</i>
   <i type="logical" name="LPLANE"> T  </i>
   <i type="logical" name="LSCALAPACK"> T  </i>
   <i type="logical" name="LSCAAWARE"> F  </i>
   <i type="logical" name="LSCALU"> F  </i>
   <i type="logical" name="LASYNC"> F  </i>
   <i type="logical" name="LORBITALREAL"> F  </i>
  </separator>
  <separator name="miscellaneous" >
   <i type="int" name="IDIOT">     3</i>
   <i type="logical" name="LMUSIC"> F  </i>
   <v name="POMASS">     30.97400000     28.08500000</v>
   <v name="DARWINR">      0.00000000      0.00000000</v>
   <v name="DARWINV">      1.00000000      1.00000000</v>
   <i type="logical" name="LCORR"> T  </i>
  </separator>
  <i type="logical" name="GGA_COMPAT"> T  </i>
  <i type="logical" name="LBERRY"> F  </i>
  <i type="int" name="ICORELEVEL">     0</i>
  <i type="logical" name="LDAU"> F  </i>
  <i type="int" name="I_CONSTRAINED_M">     0</i>
  <separator name="electronic exchange-correlation" >
   <i type="string" name="GGA">BO</i>
   <i type="int" name="VOSKOWN">     0</i>
   <i type="logical" name="LHFCALC"> F  </i>
   <i type="string" name="PRECFOCK"></i>
   <i type="logical" name="LSYMGRAD"> F  </i>
   <i type="logical" name="LHFONE"> F  </i>
   <i type="logical" name="LRHFCALC"> F  </i>
   <i type="logical" name="LTHOMAS"> F  </i>
   <i type="logical" name="LMODELHF"> F  </i>
   <i name="ENCUT4O">     -1.00000000</i>
   <i type="int" name="EXXOEP">     0</i>
   <i type="int" name="FOURORBIT">     0</i>
   <i name="AEXX">      0.00000000</i>
   <i name="HFALPHA">      0.00000000</i>
   <i name="MCALPHA">      0.00000000</i>
   <i name="ALDAX">      1.00000000</i>
   <i name="AGGAX">      1.00000000</i>
   <i name="ALDAC">      1.00000000</i>
   <i name="AGGAC">      0.00000000</i>
   <i type="int" name="NKREDX">     1</i>
   <i type="int" name="NKREDY">     1</i>
   <i type="int" name="NKREDZ">     1</i>
   <i type="logical" name="SHIFTRED"> F  </i>
   <i type="logical" name="ODDONLY"> F  </i>
   <i type="logical" name="EVENONLY"> F  </i>
   <i type="int" name="LMAXFOCK">     0</i>
   <i type="int" name="NMAXFOCKAE">     0</i>
   <i type="logical" name="LFOCKAEDFT"> F  </i>
   <i name="HFSCREEN">      0.00000000</i>
   <i name="HFSCREENC">      0.00000000</i>
   <i type="int" name="NBANDSGWLOW">     0</i>
  </separator>
  <separator name="vdW DFT" >
   <i type="logical" name="LUSE_VDW"> T  </i>
   <i name="Zab_VDW">     -0.84910000</i>
   <i name="PARAM1">      0.18333333</i>
   <i name="PARAM2">      0.22000000</i>
   <i name="PARAM3">      0.00000000</i>
  </separator>
  <separator name="model GW" >
   <i type="int" name="MODEL_GW">     0</i>
   <i name="MODEL_EPS0">     25.05800243</i>
   <i name="MODEL_ALPHA">      1.00000000</i>
  </separator>
  <separator name="linear response parameters" >
   <i type="logical" name="LEPSILON"> F  </i>
   <i type="logical" name="LRPA"> F  </i>
   <i type="logical" name="LNABLA"> F  </i>
   <i type="logical" name="LVEL"> F  </i>
   <i type="int" name="KINTER">     0</i>
   <i name="CSHIFT">      0.10000000</i>
   <i name="OMEGAMAX">     -1.00000000</i>
   <i name="DEG_THRESHOLD">      0.00200000</i>
  </separator>
  <separator name="orbital magnetization" >
   <i type="logical" name="NUCIND"> F  </i>
   <v name="MAGPOS">      0.00000000      0.00000000      0.00000000</v>
   <i type="logical" name="LNICSALL"> T  </i>
   <i type="logical" name="ORBITALMAG"> F  </i>
   <i type="logical" name="LMAGBLOCH"> F  </i>
   <i type="logical" name="LCHIMAG"> F  </i>
   <i type="logical" name="LGAUGE"> T  </i>
   <i type="int" name="MAGATOM">     0</i>
   <v name="MAGDIPOL">      0.00000000      0.00000000      0.00000000</v>
   <v name="AVECCONST">      0.00000000      0.00000000      0.00000000</v>
  </separator>
  <separator name="response functions" >
   <i type="logical" name="LADDER"> F  </i>
   <i type="logical" name="LFXC"> F  </i>
   <i type="logical" name="LHARTREE"> T  </i>
   <i type="int" name="IBSE">     0</i>
   <i type="logical" name="LTCTE"> F  </i>
   <i type="logical" name="LTETE"> F  </i>
   <i type="logical" name="LTRIPLET"> F  </i>
   <i type="logical" name="LFXCEPS"> F  </i>
   <i type="logical" name="LFXHEG"> F  </i>
   <i type="logical" name="L2ORDER"> F  </i>
   <i type="logical" name="LUSEW"> F  </i>
   <i name="ENCUTGW">     -2.00000000</i>
   <i name="ENCUTGWSOFT">     -2.00000000</i>
   <i name="ENCUTLF">     -1.00000000</i>
   <i type="int" name="LMAXMP2">    -1</i>
   <i name="SCISSOR">      0.00000000</i>
   <i type="int" name="NOMEGA">     0</i>
   <i type="int" name="NOMEGAR">     0</i>
   <i type="int" name="NBANDSGW">    -1</i>
   <i type="int" name="NBANDSO">    -1</i>
   <i type="int" name="NBANDSV">    -1</i>
   <i type="int" name="NELM">     1</i>
   <i type="int" name="DIM">     3</i>
   <i type="int" name="ANTIRES">     0</i>
   <i name="OMEGAMAX">    -30.00000000</i>
   <i name="OMEGAMIN">    -30.00000000</i>
   <i name="OMEGATL">   -200.00000000</i>
   <i type="int" name="OMEGAGRID">     0</i>
   <i name="CSHIFT">     -0.10000000</i>
   <i type="logical" name="SELFENERGY"> F  </i>
   <i type="logical" name="LSPECTRAL"> F  </i>
   <i type="logical" name="ODDONLYGW"> F  </i>
   <i type="logical" name="EVENONLYGW"> F  </i>
   <i type="int" name="NKREDLFX">     1</i>
   <i type="int" name="NKREDLFY">     1</i>
   <i type="int" name="NKREDLFZ">     1</i>
   <i type="int" name="MAXMEM">  1800</i>
   <i type="int" name="TELESCOPE">     0</i>
   <i type="int" name="TAUPAR">     1</i>
  </separator>
  <separator name="External order field" >
   <i name="OFIELD_KAPPA">      0.00000000</i>
   <v name="OFIELD_K">      0.00000000      0.00000000      0.00000000</v>
   <i name="OFIELD_Q6_NEAR">      0.00000000</i>
   <i name="OFIELD_Q6_FAR">      0.00000000</i>
   <i name="OFIELD_A">      0.00000000</i>
  </separator>
 </parameters>
 <atominfo>
  <atoms>      24 </atoms>
  <types>       2 </types>
  <array name="atoms" >
   <dimension dim="1">ion</dimension>
   <field type="string">element</field>
   <field type="int">atomtype</field>
   <set>
    <rc><c>P </c><c>   1</c></rc>
    <rc><c>P </c><c>   1</c></rc>
    <rc><c>P </c><c>   1</c></rc>
    <rc><c>P </c><c>   1</c></rc>
    <rc><c>P </c><c>   1</c></rc>
    <rc><c>P </c><c>   1</c></rc>
    <rc><c>P </c><c>   1</c></rc>
    <rc><c>P </c><c>   1</c></rc>
    <rc><c>P </c><c>   1</c></rc>
    <rc><c>P </c><c>   1</c></rc>
    <rc><c>P </c><c>   1</c></rc>
    <rc><c>P </c><c>   1</c></rc>
    <rc><c>Si</c><c>   2</c></rc>
    <rc><c>Si</c><c>   2</c></rc>
    <rc><c>Si</c><c>   2</c></rc>
    <rc><c>Si</c><c>   2</c></rc>
    <rc><c>Si</c><c>   2</c></rc>
    <rc><c>Si</c><c>   2</c></rc>
    <rc><c>Si</c><c>   2</c></rc>
    <rc><c>Si</c><c>   2</c></rc>
    <rc><c>Si</c><c>   2</c></rc>
    <rc><c>Si</c><c>   2</c></rc>
    <rc><c>Si</c><c>   2</c></rc>
    <rc><c>Si</c><c>   2</c></rc>
   </set>
  </array>
  <array name="atomtypes" >
   <dimension dim="1">type</dimension>
   <field type="int">atomspertype</field>
   <field type="string">element</field>
   <field>mass</field>
   <field>valence</field>
   <field type="string">pseudopotential</field>
   <set>
    <rc><c>  12</c><c>P </c><c>     30.97400000</c><c>      5.00000000</c><c>  PAW_PBE P 17Jan2003                   </c></rc>
    <rc><c>  12</c><c>Si</c><c>     28.08500000</c><c>      4.00000000</c><c> PAW_PBE Si 05Jan2001                   </c></rc>
   </set>
  </array>
 </atominfo>
 <structure name="initialpos" >
  <crystal>
   <varray name="basis" >
    <v>       3.54040000       0.00000000       0.00000000 </v>
    <v>      -1.77020000      10.29434800       0.00000000 </v>
    <v>       0.00000000       0.00000000      27.50142900 </v>
   </varray>
   <i name="volume">   1002.32009712 </i>
   <varray name="rec_basis" >
    <v>       0.28245396       0.04857034       0.00000000 </v>
    <v>       0.00000000       0.09714068       0.00000000 </v>
    <v>       0.00000000       0.00000000       0.03636175 </v>
   </varray>
  </crystal>
  <varray name="positions" >
   <v>       0.11402300       0.22804500       0.23316207 </v>
   <v>       0.21402300       0.62804500       0.51499159 </v>
   <v>       0.45808900       0.91617900       0.20939482 </v>
   <v>       0.55808900       0.31617900       0.49122434 </v>
   <v>       0.31085400       0.62170900       0.08414979 </v>
   <v>       0.31085400       0.62170900       0.36597930 </v>
   <v>       0.99923000       0.99846000       0.08631254 </v>
   <v>       0.99923000       0.99846000       0.36814206 </v>
   <v>       0.65492700       0.30985400       0.06041748 </v>
   <v>       0.65492700       0.30985400       0.34224700 </v>
   <v>       0.76973800       0.53947500       0.20725292 </v>
   <v>       0.86973800       0.93947500       0.48908244 </v>
   <v>       0.93971600       0.87943300       0.15783749 </v>
   <v>       0.03971600       0.27943300       0.43966701 </v>
   <v>       0.20515200       0.41030300       0.18578822 </v>
   <v>       0.30515200       0.81030300       0.46761774 </v>
   <v>       0.20184900       0.40369900       0.09969156 </v>
   <v>       0.20184900       0.40369900       0.38152107 </v>
   <v>       0.56380500       0.12761000       0.10779021 </v>
   <v>       0.56380500       0.12761000       0.38961973 </v>
   <v>       0.56710600       0.13421200       0.19387616 </v>
   <v>       0.66710600       0.53421200       0.47570568 </v>
   <v>       0.82923400       0.65846800       0.13571444 </v>
   <v>       0.92923400       0.05846800       0.41754396 </v>
  </varray>
 </structure>
 <calculation>
  <scstep>
   <time name="dav">   58.79   58.84</time>
   <time name="total">   74.90   75.01</time>
   <energy>
    <i name="alphaZ">     36.80884744 </i>
    <i name="ewald">  12031.20034843 </i>
    <i name="hartreedc"> -15047.24848397 </i>
    <i name="XCdc">    -86.86018930 </i>
    <i name="pawpsdc">   1056.43050070 </i>
    <i name="pawaedc">   -732.41190547 </i>
    <i name="eentropy">     -0.04755897 </i>
    <i name="bandstr">    -99.88041055 </i>
    <i name="atom">   3354.04126044 </i>
    <i name="e_fr_energy">    512.03240876 </i>
    <i name="e_wo_entrp">    512.07996773 </i>
    <i name="e_0_energy">    512.05618825 </i>
   </energy>
  </scstep>
  <scstep>
   <time name="dav">   73.11   73.16</time>
   <time name="total">   73.12   73.17</time>
   <energy>
    <i name="e_fr_energy">    -58.03662473 </i>
    <i name="e_wo_entrp">    -58.02490318 </i>
    <i name="e_0_energy">    -58.03076395 </i>
   </energy>
  </scstep>
  <scstep>
   <time name="dav">   68.15   68.18</time>
   <time name="total">   68.16   68.19</time>
   <energy>
    <i name="e_fr_energy">   -116.64488493 </i>
    <i name="e_wo_entrp">   -116.63188725 </i>
    <i name="e_0_energy">   -116.63838609 </i>
   </energy>
  </scstep>
  <scstep>
   <time name="dav">   82.58   82.64</time>
   <time name="total">   82.59   82.65</time>
   <energy>
    <i name="e_fr_energy">   -119.41671520 </i>
    <i name="e_wo_entrp">   -119.40137751 </i>
    <i name="e_0_energy">   -119.40904635 </i>
   </energy>
  </scstep>
  <scstep>
   <time name="dav">   73.79   73.84</time>
   <time name="total">   77.87   77.92</time>
   <energy>
    <i name="e_fr_energy">   -119.46704264 </i>
    <i name="e_wo_entrp">   -119.45162738 </i>
    <i name="e_0_energy">   -119.45933501 </i>
   </energy>
  </scstep>
  <scstep>
   <time name="dav">   68.39   68.42</time>
   <time name="total">   87.16   87.21</time>
   <energy>
    <i name="e_fr_energy">   -114.02392079 </i>
    <i name="e_wo_entrp">   -113.99758387 </i>
    <i name="e_0_energy">   -114.01075233 </i>
   </energy>
  </scstep>
  <scstep>
   <time name="dav">   65.11   65.15</time>
   <time name="total">   83.89   83.95</time>
   <energy>
    <i name="e_fr_energy">   -114.20253450 </i>
    <i name="e_wo_entrp">   -114.18517091 </i>
    <i name="e_0_energy">   -114.19385270 </i>
   </energy>
  </scstep>
  <scstep>
   <time name="dav">   68.36   68.41</time>
   <time name="total">   87.12   87.17</time>
   <energy>
    <i name="e_fr_energy">   -114.14135953 </i>
    <i name="e_wo_entrp">   -114.12210220 </i>
    <i name="e_0_energy">   -114.13173087 </i>
   </energy>
  </scstep>
  <scstep>
   <time name="dav">   69.16   69.20</time>
   <time name="total">   87.92   87.97</time>
   <energy>
    <i name="e_fr_energy">   -114.15276150 </i>
    <i name="e_wo_entrp">   -114.13439028 </i>
    <i name="e_0_energy">   -114.14357589 </i>
   </energy>
  </scstep>
  <scstep>
   <time name="dav">   68.42   68.46</time>
   <time name="total">   87.17   87.22</time>
   <energy>
    <i name="e_fr_energy">   -114.15394651 </i>
    <i name="e_wo_entrp">   -114.13469659 </i>
    <i name="e_0_energy">   -114.14432155 </i>
   </energy>
  </scstep>
  <scstep>
   <time name="dav">   67.78   67.82</time>
   <time name="total">   86.51   86.57</time>
   <energy>
    <i name="e_fr_energy">   -114.14406130 </i>
    <i name="e_wo_entrp">   -114.12571106 </i>
    <i name="e_0_energy">   -114.13488618 </i>
   </energy>
  </scstep>
  <scstep>
   <time name="dav">   69.76   69.81</time>
   <time name="total">   88.65   88.70</time>
   <energy>
    <i name="e_fr_energy">   -114.13368857 </i>
    <i name="e_wo_entrp">   -114.11511614 </i>
    <i name="e_0_energy">   -114.12440236 </i>
   </energy>
  </scstep>
  <scstep>
   <time name="dav">   69.13   69.16</time>
   <time name="total">   87.96   88.01</time>
   <energy>
    <i name="e_fr_energy">   -114.12907329 </i>
    <i name="e_wo_entrp">   -114.11049853 </i>
    <i name="e_0_energy">   -114.11978591 </i>
   </energy>
  </scstep>
  <scstep>
   <time name="dav">   69.56   69.59</time>
   <time name="total">   88.42   88.45</time>
   <energy>
    <i name="e_fr_energy">   -114.12589525 </i>
    <i name="e_wo_entrp">   -114.10742004 </i>
    <i name="e_0_energy">   -114.11665765 </i>
   </energy>
  </scstep>
  <scstep>
   <time name="dav">   69.17   69.18</time>
   <time name="total">   88.02   88.04</time>
   <energy>
    <i name="e_fr_energy">   -114.12497342 </i>
    <i name="e_wo_entrp">   -114.10647485 </i>
    <i name="e_0_energy">   -114.11572414 </i>
   </energy>
  </scstep>
  <scstep>
   <time name="dav">   69.74   69.75</time>
   <time name="total">   88.62   88.64</time>
   <energy>
    <i name="e_fr_energy">   -114.12450988 </i>
    <i name="e_wo_entrp">   -114.10601985 </i>
    <i name="e_0_energy">   -114.11526487 </i>
   </energy>
  </scstep>
  <scstep>
   <time name="dav">   64.28   64.29</time>
   <time name="total">   83.16   83.17</time>
   <energy>
    <i name="e_fr_energy">   -114.12518415 </i>
    <i name="e_wo_entrp">   -114.10669048 </i>
    <i name="e_0_energy">   -114.11593731 </i>
   </energy>
  </scstep>
  <scstep>
   <time name="dav">   67.00   67.02</time>
   <time name="total">   85.88   85.90</time>
   <energy>
    <i name="e_fr_energy">   -114.12529286 </i>
    <i name="e_wo_entrp">   -114.10679822 </i>
    <i name="e_0_energy">   -114.11604554 </i>
   </energy>
  </scstep>
  <scstep>
   <time name="dav">   60.75   60.76</time>
   <time name="total">   79.62   79.64</time>
   <energy>
    <i name="e_fr_energy">   -114.12547354 </i>
    <i name="e_wo_entrp">   -114.10697793 </i>
    <i name="e_0_energy">   -114.11622574 </i>
   </energy>
  </scstep>
  <scstep>
   <time name="dav">   54.40   54.41</time>
   <time name="total">   73.31   73.33</time>
   <energy>
    <i name="e_fr_energy">   -114.12555345 </i>
    <i name="e_wo_entrp">   -114.10706032 </i>
    <i name="e_0_energy">   -114.11630688 </i>
   </energy>
  </scstep>
  <scstep>
   <time name="dav">   57.14   57.15</time>
   <time name="total">   76.05   76.06</time>
   <energy>
    <i name="e_fr_energy">   -114.12553233 </i>
    <i name="e_wo_entrp">   -114.10703707 </i>
    <i name="e_0_energy">   -114.11628470 </i>
   </energy>
  </scstep>
  <scstep>
   <time name="dav">   56.21   56.22</time>
   <time name="total">   75.13   75.14</time>
   <energy>
    <i name="e_fr_energy">   -114.12551840 </i>
    <i name="e_wo_entrp">   -114.10702255 </i>
    <i name="e_0_energy">   -114.11627048 </i>
   </energy>
  </scstep>
  <scstep>
   <time name="dav">   55.95   55.96</time>
   <time name="total">   74.86   74.88</time>
   <energy>
    <i name="e_fr_energy">   -114.12545126 </i>
    <i name="e_wo_entrp">   -114.10695646 </i>
    <i name="e_0_energy">   -114.11620386 </i>
   </energy>
  </scstep>
  <scstep>
   <time name="dav">   51.00   51.01</time>
   <time name="total">   69.93   69.95</time>
   <energy>
    <i name="e_fr_energy">   -114.12541836 </i>
    <i name="e_wo_entrp">   -114.10692349 </i>
    <i name="e_0_energy">   -114.11617092 </i>
   </energy>
  </scstep>
  <scstep>
   <time name="dav">   54.74   54.75</time>
   <time name="total">   73.47   73.48</time>
   <energy>
    <i name="e_fr_energy">   -114.12540322 </i>
    <i name="e_wo_entrp">   -114.10690839 </i>
    <i name="e_0_energy">   -114.11615581 </i>
   </energy>
  </scstep>
  <scstep>
   <time name="dav">   51.22   51.23</time>
   <time name="total">   69.97   69.98</time>
   <energy>
    <i name="e_fr_energy">   -114.12540467 </i>
    <i name="e_wo_entrp">   -114.10690995 </i>
    <i name="e_0_energy">   -114.11615731 </i>
   </energy>
  </scstep>
  <scstep>
   <time name="dav">   51.48   51.49</time>
   <time name="total">   66.05   66.06</time>
   <energy>
    <i name="alphaZ">     36.80884744 </i>
    <i name="ewald">  12031.20034843 </i>
    <i name="hartreedc"> -15154.85791963 </i>
    <i name="XCdc">    -78.51473483 </i>
    <i name="pawpsdc">   1197.94927052 </i>
    <i name="pawaedc">   -878.04034705 </i>
    <i name="eentropy">     -0.01849469 </i>
    <i name="bandstr">   -622.69363587 </i>
    <i name="atom">   3354.04126044 </i>
    <i name="e_fr_energy">   -114.12540523 </i>
    <i name="e_wo_entrp">   -114.10691054 </i>
    <i name="e_0_energy">   -114.11615788 </i>
   </energy>
  </scstep>
  <structure>
   <crystal>
    <varray name="basis" >
     <v>       3.54040000       0.00000000       0.00000000 </v>
     <v>      -1.77020000      10.29434800       0.00000000 </v>
     <v>       0.00000000       0.00000000      27.50142900 </v>
    </varray>
    <i name="volume">   1002.32009712 </i>
    <varray name="rec_basis" >
     <v>       0.28245396       0.04857034       0.00000000 </v>
     <v>       0.00000000       0.09714068       0.00000000 </v>
     <v>       0.00000000       0.00000000       0.03636175 </v>
    </varray>
   </crystal>
   <varray name="positions" >
    <v>       0.11402300       0.22804500       0.23316207 </v>
    <v>       0.21402300       0.62804500       0.51499159 </v>
    <v>       0.45808900       0.91617900       0.20939482 </v>
    <v>       0.55808900       0.31617900       0.49122434 </v>
    <v>       0.31085400       0.62170900       0.08414979 </v>
    <v>       0.31085400       0.62170900       0.36597930 </v>
    <v>       0.99923000       0.99846000       0.08631254 </v>
    <v>       0.99923000       0.99846000       0.36814206 </v>
    <v>       0.65492700       0.30985400       0.06041748 </v>
    <v>       0.65492700       0.30985400       0.34224700 </v>
    <v>       0.76973800       0.53947500       0.20725292 </v>
    <v>       0.86973800       0.93947500       0.48908244 </v>
    <v>       0.93971600       0.87943300       0.15783749 </v>
    <v>       0.03971600       0.27943300       0.43966701 </v>
    <v>       0.20515200       0.41030300       0.18578822 </v>
    <v>       0.30515200       0.81030300       0.46761774 </v>
    <v>       0.20184900       0.40369900       0.09969156 </v>
    <v>       0.20184900       0.40369900       0.38152107 </v>
    <v>       0.56380500       0.12761000       0.10779021 </v>
    <v>       0.56380500       0.12761000       0.38961973 </v>
    <v>       0.56710600       0.13421200       0.19387616 </v>
    <v>       0.66710600       0.53421200       0.47570568 </v>
    <v>       0.82923400       0.65846800       0.13571444 </v>
    <v>       0.92923400       0.05846800       0.41754396 </v>
   </varray>
  </structure>
  <varray name="forces" >
   <v>      -0.01593888      -0.04189619      -0.02348923 </v>
   <v>       0.00682987      -0.02938111       0.13464190 </v>
   <v>      -0.00083682      -0.01602326       0.07704675 </v>
   <v>       0.37614466       0.24990068       0.34203830 </v>
   <v>      -0.00049716      -0.00515200       0.01084328 </v>
   <v>       0.27059818      -0.19102208       0.97774325 </v>
   <v>      -0.00260621      -0.00158836      -0.00187138 </v>
   <v>       8.90416975     -15.11800586     -34.43067312 </v>
   <v>       0.00131359       0.00167420       0.00862758 </v>
   <v>      -0.48587531      -0.24142823      -0.67064393 </v>
   <v>       0.00130770       0.00436729       0.08884162 </v>
   <v>      -0.04260815      -0.32057450       0.18028497 </v>
   <v>       0.00238256       0.00338321       0.00848609 </v>
   <v>       0.22599747      -0.81265622       4.26900286 </v>
   <v>      -0.00323975      -0.00324653       0.04425201 </v>
   <v>       0.09032599      -0.00783964      -0.21378223 </v>
   <v>       0.00027914       0.00172287      -0.02012256 </v>
   <v>       0.43011606       2.96342298      -3.13380384 </v>
   <v>      -0.00517421      -0.01875514      -0.00744673 </v>
   <v>     -12.27330552       6.29389137      -8.34157635 </v>
   <v>       0.00348654      -0.00677151      -0.00729550 </v>
   <v>      -0.17317205       0.11531441      -0.13043766 </v>
   <v>       0.00183444       0.01614512      -0.00382297 </v>
   <v>       2.68846809       7.16451850      40.84315690 </v>
  </varray>
  <varray name="stress" >
   <v>      40.60353222     -18.27774450      -2.71431240 </v>
   <v>     -18.27774441      22.96854860      21.43457110 </v>
   <v>      -2.71431240      21.43457148      92.14315121 </v>
  </varray>
  <energy>
   <i name="e_fr_energy">   -114.12540523 </i>
   <i name="e_wo_entrp">   -114.11615788 </i>
   <i name="e_0_energy">     -0.01849469 </i>
  </energy>
  <time name="totalsc"> 2271.68 2272.66</time>
  <eigenvalues>
   <array>
    <dimension dim="1">band</dimension>
    <dimension dim="2">kpoint</dimension>
    <dimension dim="3">spin</dimension>
    <field>eigene</field>
    <field>occ</field>
    <set>
     <set comment="spin 1">
      <set comment="kpoint 1">
       <r>  -15.6006    1.0000 </r>
       <r>  -13.5074    1.0000 </r>
       <r>  -13.2126    1.0000 </r>
       <r>  -12.7703    1.0000 </r>
       <r>  -12.7542    1.0000 </r>
       <r>  -12.4466    1.0000 </r>
       <r>  -12.0553    1.0000 </r>
       <r>  -11.8693    1.0000 </r>
       <r>  -11.5165    1.0000 </r>
       <r>  -11.4006    1.0000 </r>
       <r>  -10.9579    1.0000 </r>
       <r>  -10.0899    1.0000 </r>
       <r>   -9.0033    1.0000 </r>
       <r>   -8.0012    1.0000 </r>
       <r>   -7.7959    1.0000 </r>
       <r>   -7.2726    1.0000 </r>
       <r>   -7.2305    1.0000 </r>
       <r>   -6.7846    1.0000 </r>
       <r>   -6.4670    1.0000 </r>
       <r>   -6.3746    1.0000 </r>
       <r>   -5.7974    1.0000 </r>
       <r>   -5.7242    1.0000 </r>
       <r>   -5.4214    1.0000 </r>
       <r>   -4.7710    1.0000 </r>
       <r>   -4.7087    1.0000 </r>
       <r>   -4.0419    1.0000 </r>
       <r>   -3.7111    1.0000 </r>
       <r>   -3.6103    1.0000 </r>
       <r>   -3.2140    1.0000 </r>
       <r>   -3.1169    1.0000 </r>
       <r>   -3.0221    1.0000 </r>
       <r>   -2.9561    1.0000 </r>
       <r>   -2.8572    1.0000 </r>
       <r>   -2.8117    1.0000 </r>
       <r>   -2.7220    1.0000 </r>
       <r>   -2.5182    1.0000 </r>
       <r>   -2.4529    1.0000 </r>
       <r>   -2.3823    1.0000 </r>
       <r>   -2.3463    1.0000 </r>
       <r>   -2.1818    1.0000 </r>
       <r>   -2.0167    1.0000 </r>
       <r>   -1.9335    1.0000 </r>
       <r>   -1.8091    1.0000 </r>
       <r>   -1.6969    1.0000 </r>
       <r>   -1.6099    1.0000 </r>
       <r>   -1.5594    1.0000 </r>
       <r>   -1.5490    1.0000 </r>
       <r>   -1.4779    1.0000 </r>
       <r>   -1.3996    1.0000 </r>
       <r>   -1.3853    1.0000 </r>
       <r>   -1.1151    1.0000 </r>
       <r>   -1.0782    1.0000 </r>
       <r>   -0.3560    0.9974 </r>
       <r>    0.1560    0.0000 </r>
       <r>    0.8847    0.0000 </r>
       <r>    1.0711    0.0000 </r>
       <r>    1.1693    0.0000 </r>
       <r>    1.3112    0.0000 </r>
       <r>    1.3600    0.0000 </r>
       <r>    1.3757    0.0000 </r>
       <r>    1.6932    0.0000 </r>
       <r>    1.7780    0.0000 </r>
       <r>    1.9977    0.0000 </r>
       <r>    2.0375    0.0000 </r>
       <r>    2.1969    0.0000 </r>
       <r>    2.3687    0.0000 </r>
       <r>    2.4696    0.0000 </r>
       <r>    2.5328    0.0000 </r>
      </set>
      <set comment="kpoint 2">
       <r>  -15.5478    1.0000 </r>
       <r>  -13.4461    1.0000 </r>
       <r>  -13.1568    1.0000 </r>
       <r>  -12.7174    1.0000 </r>
       <r>  -12.6957    1.0000 </r>
       <r>  -12.3910    1.0000 </r>
       <r>  -11.9932    1.0000 </r>
       <r>  -11.8214    1.0000 </r>
       <r>  -11.4614    1.0000 </r>
       <r>  -11.3517    1.0000 </r>
       <r>  -10.9095    1.0000 </r>
       <r>  -10.0617    1.0000 </r>
       <r>   -8.9868    1.0000 </r>
       <r>   -8.0376    1.0000 </r>
       <r>   -7.7592    1.0000 </r>
       <r>   -7.3332    1.0000 </r>
       <r>   -7.2074    1.0000 </r>
       <r>   -6.7568    1.0000 </r>
       <r>   -6.4620    1.0000 </r>
       <r>   -6.3830    1.0000 </r>
       <r>   -6.0284    1.0000 </r>
       <r>   -5.7598    1.0000 </r>
       <r>   -5.3938    1.0000 </r>
       <r>   -4.7853    1.0000 </r>
       <r>   -4.7114    1.0000 </r>
       <r>   -4.0107    1.0000 </r>
       <r>   -3.7465    1.0000 </r>
       <r>   -3.6352    1.0000 </r>
       <r>   -3.4834    1.0000 </r>
       <r>   -3.4028    1.0000 </r>
       <r>   -3.2454    1.0000 </r>
       <r>   -3.1953    1.0000 </r>
       <r>   -3.1401    1.0000 </r>
       <r>   -2.9143    1.0000 </r>
       <r>   -2.8730    1.0000 </r>
       <r>   -2.7133    1.0000 </r>
       <r>   -2.6016    1.0000 </r>
       <r>   -2.4718    1.0000 </r>
       <r>   -2.4177    1.0000 </r>
       <r>   -2.2686    1.0000 </r>
       <r>   -2.1665    1.0000 </r>
       <r>   -2.0350    1.0000 </r>
       <r>   -2.0018    1.0000 </r>
       <r>   -1.9327    1.0000 </r>
       <r>   -1.8088    1.0000 </r>
       <r>   -1.7673    1.0000 </r>
       <r>   -1.6867    1.0000 </r>
       <r>   -1.4825    1.0000 </r>
       <r>   -1.3704    1.0000 </r>
       <r>   -1.2785    1.0000 </r>
       <r>   -1.0729    1.0000 </r>
       <r>   -0.9880    1.0000 </r>
       <r>   -0.2906    0.9690 </r>
       <r>    0.1626    0.0000 </r>
       <r>    0.7186    0.0000 </r>
       <r>    1.0233    0.0000 </r>
       <r>    1.1302    0.0000 </r>
       <r>    1.5070    0.0000 </r>
       <r>    1.6133    0.0000 </r>
       <r>    1.7970    0.0000 </r>
       <r>    2.0040    0.0000 </r>
       <r>    2.1649    0.0000 </r>
       <r>    2.2419    0.0000 </r>
       <r>    2.3133    0.0000 </r>
       <r>    2.3886    0.0000 </r>
       <r>    2.6139    0.0000 </r>
       <r>    2.6501    0.0000 </r>
       <r>    2.7222    0.0000 </r>
      </set>
      <set comment="kpoint 3">
       <r>  -15.3922    1.0000 </r>
       <r>  -13.2631    1.0000 </r>
       <r>  -12.9913    1.0000 </r>
       <r>  -12.5609    1.0000 </r>
       <r>  -12.5214    1.0000 </r>
       <r>  -12.2261    1.0000 </r>
       <r>  -11.8115    1.0000 </r>
       <r>  -11.6799    1.0000 </r>
       <r>  -11.3012    1.0000 </r>
       <r>  -11.2099    1.0000 </r>
       <r>  -10.7707    1.0000 </r>
       <r>   -9.9888    1.0000 </r>
       <r>   -8.9614    1.0000 </r>
       <r>   -8.1337    1.0000 </r>
       <r>   -7.7251    1.0000 </r>
       <r>   -7.6802    1.0000 </r>
       <r>   -7.1716    1.0000 </r>
       <r>   -6.7026    1.0000 </r>
       <r>   -6.5796    1.0000 </r>
       <r>   -6.4660    1.0000 </r>
       <r>   -6.1998    1.0000 </r>
       <r>   -5.6860    1.0000 </r>
       <r>   -5.4169    1.0000 </r>
       <r>   -4.8537    1.0000 </r>
       <r>   -4.8243    1.0000 </r>
       <r>   -4.2370    1.0000 </r>
       <r>   -4.1616    1.0000 </r>
       <r>   -4.0501    1.0000 </r>
       <r>   -3.9885    1.0000 </r>
       <r>   -3.9249    1.0000 </r>
       <r>   -3.7699    1.0000 </r>
       <r>   -3.6527    1.0000 </r>
       <r>   -3.3790    1.0000 </r>
       <r>   -3.2669    1.0000 </r>
       <r>   -3.2481    1.0000 </r>
       <r>   -3.1135    1.0000 </r>
       <r>   -2.9362    1.0000 </r>
       <r>   -2.8810    1.0000 </r>
       <r>   -2.6980    1.0000 </r>
       <r>   -2.5313    1.0000 </r>
       <r>   -2.4062    1.0000 </r>
       <r>   -2.3273    1.0000 </r>
       <r>   -2.2717    1.0000 </r>
       <r>   -2.1137    1.0000 </r>
       <r>   -1.9174    1.0000 </r>
       <r>   -1.8349    1.0000 </r>
       <r>   -1.7134    1.0000 </r>
       <r>   -1.6232    1.0000 </r>
       <r>   -1.3309    1.0000 </r>
       <r>   -1.1341    1.0000 </r>
       <r>   -0.9838    1.0000 </r>
       <r>   -0.6685    1.0000 </r>
       <r>   -0.4062    0.9998 </r>
       <r>   -0.0926    0.1750 </r>
       <r>    0.4449    0.0000 </r>
       <r>    0.6685    0.0000 </r>
       <r>    1.0824    0.0000 </r>
       <r>    1.7673    0.0000 </r>
       <r>    1.9724    0.0000 </r>
       <r>    2.2521    0.0000 </r>
       <r>    2.3127    0.0000 </r>
       <r>    2.4659    0.0000 </r>
       <r>    2.6437    0.0000 </r>
       <r>    2.6786    0.0000 </r>
       <r>    2.7619    0.0000 </r>
       <r>    2.9350    0.0000 </r>
       <r>    3.0057    0.0000 </r>
       <r>    3.1087    0.0000 </r>
      </set>
      <set comment="kpoint 4">
       <r>  -15.1445    1.0000 </r>
       <r>  -12.9621    1.0000 </r>
       <r>  -12.7227    1.0000 </r>
       <r>  -12.3044    1.0000 </r>
       <r>  -12.2393    1.0000 </r>
       <r>  -11.9593    1.0000 </r>
       <r>  -11.5268    1.0000 </r>
       <r>  -11.4536    1.0000 </r>
       <r>  -11.0547    1.0000 </r>
       <r>  -10.9933    1.0000 </r>
       <r>  -10.5676    1.0000 </r>
       <r>   -9.9239    1.0000 </r>
       <r>   -9.0270    1.0000 </r>
       <r>   -8.3388    1.0000 </r>
       <r>   -8.3165    1.0000 </r>
       <r>   -7.7886    1.0000 </r>
       <r>   -7.2281    1.0000 </r>
       <r>   -6.7511    1.0000 </r>
       <r>   -6.6521    1.0000 </r>
       <r>   -6.5999    1.0000 </r>
       <r>   -6.1928    1.0000 </r>
       <r>   -5.7095    1.0000 </r>
       <r>   -5.6106    1.0000 </r>
       <r>   -5.3066    1.0000 </r>
       <r>   -5.1613    1.0000 </r>
       <r>   -4.7951    1.0000 </r>
       <r>   -4.7029    1.0000 </r>
       <r>   -4.5676    1.0000 </r>
       <r>   -4.4753    1.0000 </r>
       <r>   -4.4152    1.0000 </r>
       <r>   -4.1456    1.0000 </r>
       <r>   -3.9755    1.0000 </r>
       <r>   -3.7515    1.0000 </r>
       <r>   -3.7346    1.0000 </r>
       <r>   -3.4493    1.0000 </r>
       <r>   -3.3764    1.0000 </r>
       <r>   -3.0765    1.0000 </r>
       <r>   -2.9712    1.0000 </r>
       <r>   -2.8524    1.0000 </r>
       <r>   -2.7296    1.0000 </r>
       <r>   -2.5755    1.0000 </r>
       <r>   -2.4334    1.0000 </r>
       <r>   -2.4082    1.0000 </r>
       <r>   -2.2266    1.0000 </r>
       <r>   -1.8934    1.0000 </r>
       <r>   -1.8716    1.0000 </r>
       <r>   -1.7788    1.0000 </r>
       <r>   -1.6935    1.0000 </r>
       <r>   -1.4414    1.0000 </r>
       <r>   -1.3524    1.0000 </r>
       <r>   -1.0335    1.0000 </r>
       <r>   -0.9070    1.0000 </r>
       <r>   -0.6868    1.0000 </r>
       <r>   -0.4968    1.0000 </r>
       <r>    0.2709    0.0000 </r>
       <r>    0.9448    0.0000 </r>
       <r>    1.1096    0.0000 </r>
       <r>    1.7745    0.0000 </r>
       <r>    1.8787    0.0000 </r>
       <r>    2.0144    0.0000 </r>
       <r>    2.0955    0.0000 </r>
       <r>    2.3189    0.0000 </r>
       <r>    2.4002    0.0000 </r>
       <r>    2.6170    0.0000 </r>
       <r>    2.7077    0.0000 </r>
       <r>    2.8447    0.0000 </r>
       <r>    2.9305    0.0000 </r>
       <r>    2.9959    0.0000 </r>
      </set>
      <set comment="kpoint 5">
       <r>  -14.8286    1.0000 </r>
       <r>  -12.5505    1.0000 </r>
       <r>  -12.3693    1.0000 </r>
       <r>  -11.9560    1.0000 </r>
       <r>  -11.8704    1.0000 </r>
       <r>  -11.6075    1.0000 </r>
       <r>  -11.1952    1.0000 </r>
       <r>  -11.1491    1.0000 </r>
       <r>  -10.7691    1.0000 </r>
       <r>  -10.7493    1.0000 </r>
       <r>  -10.3817    1.0000 </r>
       <r>  -10.0352    1.0000 </r>
       <r>   -9.2607    1.0000 </r>
       <r>   -8.8147    1.0000 </r>
       <r>   -8.6196    1.0000 </r>
       <r>   -8.0496    1.0000 </r>
       <r>   -7.4452    1.0000 </r>
       <r>   -6.9657    1.0000 </r>
       <r>   -6.9494    1.0000 </r>
       <r>   -6.8658    1.0000 </r>
       <r>   -6.4158    1.0000 </r>
       <r>   -6.1312    1.0000 </r>
       <r>   -5.9307    1.0000 </r>
       <r>   -5.7745    1.0000 </r>
       <r>   -5.6378    1.0000 </r>
       <r>   -5.1890    1.0000 </r>
       <r>   -5.0511    1.0000 </r>
       <r>   -4.7457    1.0000 </r>
       <r>   -4.6666    1.0000 </r>
       <r>   -4.5613    1.0000 </r>
       <r>   -4.2756    1.0000 </r>
       <r>   -4.1852    1.0000 </r>
       <r>   -4.0161    1.0000 </r>
       <r>   -3.8051    1.0000 </r>
       <r>   -3.3646    1.0000 </r>
       <r>   -3.2854    1.0000 </r>
       <r>   -3.1909    1.0000 </r>
       <r>   -3.0544    1.0000 </r>
       <r>   -2.9539    1.0000 </r>
       <r>   -2.9217    1.0000 </r>
       <r>   -2.7467    1.0000 </r>
       <r>   -2.5699    1.0000 </r>
       <r>   -2.4714    1.0000 </r>
       <r>   -2.2478    1.0000 </r>
       <r>   -2.0282    1.0000 </r>
       <r>   -1.9394    1.0000 </r>
       <r>   -1.8424    1.0000 </r>
       <r>   -1.8120    1.0000 </r>
       <r>   -1.6876    1.0000 </r>
       <r>   -1.6078    1.0000 </r>
       <r>   -1.2956    1.0000 </r>
       <r>   -1.2236    1.0000 </r>
       <r>   -1.0432    1.0000 </r>
       <r>   -0.7529    1.0000 </r>
       <r>    0.0091    0.0088 </r>
       <r>    0.7237    0.0000 </r>
       <r>    1.3692    0.0000 </r>
       <r>    1.5974    0.0000 </r>
       <r>    1.6313    0.0000 </r>
       <r>    1.7969    0.0000 </r>
       <r>    1.9876    0.0000 </r>
       <r>    2.1310    0.0000 </r>
       <r>    2.2647    0.0000 </r>
       <r>    2.3591    0.0000 </r>
       <r>    2.4982    0.0000 </r>
       <r>    2.6741    0.0000 </r>
       <r>    2.8272    0.0000 </r>
       <r>    2.9395    0.0000 </r>
      </set>
      <set comment="kpoint 6">
       <r>  -14.4977    1.0000 </r>
       <r>  -12.0445    1.0000 </r>
       <r>  -11.9886    1.0000 </r>
       <r>  -11.5369    1.0000 </r>
       <r>  -11.4672    1.0000 </r>
       <r>  -11.2096    1.0000 </r>
       <r>  -10.9280    1.0000 </r>
       <r>  -10.8152    1.0000 </r>
       <r>  -10.5953    1.0000 </r>
       <r>  -10.5757    1.0000 </r>
       <r>  -10.4221    1.0000 </r>
       <r>  -10.3260    1.0000 </r>
       <r>   -9.4568    1.0000 </r>
       <r>   -9.1484    1.0000 </r>
       <r>   -8.7964    1.0000 </r>
       <r>   -8.3422    1.0000 </r>
       <r>   -7.7490    1.0000 </r>
       <r>   -7.4255    1.0000 </r>
       <r>   -7.3806    1.0000 </r>
       <r>   -7.2249    1.0000 </r>
       <r>   -6.8528    1.0000 </r>
       <r>   -6.7279    1.0000 </r>
       <r>   -6.6271    1.0000 </r>
       <r>   -6.2231    1.0000 </r>
       <r>   -5.5109    1.0000 </r>
       <r>   -5.1914    1.0000 </r>
       <r>   -5.0277    1.0000 </r>
       <r>   -4.5941    1.0000 </r>
       <r>   -4.4946    1.0000 </r>
       <r>   -4.3720    1.0000 </r>
       <r>   -4.1930    1.0000 </r>
       <r>   -4.1423    1.0000 </r>
       <r>   -4.0407    1.0000 </r>
       <r>   -3.8452    1.0000 </r>
       <r>   -3.6221    1.0000 </r>
       <r>   -3.3889    1.0000 </r>
       <r>   -3.2359    1.0000 </r>
       <r>   -3.1885    1.0000 </r>
       <r>   -3.0978    1.0000 </r>
       <r>   -3.0192    1.0000 </r>
       <r>   -2.7675    1.0000 </r>
       <r>   -2.6974    1.0000 </r>
       <r>   -2.4647    1.0000 </r>
       <r>   -2.3794    1.0000 </r>
       <r>   -2.2589    1.0000 </r>
       <r>   -2.1503    1.0000 </r>
       <r>   -1.9995    1.0000 </r>
       <r>   -1.9276    1.0000 </r>
       <r>   -1.8509    1.0000 </r>
       <r>   -1.7013    1.0000 </r>
       <r>   -1.5045    1.0000 </r>
       <r>   -1.4314    1.0000 </r>
       <r>   -1.3278    1.0000 </r>
       <r>   -0.7595    1.0000 </r>
       <r>   -0.2316    0.8488 </r>
       <r>    0.4381    0.0000 </r>
       <r>    1.3106    0.0000 </r>
       <r>    1.4288    0.0000 </r>
       <r>    1.5655    0.0000 </r>
       <r>    1.7269    0.0000 </r>
       <r>    1.7526    0.0000 </r>
       <r>    2.0228    0.0000 </r>
       <r>    2.0757    0.0000 </r>
       <r>    2.2497    0.0000 </r>
       <r>    2.3032    0.0000 </r>
       <r>    2.4109    0.0000 </r>
       <r>    2.6845    0.0000 </r>
       <r>    2.8253    0.0000 </r>
      </set>
      <set comment="kpoint 7">
       <r>  -14.2616    1.0000 </r>
       <r>  -11.7735    1.0000 </r>
       <r>  -11.4667    1.0000 </r>
       <r>  -11.1155    1.0000 </r>
       <r>  -11.1110    1.0000 </r>
       <r>  -10.9090    1.0000 </r>
       <r>  -10.8116    1.0000 </r>
       <r>  -10.7961    1.0000 </r>
       <r>  -10.6958    1.0000 </r>
       <r>  -10.6336    1.0000 </r>
       <r>  -10.6016    1.0000 </r>
       <r>  -10.3441    1.0000 </r>
       <r>   -9.7775    1.0000 </r>
       <r>   -9.2128    1.0000 </r>
       <r>   -8.6553    1.0000 </r>
       <r>   -8.4046    1.0000 </r>
       <r>   -8.0451    1.0000 </r>
       <r>   -7.8660    1.0000 </r>
       <r>   -7.6163    1.0000 </r>
       <r>   -7.5362    1.0000 </r>
       <r>   -7.2523    1.0000 </r>
       <r>   -7.1513    1.0000 </r>
       <r>   -7.1122    1.0000 </r>
       <r>   -6.3922    1.0000 </r>
       <r>   -5.2844    1.0000 </r>
       <r>   -4.9622    1.0000 </r>
       <r>   -4.8752    1.0000 </r>
       <r>   -4.4743    1.0000 </r>
       <r>   -4.4221    1.0000 </r>
       <r>   -4.2410    1.0000 </r>
       <r>   -4.0753    1.0000 </r>
       <r>   -4.0014    1.0000 </r>
       <r>   -3.9170    1.0000 </r>
       <r>   -3.8038    1.0000 </r>
       <r>   -3.7790    1.0000 </r>
       <r>   -3.5914    1.0000 </r>
       <r>   -3.4863    1.0000 </r>
       <r>   -3.2243    1.0000 </r>
       <r>   -3.2017    1.0000 </r>
       <r>   -3.0068    1.0000 </r>
       <r>   -2.9691    1.0000 </r>
       <r>   -2.8972    1.0000 </r>
       <r>   -2.6484    1.0000 </r>
       <r>   -2.4469    1.0000 </r>
       <r>   -2.3207    1.0000 </r>
       <r>   -2.1968    1.0000 </r>
       <r>   -2.1152    1.0000 </r>
       <r>   -2.0684    1.0000 </r>
       <r>   -1.8407    1.0000 </r>
       <r>   -1.6951    1.0000 </r>
       <r>   -1.6073    1.0000 </r>
       <r>   -1.5055    1.0000 </r>
       <r>   -1.4018    1.0000 </r>
       <r>   -0.7644    1.0000 </r>
       <r>   -0.3463    0.9960 </r>
       <r>    0.2504    0.0000 </r>
       <r>    1.2569    0.0000 </r>
       <r>    1.3931    0.0000 </r>
       <r>    1.4683    0.0000 </r>
       <r>    1.5974    0.0000 </r>
       <r>    1.6770    0.0000 </r>
       <r>    1.8591    0.0000 </r>
       <r>    2.0251    0.0000 </r>
       <r>    2.0987    0.0000 </r>
       <r>    2.3153    0.0000 </r>
       <r>    2.4141    0.0000 </r>
       <r>    2.4936    0.0000 </r>
       <r>    2.6669    0.0000 </r>
      </set>
      <set comment="kpoint 8">
       <r>  -15.5998    1.0000 </r>
       <r>  -13.4522    1.0000 </r>
       <r>  -13.2484    1.0000 </r>
       <r>  -12.9419    1.0000 </r>
       <r>  -12.6747    1.0000 </r>
       <r>  -12.4449    1.0000 </r>
       <r>  -12.0146    1.0000 </r>
       <r>  -11.8359    1.0000 </r>
       <r>  -11.4467    1.0000 </r>
       <r>  -11.3993    1.0000 </r>
       <r>  -10.9666    1.0000 </r>
       <r>  -10.0607    1.0000 </r>
       <r>   -9.1065    1.0000 </r>
       <r>   -8.4827    1.0000 </r>
       <r>   -7.4084    1.0000 </r>
       <r>   -7.2495    1.0000 </r>
       <r>   -7.2070    1.0000 </r>
       <r>   -6.6383    1.0000 </r>
       <r>   -6.5696    1.0000 </r>
       <r>   -6.2779    1.0000 </r>
       <r>   -5.7275    1.0000 </r>
       <r>   -5.7030    1.0000 </r>
       <r>   -5.4641    1.0000 </r>
       <r>   -4.6234    1.0000 </r>
       <r>   -4.5722    1.0000 </r>
       <r>   -4.0318    1.0000 </r>
       <r>   -3.9694    1.0000 </r>
       <r>   -3.5726    1.0000 </r>
       <r>   -3.3519    1.0000 </r>
       <r>   -3.3007    1.0000 </r>
       <r>   -3.1261    1.0000 </r>
       <r>   -3.0941    1.0000 </r>
       <r>   -2.8824    1.0000 </r>
       <r>   -2.6915    1.0000 </r>
       <r>   -2.6760    1.0000 </r>
       <r>   -2.5524    1.0000 </r>
       <r>   -2.3698    1.0000 </r>
       <r>   -2.3498    1.0000 </r>
       <r>   -2.2573    1.0000 </r>
       <r>   -2.2172    1.0000 </r>
       <r>   -2.0893    1.0000 </r>
       <r>   -1.9386    1.0000 </r>
       <r>   -1.8670    1.0000 </r>
       <r>   -1.8474    1.0000 </r>
       <r>   -1.6441    1.0000 </r>
       <r>   -1.5948    1.0000 </r>
       <r>   -1.4950    1.0000 </r>
       <r>   -1.4431    1.0000 </r>
       <r>   -1.3294    1.0000 </r>
       <r>   -1.2786    1.0000 </r>
       <r>   -1.0930    1.0000 </r>
       <r>   -1.0181    1.0000 </r>
       <r>   -0.3357    0.9939 </r>
       <r>   -0.0206    0.0254 </r>
       <r>    0.9830    0.0000 </r>
       <r>    1.0795    0.0000 </r>
       <r>    1.2208    0.0000 </r>
       <r>    1.2858    0.0000 </r>
       <r>    1.4174    0.0000 </r>
       <r>    1.4662    0.0000 </r>
       <r>    1.7315    0.0000 </r>
       <r>    1.7724    0.0000 </r>
       <r>    1.9424    0.0000 </r>
       <r>    2.1103    0.0000 </r>
       <r>    2.2693    0.0000 </r>
       <r>    2.3367    0.0000 </r>
       <r>    2.5624    0.0000 </r>
       <r>    2.6557    0.0000 </r>
      </set>
      <set comment="kpoint 9">
       <r>  -15.5469    1.0000 </r>
       <r>  -13.3754    1.0000 </r>
       <r>  -13.1983    1.0000 </r>
       <r>  -12.9229    1.0000 </r>
       <r>  -12.5981    1.0000 </r>
       <r>  -12.3879    1.0000 </r>
       <r>  -11.9902    1.0000 </r>
       <r>  -11.7369    1.0000 </r>
       <r>  -11.4051    1.0000 </r>
       <r>  -11.3269    1.0000 </r>
       <r>  -10.9223    1.0000 </r>
       <r>  -10.0279    1.0000 </r>
       <r>   -9.1030    1.0000 </r>
       <r>   -8.5413    1.0000 </r>
       <r>   -7.4130    1.0000 </r>
       <r>   -7.2793    1.0000 </r>
       <r>   -7.1840    1.0000 </r>
       <r>   -6.6468    1.0000 </r>
       <r>   -6.4983    1.0000 </r>
       <r>   -6.2324    1.0000 </r>
       <r>   -6.0237    1.0000 </r>
       <r>   -5.6677    1.0000 </r>
       <r>   -5.4931    1.0000 </r>
       <r>   -4.6599    1.0000 </r>
       <r>   -4.5208    1.0000 </r>
       <r>   -4.0826    1.0000 </r>
       <r>   -3.9804    1.0000 </r>
       <r>   -3.6341    1.0000 </r>
       <r>   -3.5420    1.0000 </r>
       <r>   -3.4021    1.0000 </r>
       <r>   -3.3517    1.0000 </r>
       <r>   -3.2568    1.0000 </r>
       <r>   -3.1030    1.0000 </r>
       <r>   -2.9896    1.0000 </r>
       <r>   -2.9333    1.0000 </r>
       <r>   -2.7146    1.0000 </r>
       <r>   -2.5962    1.0000 </r>
       <r>   -2.4695    1.0000 </r>
       <r>   -2.4368    1.0000 </r>
       <r>   -2.2550    1.0000 </r>
       <r>   -2.2143    1.0000 </r>
       <r>   -2.1139    1.0000 </r>
       <r>   -2.0091    1.0000 </r>
       <r>   -1.9654    1.0000 </r>
       <r>   -1.8059    1.0000 </r>
       <r>   -1.7365    1.0000 </r>
       <r>   -1.7121    1.0000 </r>
       <r>   -1.4158    1.0000 </r>
       <r>   -1.3309    1.0000 </r>
       <r>   -1.2109    1.0000 </r>
       <r>   -1.0190    1.0000 </r>
       <r>   -0.9503    1.0000 </r>
       <r>   -0.2751    0.9502 </r>
       <r>   -0.0273    0.0316 </r>
       <r>    0.7653    0.0000 </r>
       <r>    1.0253    0.0000 </r>
       <r>    1.2568    0.0000 </r>
       <r>    1.5373    0.0000 </r>
       <r>    1.6419    0.0000 </r>
       <r>    1.8164    0.0000 </r>
       <r>    1.9722    0.0000 </r>
       <r>    2.0623    0.0000 </r>
       <r>    2.2652    0.0000 </r>
       <r>    2.4026    0.0000 </r>
       <r>    2.5634    0.0000 </r>
       <r>    2.6658    0.0000 </r>
       <r>    2.7018    0.0000 </r>
       <r>    2.7474    0.0000 </r>
      </set>
      <set comment="kpoint 10">
       <r>  -15.3913    1.0000 </r>
       <r>  -13.1790    1.0000 </r>
       <r>  -13.0339    1.0000 </r>
       <r>  -12.7864    1.0000 </r>
       <r>  -12.4134    1.0000 </r>
       <r>  -12.2217    1.0000 </r>
       <r>  -11.8603    1.0000 </r>
       <r>  -11.5392    1.0000 </r>
       <r>  -11.2655    1.0000 </r>
       <r>  -11.1603    1.0000 </r>
       <r>  -10.7811    1.0000 </r>
       <r>   -9.9558    1.0000 </r>
       <r>   -9.0720    1.0000 </r>
       <r>   -8.6068    1.0000 </r>
       <r>   -7.7232    1.0000 </r>
       <r>   -7.2891    1.0000 </r>
       <r>   -7.1715    1.0000 </r>
       <r>   -6.6244    1.0000 </r>
       <r>   -6.5226    1.0000 </r>
       <r>   -6.4631    1.0000 </r>
       <r>   -6.0980    1.0000 </r>
       <r>   -5.6212    1.0000 </r>
       <r>   -5.5503    1.0000 </r>
       <r>   -4.8132    1.0000 </r>
       <r>   -4.6253    1.0000 </r>
       <r>   -4.3493    1.0000 </r>
       <r>   -4.2713    1.0000 </r>
       <r>   -4.2047    1.0000 </r>
       <r>   -4.0228    1.0000 </r>
       <r>   -3.9260    1.0000 </r>
       <r>   -3.7214    1.0000 </r>
       <r>   -3.5706    1.0000 </r>
       <r>   -3.3539    1.0000 </r>
       <r>   -3.2682    1.0000 </r>
       <r>   -3.2341    1.0000 </r>
       <r>   -3.0117    1.0000 </r>
       <r>   -2.9295    1.0000 </r>
       <r>   -2.8277    1.0000 </r>
       <r>   -2.7533    1.0000 </r>
       <r>   -2.6374    1.0000 </r>
       <r>   -2.5722    1.0000 </r>
       <r>   -2.4259    1.0000 </r>
       <r>   -2.2963    1.0000 </r>
       <r>   -2.1890    1.0000 </r>
       <r>   -1.9283    1.0000 </r>
       <r>   -1.8461    1.0000 </r>
       <r>   -1.7067    1.0000 </r>
       <r>   -1.4754    1.0000 </r>
       <r>   -1.2900    1.0000 </r>
       <r>   -1.0763    1.0000 </r>
       <r>   -0.9523    1.0000 </r>
       <r>   -0.6698    1.0000 </r>
       <r>   -0.3912    0.9995 </r>
       <r>   -0.1902    0.6723 </r>
       <r>    0.4132    0.0000 </r>
       <r>    0.6732    0.0000 </r>
       <r>    1.1363    0.0000 </r>
       <r>    1.6626    0.0000 </r>
       <r>    1.7833    0.0000 </r>
       <r>    2.1508    0.0000 </r>
       <r>    2.2901    0.0000 </r>
       <r>    2.4038    0.0000 </r>
       <r>    2.6454    0.0000 </r>
       <r>    2.7644    0.0000 </r>
       <r>    2.9034    0.0000 </r>
       <r>    2.9696    0.0000 </r>
       <r>    3.0994    0.0000 </r>
       <r>    3.1582    0.0000 </r>
      </set>
      <set comment="kpoint 11">
       <r>  -15.1437    1.0000 </r>
       <r>  -12.8680    1.0000 </r>
       <r>  -12.7613    1.0000 </r>
       <r>  -12.5351    1.0000 </r>
       <r>  -12.1320    1.0000 </r>
       <r>  -11.9542    1.0000 </r>
       <r>  -11.6329    1.0000 </r>
       <r>  -11.2626    1.0000 </r>
       <r>  -11.0437    1.0000 </r>
       <r>  -10.9192    1.0000 </r>
       <r>  -10.5638    1.0000 </r>
       <r>   -9.9010    1.0000 </r>
       <r>   -9.0983    1.0000 </r>
       <r>   -8.7380    1.0000 </r>
       <r>   -8.3485    1.0000 </r>
       <r>   -7.3661    1.0000 </r>
       <r>   -7.2880    1.0000 </r>
       <r>   -6.6699    1.0000 </r>
       <r>   -6.6573    1.0000 </r>
       <r>   -6.6102    1.0000 </r>
       <r>   -6.1264    1.0000 </r>
       <r>   -5.7900    1.0000 </r>
       <r>   -5.7168    1.0000 </r>
       <r>   -5.1796    1.0000 </r>
       <r>   -5.0758    1.0000 </r>
       <r>   -4.9931    1.0000 </r>
       <r>   -4.7067    1.0000 </r>
       <r>   -4.6293    1.0000 </r>
       <r>   -4.5203    1.0000 </r>
       <r>   -4.4473    1.0000 </r>
       <r>   -3.9843    1.0000 </r>
       <r>   -3.9637    1.0000 </r>
       <r>   -3.7075    1.0000 </r>
       <r>   -3.6400    1.0000 </r>
       <r>   -3.3227    1.0000 </r>
       <r>   -3.1807    1.0000 </r>
       <r>   -3.0732    1.0000 </r>
       <r>   -3.0558    1.0000 </r>
       <r>   -2.8540    1.0000 </r>
       <r>   -2.7513    1.0000 </r>
       <r>   -2.6276    1.0000 </r>
       <r>   -2.5618    1.0000 </r>
       <r>   -2.4944    1.0000 </r>
       <r>   -2.2482    1.0000 </r>
       <r>   -1.9538    1.0000 </r>
       <r>   -1.8709    1.0000 </r>
       <r>   -1.7715    1.0000 </r>
       <r>   -1.7147    1.0000 </r>
       <r>   -1.3959    1.0000 </r>
       <r>   -1.3353    1.0000 </r>
       <r>   -0.9988    1.0000 </r>
       <r>   -0.9409    1.0000 </r>
       <r>   -0.7491    1.0000 </r>
       <r>   -0.4234    0.9999 </r>
       <r>    0.1483    0.0000 </r>
       <r>    0.9164    0.0000 </r>
       <r>    1.1713    0.0000 </r>
       <r>    1.4767    0.0000 </r>
       <r>    1.6249    0.0000 </r>
       <r>    1.7396    0.0000 </r>
       <r>    1.9339    0.0000 </r>
       <r>    2.2569    0.0000 </r>
       <r>    2.5613    0.0000 </r>
       <r>    2.6380    0.0000 </r>
       <r>    2.7416    0.0000 </r>
       <r>    2.8020    0.0000 </r>
       <r>    3.0722    0.0000 </r>
       <r>    3.1243    0.0000 </r>
      </set>
      <set comment="kpoint 12">
       <r>  -14.8279    1.0000 </r>
       <r>  -12.4532    1.0000 </r>
       <r>  -12.3968    1.0000 </r>
       <r>  -12.1762    1.0000 </r>
       <r>  -11.7799    1.0000 </r>
       <r>  -11.6033    1.0000 </r>
       <r>  -11.3298    1.0000 </r>
       <r>  -10.9489    1.0000 </r>
       <r>  -10.7800    1.0000 </r>
       <r>  -10.6555    1.0000 </r>
       <r>  -10.3583    1.0000 </r>
       <r>  -10.0358    1.0000 </r>
       <r>   -9.2692    1.0000 </r>
       <r>   -8.9371    1.0000 </r>
       <r>   -8.8183    1.0000 </r>
       <r>   -7.6718    1.0000 </r>
       <r>   -7.5567    1.0000 </r>
       <r>   -7.0796    1.0000 </r>
       <r>   -6.9278    1.0000 </r>
       <r>   -6.8778    1.0000 </r>
       <r>   -6.3757    1.0000 </r>
       <r>   -6.1599    1.0000 </r>
       <r>   -5.8894    1.0000 </r>
       <r>   -5.8462    1.0000 </r>
       <r>   -5.6431    1.0000 </r>
       <r>   -5.3506    1.0000 </r>
       <r>   -5.0429    1.0000 </r>
       <r>   -4.9053    1.0000 </r>
       <r>   -4.5404    1.0000 </r>
       <r>   -4.3878    1.0000 </r>
       <r>   -4.2911    1.0000 </r>
       <r>   -4.0458    1.0000 </r>
       <r>   -3.9780    1.0000 </r>
       <r>   -3.6927    1.0000 </r>
       <r>   -3.3370    1.0000 </r>
       <r>   -3.3040    1.0000 </r>
       <r>   -3.0582    1.0000 </r>
       <r>   -2.9702    1.0000 </r>
       <r>   -2.8718    1.0000 </r>
       <r>   -2.8187    1.0000 </r>
       <r>   -2.7663    1.0000 </r>
       <r>   -2.6087    1.0000 </r>
       <r>   -2.4686    1.0000 </r>
       <r>   -2.3768    1.0000 </r>
       <r>   -2.2451    1.0000 </r>
       <r>   -1.9470    1.0000 </r>
       <r>   -1.8583    1.0000 </r>
       <r>   -1.8180    1.0000 </r>
       <r>   -1.7241    1.0000 </r>
       <r>   -1.6453    1.0000 </r>
       <r>   -1.3528    1.0000 </r>
       <r>   -1.2558    1.0000 </r>
       <r>   -1.0501    1.0000 </r>
       <r>   -0.7069    1.0000 </r>
       <r>   -0.0722    0.1108 </r>
       <r>    0.6633    0.0000 </r>
       <r>    1.2571    0.0000 </r>
       <r>    1.3057    0.0000 </r>
       <r>    1.4424    0.0000 </r>
       <r>    1.6173    0.0000 </r>
       <r>    1.9183    0.0000 </r>
       <r>    2.1708    0.0000 </r>
       <r>    2.2842    0.0000 </r>
       <r>    2.4054    0.0000 </r>
       <r>    2.4713    0.0000 </r>
       <r>    2.6515    0.0000 </r>
       <r>    2.8046    0.0000 </r>
       <r>    2.9950    0.0000 </r>
      </set>
      <set comment="kpoint 13">
       <r>  -14.4973    1.0000 </r>
       <r>  -12.0097    1.0000 </r>
       <r>  -11.9418    1.0000 </r>
       <r>  -11.7264    1.0000 </r>
       <r>  -11.4219    1.0000 </r>
       <r>  -11.2089    1.0000 </r>
       <r>  -11.0061    1.0000 </r>
       <r>  -10.6913    1.0000 </r>
       <r>  -10.5690    1.0000 </r>
       <r>  -10.5280    1.0000 </r>
       <r>  -10.4348    1.0000 </r>
       <r>  -10.3206    1.0000 </r>
       <r>   -9.4449    1.0000 </r>
       <r>   -9.1363    1.0000 </r>
       <r>   -8.9270    1.0000 </r>
       <r>   -8.0767    1.0000 </r>
       <r>   -7.8235    1.0000 </r>
       <r>   -7.7460    1.0000 </r>
       <r>   -7.3231    1.0000 </r>
       <r>   -7.1512    1.0000 </r>
       <r>   -6.9045    1.0000 </r>
       <r>   -6.6618    1.0000 </r>
       <r>   -6.6271    1.0000 </r>
       <r>   -6.2278    1.0000 </r>
       <r>   -5.5534    1.0000 </r>
       <r>   -5.3150    1.0000 </r>
       <r>   -4.9976    1.0000 </r>
       <r>   -4.7506    1.0000 </r>
       <r>   -4.4766    1.0000 </r>
       <r>   -4.3671    1.0000 </r>
       <r>   -4.1325    1.0000 </r>
       <r>   -4.0826    1.0000 </r>
       <r>   -3.8277    1.0000 </r>
       <r>   -3.6371    1.0000 </r>
       <r>   -3.4874    1.0000 </r>
       <r>   -3.3205    1.0000 </r>
       <r>   -3.2519    1.0000 </r>
       <r>   -3.1203    1.0000 </r>
       <r>   -3.0827    1.0000 </r>
       <r>   -2.9289    1.0000 </r>
       <r>   -2.8251    1.0000 </r>
       <r>   -2.7358    1.0000 </r>
       <r>   -2.5915    1.0000 </r>
       <r>   -2.4975    1.0000 </r>
       <r>   -2.2864    1.0000 </r>
       <r>   -2.1747    1.0000 </r>
       <r>   -2.0425    1.0000 </r>
       <r>   -1.9439    1.0000 </r>
       <r>   -1.8536    1.0000 </r>
       <r>   -1.7049    1.0000 </r>
       <r>   -1.5688    1.0000 </r>
       <r>   -1.4588    1.0000 </r>
       <r>   -1.3807    1.0000 </r>
       <r>   -0.7330    1.0000 </r>
       <r>   -0.2671    0.9375 </r>
       <r>    0.3894    0.0000 </r>
       <r>    1.2243    0.0000 </r>
       <r>    1.3303    0.0000 </r>
       <r>    1.3766    0.0000 </r>
       <r>    1.5177    0.0000 </r>
       <r>    1.8337    0.0000 </r>
       <r>    1.9409    0.0000 </r>
       <r>    2.0733    0.0000 </r>
       <r>    2.1406    0.0000 </r>
       <r>    2.2460    0.0000 </r>
       <r>    2.5978    0.0000 </r>
       <r>    2.6484    0.0000 </r>
       <r>    2.7598    0.0000 </r>
      </set>
      <set comment="kpoint 14">
       <r>  -14.2615    1.0000 </r>
       <r>  -11.7737    1.0000 </r>
       <r>  -11.3952    1.0000 </r>
       <r>  -11.2314    1.0000 </r>
       <r>  -11.1183    1.0000 </r>
       <r>  -10.9223    1.0000 </r>
       <r>  -10.8318    1.0000 </r>
       <r>  -10.8012    1.0000 </r>
       <r>  -10.6666    1.0000 </r>
       <r>  -10.6184    1.0000 </r>
       <r>  -10.5474    1.0000 </r>
       <r>  -10.3461    1.0000 </r>
       <r>   -9.7745    1.0000 </r>
       <r>   -9.2139    1.0000 </r>
       <r>   -8.5216    1.0000 </r>
       <r>   -8.3662    1.0000 </r>
       <r>   -8.2928    1.0000 </r>
       <r>   -7.8761    1.0000 </r>
       <r>   -7.5841    1.0000 </r>
       <r>   -7.4820    1.0000 </r>
       <r>   -7.2817    1.0000 </r>
       <r>   -7.1538    1.0000 </r>
       <r>   -7.1057    1.0000 </r>
       <r>   -6.3980    1.0000 </r>
       <r>   -5.2457    1.0000 </r>
       <r>   -5.0054    1.0000 </r>
       <r>   -4.9600    1.0000 </r>
       <r>   -4.4833    1.0000 </r>
       <r>   -4.4353    1.0000 </r>
       <r>   -4.1892    1.0000 </r>
       <r>   -4.1116    1.0000 </r>
       <r>   -4.0360    1.0000 </r>
       <r>   -3.8954    1.0000 </r>
       <r>   -3.7650    1.0000 </r>
       <r>   -3.6282    1.0000 </r>
       <r>   -3.4723    1.0000 </r>
       <r>   -3.3751    1.0000 </r>
       <r>   -3.2392    1.0000 </r>
       <r>   -3.2108    1.0000 </r>
       <r>   -3.1190    1.0000 </r>
       <r>   -2.9505    1.0000 </r>
       <r>   -2.8608    1.0000 </r>
       <r>   -2.5965    1.0000 </r>
       <r>   -2.5657    1.0000 </r>
       <r>   -2.5308    1.0000 </r>
       <r>   -2.1654    1.0000 </r>
       <r>   -2.0900    1.0000 </r>
       <r>   -2.0183    1.0000 </r>
       <r>   -1.8245    1.0000 </r>
       <r>   -1.6664    1.0000 </r>
       <r>   -1.6414    1.0000 </r>
       <r>   -1.5159    1.0000 </r>
       <r>   -1.4241    1.0000 </r>
       <r>   -0.7674    1.0000 </r>
       <r>   -0.3407    0.9950 </r>
       <r>    0.1918    0.0000 </r>
       <r>    1.2624    0.0000 </r>
       <r>    1.4450    0.0000 </r>
       <r>    1.5234    0.0000 </r>
       <r>    1.5653    0.0000 </r>
       <r>    1.6036    0.0000 </r>
       <r>    1.7364    0.0000 </r>
       <r>    1.9347    0.0000 </r>
       <r>    2.0969    0.0000 </r>
       <r>    2.2660    0.0000 </r>
       <r>    2.4694    0.0000 </r>
       <r>    2.4889    0.0000 </r>
       <r>    2.5655    0.0000 </r>
      </set>
      <set comment="kpoint 15">
       <r>  -14.2617    1.0000 </r>
       <r>  -11.7771    1.0000 </r>
       <r>  -11.5005    1.0000 </r>
       <r>  -11.0919    1.0000 </r>
       <r>  -11.0377    1.0000 </r>
       <r>  -10.8952    1.0000 </r>
       <r>  -10.8155    1.0000 </r>
       <r>  -10.7765    1.0000 </r>
       <r>  -10.7213    1.0000 </r>
       <r>  -10.6713    1.0000 </r>
       <r>  -10.6194    1.0000 </r>
       <r>  -10.3553    1.0000 </r>
       <r>   -9.7759    1.0000 </r>
       <r>   -9.2339    1.0000 </r>
       <r>   -8.7238    1.0000 </r>
       <r>   -8.3984    1.0000 </r>
       <r>   -7.9099    1.0000 </r>
       <r>   -7.8379    1.0000 </r>
       <r>   -7.6190    1.0000 </r>
       <r>   -7.5692    1.0000 </r>
       <r>   -7.2472    1.0000 </r>
       <r>   -7.1888    1.0000 </r>
       <r>   -7.0989    1.0000 </r>
       <r>   -6.4069    1.0000 </r>
       <r>   -5.2333    1.0000 </r>
       <r>   -4.9933    1.0000 </r>
       <r>   -4.6993    1.0000 </r>
       <r>   -4.5458    1.0000 </r>
       <r>   -4.4165    1.0000 </r>
       <r>   -4.3265    1.0000 </r>
       <r>   -4.0730    1.0000 </r>
       <r>   -3.9758    1.0000 </r>
       <r>   -3.9626    1.0000 </r>
       <r>   -3.8610    1.0000 </r>
       <r>   -3.8475    1.0000 </r>
       <r>   -3.6459    1.0000 </r>
       <r>   -3.5334    1.0000 </r>
       <r>   -3.3176    1.0000 </r>
       <r>   -3.1166    1.0000 </r>
       <r>   -3.0315    1.0000 </r>
       <r>   -2.9078    1.0000 </r>
       <r>   -2.7552    1.0000 </r>
       <r>   -2.6524    1.0000 </r>
       <r>   -2.5984    1.0000 </r>
       <r>   -2.3456    1.0000 </r>
       <r>   -2.1443    1.0000 </r>
       <r>   -2.1229    1.0000 </r>
       <r>   -2.0120    1.0000 </r>
       <r>   -1.8404    1.0000 </r>
       <r>   -1.6394    1.0000 </r>
       <r>   -1.5656    1.0000 </r>
       <r>   -1.4652    1.0000 </r>
       <r>   -1.3625    1.0000 </r>
       <r>   -0.7755    1.0000 </r>
       <r>   -0.3456    0.9959 </r>
       <r>    0.2016    0.0000 </r>
       <r>    1.2422    0.0000 </r>
       <r>    1.3961    0.0000 </r>
       <r>    1.5642    0.0000 </r>
       <r>    1.6832    0.0000 </r>
       <r>    1.7718    0.0000 </r>
       <r>    1.7919    0.0000 </r>
       <r>    1.9380    0.0000 </r>
       <r>    2.2336    0.0000 </r>
       <r>    2.3807    0.0000 </r>
       <r>    2.4333    0.0000 </r>
       <r>    2.4944    0.0000 </r>
       <r>    2.5916    0.0000 </r>
      </set>
      <set comment="kpoint 16">
       <r>  -14.4978    1.0000 </r>
       <r>  -12.0699    1.0000 </r>
       <r>  -11.9878    1.0000 </r>
       <r>  -11.4780    1.0000 </r>
       <r>  -11.4517    1.0000 </r>
       <r>  -11.2072    1.0000 </r>
       <r>  -10.9016    1.0000 </r>
       <r>  -10.8762    1.0000 </r>
       <r>  -10.6100    1.0000 </r>
       <r>  -10.5981    1.0000 </r>
       <r>  -10.4178    1.0000 </r>
       <r>  -10.3315    1.0000 </r>
       <r>   -9.4687    1.0000 </r>
       <r>   -9.1572    1.0000 </r>
       <r>   -8.7085    1.0000 </r>
       <r>   -8.4557    1.0000 </r>
       <r>   -7.6916    1.0000 </r>
       <r>   -7.4061    1.0000 </r>
       <r>   -7.2990    1.0000 </r>
       <r>   -7.2574    1.0000 </r>
       <r>   -6.8120    1.0000 </r>
       <r>   -6.7776    1.0000 </r>
       <r>   -6.6310    1.0000 </r>
       <r>   -6.2532    1.0000 </r>
       <r>   -5.4917    1.0000 </r>
       <r>   -5.1014    1.0000 </r>
       <r>   -4.9683    1.0000 </r>
       <r>   -4.7970    1.0000 </r>
       <r>   -4.3774    1.0000 </r>
       <r>   -4.3266    1.0000 </r>
       <r>   -4.2248    1.0000 </r>
       <r>   -4.1105    1.0000 </r>
       <r>   -4.0493    1.0000 </r>
       <r>   -3.9896    1.0000 </r>
       <r>   -3.6895    1.0000 </r>
       <r>   -3.3927    1.0000 </r>
       <r>   -3.3546    1.0000 </r>
       <r>   -3.2285    1.0000 </r>
       <r>   -3.1227    1.0000 </r>
       <r>   -3.0508    1.0000 </r>
       <r>   -2.7592    1.0000 </r>
       <r>   -2.6547    1.0000 </r>
       <r>   -2.4864    1.0000 </r>
       <r>   -2.4071    1.0000 </r>
       <r>   -2.2173    1.0000 </r>
       <r>   -2.1393    1.0000 </r>
       <r>   -1.9144    1.0000 </r>
       <r>   -1.8736    1.0000 </r>
       <r>   -1.8053    1.0000 </r>
       <r>   -1.6590    1.0000 </r>
       <r>   -1.5466    1.0000 </r>
       <r>   -1.3653    1.0000 </r>
       <r>   -1.2588    1.0000 </r>
       <r>   -0.7530    1.0000 </r>
       <r>   -0.2347    0.8587 </r>
       <r>    0.4225    0.0000 </r>
       <r>    1.2705    0.0000 </r>
       <r>    1.4284    0.0000 </r>
       <r>    1.5494    0.0000 </r>
       <r>    1.7956    0.0000 </r>
       <r>    1.9232    0.0000 </r>
       <r>    2.0268    0.0000 </r>
       <r>    2.1231    0.0000 </r>
       <r>    2.2989    0.0000 </r>
       <r>    2.4011    0.0000 </r>
       <r>    2.5291    0.0000 </r>
       <r>    2.6098    0.0000 </r>
       <r>    2.7085    0.0000 </r>
      </set>
      <set comment="kpoint 17">
       <r>  -14.8287    1.0000 </r>
       <r>  -12.5628    1.0000 </r>
       <r>  -12.3652    1.0000 </r>
       <r>  -11.9149    1.0000 </r>
       <r>  -11.8834    1.0000 </r>
       <r>  -11.6070    1.0000 </r>
       <r>  -11.2124    1.0000 </r>
       <r>  -11.1408    1.0000 </r>
       <r>  -10.7979    1.0000 </r>
       <r>  -10.7411    1.0000 </r>
       <r>  -10.3878    1.0000 </r>
       <r>  -10.0369    1.0000 </r>
       <r>   -9.2866    1.0000 </r>
       <r>   -8.7963    1.0000 </r>
       <r>   -8.5209    1.0000 </r>
       <r>   -8.1521    1.0000 </r>
       <r>   -7.3451    1.0000 </r>
       <r>   -7.0547    1.0000 </r>
       <r>   -6.9656    1.0000 </r>
       <r>   -6.8360    1.0000 </r>
       <r>   -6.3947    1.0000 </r>
       <r>   -6.1245    1.0000 </r>
       <r>   -5.9397    1.0000 </r>
       <r>   -5.7671    1.0000 </r>
       <r>   -5.6485    1.0000 </r>
       <r>   -5.1489    1.0000 </r>
       <r>   -5.0433    1.0000 </r>
       <r>   -4.8372    1.0000 </r>
       <r>   -4.6115    1.0000 </r>
       <r>   -4.5150    1.0000 </r>
       <r>   -4.2766    1.0000 </r>
       <r>   -4.2084    1.0000 </r>
       <r>   -4.0022    1.0000 </r>
       <r>   -3.8772    1.0000 </r>
       <r>   -3.4250    1.0000 </r>
       <r>   -3.3241    1.0000 </r>
       <r>   -3.1842    1.0000 </r>
       <r>   -3.0559    1.0000 </r>
       <r>   -3.0266    1.0000 </r>
       <r>   -2.9324    1.0000 </r>
       <r>   -2.7512    1.0000 </r>
       <r>   -2.5752    1.0000 </r>
       <r>   -2.3896    1.0000 </r>
       <r>   -2.2028    1.0000 </r>
       <r>   -1.9997    1.0000 </r>
       <r>   -1.9053    1.0000 </r>
       <r>   -1.8499    1.0000 </r>
       <r>   -1.7867    1.0000 </r>
       <r>   -1.6736    1.0000 </r>
       <r>   -1.6205    1.0000 </r>
       <r>   -1.3211    1.0000 </r>
       <r>   -1.1974    1.0000 </r>
       <r>   -1.0262    1.0000 </r>
       <r>   -0.7501    1.0000 </r>
       <r>    0.0339    0.0032 </r>
       <r>    0.7386    0.0000 </r>
       <r>    1.3026    0.0000 </r>
       <r>    1.6014    0.0000 </r>
       <r>    1.6720    0.0000 </r>
       <r>    1.9067    0.0000 </r>
       <r>    2.0114    0.0000 </r>
       <r>    2.1793    0.0000 </r>
       <r>    2.2780    0.0000 </r>
       <r>    2.3945    0.0000 </r>
       <r>    2.5442    0.0000 </r>
       <r>    2.6826    0.0000 </r>
       <r>    2.7374    0.0000 </r>
       <r>    2.8845    0.0000 </r>
      </set>
      <set comment="kpoint 18">
       <r>  -15.1444    1.0000 </r>
       <r>  -12.9579    1.0000 </r>
       <r>  -12.7262    1.0000 </r>
       <r>  -12.3189    1.0000 </r>
       <r>  -12.2334    1.0000 </r>
       <r>  -11.9594    1.0000 </r>
       <r>  -11.5135    1.0000 </r>
       <r>  -11.4582    1.0000 </r>
       <r>  -11.0440    1.0000 </r>
       <r>  -10.9969    1.0000 </r>
       <r>  -10.5662    1.0000 </r>
       <r>   -9.9200    1.0000 </r>
       <r>   -9.0654    1.0000 </r>
       <r>   -8.3658    1.0000 </r>
       <r>   -8.3038    1.0000 </r>
       <r>   -7.7468    1.0000 </r>
       <r>   -7.1325    1.0000 </r>
       <r>   -6.8684    1.0000 </r>
       <r>   -6.6533    1.0000 </r>
       <r>   -6.6034    1.0000 </r>
       <r>   -6.1744    1.0000 </r>
       <r>   -5.7100    1.0000 </r>
       <r>   -5.5942    1.0000 </r>
       <r>   -5.3011    1.0000 </r>
       <r>   -5.1587    1.0000 </r>
       <r>   -4.8197    1.0000 </r>
       <r>   -4.7118    1.0000 </r>
       <r>   -4.5637    1.0000 </r>
       <r>   -4.4771    1.0000 </r>
       <r>   -4.3758    1.0000 </r>
       <r>   -4.1423    1.0000 </r>
       <r>   -4.0020    1.0000 </r>
       <r>   -3.7716    1.0000 </r>
       <r>   -3.7382    1.0000 </r>
       <r>   -3.4309    1.0000 </r>
       <r>   -3.3638    1.0000 </r>
       <r>   -3.0892    1.0000 </r>
       <r>   -2.9704    1.0000 </r>
       <r>   -2.8657    1.0000 </r>
       <r>   -2.7803    1.0000 </r>
       <r>   -2.6173    1.0000 </r>
       <r>   -2.4523    1.0000 </r>
       <r>   -2.3789    1.0000 </r>
       <r>   -2.1513    1.0000 </r>
       <r>   -1.8706    1.0000 </r>
       <r>   -1.8274    1.0000 </r>
       <r>   -1.7452    1.0000 </r>
       <r>   -1.7106    1.0000 </r>
       <r>   -1.4360    1.0000 </r>
       <r>   -1.3640    1.0000 </r>
       <r>   -1.0340    1.0000 </r>
       <r>   -0.9207    1.0000 </r>
       <r>   -0.7214    1.0000 </r>
       <r>   -0.4947    1.0000 </r>
       <r>    0.2980    0.0000 </r>
       <r>    0.8880    0.0000 </r>
       <r>    1.0637    0.0000 </r>
       <r>    1.8332    0.0000 </r>
       <r>    1.8489    0.0000 </r>
       <r>    2.0281    0.0000 </r>
       <r>    2.1738    0.0000 </r>
       <r>    2.3170    0.0000 </r>
       <r>    2.4432    0.0000 </r>
       <r>    2.5851    0.0000 </r>
       <r>    2.7015    0.0000 </r>
       <r>    2.7759    0.0000 </r>
       <r>    2.9472    0.0000 </r>
[...]
       <r>    2.7170    0.0000 </r>
      </set>
      <set comment="kpoint 54">
       <r>  -14.2616    1.0000 </r>
       <r>  -11.7773    1.0000 </r>
       <r>  -11.4552    1.0000 </r>
       <r>  -11.1364    1.0000 </r>
       <r>  -11.0979    1.0000 </r>
       <r>  -10.9122    1.0000 </r>
       <r>  -10.8238    1.0000 </r>
       <r>  -10.8133    1.0000 </r>
       <r>  -10.6884    1.0000 </r>
       <r>  -10.6041    1.0000 </r>
       <r>  -10.5885    1.0000 </r>
       <r>  -10.3583    1.0000 </r>
       <r>   -9.7730    1.0000 </r>
       <r>   -9.2347    1.0000 </r>
       <r>   -8.6324    1.0000 </r>
       <r>   -8.4051    1.0000 </r>
       <r>   -8.0851    1.0000 </r>
       <r>   -7.8518    1.0000 </r>
       <r>   -7.5843    1.0000 </r>
       <r>   -7.5258    1.0000 </r>
       <r>   -7.2566    1.0000 </r>
       <r>   -7.1484    1.0000 </r>
       <r>   -7.1248    1.0000 </r>
       <r>   -6.4117    1.0000 </r>
       <r>   -5.2053    1.0000 </r>
       <r>   -5.0116    1.0000 </r>
       <r>   -4.9054    1.0000 </r>
       <r>   -4.4774    1.0000 </r>
       <r>   -4.4410    1.0000 </r>
       <r>   -4.2423    1.0000 </r>
       <r>   -4.1118    1.0000 </r>
       <r>   -4.0241    1.0000 </r>
       <r>   -3.9122    1.0000 </r>
       <r>   -3.7615    1.0000 </r>
       <r>   -3.7231    1.0000 </r>
       <r>   -3.5462    1.0000 </r>
       <r>   -3.4607    1.0000 </r>
       <r>   -3.2366    1.0000 </r>
       <r>   -3.2210    1.0000 </r>
       <r>   -3.0260    1.0000 </r>
       <r>   -2.9383    1.0000 </r>
       <r>   -2.9019    1.0000 </r>
       <r>   -2.7060    1.0000 </r>
       <r>   -2.6401    1.0000 </r>
       <r>   -2.3398    1.0000 </r>
       <r>   -2.1677    1.0000 </r>
       <r>   -2.1001    1.0000 </r>
       <r>   -1.9328    1.0000 </r>
       <r>   -1.8225    1.0000 </r>
       <r>   -1.6435    1.0000 </r>
       <r>   -1.5887    1.0000 </r>
       <r>   -1.4819    1.0000 </r>
       <r>   -1.3804    1.0000 </r>
       <r>   -0.7708    1.0000 </r>
       <r>   -0.3406    0.9949 </r>
       <r>    0.1390    0.0000 </r>
       <r>    1.2107    0.0000 </r>
       <r>    1.3786    0.0000 </r>
       <r>    1.5339    0.0000 </r>
       <r>    1.6143    0.0000 </r>
       <r>    1.6562    0.0000 </r>
       <r>    1.8828    0.0000 </r>
       <r>    1.9510    0.0000 </r>
       <r>    2.0650    0.0000 </r>
       <r>    2.3086    0.0000 </r>
       <r>    2.4091    0.0000 </r>
       <r>    2.5038    0.0000 </r>
       <r>    2.6501    0.0000 </r>
      </set>
     </set>
    </set>
   </array>
  </eigenvalues>
  <separator name="orbital magnetization" >
   <v name="MAGDIPOLOUT">      0.00000000      0.00000000      0.00000000</v>
  </separator>
  <dos>
   <i name="efermi">     -0.15866091 </i>
   <total>
    <array>
     <dimension dim="1">gridpoints</dimension>
     <dimension dim="2">spin</dimension>
     <field>energy</field>
     <field>total</field>
     <field>integrated</field>
     <set>
      <set comment="spin 1">
       <r>   -16.6006     0.0000     0.0000 </r>
       <r>   -16.5314     0.0000     0.0000 </r>
       <r>   -16.4622     0.0000     0.0000 </r>
       <r>   -16.3929     0.0000     0.0000 </r>
       <r>   -16.3237     0.0000     0.0000 </r>
       <r>   -16.2545     0.0000     0.0000 </r>
       <r>   -16.1853     0.0000     0.0000 </r>
       <r>   -16.1161     0.0000     0.0000 </r>
       <r>   -16.0469     0.0000     0.0000 </r>
       <r>   -15.9776     0.0000     0.0000 </r>
       <r>   -15.9084     0.0000     0.0000 </r>
       <r>   -15.8392     0.0009     0.0001 </r>
       <r>   -15.7700     0.0206     0.0015 </r>
       <r>   -15.7008     0.2151     0.0164 </r>
       <r>   -15.6316     1.0072     0.0861 </r>
       <r>   -15.5623     2.1937     0.2379 </r>
       <r>   -15.4931     2.4298     0.4061 </r>
       <r>   -15.4239     2.0452     0.5477 </r>
       <r>   -15.3547     1.8551     0.6761 </r>
       <r>   -15.2855     1.1500     0.7557 </r>
       <r>   -15.2163     0.8491     0.8144 </r>
       <r>   -15.1471     1.4927     0.9178 </r>
       <r>   -15.0778     1.5243     1.0233 </r>
       <r>   -15.0086     0.6758     1.0700 </r>
       <r>   -14.9394     0.3491     1.0942 </r>
       <r>   -14.8702     0.9807     1.1621 </r>
       <r>   -14.8010     1.6612     1.2771 </r>
       <r>   -14.7318     1.1732     1.3583 </r>
       <r>   -14.6625     0.3818     1.3847 </r>
       <r>   -14.5933     0.3872     1.4115 </r>
       <r>   -14.5241     1.1842     1.4935 </r>
       <r>   -14.4549     1.6726     1.6092 </r>
       <r>   -14.3857     1.1239     1.6870 </r>
       <r>   -14.3165     1.0262     1.7581 </r>
       <r>   -14.2472     1.6294     1.8708 </r>
       <r>   -14.1780     1.3386     1.9635 </r>
       <r>   -14.1088     0.4591     1.9953 </r>
       <r>   -14.0396     0.0645     1.9997 </r>
       <r>   -13.9704     0.0037     2.0000 </r>
       <r>   -13.9012     0.0001     2.0000 </r>
       <r>   -13.8319     0.0000     2.0000 </r>
       <r>   -13.7627     0.0001     2.0000 </r>
       <r>   -13.6935     0.0029     2.0002 </r>
       <r>   -13.6243     0.0406     2.0030 </r>
       <r>   -13.5551     0.2730     2.0219 </r>
       <r>   -13.4859     0.9395     2.0869 </r>
       <r>   -13.4167     1.7781     2.2100 </r>
       <r>   -13.3474     2.2617     2.3666 </r>
       <r>   -13.2782     2.9116     2.5681 </r>
       <r>   -13.2090     3.8863     2.8371 </r>
       <r>   -13.1398     3.9575     3.1110 </r>
       <r>   -13.0706     3.3693     3.3442 </r>
       <r>   -13.0014     3.4454     3.5827 </r>
       <r>   -12.9321     3.7476     3.8421 </r>
       <r>   -12.8629     3.7253     4.0999 </r>
       <r>   -12.7937     3.8709     4.3679 </r>
       <r>   -12.7245     4.2940     4.6651 </r>
       <r>   -12.6553     4.3923     4.9691 </r>
       <r>   -12.5861     4.6450     5.2906 </r>
       <r>   -12.5168     5.4531     5.6681 </r>
       <r>   -12.4476     6.1842     6.0961 </r>
       <r>   -12.3784     6.6028     6.5531 </r>
       <r>   -12.3092     5.7071     6.9481 </r>
       <r>   -12.2400     4.6231     7.2681 </r>
       <r>   -12.1708     4.4781     7.5781 </r>
       <r>   -12.1016     4.6698     7.9013 </r>
       <r>   -12.0323     5.9656     8.3142 </r>
       <r>   -11.9631     7.8802     8.8597 </r>
       <r>   -11.8939     8.0967     9.4201 </r>
       <r>   -11.8247     7.3375     9.9280 </r>
       <r>   -11.7555     6.8928    10.4051 </r>
       <r>   -11.6863     6.0786    10.8258 </r>
       <r>   -11.6170     5.8253    11.2290 </r>
       <r>   -11.5478     6.5946    11.6854 </r>
       <r>   -11.4786     8.3456    12.2631 </r>
       <r>   -11.4094     9.5229    12.9222 </r>
       <r>   -11.3402     8.5823    13.5163 </r>
       <r>   -11.2710     8.1827    14.0826 </r>
       <r>   -11.2017     8.8825    14.6974 </r>
       <r>   -11.1325     8.6592    15.2968 </r>
       <r>   -11.0633     8.0418    15.8534 </r>
       <r>   -10.9941     8.4267    16.4367 </r>
       <r>   -10.9249     9.6320    17.1034 </r>
       <r>   -10.8557    10.3047    17.8166 </r>
       <r>   -10.7864    10.7588    18.5613 </r>
       <r>   -10.7172    10.4899    19.2874 </r>
       <r>   -10.6480     9.8109    19.9664 </r>
       <r>   -10.5788     9.7804    20.6434 </r>
       <r>   -10.5096     7.8718    21.1883 </r>
       <r>   -10.4404     5.5361    21.5714 </r>
       <r>   -10.3712     5.8686    21.9776 </r>
       <r>   -10.3019     5.6061    22.3657 </r>
       <r>   -10.2327     2.9060    22.5668 </r>
       <r>   -10.1635     1.1594    22.6471 </r>
       <r>   -10.0943     2.2929    22.8058 </r>
       <r>   -10.0251     4.8913    23.1443 </r>
       <r>    -9.9559     5.7572    23.5428 </r>
       <r>    -9.8866     4.4082    23.8479 </r>
       <r>    -9.8174     2.8858    24.0477 </r>
       <r>    -9.7482     2.1370    24.1956 </r>
       <r>    -9.6790     1.2350    24.2811 </r>
       <r>    -9.6098     0.4125    24.3096 </r>
       <r>    -9.5406     0.5049    24.3446 </r>
       <r>    -9.4713     1.3511    24.4381 </r>
       <r>    -9.4021     1.8003    24.5627 </r>
       <r>    -9.3329     1.9157    24.6953 </r>
       <r>    -9.2637     3.2614    24.9210 </r>
       <r>    -9.1945     5.1638    25.2785 </r>
       <r>    -9.1253     6.2984    25.7144 </r>
       <r>    -9.0560     6.0461    26.1329 </r>
       <r>    -8.9868     4.7542    26.4619 </r>
       <r>    -8.9176     3.7475    26.7213 </r>
       <r>    -8.8484     3.6153    26.9716 </r>
       <r>    -8.7792     4.2279    27.2642 </r>
       <r>    -8.7100     4.6554    27.5864 </r>
       <r>    -8.6408     4.2240    27.8788 </r>
       <r>    -8.5715     3.4067    28.1146 </r>
       <r>    -8.5023     3.1672    28.3338 </r>
       <r>    -8.4331     3.9421    28.6067 </r>
       <r>    -8.3639     5.3194    28.9749 </r>
       <r>    -8.2947     5.2949    29.3414 </r>
       <r>    -8.2255     3.4044    29.5770 </r>
       <r>    -8.1562     2.2544    29.7330 </r>
       <r>    -8.0870     2.5693    29.9109 </r>
       <r>    -8.0178     2.7370    30.1003 </r>
       <r>    -7.9486     2.2630    30.2569 </r>
       <r>    -7.8794     2.7319    30.4460 </r>
       <r>    -7.8102     4.4511    30.7541 </r>
       <r>    -7.7409     6.1486    31.1797 </r>
       <r>    -7.6717     6.4184    31.6240 </r>
       <r>    -7.6025     5.6612    32.0158 </r>
       <r>    -7.5333     5.4554    32.3934 </r>
       <r>    -7.4641     5.8055    32.7952 </r>
       <r>    -7.3949     6.8398    33.2687 </r>
       <r>    -7.3257     8.6330    33.8662 </r>
       <r>    -7.2564    10.9551    34.6245 </r>
       <r>    -7.1872    12.3091    35.4764 </r>
       <r>    -7.1180    11.1347    36.2471 </r>
       <r>    -7.0488     7.6895    36.7794 </r>
       <r>    -6.9796     5.0261    37.1273 </r>
       <r>    -6.9104     5.0433    37.4763 </r>
       <r>    -6.8411     5.6519    37.8675 </r>
       <r>    -6.7719     6.1738    38.2949 </r>
       <r>    -6.7027     8.2672    38.8671 </r>
       <r>    -6.6335    11.0951    39.6350 </r>
       <r>    -6.5643    10.6529    40.3724 </r>
       <r>    -6.4951     7.6072    40.8989 </r>
       <r>    -6.4258     6.5104    41.3496 </r>
       <r>    -6.3566     6.5535    41.8032 </r>
       <r>    -6.2874     5.8958    42.2113 </r>
       <r>    -6.2182     6.2309    42.6425 </r>
       <r>    -6.1490     6.7247    43.1080 </r>
       <r>    -6.0798     5.5612    43.4929 </r>
       <r>    -6.0105     3.9240    43.7645 </r>
       <r>    -5.9413     3.4086    44.0004 </r>
       <r>    -5.8721     3.8274    44.2654 </r>
       <r>    -5.8029     4.9057    44.6049 </r>
       <r>    -5.7337     6.7324    45.0709 </r>
       <r>    -5.6645     8.5963    45.6659 </r>
       <r>    -5.5953     8.7994    46.2750 </r>
       <r>    -5.5260     7.2291    46.7753 </r>
       <r>    -5.4568     5.5510    47.1595 </r>
       <r>    -5.3876     4.5744    47.4762 </r>
       <r>    -5.3184     4.4514    47.7843 </r>
       <r>    -5.2492     4.9446    48.1265 </r>
       <r>    -5.1800     5.4645    48.5047 </r>
       <r>    -5.1107     5.8893    48.9124 </r>
       <r>    -5.0415     6.9452    49.3931 </r>
       <r>    -4.9723     7.9093    49.9405 </r>
       <r>    -4.9031     7.4587    50.4568 </r>
       <r>    -4.8339     7.3825    50.9678 </r>
       <r>    -4.7647     8.0058    51.5219 </r>
       <r>    -4.6954     8.4819    52.1090 </r>
       <r>    -4.6262     9.0860    52.7379 </r>
       <r>    -4.5570     9.8642    53.4207 </r>
       <r>    -4.4878    10.9670    54.1798 </r>
       <r>    -4.4186    11.5742    54.9809 </r>
       <r>    -4.3494    10.6900    55.7208 </r>
       <r>    -4.2802     9.4725    56.3764 </r>
       <r>    -4.2109     9.5999    57.0409 </r>
       <r>    -4.1417    11.1704    57.8141 </r>
       <r>    -4.0725    14.1657    58.7946 </r>
       <r>    -4.0033    17.1625    59.9825 </r>
       <r>    -3.9341    16.2660    61.1084 </r>
       <r>    -3.8649    11.9900    61.9383 </r>
       <r>    -3.7956    10.0997    62.6373 </r>
       <r>    -3.7264    10.9738    63.3969 </r>
       <r>    -3.6572    11.2193    64.1734 </r>
       <r>    -3.5880    10.2206    64.8809 </r>
       <r>    -3.5188     9.4382    65.5341 </r>
       <r>    -3.4496    10.5914    66.2672 </r>
       <r>    -3.3803    13.5442    67.2047 </r>
       <r>    -3.3111    16.1231    68.3207 </r>
       <r>    -3.2419    17.2114    69.5120 </r>
       <r>    -3.1727    17.1499    70.6990 </r>
       <r>    -3.1035    17.1955    71.8892 </r>
       <r>    -3.0343    18.5055    73.1701 </r>
       <r>    -2.9650    19.1648    74.4966 </r>
       <r>    -2.8958    18.2517    75.7599 </r>
       <r>    -2.8266    16.1867    76.8803 </r>
       <r>    -2.7574    15.0328    77.9208 </r>
       <r>    -2.6882    15.4141    78.9877 </r>
       <r>    -2.6190    15.9778    80.0936 </r>
       <r>    -2.5498    16.2914    81.2213 </r>
       <r>    -2.4805    16.2232    82.3442 </r>
       <r>    -2.4113    15.9343    83.4471 </r>
       <r>    -2.3421    14.6996    84.4645 </r>
       <r>    -2.2729    13.7658    85.4173 </r>
       <r>    -2.2037    14.7800    86.4403 </r>
       <r>    -2.1345    15.6772    87.5254 </r>
       <r>    -2.0652    14.8407    88.5527 </r>
       <r>    -1.9960    14.6801    89.5688 </r>
       <r>    -1.9268    16.9400    90.7413 </r>
       <r>    -1.8576    19.4039    92.0843 </r>
       <r>    -1.7884    19.5333    93.4363 </r>
       <r>    -1.7192    18.6749    94.7290 </r>
       <r>    -1.6499    18.0406    95.9777 </r>
       <r>    -1.5807    15.0742    97.0210 </r>
       <r>    -1.5115    12.1264    97.8604 </r>
       <r>    -1.4423    12.9107    98.7540 </r>
       <r>    -1.3731    15.2239    99.8077 </r>
       <r>    -1.3039    14.9263   100.8409 </r>
       <r>    -1.2347    10.9594   101.5994 </r>
       <r>    -1.1654     7.0310   102.0861 </r>
       <r>    -1.0962     6.8400   102.5595 </r>
       <r>    -1.0270     9.1783   103.1948 </r>
       <r>    -0.9578     9.7952   103.8728 </r>
       <r>    -0.8886     7.3095   104.3787 </r>
       <r>    -0.8194     5.4699   104.7573 </r>
       <r>    -0.7501     7.0403   105.2446 </r>
       <r>    -0.6809     7.5291   105.7658 </r>
       <r>    -0.6117     4.3679   106.0681 </r>
       <r>    -0.5425     1.8395   106.1954 </r>
       <r>    -0.4733     2.1767   106.3461 </r>
       <r>    -0.4041     4.1891   106.6360 </r>
       <r>    -0.3348     6.0845   107.0572 </r>
       <r>    -0.2656     6.3817   107.4989 </r>
       <r>    -0.1964     5.0848   107.8508 </r>
       <r>    -0.1272     3.7889   108.1131 </r>
       <r>    -0.0580     3.5410   108.3582 </r>
       <r>     0.0112     3.3921   108.5930 </r>
       <r>     0.0805     2.9265   108.7955 </r>
       <r>     0.1497     3.0513   109.0067 </r>
       <r>     0.2189     3.3618   109.2394 </r>
       <r>     0.2881     2.9473   109.4434 </r>
       <r>     0.3573     2.9033   109.6444 </r>
       <r>     0.4265     3.4792   109.8852 </r>
       <r>     0.4957     2.8996   110.0859 </r>
       <r>     0.5650     1.8903   110.2167 </r>
       <r>     0.6342     2.4040   110.3831 </r>
       <r>     0.7034     3.6469   110.6355 </r>
       <r>     0.7726     3.8109   110.8993 </r>
       <r>     0.8418     2.8960   111.0998 </r>
       <r>     0.9110     2.6524   111.2833 </r>
       <r>     0.9803     3.4004   111.5187 </r>
       <r>     1.0495     4.8828   111.8567 </r>
       <r>     1.1187     6.4850   112.3055 </r>
       <r>     1.1879     7.4852   112.8236 </r>
       <r>     1.2571     8.6617   113.4232 </r>
       <r>     1.3263     9.5203   114.0821 </r>
       <r>     1.3956     9.4236   114.7344 </r>
       <r>     1.4648     9.6054   115.3992 </r>
       <r>     1.5340    10.8233   116.1484 </r>
       <r>     1.6032    12.5497   117.0170 </r>
       <r>     1.6724    12.8289   117.9050 </r>
       <r>     1.7416    12.3152   118.7574 </r>
       <r>     1.8109    12.4662   119.6202 </r>
       <r>     1.8801    11.9863   120.4499 </r>
       <r>     1.9493    11.6637   121.2572 </r>
       <r>     2.0185    11.9055   122.0812 </r>
       <r>     2.0877    12.0292   122.9139 </r>
       <r>     2.1569    12.1964   123.7580 </r>
       <r>     2.2261    13.1553   124.6686 </r>
       <r>     2.2954    14.8346   125.6954 </r>
       <r>     2.3646    15.1055   126.7409 </r>
       <r>     2.4338    14.6823   127.7572 </r>
       <r>     2.5030    14.4460   128.7571 </r>
       <r>     2.5722    14.4342   129.7562 </r>
       <r>     2.6414    15.7995   130.8497 </r>
       <r>     2.7107    16.8413   132.0154 </r>
       <r>     2.7799    14.9244   133.0484 </r>
       <r>     2.8491    11.3436   133.8336 </r>
       <r>     2.9183     8.4402   134.4178 </r>
       <r>     2.9875     7.1635   134.9136 </r>
       <r>     3.0567     6.2681   135.3475 </r>
       <r>     3.1260     4.9476   135.6899 </r>
       <r>     3.1952     3.0886   135.9037 </r>
       <r>     3.2644     1.1577   135.9838 </r>
       <r>     3.3336     0.2149   135.9987 </r>
       <r>     3.4028     0.0181   136.0000 </r>
       <r>     3.4720     0.0007   136.0000 </r>
       <r>     3.5412     0.0000   136.0000 </r>
       <r>     3.6105     0.0000   136.0000 </r>
       <r>     3.6797     0.0000   136.0000 </r>
       <r>     3.7489     0.0000   136.0000 </r>
       <r>     3.8181     0.0000   136.0000 </r>
       <r>     3.8873     0.0000   136.0000 </r>
       <r>     3.9565     0.0000   136.0000 </r>
       <r>     4.0258     0.0000   136.0000 </r>
       <r>     4.0950     0.0000   136.0000 </r>
       <r>     4.1642     0.0000   136.0000 </r>
      </set>
     </set>
    </array>
   </total>
  </dos>
 </calculation>
 <structure name="finalpos" >
  <crystal>
   <varray name="basis" >
    <v>       3.54040000       0.00000000       0.00000000 </v>
    <v>      -1.77020000      10.29434800       0.00000000 </v>
    <v>       0.00000000       0.00000000      27.50142900 </v>
   </varray>
   <i name="volume">   1002.32009712 </i>
   <varray name="rec_basis" >
    <v>       0.28245396       0.04857034       0.00000000 </v>
    <v>       0.00000000       0.09714068       0.00000000 </v>
    <v>       0.00000000       0.00000000       0.03636175 </v>
   </varray>
  </crystal>
  <varray name="positions" >
   <v>       0.11402300       0.22804500       0.23316207 </v>
   <v>       0.21402300       0.62804500       0.51499159 </v>
   <v>       0.45808900       0.91617900       0.20939482 </v>
   <v>       0.55808900       0.31617900       0.49122434 </v>
   <v>       0.31085400       0.62170900       0.08414979 </v>
   <v>       0.31085400       0.62170900       0.36597930 </v>
   <v>       0.99923000       0.99846000       0.08631254 </v>
   <v>       0.99923000       0.99846000       0.36814206 </v>
   <v>       0.65492700       0.30985400       0.06041748 </v>
   <v>       0.65492700       0.30985400       0.34224700 </v>
   <v>       0.76973800       0.53947500       0.20725292 </v>
   <v>       0.86973800       0.93947500       0.48908244 </v>
   <v>       0.93971600       0.87943300       0.15783749 </v>
   <v>       0.03971600       0.27943300       0.43966701 </v>
   <v>       0.20515200       0.41030300       0.18578822 </v>
   <v>       0.30515200       0.81030300       0.46761774 </v>
   <v>       0.20184900       0.40369900       0.09969156 </v>
   <v>       0.20184900       0.40369900       0.38152107 </v>
   <v>       0.56380500       0.12761000       0.10779021 </v>
   <v>       0.56380500       0.12761000       0.38961973 </v>
   <v>       0.56710600       0.13421200       0.19387616 </v>
   <v>       0.66710600       0.53421200       0.47570568 </v>
   <v>       0.82923400       0.65846800       0.13571444 </v>
   <v>       0.92923400       0.05846800       0.41754396 </v>
  </varray>
 </structure>
</modeling>
