<?xml version="1.0" encoding="ISO-8859-1"?>
<modeling>
 <generator>
  <i name="program" type="string">vasp </i>
  <i name="version" type="string">5.4.1  </i>
  <i name="subversion" type="string">24Jun15 (build May 10 2016 14:18:23) complex                          parallel </i>
  <i name="platform" type="string">IFC91_ompi </i>
  <i name="date" type="string">2016 12 12 </i>
  <i name="time" type="string">06:33:35 </i>
 </generator>
 <incar>
  <i type="string" name="PREC">accurate</i>
  <i type="string" name="ALGO"> Fast</i>
  <i type="int" name="ISPIN">     2</i>
  <i type="int" name="IBRION">     2</i>
  <i name="EDIFF">      0.00010000</i>
  <i type="int" name="NSW">     0</i>
  <i type="int" name="ISIF">     3</i>
  <i name="ENCUT">    500.00000000</i>
  <v name="MAGMOM">      6.00000000      0.50000000      0.50000000      6.00000000      0.50000000      0.50000000</v>
  <i type="string" name="LREAL"> Auto</i>
  <i type="int" name="ISMEAR">     1</i>
  <i name="SIGMA">      0.10000000</i>
  <i type="logical" name="LWAVE"> F  </i>
  <i type="logical" name="LCHARG"> F  </i>
  <i type="logical" name="LVTOT"> T  </i>
  <i type="logical" name="LVHAR"> T  </i>
  <i type="logical" name="LAECHG"> F  </i>
  <v type="int" name="KPOINT_BSE">    -1     0     0     0</v>
  <i type="string" name="GGA"> Bo</i>
  <i name="PARAM1">      0.18333333</i>
  <i name="PARAM2">      0.22000000</i>
  <i type="logical" name="LUSE_VDW"> T  </i>
  <i name="AGGAC">      0.00000000</i>
 </incar>
 <kpoints>
  <generation param="Gamma">
   <v type="int" name="divisions">      13       13        1 </v>
   <v name="usershift">      0.00000000       0.00000000       0.00000000 </v>
   <v name="genvec1">      0.07692308       0.00000000       0.00000000 </v>
   <v name="genvec2">      0.00000000       0.07692308       0.00000000 </v>
   <v name="genvec3">      0.00000000       0.00000000       1.00000000 </v>
   <v name="shift">      0.00000000       0.00000000       0.00000000 </v>
  </generation>
  <varray name="kpointlist" >
   <v>       0.00000000       0.00000000       0.00000000 </v>
   <v>       0.07692308      -0.00000000       0.00000000 </v>
   <v>       0.15384615       0.00000000       0.00000000 </v>
   <v>       0.23076923       0.00000000       0.00000000 </v>
   <v>       0.30769231      -0.00000000       0.00000000 </v>
   <v>       0.38461538       0.00000000       0.00000000 </v>
   <v>       0.46153846       0.00000000       0.00000000 </v>
   <v>       0.07692308       0.07692308       0.00000000 </v>
   <v>       0.15384615       0.07692308       0.00000000 </v>
   <v>       0.23076923       0.07692308       0.00000000 </v>
   <v>       0.30769231       0.07692308       0.00000000 </v>
   <v>       0.38461538       0.07692308       0.00000000 </v>
   <v>       0.46153846       0.07692308       0.00000000 </v>
   <v>       0.15384615       0.15384615       0.00000000 </v>
   <v>       0.23076923       0.15384615       0.00000000 </v>
   <v>       0.30769231       0.15384615       0.00000000 </v>
   <v>       0.38461538       0.15384615       0.00000000 </v>
   <v>       0.23076923       0.23076923       0.00000000 </v>
   <v>       0.30769231       0.23076923       0.00000000 </v>
   <v>       0.38461538       0.23076923       0.00000000 </v>
   <v>       0.30769231       0.30769231       0.00000000 </v>
  </varray>
  <varray name="weights" >
   <v>       0.00591716 </v>
   <v>       0.03550296 </v>
   <v>       0.03550296 </v>
   <v>       0.03550296 </v>
   <v>       0.03550296 </v>
   <v>       0.03550296 </v>
   <v>       0.03550296 </v>
   <v>       0.03550296 </v>
   <v>       0.07100592 </v>
   <v>       0.07100592 </v>
   <v>       0.07100592 </v>
   <v>       0.07100592 </v>
   <v>       0.03550296 </v>
   <v>       0.03550296 </v>
   <v>       0.07100592 </v>
   <v>       0.07100592 </v>
   <v>       0.07100592 </v>
   <v>       0.03550296 </v>
   <v>       0.07100592 </v>
   <v>       0.03550296 </v>
   <v>       0.03550296 </v>
  </varray>
 </kpoints>
 <parameters>
  <separator name="general" >
   <i type="string" name="SYSTEM">unknown system</i>
   <i type="logical" name="LCOMPAT"> F  </i>
  </separator>
  <separator name="electronic" >
   <i type="string" name="PREC">accura</i>
   <i name="ENMAX">    500.00000000</i>
   <i name="ENAUG">    392.42700000</i>
   <i name="EDIFF">      0.00010000</i>
   <i type="int" name="IALGO">    68</i>
   <i type="int" name="IWAVPR">    10</i>
   <i type="int" name="NBANDS">    36</i>
   <i name="NELECT">     48.00000000</i>
   <i type="int" name="TURBO">     0</i>
   <i type="int" name="IRESTART">     0</i>
   <i type="int" name="NREBOOT">     0</i>
   <i type="int" name="NMIN">     0</i>
   <i name="EREF">      0.00000000</i>
   <separator name="electronic smearing" >
    <i type="int" name="ISMEAR">     1</i>
    <i name="SIGMA">      0.10000000</i>
    <i name="KSPACING">      0.50000000</i>
    <i type="logical" name="KGAMMA"> T  </i>
   </separator>
   <separator name="electronic projectors" >
    <i type="logical" name="LREAL"> T  </i>
    <v name="ROPT">     -0.00025000     -0.00025000     -0.00025000     -0.00025000</v>
    <i type="int" name="LMAXPAW">  -100</i>
    <i type="int" name="LMAXMIX">     2</i>
    <i type="logical" name="NLSPLINE"> F  </i>
   </separator>
   <separator name="electronic startup" >
    <i type="int" name="ISTART">     0</i>
    <i type="int" name="ICHARG">     2</i>
    <i type="int" name="INIWAV">     1</i>
   </separator>
   <separator name="electronic spin" >
    <i type="int" name="ISPIN">     2</i>
    <i type="logical" name="LNONCOLLINEAR"> F  </i>
    <v name="MAGMOM">      6.00000000      0.50000000      0.50000000      6.00000000      0.50000000      0.50000000</v>
    <i name="NUPDOWN">     -1.00000000</i>
    <i type="logical" name="LSORBIT"> F  </i>
    <v name="SAXIS">      0.00000000      0.00000000      1.00000000</v>
    <i type="logical" name="LSPIRAL"> F  </i>
    <v name="QSPIRAL">      0.00000000      0.00000000      0.00000000</v>
    <i type="logical" name="LZEROZ"> F  </i>
   </separator>
   <separator name="electronic exchange-correlation" >
    <i type="logical" name="LASPH"> F  </i>
    <i type="logical" name="LMETAGGA"> F  </i>
   </separator>
   <separator name="electronic convergence" >
    <i type="int" name="NELM">    60</i>
    <i type="int" name="NELMDL">     0</i>
    <i type="int" name="NELMIN">     2</i>
    <i name="ENINI">    500.00000000</i>
    <separator name="electronic convergence detail" >
     <i type="logical" name="LDIAG"> T  </i>
     <i type="logical" name="LSUBROT"> F  </i>
     <i name="WEIMIN">      0.00000000</i>
     <i name="EBREAK">      0.00000069</i>
     <i name="DEPER">      0.30000000</i>
     <i type="int" name="NRMM">     4</i>
     <i name="TIME">      0.40000000</i>
    </separator>
   </separator>
   <separator name="electronic mixer" >
    <i name="AMIX">      0.40000000</i>
    <i name="BMIX">      1.00000000</i>
    <i name="AMIN">      0.10000000</i>
    <i name="AMIX_MAG">      1.60000000</i>
    <i name="BMIX_MAG">      1.00000000</i>
    <separator name="electronic mixer details" >
     <i type="int" name="IMIX">     4</i>
     <i type="logical" name="MIXFIRST"> F  </i>
     <i type="int" name="MAXMIX">   -45</i>
     <i name="WC">    100.00000000</i>
     <i type="int" name="INIMIX">     1</i>
     <i type="int" name="MIXPRE">     1</i>
     <i type="int" name="MREMOVE">     5</i>
    </separator>
   </separator>
   <separator name="electronic dipolcorrection" >
    <i type="logical" name="LDIPOL"> F  </i>
    <i type="logical" name="LMONO"> F  </i>
    <i type="int" name="IDIPOL">     0</i>
    <i name="EPSILON">      1.00000000</i>
    <v name="DIPOL">   -100.00000000   -100.00000000   -100.00000000</v>
    <i name="EFIELD">      0.00000000</i>
   </separator>
  </separator>
  <separator name="grids" >
   <i type="int" name="NGX">    24</i>
   <i type="int" name="NGY">    24</i>
   <i type="int" name="NGZ">   180</i>
   <i type="int" name="NGXF">    48</i>
   <i type="int" name="NGYF">    48</i>
   <i type="int" name="NGZF">   360</i>
   <i type="logical" name="ADDGRID"> F  </i>
  </separator>
  <separator name="ionic" >
   <i type="int" name="NSW">     0</i>
   <i type="int" name="IBRION">    -1</i>
   <i type="int" name="ISIF">     3</i>
   <i name="PSTRESS">      0.00000000</i>
   <i name="EDIFFG">      0.00100000</i>
   <i type="int" name="NFREE">     1</i>
   <i name="POTIM">      0.50000000</i>
   <i name="SMASS">     -3.00000000</i>
   <i name="SCALEE">      1.00000000</i>
  </separator>
  <separator name="ionic md" >
   <i name="TEBEG">      0.00010000</i>
   <i name="TEEND">      0.00010000</i>
   <i type="int" name="NBLOCK">     1</i>
   <i type="int" name="KBLOCK">     1</i>
   <i type="int" name="NPACO">   256</i>
   <i name="APACO">     16.00000000</i>
  </separator>
  <separator name="symmetry" >
   <i type="int" name="ISYM">     2</i>
   <i name="SYMPREC">      0.00001000</i>
  </separator>
  <separator name="dos" >
   <i type="logical" name="LORBIT"> F  </i>
   <v name="RWIGS">     -1.00000000     -1.00000000     -1.00000000     -1.00000000</v>
   <i type="int" name="NEDOS">   301</i>
   <i name="EMIN">     10.00000000</i>
   <i name="EMAX">    -10.00000000</i>
   <i name="EFERMI">      0.00000000</i>
  </separator>
  <separator name="writing" >
   <i type="int" name="NWRITE">     2</i>
   <i type="logical" name="LWAVE"> F  </i>
   <i type="logical" name="LCHARG"> F  </i>
   <i type="logical" name="LPARD"> F  </i>
   <i type="logical" name="LVTOT"> F  </i>
   <i type="logical" name="LVHAR"> T  </i>
   <i type="logical" name="LELF"> F  </i>
   <i type="logical" name="LOPTICS"> F  </i>
   <v name="STM">      0.00000000      0.00000000      0.00000000      0.00000000      0.00000000      0.00000000      0.00000000</v>
  </separator>
  <separator name="performance" >
   <i type="int" name="NPAR">     4</i>
   <i type="int" name="NSIM">     4</i>
   <i type="int" name="NBLK">    -1</i>
   <i type="logical" name="LPLANE"> T  </i>
   <i type="logical" name="LSCALAPACK"> T  </i>
   <i type="logical" name="LSCAAWARE"> F  </i>
   <i type="logical" name="LSCALU"> F  </i>
   <i type="logical" name="LASYNC"> F  </i>
   <i type="logical" name="LORBITALREAL"> F  </i>
  </separator>
  <separator name="miscellaneous" >
   <i type="int" name="IDIOT">     3</i>
   <i type="logical" name="LMUSIC"> F  </i>
   <v name="POMASS">     95.94000000     32.06600000     95.94000000     32.06600000</v>
   <v name="DARWINR">      0.00000000      0.00000000      0.00000000      0.00000000</v>
   <v name="DARWINV">      1.00000000      1.00000000      1.00000000      1.00000000</v>
   <i type="logical" name="LCORR"> T  </i>
  </separator>
  <i type="logical" name="GGA_COMPAT"> T  </i>
  <i type="logical" name="LBERRY"> F  </i>
  <i type="int" name="ICORELEVEL">     0</i>
  <i type="logical" name="LDAU"> F  </i>
  <i type="int" name="I_CONSTRAINED_M">     0</i>
  <separator name="electronic exchange-correlation" >
   <i type="string" name="GGA">BO</i>
   <i type="int" name="VOSKOWN">     0</i>
   <i type="logical" name="LHFCALC"> F  </i>
   <i type="string" name="PRECFOCK"></i>
   <i type="logical" name="LSYMGRAD"> F  </i>
   <i type="logical" name="LHFONE"> F  </i>
   <i type="logical" name="LRHFCALC"> F  </i>
   <i type="logical" name="LTHOMAS"> F  </i>
   <i type="logical" name="LMODELHF"> F  </i>
   <i name="ENCUT4O">     -1.00000000</i>
   <i type="int" name="EXXOEP">     0</i>
   <i type="int" name="FOURORBIT">     0</i>
   <i name="AEXX">      0.00000000</i>
   <i name="HFALPHA">      0.00000000</i>
   <i name="MCALPHA">      0.00000000</i>
   <i name="ALDAX">      1.00000000</i>
   <i name="AGGAX">      1.00000000</i>
   <i name="ALDAC">      1.00000000</i>
   <i name="AGGAC">      0.00000000</i>
   <i type="int" name="NKREDX">     1</i>
   <i type="int" name="NKREDY">     1</i>
   <i type="int" name="NKREDZ">     1</i>
   <i type="logical" name="SHIFTRED"> F  </i>
   <i type="logical" name="ODDONLY"> F  </i>
   <i type="logical" name="EVENONLY"> F  </i>
   <i type="int" name="LMAXFOCK">     0</i>
   <i type="int" name="NMAXFOCKAE">     0</i>
   <i type="logical" name="LFOCKAEDFT"> F  </i>
   <i name="HFSCREEN">      0.00000000</i>
   <i name="HFSCREENC">      0.00000000</i>
   <i type="int" name="NBANDSGWLOW">     0</i>
  </separator>
  <separator name="vdW DFT" >
   <i type="logical" name="LUSE_VDW"> T  </i>
   <i name="Zab_VDW">     -0.84910000</i>
   <i name="PARAM1">      0.18333333</i>
   <i name="PARAM2">      0.22000000</i>
   <i name="PARAM3">      0.00000000</i>
  </separator>
  <separator name="model GW" >
   <i type="int" name="MODEL_GW">     0</i>
   <i name="MODEL_EPS0">     20.39722663</i>
   <i name="MODEL_ALPHA">      1.00000000</i>
  </separator>
  <separator name="linear response parameters" >
   <i type="logical" name="LEPSILON"> F  </i>
   <i type="logical" name="LRPA"> F  </i>
   <i type="logical" name="LNABLA"> F  </i>
   <i type="logical" name="LVEL"> F  </i>
   <i type="int" name="KINTER">     0</i>
   <i name="CSHIFT">      0.10000000</i>
   <i name="OMEGAMAX">     -1.00000000</i>
   <i name="DEG_THRESHOLD">      0.00200000</i>
  </separator>
  <separator name="orbital magnetization" >
   <i type="logical" name="NUCIND"> F  </i>
   <v name="MAGPOS">      0.00000000      0.00000000      0.00000000</v>
   <i type="logical" name="LNICSALL"> T  </i>
   <i type="logical" name="ORBITALMAG"> F  </i>
   <i type="logical" name="LMAGBLOCH"> F  </i>
   <i type="logical" name="LCHIMAG"> F  </i>
   <i type="logical" name="LGAUGE"> T  </i>
   <i type="int" name="MAGATOM">     0</i>
   <v name="MAGDIPOL">      0.00000000      0.00000000      0.00000000</v>
   <v name="AVECCONST">      0.00000000      0.00000000      0.00000000</v>
  </separator>
  <separator name="response functions" >
   <i type="logical" name="LADDER"> F  </i>
   <i type="logical" name="LFXC"> F  </i>
   <i type="logical" name="LHARTREE"> T  </i>
   <i type="int" name="IBSE">     0</i>
   <v type="int" name="KPOINT">    -1     0     0     0</v>
   <i type="logical" name="LTCTE"> F  </i>
   <i type="logical" name="LTETE"> F  </i>
   <i type="logical" name="LTRIPLET"> F  </i>
   <i type="logical" name="LFXCEPS"> F  </i>
   <i type="logical" name="LFXHEG"> F  </i>
   <i type="int" name="NATURALO">     0</i>
   <i type="logical" name="L2ORDER"> F  </i>
   <i type="logical" name="LUSEW"> F  </i>
   <i name="ENCUTGW">     -2.00000000</i>
   <i name="ENCUTGWSOFT">     -2.00000000</i>
   <i name="ENCUTLF">     -1.00000000</i>
   <i type="int" name="LMAXMP2">    -1</i>
   <i name="SCISSOR">      0.00000000</i>
   <i type="int" name="NOMEGA">     0</i>
   <i type="int" name="NOMEGAR">     0</i>
   <i type="int" name="NBANDSGW">    -1</i>
   <i type="int" name="NBANDSO">    -1</i>
   <i type="int" name="NBANDSV">    -1</i>
   <i type="int" name="NELM">     1</i>
   <i type="int" name="NELMHF">     1</i>
   <i type="int" name="DIM">     3</i>
   <i type="int" name="ANTIRES">     0</i>
   <i name="OMEGAMAX">    -30.00000000</i>
   <i name="OMEGAMIN">    -30.00000000</i>
   <i name="OMEGATL">   -200.00000000</i>
   <i type="int" name="OMEGAGRID">     0</i>
   <i name="CSHIFT">     -0.10000000</i>
   <i type="logical" name="SELFENERGY"> F  </i>
   <i type="logical" name="LSPECTRAL"> F  </i>
   <i type="logical" name="LSPECTRALGW"> F  </i>
   <i type="logical" name="LSINGLES"> F  </i>
   <i type="logical" name="LFERMIGW"> F  </i>
   <i type="logical" name="ODDONLYGW"> F  </i>
   <i type="logical" name="EVENONLYGW"> F  </i>
   <i type="int" name="NKREDLFX">     1</i>
   <i type="int" name="NKREDLFY">     1</i>
   <i type="int" name="NKREDLFZ">     1</i>
   <i type="int" name="MAXMEM">  1800</i>
   <i type="int" name="TELESCOPE">     0</i>
   <i type="int" name="TAUPAR">     1</i>
   <i type="int" name="OMEGAPAR">    -1</i>
   <i name="LAMBDA">      1.00000000</i>
  </separator>
  <separator name="External order field" >
   <i name="OFIELD_KAPPA">      0.00000000</i>
   <v name="OFIELD_K">      0.00000000      0.00000000      0.00000000</v>
   <i name="OFIELD_Q6_NEAR">      0.00000000</i>
   <i name="OFIELD_Q6_FAR">      0.00000000</i>
   <i name="OFIELD_A">      0.00000000</i>
  </separator>
 </parameters>
 <atominfo>
  <atoms>       6 </atoms>
  <types>       4 </types>
  <array name="atoms" >
   <dimension dim="1">ion</dimension>
   <field type="string">element</field>
   <field type="int">atomtype</field>
   <set>
    <rc><c>Mo</c><c>   1</c></rc>
    <rc><c>S </c><c>   2</c></rc>
    <rc><c>S </c><c>   2</c></rc>
    <rc><c>Mo</c><c>   3</c></rc>
    <rc><c>S </c><c>   4</c></rc>
    <rc><c>S </c><c>   4</c></rc>
   </set>
  </array>
  <array name="atomtypes" >
   <dimension dim="1">type</dimension>
   <field type="int">atomspertype</field>
   <field type="string">element</field>
   <field>mass</field>
   <field>valence</field>
   <field type="string">pseudopotential</field>
   <set>
    <rc><c>   1</c><c>Mo</c><c>     95.94000000</c><c>     12.00000000</c><c> PAW_PBE Mo_pv 08Apr2002                </c></rc>
    <rc><c>   2</c><c>S </c><c>     32.06600000</c><c>      6.00000000</c><c>  PAW_PBE S 17Jan2003                   </c></rc>
    <rc><c>   1</c><c>Mo</c><c>     95.94000000</c><c>     12.00000000</c><c> PAW_PBE Mo_pv 08Apr2002                </c></rc>
    <rc><c>   2</c><c>S </c><c>     32.06600000</c><c>      6.00000000</c><c>  PAW_PBE S 17Jan2003                   </c></rc>
   </set>
  </array>
 </atominfo>
 <structure name="initialpos" >
  <crystal>
   <varray name="basis" >
    <v>       3.19031700       0.00000000       0.00000000 </v>
    <v>      -1.59515800       2.76289700       0.00000000 </v>
    <v>       0.00000000       0.00000000      23.14049200 </v>
   </varray>
   <i name="volume">    203.97226633 </i>
   <varray name="rec_basis" >
    <v>       0.31344848       0.18096941       0.00000000 </v>
    <v>       0.00000000       0.36193894       0.00000000 </v>
    <v>       0.00000000       0.00000000       0.04321429 </v>
   </varray>
  </crystal>
  <varray name="positions" >
   <v>       0.66666700       0.33333300       0.06785900 </v>
   <v>       0.33333300       0.66666700       0.00000000 </v>
   <v>       0.33333300       0.66666700       0.13571500 </v>
   <v>       0.66666700       0.33333300       0.33321600 </v>
   <v>       0.33333300       0.66666700       0.26535800 </v>
   <v>       0.33333300       0.66666700       0.40107200 </v>
  </varray>
 </structure>
 <calculation>
  <scstep>
   <time name="dav">   26.72   26.90</time>
   <time name="total">   46.25   46.50</time>
   <energy>
    <i name="alphaZ">    104.15310261 </i>
    <i name="ewald">   9023.51789620 </i>
    <i name="hartreedc"> -12433.10853363 </i>
    <i name="XCdc">    128.59288838 </i>
    <i name="pawpsdc">   2252.92270536 </i>
    <i name="pawaedc">  -2205.68654582 </i>
    <i name="eentropy">     -0.00400033 </i>
    <i name="bandstr">   -158.96518264 </i>
    <i name="atom">   3688.31848598 </i>
    <i name="e_fr_energy">    399.74081612 </i>
    <i name="e_wo_entrp">    399.74481645 </i>
    <i name="e_0_energy">    399.74214956 </i>
   </energy>
  </scstep>
  <scstep>
   <time name="dav">   28.60   28.62</time>
   <time name="total">   28.60   28.63</time>
   <energy>
    <i name="e_fr_energy">     -0.61092964 </i>
    <i name="e_wo_entrp">     -0.60740787 </i>
    <i name="e_0_energy">     -0.60975572 </i>
   </energy>
  </scstep>
  <scstep>
   <time name="dav">   29.61   29.64</time>
   <time name="total">   29.62   29.65</time>
   <energy>
    <i name="e_fr_energy">    -32.76518054 </i>
    <i name="e_wo_entrp">    -32.76390466 </i>
    <i name="e_0_energy">    -32.76475524 </i>
   </energy>
  </scstep>
  <scstep>
   <time name="dav">   28.44   28.47</time>
   <time name="total">   28.45   28.48</time>
   <energy>
    <i name="e_fr_energy">    -33.71489123 </i>
    <i name="e_wo_entrp">    -33.71380543 </i>
    <i name="e_0_energy">    -33.71452930 </i>
   </energy>
  </scstep>
  <scstep>
   <time name="dav">   29.33   29.36</time>
   <time name="total">   31.77   31.80</time>
   <energy>
    <i name="e_fr_energy">    -33.74377256 </i>
    <i name="e_wo_entrp">    -33.74265106 </i>
    <i name="e_0_energy">    -33.74339873 </i>
   </energy>
  </scstep>
  <scstep>
   <time name="diag">    5.44    5.44</time>
   <time name="diis">   19.27   19.33</time>
   <time name="orth">    0.19    0.19</time>
   <time name="total">   45.98   46.06</time>
   <energy>
    <i name="e_fr_energy">    -29.84957032 </i>
    <i name="e_wo_entrp">    -29.84963852 </i>
    <i name="e_0_energy">    -29.84959305 </i>
   </energy>
  </scstep>
  <scstep>
   <time name="diag">    5.51    5.51</time>
   <time name="diis">   19.23   19.25</time>
   <time name="orth">    0.18    0.18</time>
   <time name="total">   45.97   46.01</time>
   <energy>
    <i name="e_fr_energy">    -32.51378660 </i>
    <i name="e_wo_entrp">    -32.51308718 </i>
    <i name="e_0_energy">    -32.51355346 </i>
   </energy>
  </scstep>
  <scstep>
   <time name="diag">    5.51    5.51</time>
   <time name="diis">   20.53   20.55</time>
   <time name="orth">    0.20    0.20</time>
   <time name="total">   47.38   47.43</time>
   <energy>
    <i name="e_fr_energy">    -34.09179012 </i>
    <i name="e_wo_entrp">    -34.09239216 </i>
    <i name="e_0_energy">    -34.09199080 </i>
   </energy>
  </scstep>
  <scstep>
   <time name="diag">    5.51    5.52</time>
   <time name="diis">   19.44   19.45</time>
   <time name="orth">    0.18    0.18</time>
   <time name="total">   46.21   46.25</time>
   <energy>
    <i name="e_fr_energy">    -36.93349968 </i>
    <i name="e_wo_entrp">    -36.93366960 </i>
    <i name="e_0_energy">    -36.93355632 </i>
   </energy>
  </scstep>
  <scstep>
   <time name="diag">    5.53    5.53</time>
   <time name="diis">   17.74   17.76</time>
   <time name="orth">    0.20    0.20</time>
   <time name="total">   44.57   44.66</time>
   <energy>
    <i name="e_fr_energy">    -39.06778746 </i>
    <i name="e_wo_entrp">    -39.06795891 </i>
    <i name="e_0_energy">    -39.06784461 </i>
   </energy>
  </scstep>
  <scstep>
   <time name="diag">    5.45    5.46</time>
   <time name="diis">   19.71   19.72</time>
   <time name="orth">    0.18    0.18</time>
   <time name="total">   46.52   46.56</time>
   <energy>
    <i name="e_fr_energy">    -39.21619439 </i>
    <i name="e_wo_entrp">    -39.21653472 </i>
    <i name="e_0_energy">    -39.21630783 </i>
   </energy>
  </scstep>
  <scstep>
   <time name="diag">    5.46    5.47</time>
   <time name="diis">   19.74   19.76</time>
   <time name="orth">    0.18    0.18</time>
   <time name="total">   46.46   46.50</time>
   <energy>
    <i name="e_fr_energy">    -39.22503794 </i>
    <i name="e_wo_entrp">    -39.22537527 </i>
    <i name="e_0_energy">    -39.22515038 </i>
   </energy>
  </scstep>
  <scstep>
   <time name="diag">    5.52    5.52</time>
   <time name="diis">   20.37   20.39</time>
   <time name="orth">    0.19    0.19</time>
   <time name="total">   47.13   47.21</time>
   <energy>
    <i name="e_fr_energy">    -39.23342186 </i>
    <i name="e_wo_entrp">    -39.23376185 </i>
    <i name="e_0_energy">    -39.23353519 </i>
   </energy>
  </scstep>
  <scstep>
   <time name="diag">    5.51    5.51</time>
   <time name="diis">   18.50   18.54</time>
   <time name="orth">    0.18    0.18</time>
   <time name="total">   45.28   45.34</time>
   <energy>
    <i name="e_fr_energy">    -39.23545067 </i>
    <i name="e_wo_entrp">    -39.23579085 </i>
    <i name="e_0_energy">    -39.23556407 </i>
   </energy>
  </scstep>
  <scstep>
   <time name="diag">    5.43    5.43</time>
   <time name="diis">   16.01   16.02</time>
   <time name="orth">    0.18    0.18</time>
   <time name="total">   42.71   42.75</time>
   <energy>
    <i name="e_fr_energy">    -39.23333465 </i>
    <i name="e_wo_entrp">    -39.23367487 </i>
    <i name="e_0_energy">    -39.23344806 </i>
   </energy>
  </scstep>
  <scstep>
   <time name="diag">    5.46    5.46</time>
   <time name="diis">   13.62   13.63</time>
   <time name="orth">    0.20    0.20</time>
   <time name="total">   40.40   40.45</time>
   <energy>
    <i name="e_fr_energy">    -39.23366861 </i>
    <i name="e_wo_entrp">    -39.23400881 </i>
    <i name="e_0_energy">    -39.23378201 </i>
   </energy>
  </scstep>
  <scstep>
   <time name="diag">    5.43    5.43</time>
   <time name="diis">   13.21   13.22</time>
   <time name="orth">    0.20    0.20</time>
   <time name="total">   40.03   40.08</time>
   <energy>
    <i name="e_fr_energy">    -39.23392240 </i>
    <i name="e_wo_entrp">    -39.23426261 </i>
    <i name="e_0_energy">    -39.23403580 </i>
   </energy>
  </scstep>
  <scstep>
   <time name="diag">    5.50    5.50</time>
   <time name="diis">   12.86   12.87</time>
   <time name="orth">    0.19    0.19</time>
   <time name="total">   39.68   39.81</time>
   <energy>
    <i name="e_fr_energy">    -39.23435082 </i>
    <i name="e_wo_entrp">    -39.23469103 </i>
    <i name="e_0_energy">    -39.23446423 </i>
   </energy>
  </scstep>
  <scstep>
   <time name="diag">    5.45    5.46</time>
   <time name="diis">   12.63   12.64</time>
   <time name="orth">    0.20    0.20</time>
   <time name="total">   39.42   39.46</time>
   <energy>
    <i name="e_fr_energy">    -39.23468396 </i>
    <i name="e_wo_entrp">    -39.23502417 </i>
    <i name="e_0_energy">    -39.23479736 </i>
   </energy>
  </scstep>
  <scstep>
   <time name="diag">    5.43    5.44</time>
   <time name="diis">   12.68   12.68</time>
   <time name="orth">    0.20    0.20</time>
   <time name="total">   39.49   39.52</time>
   <energy>
    <i name="e_fr_energy">    -39.23493442 </i>
    <i name="e_wo_entrp">    -39.23527464 </i>
    <i name="e_0_energy">    -39.23504782 </i>
   </energy>
  </scstep>
  <scstep>
   <time name="diag">    5.47    5.48</time>
   <time name="diis">   12.32   12.33</time>
   <time name="orth">    0.18    0.18</time>
   <time name="total">   36.59   36.62</time>
   <energy>
    <i name="alphaZ">    104.15310261 </i>
    <i name="ewald">   9023.51789620 </i>
    <i name="hartreedc"> -12417.22920981 </i>
    <i name="XCdc">    122.81880888 </i>
    <i name="pawpsdc">   2400.75763365 </i>
    <i name="pawaedc">  -2362.93736595 </i>
    <i name="eentropy">      0.00034022 </i>
    <i name="bandstr">   -598.63465870 </i>
    <i name="atom">   3688.31848598 </i>
    <i name="e_fr_energy">    -39.23496693 </i>
    <i name="e_wo_entrp">    -39.23530715 </i>
    <i name="e_0_energy">    -39.23508033 </i>
   </energy>
  </scstep>
  <structure>
   <crystal>
    <varray name="basis" >
     <v>       3.19031700       0.00000000       0.00000000 </v>
     <v>      -1.59515800       2.76289700       0.00000000 </v>
     <v>       0.00000000       0.00000000      23.14049200 </v>
    </varray>
    <i name="volume">    203.97226633 </i>
    <varray name="rec_basis" >
     <v>       0.31344848       0.18096941       0.00000000 </v>
     <v>       0.00000000       0.36193894       0.00000000 </v>
     <v>       0.00000000       0.00000000       0.04321429 </v>
    </varray>
   </crystal>
   <varray name="positions" >
    <v>       0.66666700       0.33333300       0.06785900 </v>
    <v>       0.33333300       0.66666700       0.00000000 </v>
    <v>       0.33333300       0.66666700       0.13571500 </v>
    <v>       0.66666700       0.33333300       0.33321600 </v>
    <v>       0.33333300       0.66666700       0.26535800 </v>
    <v>       0.33333300       0.66666700       0.40107200 </v>
   </varray>
  </structure>
  <varray name="forces" >
   <v>       0.00000000       0.00000000      -0.09253900 </v>
   <v>       0.00000000      -0.00000000      -0.06951539 </v>
   <v>      -0.00000000       0.00000000      -0.53411351 </v>
   <v>       0.00000000       0.00000000       0.09244074 </v>
   <v>       0.00000000      -0.00000000       0.53235995 </v>
   <v>      -0.00000000      -0.00000000       0.07136722 </v>
  </varray>
  <varray name="stress" >
   <v>       4.38975899       0.00000079       0.00000000 </v>
   <v>       0.00000079       4.38976354      -0.00000000 </v>
   <v>      -0.00000000       0.00000000      21.03604645 </v>
  </varray>
  <energy>
   <i name="e_fr_energy">    -39.23496693 </i>
   <i name="e_wo_entrp">    -39.23508033 </i>
   <i name="e_0_energy">      0.00034022 </i>
  </energy>
  <time name="totalsc">  934.82  936.15</time>
  <eigenvalues>
   <array>
    <dimension dim="1">band</dimension>
    <dimension dim="2">kpoint</dimension>
    <dimension dim="3">spin</dimension>
    <field>eigene</field>
    <field>occ</field>
    <set>
     <set comment="spin 1">
      <set comment="kpoint 1">
       <r>  -34.9792    1.0000 </r>
       <r>  -34.9791    1.0000 </r>
       <r>  -34.7806    1.0000 </r>
       <r>  -34.7806    1.0000 </r>
       <r>  -34.7806    1.0000 </r>
       <r>  -34.7805    1.0000 </r>
       <r>  -14.0618    1.0000 </r>
       <r>  -13.8728    1.0000 </r>
       <r>  -12.8115    1.0000 </r>
       <r>  -12.5371    1.0000 </r>
       <r>   -5.9210    1.0000 </r>
       <r>   -5.2549    1.0000 </r>
       <r>   -2.6186    1.0000 </r>
       <r>   -2.6186    1.0000 </r>
       <r>   -2.5988    1.0000 </r>
       <r>   -2.5988    1.0000 </r>
       <r>   -2.4589    1.0000 </r>
       <r>   -1.5395    1.0000 </r>
       <r>   -1.5395    1.0000 </r>
       <r>   -1.5029    1.0000 </r>
       <r>   -1.5028    1.0000 </r>
       <r>   -1.2150    1.0000 </r>
       <r>   -0.2815    1.0000 </r>
       <r>    0.6112    0.7871 </r>
       <r>    2.6084   -0.0000 </r>
       <r>    2.6084   -0.0000 </r>
       <r>    2.7499   -0.0000 </r>
       <r>    2.7500   -0.0000 </r>
       <r>    2.8407   -0.0000 </r>
       <r>    2.8407   -0.0000 </r>
       <r>    2.9704   -0.0000 </r>
       <r>    2.9704   -0.0000 </r>
       <r>    5.3336    0.0000 </r>
       <r>    5.4315    0.0000 </r>
       <r>    6.3971    0.0000 </r>
       <r>    6.5830    0.0000 </r>
      </set>
      <set comment="kpoint 2">
       <r>  -34.9751    1.0000 </r>
       <r>  -34.9750    1.0000 </r>
       <r>  -34.8018    1.0000 </r>
       <r>  -34.8018    1.0000 </r>
       <r>  -34.7854    1.0000 </r>
       <r>  -34.7854    1.0000 </r>
       <r>  -13.9761    1.0000 </r>
       <r>  -13.7861    1.0000 </r>
       <r>  -12.7728    1.0000 </r>
       <r>  -12.5033    1.0000 </r>
       <r>   -5.8254    1.0000 </r>
       <r>   -5.1567    1.0000 </r>
       <r>   -2.8145    1.0000 </r>
       <r>   -2.7832    1.0000 </r>
       <r>   -2.6659    1.0000 </r>
       <r>   -2.5294    1.0000 </r>
       <r>   -2.5075    1.0000 </r>
       <r>   -1.9550    1.0000 </r>
       <r>   -1.6777    1.0000 </r>
       <r>   -1.6399    1.0000 </r>
       <r>   -1.4663    1.0000 </r>
       <r>   -0.9081    1.0000 </r>
       <r>   -0.2978    1.0000 </r>
       <r>    0.5246    1.0355 </r>
       <r>    2.4459   -0.0000 </r>
       <r>    2.6307   -0.0000 </r>
       <r>    2.6364   -0.0000 </r>
       <r>    2.6558   -0.0000 </r>
       <r>    2.8361   -0.0000 </r>
       <r>    2.8408   -0.0000 </r>
       <r>    2.8441   -0.0000 </r>
       <r>    2.9394   -0.0000 </r>
       <r>    5.4727    0.0000 </r>
       <r>    5.5682    0.0000 </r>
       <r>    6.7513    0.0000 </r>
       <r>    6.9641    0.0000 </r>
      </set>
      <set comment="kpoint 3">
       <r>  -34.9637    1.0000 </r>
       <r>  -34.9636    1.0000 </r>
       <r>  -34.8604    1.0000 </r>
       <r>  -34.8603    1.0000 </r>
       <r>  -34.7988    1.0000 </r>
       <r>  -34.7988    1.0000 </r>
       <r>  -13.7303    1.0000 </r>
       <r>  -13.5378    1.0000 </r>
       <r>  -12.6617    1.0000 </r>
       <r>  -12.4068    1.0000 </r>
       <r>   -5.5729    1.0000 </r>
       <r>   -4.9082    1.0000 </r>
       <r>   -3.2973    1.0000 </r>
       <r>   -3.2196    1.0000 </r>
       <r>   -3.0860    1.0000 </r>
       <r>   -2.5703    1.0000 </r>
       <r>   -2.2806    1.0000 </r>
       <r>   -2.2499    1.0000 </r>
       <r>   -2.0126    1.0000 </r>
       <r>   -1.9739    1.0000 </r>
       <r>   -1.4858    1.0000 </r>
       <r>   -0.7780    1.0000 </r>
       <r>   -0.4203    1.0000 </r>
       <r>    0.2029    1.0000 </r>
       <r>    2.0664   -0.0000 </r>
       <r>    2.4134   -0.0000 </r>
       <r>    2.4671   -0.0000 </r>
       <r>    2.4741   -0.0000 </r>
       <r>    2.6328   -0.0000 </r>
       <r>    2.7906   -0.0000 </r>
       <r>    3.1411   -0.0000 </r>
       <r>    3.2693   -0.0000 </r>
       <r>    5.8250    0.0000 </r>
       <r>    5.9179    0.0000 </r>
       <r>    7.4624    0.0000 </r>
       <r>    7.8727    0.0000 </r>
      </set>
      <set comment="kpoint 4">
       <r>  -34.9476    1.0000 </r>
       <r>  -34.9475    1.0000 </r>
       <r>  -34.9419    1.0000 </r>
       <r>  -34.9418    1.0000 </r>
       <r>  -34.8177    1.0000 </r>
       <r>  -34.8176    1.0000 </r>
       <r>  -13.3598    1.0000 </r>
       <r>  -13.1640    1.0000 </r>
       <r>  -12.4940    1.0000 </r>
       <r>  -12.2618    1.0000 </r>
       <r>   -5.2939    1.0000 </r>
       <r>   -4.7234    1.0000 </r>
       <r>   -3.8520    1.0000 </r>
       <r>   -3.6145    1.0000 </r>
       <r>   -3.5521    1.0000 </r>
       <r>   -3.1842    1.0000 </r>
       <r>   -2.4146    1.0000 </r>
       <r>   -2.3682    1.0000 </r>
       <r>   -1.9155    1.0000 </r>
       <r>   -1.8758    1.0000 </r>
       <r>   -1.7238    1.0000 </r>
       <r>   -0.9497    1.0000 </r>
       <r>   -0.7311    1.0000 </r>
       <r>   -0.2989    1.0000 </r>
       <r>    1.8525   -0.0000 </r>
       <r>    2.2405   -0.0000 </r>
       <r>    2.3345   -0.0000 </r>
       <r>    2.3801   -0.0000 </r>
       <r>    2.6511   -0.0000 </r>
       <r>    3.0794   -0.0000 </r>
       <r>    3.5037    0.0000 </r>
       <r>    3.6638    0.0000 </r>
       <r>    6.3380    0.0000 </r>
       <r>    6.4298    0.0000 </r>
       <r>    7.9018    0.0000 </r>
       <r>    8.3643    0.0000 </r>
      </set>
      <set comment="kpoint 5">
       <r>  -35.0272    1.0000 </r>
       <r>  -35.0271    1.0000 </r>
       <r>  -34.9304    1.0000 </r>
       <r>  -34.9304    1.0000 </r>
       <r>  -34.8376    1.0000 </r>
       <r>  -34.8376    1.0000 </r>
       <r>  -12.9272    1.0000 </r>
       <r>  -12.7275    1.0000 </r>
       <r>  -12.2978    1.0000 </r>
       <r>  -12.0941    1.0000 </r>
       <r>   -5.2570    1.0000 </r>
       <r>   -4.9395    1.0000 </r>
       <r>   -4.2994    1.0000 </r>
       <r>   -3.9467    1.0000 </r>
       <r>   -3.8811    1.0000 </r>
       <r>   -3.5553    1.0000 </r>
       <r>   -2.7703    1.0000 </r>
       <r>   -2.7228    1.0000 </r>
       <r>   -2.0269    1.0000 </r>
       <r>   -1.5362    1.0000 </r>
       <r>   -1.4721    1.0000 </r>
       <r>   -1.2156    1.0000 </r>
       <r>   -1.0175    1.0000 </r>
       <r>   -0.6536    1.0000 </r>
       <r>    1.9516   -0.0000 </r>
       <r>    2.0938   -0.0000 </r>
       <r>    2.2014   -0.0000 </r>
       <r>    2.4228   -0.0000 </r>
       <r>    3.0391   -0.0000 </r>
       <r>    3.5270    0.0000 </r>
       <r>    3.7874    0.0000 </r>
       <r>    3.9836    0.0000 </r>
       <r>    6.9487    0.0000 </r>
       <r>    7.0498    0.0000 </r>
       <r>    7.6451    0.0000 </r>
       <r>    8.2062    0.0000 </r>
      </set>
      <set comment="kpoint 6">
       <r>  -35.0970    1.0000 </r>
       <r>  -35.0969    1.0000 </r>
       <r>  -34.9162    1.0000 </r>
       <r>  -34.9161    1.0000 </r>
       <r>  -34.8540    1.0000 </r>
       <r>  -34.8540    1.0000 </r>
       <r>  -12.5297    1.0000 </r>
       <r>  -12.3238    1.0000 </r>
       <r>  -12.1128    1.0000 </r>
       <r>  -11.9407    1.0000 </r>
       <r>   -5.5216    1.0000 </r>
       <r>   -5.3192    1.0000 </r>
       <r>   -4.6620    1.0000 </r>
       <r>   -4.3190    1.0000 </r>
       <r>   -4.1593    1.0000 </r>
       <r>   -3.6452    1.0000 </r>
       <r>   -3.0309    1.0000 </r>
       <r>   -2.9821    1.0000 </r>
       <r>   -2.2637    1.0000 </r>
       <r>   -1.3993    1.0000 </r>
       <r>   -1.2380    1.0000 </r>
       <r>   -1.1440    1.0000 </r>
       <r>   -0.9930    1.0000 </r>
       <r>   -0.5960    1.0000 </r>
       <r>    2.0762   -0.0000 </r>
       <r>    2.1415   -0.0000 </r>
       <r>    2.2301   -0.0000 </r>
       <r>    2.5736   -0.0000 </r>
       <r>    3.3925    0.0000 </r>
       <r>    3.9074    0.0000 </r>
       <r>    3.9591    0.0000 </r>
       <r>    4.1873    0.0000 </r>
       <r>    6.5701    0.0000 </r>
       <r>    7.3232    0.0000 </r>
       <r>    7.4660    0.0000 </r>
       <r>    7.9972    0.0000 </r>
      </set>
      <set comment="kpoint 7">
       <r>  -35.1360    1.0000 </r>
       <r>  -35.1360    1.0000 </r>
       <r>  -34.9081    1.0000 </r>
       <r>  -34.9081    1.0000 </r>
       <r>  -34.8633    1.0000 </r>
       <r>  -34.8633    1.0000 </r>
       <r>  -12.2907    1.0000 </r>
       <r>  -12.0754    1.0000 </r>
       <r>  -11.9896    1.0000 </r>
       <r>  -11.8443    1.0000 </r>
       <r>   -5.7578    1.0000 </r>
       <r>   -5.5699    1.0000 </r>
       <r>   -4.8939    1.0000 </r>
       <r>   -4.5821    1.0000 </r>
       <r>   -4.2763    1.0000 </r>
       <r>   -3.7702    1.0000 </r>
       <r>   -3.1673    1.0000 </r>
       <r>   -3.1178    1.0000 </r>
       <r>   -2.3858    1.0000 </r>
       <r>   -1.4902    1.0000 </r>
       <r>   -1.0845    1.0000 </r>
       <r>   -0.9687    1.0000 </r>
       <r>   -0.8092    1.0000 </r>
       <r>   -0.3424    1.0000 </r>
       <r>    2.1228   -0.0000 </r>
       <r>    2.1555   -0.0000 </r>
       <r>    2.5070   -0.0000 </r>
       <r>    2.6933   -0.0000 </r>
       <r>    3.5596    0.0000 </r>
       <r>    4.0347    0.0000 </r>
       <r>    4.0928    0.0000 </r>
       <r>    4.2818    0.0000 </r>
       <r>    5.7924    0.0000 </r>
       <r>    6.7597    0.0000 </r>
       <r>    7.6558    0.0000 </r>
       <r>    8.1032    0.0000 </r>
      </set>
      <set comment="kpoint 8">
       <r>  -34.9673    1.0000 </r>
       <r>  -34.9673    1.0000 </r>
       <r>  -34.8408    1.0000 </r>
       <r>  -34.8408    1.0000 </r>
       <r>  -34.7955    1.0000 </r>
       <r>  -34.7954    1.0000 </r>
       <r>  -13.8103    1.0000 </r>
       <r>  -13.6185    1.0000 </r>
       <r>  -12.6978    1.0000 </r>
       <r>  -12.4381    1.0000 </r>
       <r>   -5.6499    1.0000 </r>
       <r>   -4.9804    1.0000 </r>
       <r>   -3.1454    1.0000 </r>
       <r>   -3.0899    1.0000 </r>
       <r>   -2.9499    1.0000 </r>
       <r>   -2.3668    1.0000 </r>
       <r>   -2.3657    1.0000 </r>
       <r>   -2.3357    1.0000 </r>
       <r>   -2.0006    1.0000 </r>
       <r>   -1.9447    1.0000 </r>
       <r>   -1.3794    1.0000 </r>
       <r>   -0.7384    1.0000 </r>
       <r>   -0.3647    1.0000 </r>
       <r>    0.3233    1.0000 </r>
       <r>    2.1664   -0.0000 </r>
       <r>    2.4421   -0.0000 </r>
       <r>    2.4464   -0.0000 </r>
       <r>    2.5251   -0.0000 </r>
       <r>    2.6761   -0.0000 </r>
       <r>    2.7428   -0.0000 </r>
       <r>    3.0739   -0.0000 </r>
       <r>    3.2128   -0.0000 </r>
       <r>    5.7154    0.0000 </r>
       <r>    5.8091    0.0000 </r>
       <r>    7.3333    0.0000 </r>
       <r>    7.6238    0.0000 </r>
      </set>
      <set comment="kpoint 9">
       <r>  -34.9536    1.0000 </r>
       <r>  -34.9535    1.0000 </r>
       <r>  -34.9084    1.0000 </r>
       <r>  -34.9084    1.0000 </r>
       <r>  -34.8140    1.0000 </r>
       <r>  -34.8140    1.0000 </r>
       <r>  -13.5015    1.0000 </r>
       <r>  -13.3069    1.0000 </r>
       <r>  -12.5578    1.0000 </r>
       <r>  -12.3167    1.0000 </r>
       <r>   -5.3714    1.0000 </r>
       <r>   -4.7386    1.0000 </r>
       <r>   -3.6384    1.0000 </r>
       <r>   -3.4970    1.0000 </r>
       <r>   -3.3307    1.0000 </r>
       <r>   -2.8947    1.0000 </r>
       <r>   -2.5108    1.0000 </r>
       <r>   -2.3959    1.0000 </r>
       <r>   -2.0875    1.0000 </r>
       <r>   -2.0486    1.0000 </r>
       <r>   -1.4227    1.0000 </r>
       <r>   -0.7565    1.0000 </r>
       <r>   -0.5841    1.0000 </r>
       <r>   -0.0848    1.0000 </r>
       <r>    1.8529   -0.0000 </r>
       <r>    2.2595   -0.0000 </r>
       <r>    2.3133   -0.0000 </r>
       <r>    2.4248   -0.0000 </r>
       <r>    2.4872   -0.0000 </r>
       <r>    2.7971   -0.0000 </r>
       <r>    3.4568    0.0000 </r>
       <r>    3.6498    0.0000 </r>
       <r>    6.1491    0.0000 </r>
       <r>    6.2412    0.0000 </r>
       <r>    7.7787    0.0000 </r>
       <r>    8.4579    0.0000 </r>
      </set>
      <set comment="kpoint 10">
       <r>  -34.9888    1.0000 </r>
       <r>  -34.9887    1.0000 </r>
       <r>  -34.9369    1.0000 </r>
       <r>  -34.9369    1.0000 </r>
       <r>  -34.8364    1.0000 </r>
       <r>  -34.8363    1.0000 </r>
       <r>  -13.0978    1.0000 </r>
       <r>  -12.8996    1.0000 </r>
       <r>  -12.3741    1.0000 </r>
       <r>  -12.1584    1.0000 </r>
       <r>   -5.1884    1.0000 </r>
       <r>   -4.7595    1.0000 </r>
       <r>   -4.0893    1.0000 </r>
       <r>   -3.7647    1.0000 </r>
       <r>   -3.7003    1.0000 </r>
       <r>   -3.4625    1.0000 </r>
       <r>   -2.9195    1.0000 </r>
       <r>   -2.7372    1.0000 </r>
       <r>   -1.8382    1.0000 </r>
       <r>   -1.7567    1.0000 </r>
       <r>   -1.6466    1.0000 </r>
       <r>   -0.9842    1.0000 </r>
       <r>   -0.8801    1.0000 </r>
       <r>   -0.5129    1.0000 </r>
       <r>    1.7562   -0.0000 </r>
       <r>    2.1468   -0.0000 </r>
       <r>    2.2118   -0.0000 </r>
       <r>    2.4507   -0.0000 </r>
       <r>    2.6965   -0.0000 </r>
       <r>    3.1098   -0.0000 </r>
       <r>    3.7838    0.0000 </r>
       <r>    4.0386    0.0000 </r>
       <r>    6.7346    0.0000 </r>
       <r>    6.8217    0.0000 </r>
       <r>    8.1829    0.0000 </r>
       <r>    8.4345    0.0000 </r>
      </set>
      <set comment="kpoint 11">
       <r>  -35.0634    1.0000 </r>
       <r>  -35.0634    1.0000 </r>
       <r>  -34.9212    1.0000 </r>
       <r>  -34.9212    1.0000 </r>
       <r>  -34.8574    1.0000 </r>
       <r>  -34.8574    1.0000 </r>
       <r>  -12.6775    1.0000 </r>
       <r>  -12.4745    1.0000 </r>
       <r>  -12.1798    1.0000 </r>
       <r>  -11.9943    1.0000 </r>
       <r>   -5.3251    1.0000 </r>
       <r>   -5.0915    1.0000 </r>
       <r>   -4.4687    1.0000 </r>
       <r>   -4.1481    1.0000 </r>
       <r>   -4.0802    1.0000 </r>
       <r>   -3.5716    1.0000 </r>
       <r>   -3.1310    1.0000 </r>
       <r>   -2.9492    1.0000 </r>
       <r>   -2.0109    1.0000 </r>
       <r>   -1.6516    1.0000 </r>
       <r>   -1.5882    1.0000 </r>
       <r>   -1.1737    1.0000 </r>
       <r>   -0.9120    1.0000 </r>
       <r>   -0.6444    1.0000 </r>
       <r>    1.8816   -0.0000 </r>
       <r>    2.1665   -0.0000 </r>
       <r>    2.2685   -0.0000 </r>
       <r>    2.5126   -0.0000 </r>
       <r>    3.0956   -0.0000 </r>
       <r>    3.5191    0.0000 </r>
       <r>    3.9545    0.0000 </r>
       <r>    4.2787    0.0000 </r>
       <r>    7.1704    0.0000 </r>
       <r>    7.4075    0.0000 </r>
       <r>    7.4278    0.0000 </r>
       <r>    8.2799    0.0000 </r>
      </set>
      <set comment="kpoint 12">
       <r>  -35.1158    1.0000 </r>
       <r>  -35.1158    1.0000 </r>
       <r>  -34.9101    1.0000 </r>
       <r>  -34.9100    1.0000 </r>
       <r>  -34.8723    1.0000 </r>
       <r>  -34.8722    1.0000 </r>
       <r>  -12.3532    1.0000 </r>
       <r>  -12.1413    1.0000 </r>
       <r>  -12.0192    1.0000 </r>
       <r>  -11.8647    1.0000 </r>
       <r>   -5.5887    1.0000 </r>
       <r>   -5.3994    1.0000 </r>
       <r>   -4.8186    1.0000 </r>
       <r>   -4.5512    1.0000 </r>
       <r>   -4.2307    1.0000 </r>
       <r>   -3.6919    1.0000 </r>
       <r>   -3.2122    1.0000 </r>
       <r>   -3.0681    1.0000 </r>
       <r>   -2.2703    1.0000 </r>
       <r>   -1.5519    1.0000 </r>
       <r>   -1.5316    1.0000 </r>
       <r>   -1.2432    1.0000 </r>
       <r>   -0.7160    1.0000 </r>
       <r>   -0.4313    1.0000 </r>
       <r>    2.0669   -0.0000 </r>
       <r>    2.2129   -0.0000 </r>
       <r>    2.4511   -0.0000 </r>
       <r>    2.6529   -0.0000 </r>
       <r>    3.4595    0.0000 </r>
       <r>    3.8693    0.0000 </r>
       <r>    3.9279    0.0000 </r>
       <r>    4.3261    0.0000 </r>
       <r>    6.2063    0.0000 </r>
       <r>    7.1440    0.0000 </r>
       <r>    7.8865    0.0000 </r>
       <r>    8.3273    0.0000 </r>
      </set>
      <set comment="kpoint 13">
       <r>  -35.1346    1.0000 </r>
       <r>  -35.1346    1.0000 </r>
       <r>  -34.9060    1.0000 </r>
       <r>  -34.9060    1.0000 </r>
       <r>  -34.8776    1.0000 </r>
       <r>  -34.8776    1.0000 </r>
       <r>  -12.2332    1.0000 </r>
       <r>  -12.0147    1.0000 </r>
       <r>  -11.9513    1.0000 </r>
       <r>  -11.8126    1.0000 </r>
       <r>   -5.7070    1.0000 </r>
       <r>   -5.5199    1.0000 </r>
       <r>   -4.9548    1.0000 </r>
       <r>   -4.6977    1.0000 </r>
       <r>   -4.2951    1.0000 </r>
       <r>   -3.7726    1.0000 </r>
       <r>   -3.2266    1.0000 </r>
       <r>   -3.1050    1.0000 </r>
       <r>   -2.3748    1.0000 </r>
       <r>   -1.5577    1.0000 </r>
       <r>   -1.5004    1.0000 </r>
       <r>   -1.2169    1.0000 </r>
       <r>   -0.5948    1.0000 </r>
       <r>   -0.2740    1.0000 </r>
       <r>    2.1244   -0.0000 </r>
       <r>    2.1988   -0.0000 </r>
       <r>    2.6032   -0.0000 </r>
       <r>    2.7651   -0.0000 </r>
       <r>    3.7044    0.0000 </r>
       <r>    3.7704    0.0000 </r>
       <r>    4.0539    0.0000 </r>
       <r>    4.2580    0.0000 </r>
       <r>    5.7775    0.0000 </r>
       <r>    6.8012    0.0000 </r>
       <r>    8.1106    0.0000 </r>
       <r>    8.4380    0.0000 </r>
      </set>
      <set comment="kpoint 14">
       <r>  -34.9705    1.0000 </r>
       <r>  -34.9705    1.0000 </r>
       <r>  -34.9393    1.0000 </r>
       <r>  -34.9392    1.0000 </r>
       <r>  -34.8403    1.0000 </r>
       <r>  -34.8403    1.0000 </r>
       <r>  -13.1580    1.0000 </r>
       <r>  -12.9603    1.0000 </r>
       <r>  -12.4003    1.0000 </r>
       <r>  -12.1805    1.0000 </r>
       <r>   -5.1611    1.0000 </r>
       <r>   -4.6751    1.0000 </r>
       <r>   -3.9784    1.0000 </r>
       <r>   -3.6439    1.0000 </r>
       <r>   -3.5903    1.0000 </r>
       <r>   -3.3355    1.0000 </r>
       <r>   -3.1624    1.0000 </r>
       <r>   -2.8744    1.0000 </r>
       <r>   -1.9810    1.0000 </r>
       <r>   -1.9078    1.0000 </r>
       <r>   -1.4196    1.0000 </r>
       <r>   -0.8379    1.0000 </r>
       <r>   -0.8046    1.0000 </r>
       <r>   -0.4028    1.0000 </r>
       <r>    1.6590   -0.0000 </r>
       <r>    2.0762   -0.0000 </r>
       <r>    2.2565   -0.0000 </r>
       <r>    2.4713   -0.0000 </r>
       <r>    2.4715   -0.0000 </r>
       <r>    2.8723   -0.0000 </r>
       <r>    3.8264    0.0000 </r>
       <r>    4.1070    0.0000 </r>
       <r>    6.6643    0.0000 </r>
       <r>    6.7495    0.0000 </r>
       <r>    8.3149    0.0000 </r>
       <r>    8.6720    0.0000 </r>
      </set>
      <set comment="kpoint 15">
       <r>  -35.0334    1.0000 </r>
       <r>  -35.0334    1.0000 </r>
       <r>  -34.9241    1.0000 </r>
       <r>  -34.9241    1.0000 </r>
       <r>  -34.8707    1.0000 </r>
       <r>  -34.8707    1.0000 </r>
       <r>  -12.7606    1.0000 </r>
       <r>  -12.5587    1.0000 </r>
       <r>  -12.2141    1.0000 </r>
       <r>  -12.0214    1.0000 </r>
       <r>   -5.1501    1.0000 </r>
       <r>   -4.8752    1.0000 </r>
       <r>   -4.2178    1.0000 </r>
       <r>   -4.0494    1.0000 </r>
       <r>   -4.0069    1.0000 </r>
       <r>   -3.5237    1.0000 </r>
       <r>   -3.3787    1.0000 </r>
       <r>   -3.0106    1.0000 </r>
       <r>   -2.1350    1.0000 </r>
       <r>   -2.0179    1.0000 </r>
       <r>   -1.6129    1.0000 </r>
       <r>   -0.9567    1.0000 </r>
       <r>   -0.8694    1.0000 </r>
       <r>   -0.6476    1.0000 </r>
       <r>    1.6913   -0.0000 </r>
       <r>    2.1400   -0.0000 </r>
       <r>    2.3464   -0.0000 </r>
       <r>    2.5113   -0.0000 </r>
       <r>    2.7135   -0.0000 </r>
       <r>    3.1145   -0.0000 </r>
       <r>    4.0551    0.0000 </r>
       <r>    4.4184    0.0000 </r>
       <r>    7.3043    0.0000 </r>
       <r>    7.3764    0.0000 </r>
       <r>    7.8256    0.0000 </r>
       <r>    8.8096    0.0000 </r>
      </set>
      <set comment="kpoint 16">
       <r>  -35.0840    1.0000 </r>
       <r>  -35.0840    1.0000 </r>
       <r>  -34.9115    1.0000 </r>
       <r>  -34.9114    1.0000 </r>
       <r>  -34.8967    1.0000 </r>
       <r>  -34.8966    1.0000 </r>
       <r>  -12.4023    1.0000 </r>
       <r>  -12.1927    1.0000 </r>
       <r>  -12.0358    1.0000 </r>
       <r>  -11.8736    1.0000 </r>
       <r>   -5.3157    1.0000 </r>
       <r>   -5.1183    1.0000 </r>
       <r>   -4.7175    1.0000 </r>
       <r>   -4.5578    1.0000 </r>
       <r>   -4.1553    1.0000 </r>
       <r>   -3.5343    1.0000 </r>
       <r>   -3.3569    1.0000 </r>
       <r>   -3.0406    1.0000 </r>
       <r>   -2.3343    1.0000 </r>
       <r>   -2.1158    1.0000 </r>
       <r>   -1.9225    1.0000 </r>
       <r>   -1.1934    1.0000 </r>
       <r>   -0.7038    1.0000 </r>
       <r>   -0.5538    1.0000 </r>
       <r>    1.9321   -0.0000 </r>
       <r>    2.3033   -0.0000 </r>
       <r>    2.4796   -0.0000 </r>
       <r>    2.6060   -0.0000 </r>
       <r>    3.0263   -0.0000 </r>
       <r>    3.4307    0.0000 </r>
       <r>    4.1066    0.0000 </r>
       <r>    4.5408    0.0000 </r>
       <r>    6.8244    0.0000 </r>
       <r>    7.6685    0.0000 </r>
       <r>    8.0490    0.0000 </r>
       <r>    8.5978    0.0000 </r>
      </set>
      <set comment="kpoint 17">
       <r>  -35.1122    1.0000 </r>
       <r>  -35.1122    1.0000 </r>
       <r>  -34.9115    1.0000 </r>
       <r>  -34.9115    1.0000 </r>
       <r>  -34.9044    1.0000 </r>
       <r>  -34.9043    1.0000 </r>
       <r>  -12.1921    1.0000 </r>
       <r>  -11.9722    1.0000 </r>
       <r>  -11.9155    1.0000 </r>
       <r>  -11.7788    1.0000 </r>
       <r>   -5.4472    1.0000 </r>
       <r>   -5.2595    1.0000 </r>
       <r>   -5.0219    1.0000 </r>
       <r>   -4.8651    1.0000 </r>
       <r>   -4.2591    1.0000 </r>
       <r>   -3.6878    1.0000 </r>
       <r>   -3.2686    1.0000 </r>
       <r>   -3.0193    1.0000 </r>
       <r>   -2.4780    1.0000 </r>
       <r>   -2.1061    1.0000 </r>
       <r>   -2.1008    1.0000 </r>
       <r>   -1.3935    1.0000 </r>
       <r>   -0.4846    1.0000 </r>
       <r>   -0.3037    1.0000 </r>
       <r>    2.0308   -0.0000 </r>
       <r>    2.1524   -0.0000 </r>
       <r>    2.7051   -0.0000 </r>
       <r>    2.9490   -0.0000 </r>
       <r>    3.2409   -0.0000 </r>
       <r>    3.6468    0.0000 </r>
       <r>    4.0492    0.0000 </r>
       <r>    4.5307    0.0000 </r>
       <r>    6.1115    0.0000 </r>
       <r>    7.1716    0.0000 </r>
       <r>    8.6084    0.0000 </r>
       <r>    8.7730    0.0000 </r>
      </set>
      <set comment="kpoint 18">
       <r>  -35.0659    1.0000 </r>
       <r>  -35.0659    1.0000 </r>
       <r>  -34.9123    1.0000 </r>
       <r>  -34.9122    1.0000 </r>
       <r>  -34.9120    1.0000 </r>
       <r>  -34.9119    1.0000 </r>
       <r>  -12.4210    1.0000 </r>
       <r>  -12.2121    1.0000 </r>
       <r>  -12.0409    1.0000 </r>
       <r>  -11.8757    1.0000 </r>
       <r>   -5.1741    1.0000 </r>
       <r>   -4.9676    1.0000 </r>
       <r>   -4.6646    1.0000 </r>
       <r>   -4.5638    1.0000 </r>
       <r>   -4.0865    1.0000 </r>
       <r>   -3.4192    1.0000 </r>
       <r>   -3.3962    1.0000 </r>
       <r>   -3.0092    1.0000 </r>
       <r>   -2.6616    1.0000 </r>
       <r>   -2.5325    1.0000 </r>
       <r>   -1.8275    1.0000 </r>
       <r>   -1.1025    1.0000 </r>
       <r>   -0.7206    1.0000 </r>
       <r>   -0.6227    1.0000 </r>
       <r>    1.8631   -0.0000 </r>
       <r>    2.3306   -0.0000 </r>
       <r>    2.4959   -0.0000 </r>
       <r>    2.5868   -0.0000 </r>
       <r>    2.8154   -0.0000 </r>
       <r>    3.2360   -0.0000 </r>
       <r>    4.2240    0.0000 </r>
       <r>    4.6478    0.0000 </r>
       <r>    7.2244    0.0000 </r>
       <r>    7.8825    0.0000 </r>
       <r>    8.0137    0.0000 </r>
       <r>    8.5712    0.0000 </r>
      </set>
      <set comment="kpoint 19">
       <r>  -35.0827    1.0000 </r>
       <r>  -35.0827    1.0000 </r>
       <r>  -34.9478    1.0000 </r>
       <r>  -34.9478    1.0000 </r>
       <r>  -34.9034    1.0000 </r>
       <r>  -34.9034    1.0000 </r>
       <r>  -12.1715    1.0000 </r>
       <r>  -11.9514    1.0000 </r>
       <r>  -11.8937    1.0000 </r>
       <r>  -11.7566    1.0000 </r>
       <r>   -5.1846    1.0000 </r>
       <r>   -5.0419    1.0000 </r>
       <r>   -5.0021    1.0000 </r>
       <r>   -4.9379    1.0000 </r>
       <r>   -4.1133    1.0000 </r>
       <r>   -3.4873    1.0000 </r>
       <r>   -3.3249    1.0000 </r>
       <r>   -3.0496    1.0000 </r>
       <r>   -2.9895    1.0000 </r>
       <r>   -2.7789    1.0000 </r>
       <r>   -2.1579    1.0000 </r>
       <r>   -1.3938    1.0000 </r>
       <r>   -0.4536    1.0000 </r>
       <r>   -0.3605    1.0000 </r>
       <r>    1.9083   -0.0000 </r>
       <r>    2.0673   -0.0000 </r>
       <r>    2.7192   -0.0000 </r>
       <r>    2.9345   -0.0000 </r>
       <r>    3.0619   -0.0000 </r>
       <r>    3.3751   -0.0000 </r>
       <r>    4.3490    0.0000 </r>
       <r>    4.7787    0.0000 </r>
       <r>    6.6238    0.0000 </r>
       <r>    7.6610    0.0000 </r>
       <r>    8.0000    0.0000 </r>
       <r>    8.7968    0.0000 </r>
      </set>
      <set comment="kpoint 20">
       <r>  -35.0871    1.0000 </r>
       <r>  -35.0871    1.0000 </r>
       <r>  -34.9623    1.0000 </r>
       <r>  -34.9623    1.0000 </r>
       <r>  -34.9003    1.0000 </r>
       <r>  -34.9002    1.0000 </r>
       <r>  -12.0826    1.0000 </r>
       <r>  -11.8567    1.0000 </r>
       <r>  -11.8316    1.0000 </r>
       <r>  -11.7070    1.0000 </r>
       <r>   -5.2767    1.0000 </r>
       <r>   -5.1435    1.0000 </r>
       <r>   -5.0499    1.0000 </r>
       <r>   -4.9036    1.0000 </r>
       <r>   -4.2157    1.0000 </r>
       <r>   -3.6776    1.0000 </r>
       <r>   -3.2466    1.0000 </r>
       <r>   -3.1406    1.0000 </r>
       <r>   -2.9167    1.0000 </r>
       <r>   -2.8051    1.0000 </r>
       <r>   -2.3417    1.0000 </r>
       <r>   -1.5396    1.0000 </r>
       <r>   -0.2855    1.0000 </r>
       <r>   -0.1736    1.0000 </r>
       <r>    1.8188   -0.0000 </r>
       <r>    1.8690   -0.0000 </r>
       <r>    2.8359   -0.0000 </r>
       <r>    3.0381   -0.0000 </r>
       <r>    3.3013   -0.0000 </r>
       <r>    3.4383    0.0000 </r>
       <r>    4.4027    0.0000 </r>
       <r>    4.8259    0.0000 </r>
       <r>    6.3077    0.0000 </r>
       <r>    7.3979    0.0000 </r>
       <r>    7.8566    0.0000 </r>
       <r>    8.8654    0.0000 </r>
      </set>
      <set comment="kpoint 21">
       <r>  -35.0626    1.0000 </r>
       <r>  -35.0626    1.0000 </r>
       <r>  -34.9962    1.0000 </r>
       <r>  -34.9961    1.0000 </r>
       <r>  -34.8988    1.0000 </r>
       <r>  -34.8988    1.0000 </r>
       <r>  -12.0441    1.0000 </r>
       <r>  -11.8164    1.0000 </r>
       <r>  -11.7993    1.0000 </r>
       <r>  -11.6785    1.0000 </r>
       <r>   -5.3485    1.0000 </r>
       <r>   -5.2466    1.0000 </r>
       <r>   -4.7826    1.0000 </r>
       <r>   -4.6179    1.0000 </r>
       <r>   -4.0809    1.0000 </r>
       <r>   -3.8038    1.0000 </r>
       <r>   -3.7411    1.0000 </r>
       <r>   -3.2283    1.0000 </r>
       <r>   -3.0635    1.0000 </r>
       <r>   -2.7782    1.0000 </r>
       <r>   -2.4458    1.0000 </r>
       <r>   -1.6200    1.0000 </r>
       <r>   -0.1825    1.0000 </r>
       <r>   -0.0969    1.0000 </r>
       <r>    1.6776   -0.0000 </r>
       <r>    1.7099   -0.0000 </r>
       <r>    2.7082   -0.0000 </r>
       <r>    3.1431   -0.0000 </r>
       <r>    3.2404   -0.0000 </r>
       <r>    3.5618    0.0000 </r>
       <r>    4.5785    0.0000 </r>
       <r>    4.9688    0.0000 </r>
       <r>    6.6498    0.0000 </r>
       <r>    7.2113    0.0000 </r>
       <r>    7.6979    0.0000 </r>
       <r>    8.2953    0.0000 </r>
      </set>
     </set>
     <set comment="spin 2">
      <set comment="kpoint 1">
       <r>  -34.9792    1.0000 </r>
       <r>  -34.9792    1.0000 </r>
       <r>  -34.7806    1.0000 </r>
       <r>  -34.7806    1.0000 </r>
       <r>  -34.7806    1.0000 </r>
       <r>  -34.7806    1.0000 </r>
       <r>  -14.0618    1.0000 </r>
       <r>  -13.8728    1.0000 </r>
       <r>  -12.8115    1.0000 </r>
       <r>  -12.5371    1.0000 </r>
       <r>   -5.9210    1.0000 </r>
       <r>   -5.2549    1.0000 </r>
       <r>   -2.6186    1.0000 </r>
       <r>   -2.6185    1.0000 </r>
       <r>   -2.5988    1.0000 </r>
       <r>   -2.5988    1.0000 </r>
       <r>   -2.4589    1.0000 </r>
       <r>   -1.5395    1.0000 </r>
       <r>   -1.5395    1.0000 </r>
       <r>   -1.5029    1.0000 </r>
       <r>   -1.5028    1.0000 </r>
       <r>   -1.2151    1.0000 </r>
       <r>   -0.2816    1.0000 </r>
       <r>    0.6111    0.7872 </r>
       <r>    2.6084   -0.0000 </r>
       <r>    2.6084   -0.0000 </r>
       <r>    2.7499   -0.0000 </r>
       <r>    2.7500   -0.0000 </r>
       <r>    2.8407   -0.0000 </r>
       <r>    2.8407   -0.0000 </r>
       <r>    2.9703   -0.0000 </r>
       <r>    2.9704   -0.0000 </r>
       <r>    5.3496    0.0000 </r>
       <r>    5.4372    0.0000 </r>
       <r>    6.4889    0.0000 </r>
       <r>    6.5905    0.0000 </r>
      </set>
      <set comment="kpoint 2">
       <r>  -34.9751    1.0000 </r>
       <r>  -34.9751    1.0000 </r>
       <r>  -34.8019    1.0000 </r>
       <r>  -34.8018    1.0000 </r>
       <r>  -34.7854    1.0000 </r>
       <r>  -34.7854    1.0000 </r>
       <r>  -13.9761    1.0000 </r>
       <r>  -13.7861    1.0000 </r>
       <r>  -12.7728    1.0000 </r>
       <r>  -12.5034    1.0000 </r>
       <r>   -5.8254    1.0000 </r>
       <r>   -5.1567    1.0000 </r>
       <r>   -2.8145    1.0000 </r>
       <r>   -2.7832    1.0000 </r>
       <r>   -2.6660    1.0000 </r>
       <r>   -2.5294    1.0000 </r>
       <r>   -2.5075    1.0000 </r>
       <r>   -1.9550    1.0000 </r>
       <r>   -1.6777    1.0000 </r>
       <r>   -1.6399    1.0000 </r>
       <r>   -1.4663    1.0000 </r>
       <r>   -0.9082    1.0000 </r>
       <r>   -0.2979    1.0000 </r>
       <r>    0.5246    1.0355 </r>
       <r>    2.4459   -0.0000 </r>
       <r>    2.6307   -0.0000 </r>
       <r>    2.6364   -0.0000 </r>
       <r>    2.6558   -0.0000 </r>
       <r>    2.8360   -0.0000 </r>
       <r>    2.8408   -0.0000 </r>
       <r>    2.8441   -0.0000 </r>
       <r>    2.9394   -0.0000 </r>
       <r>    5.4778    0.0000 </r>
       <r>    5.5738    0.0000 </r>
       <r>    6.8092    0.0000 </r>
       <r>    7.1432    0.0000 </r>
      </set>
      <set comment="kpoint 3">
       <r>  -34.9637    1.0000 </r>
       <r>  -34.9637    1.0000 </r>
       <r>  -34.8604    1.0000 </r>
       <r>  -34.8603    1.0000 </r>
       <r>  -34.7988    1.0000 </r>
       <r>  -34.7988    1.0000 </r>
       <r>  -13.7303    1.0000 </r>
       <r>  -13.5378    1.0000 </r>
       <r>  -12.6617    1.0000 </r>
       <r>  -12.4068    1.0000 </r>
       <r>   -5.5729    1.0000 </r>
       <r>   -4.9082    1.0000 </r>
       <r>   -3.2973    1.0000 </r>
       <r>   -3.2196    1.0000 </r>
       <r>   -3.0860    1.0000 </r>
       <r>   -2.5703    1.0000 </r>
       <r>   -2.2806    1.0000 </r>
       <r>   -2.2499    1.0000 </r>
       <r>   -2.0126    1.0000 </r>
       <r>   -1.9739    1.0000 </r>
       <r>   -1.4858    1.0000 </r>
       <r>   -0.7781    1.0000 </r>
       <r>   -0.4203    1.0000 </r>
       <r>    0.2028    1.0000 </r>
       <r>    2.0663   -0.0000 </r>
       <r>    2.4133   -0.0000 </r>
       <r>    2.4671   -0.0000 </r>
       <r>    2.4741   -0.0000 </r>
       <r>    2.6327   -0.0000 </r>
       <r>    2.7906   -0.0000 </r>
       <r>    3.1411   -0.0000 </r>
       <r>    3.2693   -0.0000 </r>
       <r>    5.8295    0.0000 </r>
       <r>    5.9240    0.0000 </r>
       <r>    7.4238    0.0000 </r>
       <r>    7.8701    0.0000 </r>
      </set>
      <set comment="kpoint 4">
       <r>  -34.9476    1.0000 </r>
       <r>  -34.9476    1.0000 </r>
       <r>  -34.9419    1.0000 </r>
       <r>  -34.9419    1.0000 </r>
       <r>  -34.8177    1.0000 </r>
       <r>  -34.8177    1.0000 </r>
       <r>  -13.3598    1.0000 </r>
       <r>  -13.1640    1.0000 </r>
       <r>  -12.4941    1.0000 </r>
       <r>  -12.2618    1.0000 </r>
       <r>   -5.2939    1.0000 </r>
       <r>   -4.7235    1.0000 </r>
       <r>   -3.8520    1.0000 </r>
       <r>   -3.6146    1.0000 </r>
       <r>   -3.5521    1.0000 </r>
       <r>   -3.1843    1.0000 </r>
       <r>   -2.4146    1.0000 </r>
       <r>   -2.3683    1.0000 </r>
       <r>   -1.9155    1.0000 </r>
       <r>   -1.8758    1.0000 </r>
       <r>   -1.7238    1.0000 </r>
       <r>   -0.9498    1.0000 </r>
       <r>   -0.7311    1.0000 </r>
       <r>   -0.2989    1.0000 </r>
       <r>    1.8525   -0.0000 </r>
       <r>    2.2405   -0.0000 </r>
       <r>    2.3345   -0.0000 </r>
       <r>    2.3801   -0.0000 </r>
       <r>    2.6511   -0.0000 </r>
       <r>    3.0794   -0.0000 </r>
       <r>    3.5037    0.0000 </r>
       <r>    3.6638    0.0000 </r>
       <r>    6.3441    0.0000 </r>
       <r>    6.4354    0.0000 </r>
       <r>    7.8976    0.0000 </r>
       <r>    8.3587    0.0000 </r>
      </set>
      <set comment="kpoint 5">
       <r>  -35.0272    1.0000 </r>
       <r>  -35.0272    1.0000 </r>
       <r>  -34.9305    1.0000 </r>
       <r>  -34.9304    1.0000 </r>
       <r>  -34.8376    1.0000 </r>
       <r>  -34.8376    1.0000 </r>
       <r>  -12.9272    1.0000 </r>
       <r>  -12.7276    1.0000 </r>
       <r>  -12.2979    1.0000 </r>
       <r>  -12.0941    1.0000 </r>
       <r>   -5.2570    1.0000 </r>
       <r>   -4.9395    1.0000 </r>
       <r>   -4.2994    1.0000 </r>
       <r>   -3.9468    1.0000 </r>
       <r>   -3.8812    1.0000 </r>
       <r>   -3.5553    1.0000 </r>
       <r>   -2.7703    1.0000 </r>
       <r>   -2.7228    1.0000 </r>
       <r>   -2.0269    1.0000 </r>
       <r>   -1.5362    1.0000 </r>
       <r>   -1.4721    1.0000 </r>
       <r>   -1.2157    1.0000 </r>
       <r>   -1.0175    1.0000 </r>
       <r>   -0.6536    1.0000 </r>
       <r>    1.9515   -0.0000 </r>
       <r>    2.0938   -0.0000 </r>
       <r>    2.2014   -0.0000 </r>
       <r>    2.4228   -0.0000 </r>
       <r>    3.0391   -0.0000 </r>
       <r>    3.5269    0.0000 </r>
       <r>    3.7873    0.0000 </r>
       <r>    3.9835    0.0000 </r>
       <r>    6.9566    0.0000 </r>
       <r>    7.0536    0.0000 </r>
       <r>    7.6510    0.0000 </r>
       <r>    8.4523    0.0000 </r>
      </set>
      <set comment="kpoint 6">
       <r>  -35.0970    1.0000 </r>
       <r>  -35.0970    1.0000 </r>
       <r>  -34.9162    1.0000 </r>
       <r>  -34.9162    1.0000 </r>
       <r>  -34.8540    1.0000 </r>
       <r>  -34.8540    1.0000 </r>
       <r>  -12.5297    1.0000 </r>
       <r>  -12.3238    1.0000 </r>
       <r>  -12.1128    1.0000 </r>
       <r>  -11.9408    1.0000 </r>
       <r>   -5.5216    1.0000 </r>
       <r>   -5.3192    1.0000 </r>
       <r>   -4.6620    1.0000 </r>
       <r>   -4.3190    1.0000 </r>
       <r>   -4.1594    1.0000 </r>
       <r>   -3.6452    1.0000 </r>
       <r>   -3.0309    1.0000 </r>
       <r>   -2.9822    1.0000 </r>
       <r>   -2.2638    1.0000 </r>
       <r>   -1.3993    1.0000 </r>
       <r>   -1.2380    1.0000 </r>
       <r>   -1.1440    1.0000 </r>
       <r>   -0.9930    1.0000 </r>
       <r>   -0.5960    1.0000 </r>
       <r>    2.0762   -0.0000 </r>
       <r>    2.1415   -0.0000 </r>
       <r>    2.2301   -0.0000 </r>
       <r>    2.5735   -0.0000 </r>
       <r>    3.3925    0.0000 </r>
       <r>    3.9074    0.0000 </r>
       <r>    3.9590    0.0000 </r>
       <r>    4.1873    0.0000 </r>
       <r>    6.5701    0.0000 </r>
       <r>    7.3220    0.0000 </r>
       <r>    7.4659    0.0000 </r>
       <r>    7.9982    0.0000 </r>
      </set>
      <set comment="kpoint 7">
       <r>  -35.1360    1.0000 </r>
       <r>  -35.1360    1.0000 </r>
       <r>  -34.9082    1.0000 </r>
       <r>  -34.9081    1.0000 </r>
       <r>  -34.8633    1.0000 </r>
       <r>  -34.8633    1.0000 </r>
       <r>  -12.2907    1.0000 </r>
       <r>  -12.0754    1.0000 </r>
       <r>  -11.9896    1.0000 </r>
       <r>  -11.8443    1.0000 </r>
       <r>   -5.7578    1.0000 </r>
       <r>   -5.5699    1.0000 </r>
       <r>   -4.8939    1.0000 </r>
       <r>   -4.5821    1.0000 </r>
       <r>   -4.2763    1.0000 </r>
       <r>   -3.7702    1.0000 </r>
       <r>   -3.1673    1.0000 </r>
       <r>   -3.1179    1.0000 </r>
       <r>   -2.3858    1.0000 </r>
       <r>   -1.4902    1.0000 </r>
       <r>   -1.0845    1.0000 </r>
       <r>   -0.9687    1.0000 </r>
       <r>   -0.8093    1.0000 </r>
       <r>   -0.3424    1.0000 </r>
       <r>    2.1228   -0.0000 </r>
       <r>    2.1555   -0.0000 </r>
       <r>    2.5070   -0.0000 </r>
       <r>    2.6933   -0.0000 </r>
       <r>    3.5596    0.0000 </r>
       <r>    4.0347    0.0000 </r>
       <r>    4.0928    0.0000 </r>
       <r>    4.2817    0.0000 </r>
       <r>    5.7923    0.0000 </r>
       <r>    6.7596    0.0000 </r>
       <r>    7.6561    0.0000 </r>
       <r>    8.1581    0.0000 </r>
      </set>
      <set comment="kpoint 8">
       <r>  -34.9674    1.0000 </r>
       <r>  -34.9673    1.0000 </r>
       <r>  -34.8408    1.0000 </r>
       <r>  -34.8408    1.0000 </r>
       <r>  -34.7955    1.0000 </r>
       <r>  -34.7955    1.0000 </r>
       <r>  -13.8103    1.0000 </r>
       <r>  -13.6185    1.0000 </r>
       <r>  -12.6978    1.0000 </r>
       <r>  -12.4381    1.0000 </r>
       <r>   -5.6499    1.0000 </r>
       <r>   -4.9805    1.0000 </r>
       <r>   -3.1454    1.0000 </r>
       <r>   -3.0898    1.0000 </r>
       <r>   -2.9499    1.0000 </r>
       <r>   -2.3668    1.0000 </r>
       <r>   -2.3657    1.0000 </r>
       <r>   -2.3357    1.0000 </r>
       <r>   -2.0006    1.0000 </r>
       <r>   -1.9447    1.0000 </r>
       <r>   -1.3794    1.0000 </r>
       <r>   -0.7385    1.0000 </r>
       <r>   -0.3648    1.0000 </r>
       <r>    0.3233    1.0000 </r>
       <r>    2.1664   -0.0000 </r>
       <r>    2.4420   -0.0000 </r>
       <r>    2.4463   -0.0000 </r>
       <r>    2.5251   -0.0000 </r>
       <r>    2.6761   -0.0000 </r>
       <r>    2.7428   -0.0000 </r>
       <r>    3.0739   -0.0000 </r>
       <r>    3.2128   -0.0000 </r>
       <r>    5.7212    0.0000 </r>
       <r>    5.8149    0.0000 </r>
       <r>    7.2750    0.0000 </r>
       <r>    7.6145    0.0000 </r>
      </set>
      <set comment="kpoint 9">
       <r>  -34.9536    1.0000 </r>
       <r>  -34.9536    1.0000 </r>
       <r>  -34.9084    1.0000 </r>
       <r>  -34.9084    1.0000 </r>
       <r>  -34.8140    1.0000 </r>
       <r>  -34.8140    1.0000 </r>
       <r>  -13.5015    1.0000 </r>
       <r>  -13.3069    1.0000 </r>
       <r>  -12.5578    1.0000 </r>
       <r>  -12.3167    1.0000 </r>
       <r>   -5.3714    1.0000 </r>
       <r>   -4.7386    1.0000 </r>
       <r>   -3.6384    1.0000 </r>
       <r>   -3.4970    1.0000 </r>
       <r>   -3.3308    1.0000 </r>
       <r>   -2.8947    1.0000 </r>
       <r>   -2.5109    1.0000 </r>
       <r>   -2.3960    1.0000 </r>
       <r>   -2.0875    1.0000 </r>
       <r>   -2.0486    1.0000 </r>
       <r>   -1.4227    1.0000 </r>
       <r>   -0.7566    1.0000 </r>
       <r>   -0.5841    1.0000 </r>
       <r>   -0.0848    1.0000 </r>
       <r>    1.8529   -0.0000 </r>
       <r>    2.2594   -0.0000 </r>
       <r>    2.3133   -0.0000 </r>
       <r>    2.4247   -0.0000 </r>
       <r>    2.4872   -0.0000 </r>
       <r>    2.7971   -0.0000 </r>
       <r>    3.4568    0.0000 </r>
       <r>    3.6497    0.0000 </r>
       <r>    6.1564    0.0000 </r>
       <r>    6.2470    0.0000 </r>
       <r>    7.7638    0.0000 </r>
       <r>    8.4539    0.0000 </r>
      </set>
      <set comment="kpoint 10">
       <r>  -34.9888    1.0000 </r>
       <r>  -34.9888    1.0000 </r>
       <r>  -34.9370    1.0000 </r>
       <r>  -34.9370    1.0000 </r>
       <r>  -34.8364    1.0000 </r>
       <r>  -34.8364    1.0000 </r>
       <r>  -13.0978    1.0000 </r>
       <r>  -12.8996    1.0000 </r>
       <r>  -12.3741    1.0000 </r>
       <r>  -12.1585    1.0000 </r>
       <r>   -5.1884    1.0000 </r>
       <r>   -4.7595    1.0000 </r>
       <r>   -4.0893    1.0000 </r>
       <r>   -3.7647    1.0000 </r>
       <r>   -3.7003    1.0000 </r>
       <r>   -3.4625    1.0000 </r>
       <r>   -2.9195    1.0000 </r>
       <r>   -2.7372    1.0000 </r>
       <r>   -1.8382    1.0000 </r>
       <r>   -1.7567    1.0000 </r>
       <r>   -1.6466    1.0000 </r>
       <r>   -0.9843    1.0000 </r>
       <r>   -0.8801    1.0000 </r>
       <r>   -0.5129    1.0000 </r>
       <r>    1.7562   -0.0000 </r>
       <r>    2.1468   -0.0000 </r>
       <r>    2.2118   -0.0000 </r>
       <r>    2.4506   -0.0000 </r>
       <r>    2.6964   -0.0000 </r>
       <r>    3.1098   -0.0000 </r>
       <r>    3.7837    0.0000 </r>
       <r>    4.0385    0.0000 </r>
       <r>    6.7398    0.0000 </r>
       <r>    6.8269    0.0000 </r>
       <r>    8.2000    0.0000 </r>
       <r>    8.4301    0.0000 </r>
      </set>
      <set comment="kpoint 11">
       <r>  -35.0635    1.0000 </r>
       <r>  -35.0634    1.0000 </r>
       <r>  -34.9213    1.0000 </r>
       <r>  -34.9213    1.0000 </r>
       <r>  -34.8574    1.0000 </r>
       <r>  -34.8574    1.0000 </r>
       <r>  -12.6775    1.0000 </r>
       <r>  -12.4745    1.0000 </r>
       <r>  -12.1798    1.0000 </r>
       <r>  -11.9944    1.0000 </r>
       <r>   -5.3251    1.0000 </r>
       <r>   -5.0915    1.0000 </r>
       <r>   -4.4687    1.0000 </r>
       <r>   -4.1481    1.0000 </r>
       <r>   -4.0803    1.0000 </r>
       <r>   -3.5717    1.0000 </r>
       <r>   -3.1310    1.0000 </r>
       <r>   -2.9492    1.0000 </r>
       <r>   -2.0110    1.0000 </r>
       <r>   -1.6516    1.0000 </r>
       <r>   -1.5882    1.0000 </r>
       <r>   -1.1737    1.0000 </r>
       <r>   -0.9120    1.0000 </r>
       <r>   -0.6444    1.0000 </r>
       <r>    1.8815   -0.0000 </r>
       <r>    2.1664   -0.0000 </r>
       <r>    2.2685   -0.0000 </r>
       <r>    2.5126   -0.0000 </r>
       <r>    3.0956   -0.0000 </r>
       <r>    3.5190    0.0000 </r>
       <r>    3.9544    0.0000 </r>
       <r>    4.2787    0.0000 </r>
       <r>    7.1709    0.0000 </r>
       <r>    7.4104    0.0000 </r>
       <r>    7.4273    0.0000 </r>
       <r>    8.3239    0.0000 </r>
      </set>
      <set comment="kpoint 12">
       <r>  -35.1158    1.0000 </r>
       <r>  -35.1158    1.0000 </r>
       <r>  -34.9101    1.0000 </r>
       <r>  -34.9101    1.0000 </r>
       <r>  -34.8723    1.0000 </r>
       <r>  -34.8723    1.0000 </r>
       <r>  -12.3532    1.0000 </r>
       <r>  -12.1414    1.0000 </r>
       <r>  -12.0193    1.0000 </r>
       <r>  -11.8647    1.0000 </r>
       <r>   -5.5888    1.0000 </r>
       <r>   -5.3994    1.0000 </r>
       <r>   -4.8186    1.0000 </r>
       <r>   -4.5512    1.0000 </r>
       <r>   -4.2308    1.0000 </r>
       <r>   -3.6920    1.0000 </r>
       <r>   -3.2122    1.0000 </r>
       <r>   -3.0682    1.0000 </r>
       <r>   -2.2703    1.0000 </r>
       <r>   -1.5519    1.0000 </r>
       <r>   -1.5317    1.0000 </r>
       <r>   -1.2433    1.0000 </r>
       <r>   -0.7160    1.0000 </r>
       <r>   -0.4313    1.0000 </r>
       <r>    2.0669   -0.0000 </r>
       <r>    2.2129   -0.0000 </r>
       <r>    2.4511   -0.0000 </r>
       <r>    2.6528   -0.0000 </r>
       <r>    3.4594    0.0000 </r>
       <r>    3.8693    0.0000 </r>
       <r>    3.9279    0.0000 </r>
       <r>    4.3261    0.0000 </r>
       <r>    6.2063    0.0000 </r>
       <r>    7.1438    0.0000 </r>
       <r>    7.8816    0.0000 </r>
       <r>    8.3516    0.0000 </r>
      </set>
      <set comment="kpoint 13">
       <r>  -35.1346    1.0000 </r>
       <r>  -35.1346    1.0000 </r>
       <r>  -34.9061    1.0000 </r>
       <r>  -34.9061    1.0000 </r>
       <r>  -34.8776    1.0000 </r>
       <r>  -34.8776    1.0000 </r>
       <r>  -12.2332    1.0000 </r>
       <r>  -12.0148    1.0000 </r>
       <r>  -11.9514    1.0000 </r>
       <r>  -11.8126    1.0000 </r>
       <r>   -5.7070    1.0000 </r>
       <r>   -5.5199    1.0000 </r>
       <r>   -4.9548    1.0000 </r>
       <r>   -4.6977    1.0000 </r>
       <r>   -4.2951    1.0000 </r>
       <r>   -3.7726    1.0000 </r>
       <r>   -3.2266    1.0000 </r>
       <r>   -3.1050    1.0000 </r>
       <r>   -2.3748    1.0000 </r>
       <r>   -1.5578    1.0000 </r>
       <r>   -1.5005    1.0000 </r>
       <r>   -1.2170    1.0000 </r>
       <r>   -0.5949    1.0000 </r>
       <r>   -0.2740    1.0000 </r>
       <r>    2.1244   -0.0000 </r>
       <r>    2.1987   -0.0000 </r>
       <r>    2.6032   -0.0000 </r>
       <r>    2.7651   -0.0000 </r>
       <r>    3.7044    0.0000 </r>
       <r>    3.7704    0.0000 </r>
       <r>    4.0539    0.0000 </r>
       <r>    4.2579    0.0000 </r>
       <r>    5.7774    0.0000 </r>
       <r>    6.8011    0.0000 </r>
       <r>    8.1099    0.0000 </r>
       <r>    8.4327    0.0000 </r>
      </set>
      <set comment="kpoint 14">
       <r>  -34.9706    1.0000 </r>
       <r>  -34.9705    1.0000 </r>
       <r>  -34.9393    1.0000 </r>
       <r>  -34.9393    1.0000 </r>
       <r>  -34.8404    1.0000 </r>
       <r>  -34.8403    1.0000 </r>
       <r>  -13.1580    1.0000 </r>
       <r>  -12.9603    1.0000 </r>
       <r>  -12.4003    1.0000 </r>
       <r>  -12.1805    1.0000 </r>
       <r>   -5.1611    1.0000 </r>
       <r>   -4.6751    1.0000 </r>
       <r>   -3.9784    1.0000 </r>
       <r>   -3.6440    1.0000 </r>
       <r>   -3.5904    1.0000 </r>
       <r>   -3.3356    1.0000 </r>
       <r>   -3.1624    1.0000 </r>
       <r>   -2.8745    1.0000 </r>
       <r>   -1.9810    1.0000 </r>
       <r>   -1.9078    1.0000 </r>
       <r>   -1.4197    1.0000 </r>
       <r>   -0.8380    1.0000 </r>
       <r>   -0.8046    1.0000 </r>
       <r>   -0.4028    1.0000 </r>
       <r>    1.6590   -0.0000 </r>
       <r>    2.0762   -0.0000 </r>
       <r>    2.2565   -0.0000 </r>
       <r>    2.4713   -0.0000 </r>
       <r>    2.4715   -0.0000 </r>
       <r>    2.8723   -0.0000 </r>
       <r>    3.8263    0.0000 </r>
       <r>    4.1070    0.0000 </r>
       <r>    6.6702    0.0000 </r>
       <r>    6.7550    0.0000 </r>
       <r>    8.3148    0.0000 </r>
       <r>    8.9125    0.0000 </r>
      </set>
      <set comment="kpoint 15">
       <r>  -35.0334    1.0000 </r>
       <r>  -35.0334    1.0000 </r>
       <r>  -34.9241    1.0000 </r>
       <r>  -34.9241    1.0000 </r>
       <r>  -34.8707    1.0000 </r>
       <r>  -34.8707    1.0000 </r>
       <r>  -12.7606    1.0000 </r>
       <r>  -12.5587    1.0000 </r>
       <r>  -12.2142    1.0000 </r>
       <r>  -12.0214    1.0000 </r>
       <r>   -5.1501    1.0000 </r>
       <r>   -4.8753    1.0000 </r>
       <r>   -4.2178    1.0000 </r>
       <r>   -4.0494    1.0000 </r>
       <r>   -4.0069    1.0000 </r>
       <r>   -3.5238    1.0000 </r>
       <r>   -3.3788    1.0000 </r>
       <r>   -3.0106    1.0000 </r>
       <r>   -2.1350    1.0000 </r>
       <r>   -2.0179    1.0000 </r>
       <r>   -1.6130    1.0000 </r>
       <r>   -0.9567    1.0000 </r>
       <r>   -0.8694    1.0000 </r>
       <r>   -0.6476    1.0000 </r>
       <r>    1.6913   -0.0000 </r>
       <r>    2.1400   -0.0000 </r>
       <r>    2.3464   -0.0000 </r>
       <r>    2.5112   -0.0000 </r>
       <r>    2.7134   -0.0000 </r>
       <r>    3.1145   -0.0000 </r>
       <r>    4.0550    0.0000 </r>
       <r>    4.4184    0.0000 </r>
       <r>    7.3092    0.0000 </r>
       <r>    7.3793    0.0000 </r>
       <r>    7.8259    0.0000 </r>
       <r>    8.9829    0.0000 </r>
      </set>
      <set comment="kpoint 16">
       <r>  -35.0840    1.0000 </r>
       <r>  -35.0840    1.0000 </r>
       <r>  -34.9115    1.0000 </r>
       <r>  -34.9115    1.0000 </r>
       <r>  -34.8967    1.0000 </r>
       <r>  -34.8967    1.0000 </r>
       <r>  -12.4023    1.0000 </r>
       <r>  -12.1927    1.0000 </r>
       <r>  -12.0359    1.0000 </r>
       <r>  -11.8736    1.0000 </r>
       <r>   -5.3157    1.0000 </r>
       <r>   -5.1183    1.0000 </r>
       <r>   -4.7175    1.0000 </r>
       <r>   -4.5579    1.0000 </r>
       <r>   -4.1553    1.0000 </r>
       <r>   -3.5344    1.0000 </r>
       <r>   -3.3570    1.0000 </r>
       <r>   -3.0406    1.0000 </r>
       <r>   -2.3344    1.0000 </r>
       <r>   -2.1158    1.0000 </r>
       <r>   -1.9225    1.0000 </r>
       <r>   -1.1934    1.0000 </r>
       <r>   -0.7038    1.0000 </r>
       <r>   -0.5538    1.0000 </r>
       <r>    1.9321   -0.0000 </r>
       <r>    2.3032   -0.0000 </r>
       <r>    2.4796   -0.0000 </r>
       <r>    2.6060   -0.0000 </r>
       <r>    3.0263   -0.0000 </r>
       <r>    3.4307    0.0000 </r>
       <r>    4.1066    0.0000 </r>
       <r>    4.5408    0.0000 </r>
       <r>    6.8243    0.0000 </r>
       <r>    7.6666    0.0000 </r>
       <r>    8.0501    0.0000 </r>
       <r>    8.5226    0.0000 </r>
      </set>
      <set comment="kpoint 17">
       <r>  -35.1122    1.0000 </r>
       <r>  -35.1122    1.0000 </r>
       <r>  -34.9116    1.0000 </r>
       <r>  -34.9115    1.0000 </r>
       <r>  -34.9044    1.0000 </r>
       <r>  -34.9044    1.0000 </r>
       <r>  -12.1921    1.0000 </r>
       <r>  -11.9722    1.0000 </r>
       <r>  -11.9155    1.0000 </r>
       <r>  -11.7788    1.0000 </r>
       <r>   -5.4472    1.0000 </r>
       <r>   -5.2595    1.0000 </r>
       <r>   -5.0219    1.0000 </r>
       <r>   -4.8651    1.0000 </r>
       <r>   -4.2591    1.0000 </r>
       <r>   -3.6878    1.0000 </r>
       <r>   -3.2686    1.0000 </r>
       <r>   -3.0193    1.0000 </r>
       <r>   -2.4780    1.0000 </r>
       <r>   -2.1062    1.0000 </r>
       <r>   -2.1008    1.0000 </r>
       <r>   -1.3935    1.0000 </r>
       <r>   -0.4846    1.0000 </r>
       <r>   -0.3037    1.0000 </r>
       <r>    2.0308   -0.0000 </r>
       <r>    2.1523   -0.0000 </r>
       <r>    2.7051   -0.0000 </r>
       <r>    2.9490   -0.0000 </r>
       <r>    3.2408   -0.0000 </r>
       <r>    3.6467    0.0000 </r>
       <r>    4.0491    0.0000 </r>
       <r>    4.5307    0.0000 </r>
       <r>    6.1114    0.0000 </r>
       <r>    7.1714    0.0000 </r>
       <r>    8.6091    0.0000 </r>
       <r>    8.7553    0.0000 </r>
      </set>
      <set comment="kpoint 18">
       <r>  -35.0659    1.0000 </r>
       <r>  -35.0659    1.0000 </r>
       <r>  -34.9123    1.0000 </r>
       <r>  -34.9123    1.0000 </r>
       <r>  -34.9120    1.0000 </r>
[...]
       <r>    -2.2380     2.7655    18.6560 </r>
       <r>    -2.0762     2.5814    19.0736 </r>
       <r>    -1.9144     3.6445    19.6631 </r>
       <r>    -1.7527     1.5677    19.9167 </r>
       <r>    -1.5909     2.4816    20.3182 </r>
       <r>    -1.4291     3.6167    20.9033 </r>
       <r>    -1.2674     1.7825    21.1916 </r>
       <r>    -1.1056     2.0180    21.5181 </r>
       <r>    -0.9438     1.8218    21.8128 </r>
       <r>    -0.7821     2.6652    22.2439 </r>
       <r>    -0.6203     3.1670    22.7562 </r>
       <r>    -0.4585     2.5715    23.1722 </r>
       <r>    -0.2967     2.5689    23.5878 </r>
       <r>    -0.1350     1.2562    23.7910 </r>
       <r>     0.0268     0.6188    23.8911 </r>
       <r>     0.1886     0.0544    23.8999 </r>
       <r>     0.3503     0.3037    23.9491 </r>
       <r>     0.5121     0.1472    23.9729 </r>
       <r>     0.6739     0.1714    24.0006 </r>
       <r>     0.8356    -0.0035    24.0000 </r>
       <r>     0.9974    -0.0001    24.0000 </r>
       <r>     1.1592    -0.0000    24.0000 </r>
       <r>     1.3209    -0.0000    24.0000 </r>
       <r>     1.4827    -0.0090    23.9985 </r>
       <r>     1.6445     0.1961    24.0303 </r>
       <r>     1.8063     1.5205    24.2762 </r>
       <r>     1.9680     2.4532    24.6731 </r>
       <r>     2.1298     3.2357    25.1965 </r>
       <r>     2.2916     4.9907    26.0039 </r>
       <r>     2.4533     4.0663    26.6617 </r>
       <r>     2.6151     4.7895    27.4365 </r>
       <r>     2.7769     4.4912    28.1630 </r>
       <r>     2.9386     2.4394    28.5577 </r>
       <r>     3.1004     2.7967    29.0101 </r>
       <r>     3.2622     2.3129    29.3842 </r>
       <r>     3.4240     1.6061    29.6440 </r>
       <r>     3.5857     2.4208    30.0357 </r>
       <r>     3.7475     1.5562    30.2874 </r>
       <r>     3.9093     1.6209    30.5496 </r>
       <r>     4.0710     2.7472    30.9940 </r>
       <r>     4.2328     1.6640    31.2632 </r>
       <r>     4.3946     1.8468    31.5620 </r>
       <r>     4.5563     1.1898    31.7544 </r>
       <r>     4.7181     0.6772    31.8640 </r>
       <r>     4.8799     0.6073    31.9622 </r>
       <r>     5.0416     0.2279    31.9991 </r>
       <r>     5.2034     0.0044    31.9998 </r>
       <r>     5.3652     0.0220    32.0034 </r>
       <r>     5.5270     0.2860    32.0497 </r>
       <r>     5.6887     0.2520    32.0904 </r>
       <r>     5.8505     0.9385    32.2423 </r>
       <r>     6.0123     0.3102    32.2925 </r>
       <r>     6.1740     0.8549    32.4307 </r>
       <r>     6.3358     1.2157    32.6274 </r>
       <r>     6.4976     0.3791    32.6887 </r>
       <r>     6.6593     0.8241    32.8221 </r>
       <r>     6.8211     1.9677    33.1404 </r>
       <r>     6.9829     0.8879    33.2840 </r>
       <r>     7.1447     0.8073    33.4146 </r>
       <r>     7.3064     1.6650    33.6839 </r>
       <r>     7.4682     2.1469    34.0313 </r>
       <r>     7.6300     0.7902    34.1591 </r>
       <r>     7.7917     1.6969    34.4336 </r>
       <r>     7.9535     1.8492    34.7327 </r>
       <r>     8.1153     1.5105    34.9771 </r>
       <r>     8.2770     1.2094    35.1727 </r>
       <r>     8.4388     1.6682    35.4426 </r>
       <r>     8.6006     1.1958    35.6360 </r>
       <r>     8.7623     1.0766    35.8102 </r>
       <r>     8.9241     1.1971    36.0039 </r>
       <r>     9.0859    -0.0228    36.0002 </r>
       <r>     9.2477    -0.0011    36.0000 </r>
       <r>     9.4094    -0.0000    36.0000 </r>
       <r>     9.5712    -0.0000    36.0000 </r>
       <r>     9.7330     0.0000    36.0000 </r>
       <r>     9.8947     0.0000    36.0000 </r>
       <r>    10.0565     0.0000    36.0000 </r>
       <r>    10.2183     0.0000    36.0000 </r>
       <r>    10.3800     0.0000    36.0000 </r>
       <r>    10.5418     0.0000    36.0000 </r>
       <r>    10.7036     0.0000    36.0000 </r>
       <r>    10.8654     0.0000    36.0000 </r>
       <r>    11.0271     0.0000    36.0000 </r>
       <r>    11.1889     0.0000    36.0000 </r>
      </set>
      <set comment="spin 2">
       <r>   -37.3420     0.0000     0.0000 </r>
       <r>   -37.1802     0.0000     0.0000 </r>
       <r>   -37.0184     0.0000     0.0000 </r>
       <r>   -36.8567     0.0000     0.0000 </r>
       <r>   -36.6949     0.0000     0.0000 </r>
       <r>   -36.5331     0.0000     0.0000 </r>
       <r>   -36.3713     0.0000     0.0000 </r>
       <r>   -36.2096     0.0000     0.0000 </r>
       <r>   -36.0478    -0.0000    -0.0000 </r>
       <r>   -35.8860    -0.0000    -0.0000 </r>
       <r>   -35.7243    -0.0000    -0.0000 </r>
       <r>   -35.5625    -0.0000    -0.0000 </r>
       <r>   -35.4007    -0.0010    -0.0002 </r>
       <r>   -35.2390    -0.1960    -0.0319 </r>
       <r>   -35.0772     4.3162     0.6664 </r>
       <r>   -34.9154    16.3289     3.3079 </r>
       <r>   -34.7537    16.6676     6.0042 </r>
       <r>   -34.5919    -0.0018     6.0039 </r>
       <r>   -34.4301    -0.0242     6.0000 </r>
       <r>   -34.2683    -0.0000     6.0000 </r>
       <r>   -34.1066    -0.0000     6.0000 </r>
       <r>   -33.9448     0.0000     6.0000 </r>
       <r>   -33.7830     0.0000     6.0000 </r>
       <r>   -33.6213     0.0000     6.0000 </r>
       <r>   -33.4595     0.0000     6.0000 </r>
       <r>   -33.2977     0.0000     6.0000 </r>
       <r>   -33.1360     0.0000     6.0000 </r>
       <r>   -32.9742     0.0000     6.0000 </r>
       <r>   -32.8124     0.0000     6.0000 </r>
       <r>   -32.6507     0.0000     6.0000 </r>
       <r>   -32.4889     0.0000     6.0000 </r>
       <r>   -32.3271     0.0000     6.0000 </r>
       <r>   -32.1653     0.0000     6.0000 </r>
       <r>   -32.0036     0.0000     6.0000 </r>
       <r>   -31.8418     0.0000     6.0000 </r>
       <r>   -31.6800     0.0000     6.0000 </r>
       <r>   -31.5183     0.0000     6.0000 </r>
       <r>   -31.3565     0.0000     6.0000 </r>
       <r>   -31.1947     0.0000     6.0000 </r>
       <r>   -31.0330     0.0000     6.0000 </r>
       <r>   -30.8712     0.0000     6.0000 </r>
       <r>   -30.7094     0.0000     6.0000 </r>
       <r>   -30.5476     0.0000     6.0000 </r>
       <r>   -30.3859     0.0000     6.0000 </r>
       <r>   -30.2241     0.0000     6.0000 </r>
       <r>   -30.0623     0.0000     6.0000 </r>
       <r>   -29.9006     0.0000     6.0000 </r>
       <r>   -29.7388     0.0000     6.0000 </r>
       <r>   -29.5770     0.0000     6.0000 </r>
       <r>   -29.4153     0.0000     6.0000 </r>
       <r>   -29.2535     0.0000     6.0000 </r>
       <r>   -29.0917     0.0000     6.0000 </r>
       <r>   -28.9300     0.0000     6.0000 </r>
       <r>   -28.7682     0.0000     6.0000 </r>
       <r>   -28.6064     0.0000     6.0000 </r>
       <r>   -28.4446     0.0000     6.0000 </r>
       <r>   -28.2829     0.0000     6.0000 </r>
       <r>   -28.1211     0.0000     6.0000 </r>
       <r>   -27.9593     0.0000     6.0000 </r>
       <r>   -27.7976     0.0000     6.0000 </r>
       <r>   -27.6358     0.0000     6.0000 </r>
       <r>   -27.4740     0.0000     6.0000 </r>
       <r>   -27.3123     0.0000     6.0000 </r>
       <r>   -27.1505     0.0000     6.0000 </r>
       <r>   -26.9887     0.0000     6.0000 </r>
       <r>   -26.8269     0.0000     6.0000 </r>
       <r>   -26.6652     0.0000     6.0000 </r>
       <r>   -26.5034     0.0000     6.0000 </r>
       <r>   -26.3416     0.0000     6.0000 </r>
       <r>   -26.1799     0.0000     6.0000 </r>
       <r>   -26.0181     0.0000     6.0000 </r>
       <r>   -25.8563     0.0000     6.0000 </r>
       <r>   -25.6946     0.0000     6.0000 </r>
       <r>   -25.5328     0.0000     6.0000 </r>
       <r>   -25.3710     0.0000     6.0000 </r>
       <r>   -25.2093     0.0000     6.0000 </r>
       <r>   -25.0475     0.0000     6.0000 </r>
       <r>   -24.8857     0.0000     6.0000 </r>
       <r>   -24.7239     0.0000     6.0000 </r>
       <r>   -24.5622     0.0000     6.0000 </r>
       <r>   -24.4004     0.0000     6.0000 </r>
       <r>   -24.2386     0.0000     6.0000 </r>
       <r>   -24.0769     0.0000     6.0000 </r>
       <r>   -23.9151     0.0000     6.0000 </r>
       <r>   -23.7533     0.0000     6.0000 </r>
       <r>   -23.5916     0.0000     6.0000 </r>
       <r>   -23.4298     0.0000     6.0000 </r>
       <r>   -23.2680     0.0000     6.0000 </r>
       <r>   -23.1062     0.0000     6.0000 </r>
       <r>   -22.9445     0.0000     6.0000 </r>
       <r>   -22.7827     0.0000     6.0000 </r>
       <r>   -22.6209     0.0000     6.0000 </r>
       <r>   -22.4592     0.0000     6.0000 </r>
       <r>   -22.2974     0.0000     6.0000 </r>
       <r>   -22.1356     0.0000     6.0000 </r>
       <r>   -21.9739     0.0000     6.0000 </r>
       <r>   -21.8121     0.0000     6.0000 </r>
       <r>   -21.6503     0.0000     6.0000 </r>
       <r>   -21.4886     0.0000     6.0000 </r>
       <r>   -21.3268     0.0000     6.0000 </r>
       <r>   -21.1650     0.0000     6.0000 </r>
       <r>   -21.0032     0.0000     6.0000 </r>
       <r>   -20.8415     0.0000     6.0000 </r>
       <r>   -20.6797     0.0000     6.0000 </r>
       <r>   -20.5179     0.0000     6.0000 </r>
       <r>   -20.3562     0.0000     6.0000 </r>
       <r>   -20.1944     0.0000     6.0000 </r>
       <r>   -20.0326     0.0000     6.0000 </r>
       <r>   -19.8709     0.0000     6.0000 </r>
       <r>   -19.7091     0.0000     6.0000 </r>
       <r>   -19.5473     0.0000     6.0000 </r>
       <r>   -19.3855     0.0000     6.0000 </r>
       <r>   -19.2238     0.0000     6.0000 </r>
       <r>   -19.0620     0.0000     6.0000 </r>
       <r>   -18.9002     0.0000     6.0000 </r>
       <r>   -18.7385     0.0000     6.0000 </r>
       <r>   -18.5767     0.0000     6.0000 </r>
       <r>   -18.4149     0.0000     6.0000 </r>
       <r>   -18.2532     0.0000     6.0000 </r>
       <r>   -18.0914     0.0000     6.0000 </r>
       <r>   -17.9296     0.0000     6.0000 </r>
       <r>   -17.7679     0.0000     6.0000 </r>
       <r>   -17.6061     0.0000     6.0000 </r>
       <r>   -17.4443     0.0000     6.0000 </r>
       <r>   -17.2825     0.0000     6.0000 </r>
       <r>   -17.1208     0.0000     6.0000 </r>
       <r>   -16.9590     0.0000     6.0000 </r>
       <r>   -16.7972     0.0000     6.0000 </r>
       <r>   -16.6355     0.0000     6.0000 </r>
       <r>   -16.4737     0.0000     6.0000 </r>
       <r>   -16.3119     0.0000     6.0000 </r>
       <r>   -16.1502     0.0000     6.0000 </r>
       <r>   -15.9884     0.0000     6.0000 </r>
       <r>   -15.8266     0.0000     6.0000 </r>
       <r>   -15.6649     0.0000     6.0000 </r>
       <r>   -15.5031     0.0000     6.0000 </r>
       <r>   -15.3413     0.0000     6.0000 </r>
       <r>   -15.1795     0.0000     6.0000 </r>
       <r>   -15.0178    -0.0000     6.0000 </r>
       <r>   -14.8560    -0.0000     6.0000 </r>
       <r>   -14.6942    -0.0000     6.0000 </r>
       <r>   -14.5325    -0.0000     6.0000 </r>
       <r>   -14.3707    -0.0000     6.0000 </r>
       <r>   -14.2089    -0.0016     5.9997 </r>
       <r>   -14.0472     0.0312     6.0048 </r>
       <r>   -13.8854     0.2384     6.0433 </r>
       <r>   -13.7236     0.5622     6.1343 </r>
       <r>   -13.5618     0.4236     6.2028 </r>
       <r>   -13.4001     0.6281     6.3044 </r>
       <r>   -13.2383     0.5875     6.3995 </r>
       <r>   -13.0765     0.7339     6.5182 </r>
       <r>   -12.9148     0.6265     6.6195 </r>
       <r>   -12.7530     0.9416     6.7718 </r>
       <r>   -12.5912     1.4665     7.0091 </r>
       <r>   -12.4295     2.2333     7.3704 </r>
       <r>   -12.2677     2.8979     7.8392 </r>
       <r>   -12.1059     4.0842     8.4999 </r>
       <r>   -11.9442     4.2293     9.1841 </r>
       <r>   -11.7824     3.8894     9.8132 </r>
       <r>   -11.6206     1.1723    10.0029 </r>
       <r>   -11.4588    -0.0167    10.0002 </r>
       <r>   -11.2971    -0.0012    10.0000 </r>
       <r>   -11.1353    -0.0000    10.0000 </r>
       <r>   -10.9735    -0.0000    10.0000 </r>
       <r>   -10.8118     0.0000    10.0000 </r>
       <r>   -10.6500     0.0000    10.0000 </r>
       <r>   -10.4882     0.0000    10.0000 </r>
       <r>   -10.3265     0.0000    10.0000 </r>
       <r>   -10.1647     0.0000    10.0000 </r>
       <r>   -10.0029     0.0000    10.0000 </r>
       <r>    -9.8411     0.0000    10.0000 </r>
       <r>    -9.6794     0.0000    10.0000 </r>
       <r>    -9.5176     0.0000    10.0000 </r>
       <r>    -9.3558     0.0000    10.0000 </r>
       <r>    -9.1941     0.0000    10.0000 </r>
       <r>    -9.0323     0.0000    10.0000 </r>
       <r>    -8.8705     0.0000    10.0000 </r>
       <r>    -8.7088     0.0000    10.0000 </r>
       <r>    -8.5470     0.0000    10.0000 </r>
       <r>    -8.3852     0.0000    10.0000 </r>
       <r>    -8.2235     0.0000    10.0000 </r>
       <r>    -8.0617     0.0000    10.0000 </r>
       <r>    -7.8999     0.0000    10.0000 </r>
       <r>    -7.7381     0.0000    10.0000 </r>
       <r>    -7.5764     0.0000    10.0000 </r>
       <r>    -7.4146     0.0000    10.0000 </r>
       <r>    -7.2528     0.0000    10.0000 </r>
       <r>    -7.0911     0.0000    10.0000 </r>
       <r>    -6.9293     0.0000    10.0000 </r>
       <r>    -6.7675    -0.0000    10.0000 </r>
       <r>    -6.6058    -0.0000    10.0000 </r>
       <r>    -6.4440    -0.0000    10.0000 </r>
       <r>    -6.2822    -0.0000    10.0000 </r>
       <r>    -6.1204    -0.0003     9.9999 </r>
       <r>    -5.9587    -0.0016     9.9997 </r>
       <r>    -5.7969     0.2301    10.0369 </r>
       <r>    -5.6351     0.6791    10.1468 </r>
       <r>    -5.4734     1.3695    10.3683 </r>
       <r>    -5.3116     2.2057    10.7251 </r>
       <r>    -5.1498     3.3036    11.2596 </r>
       <r>    -4.9881     3.0325    11.7501 </r>
       <r>    -4.8263     2.9577    12.2286 </r>
       <r>    -4.6645     2.5608    12.6429 </r>
       <r>    -4.5028     1.9477    12.9579 </r>
       <r>    -4.3410     0.5696    13.0501 </r>
       <r>    -4.1792     2.4149    13.4407 </r>
       <r>    -4.0174     3.2605    13.9682 </r>
       <r>    -3.8557     1.0470    14.1376 </r>
       <r>    -3.6939     2.2263    14.4977 </r>
       <r>    -3.5321     3.3763    15.0439 </r>
       <r>    -3.3704     2.8001    15.4969 </r>
       <r>    -3.2086     3.0332    15.9875 </r>
       <r>    -3.0468     3.9343    16.6240 </r>
       <r>    -2.8851     3.8843    17.2524 </r>
       <r>    -2.7233     2.2921    17.6232 </r>
       <r>    -2.5615     1.2251    17.8213 </r>
       <r>    -2.3997     2.3943    18.2087 </r>
       <r>    -2.2380     2.7653    18.6560 </r>
       <r>    -2.0762     2.5818    19.0737 </r>
       <r>    -1.9144     3.6443    19.6632 </r>
       <r>    -1.7527     1.5674    19.9168 </r>
       <r>    -1.5909     2.4823    20.3183 </r>
       <r>    -1.4291     3.6166    20.9034 </r>
       <r>    -1.2674     1.7821    21.1917 </r>
       <r>    -1.1056     2.0180    21.5181 </r>
       <r>    -0.9438     1.8224    21.8129 </r>
       <r>    -0.7821     2.6652    22.2441 </r>
       <r>    -0.6203     3.1665    22.7563 </r>
       <r>    -0.4585     2.5714    23.1723 </r>
       <r>    -0.2967     2.5690    23.5879 </r>
       <r>    -0.1350     1.2559    23.7910 </r>
       <r>     0.0268     0.6188    23.8911 </r>
       <r>     0.1886     0.0544    23.8999 </r>
       <r>     0.3503     0.3037    23.9491 </r>
       <r>     0.5121     0.1472    23.9729 </r>
       <r>     0.6739     0.1714    24.0006 </r>
       <r>     0.8356    -0.0035    24.0000 </r>
       <r>     0.9974    -0.0001    24.0000 </r>
       <r>     1.1592    -0.0000    24.0000 </r>
       <r>     1.3209    -0.0000    24.0000 </r>
       <r>     1.4827    -0.0090    23.9985 </r>
       <r>     1.6445     0.1963    24.0303 </r>
       <r>     1.8063     1.5207    24.2763 </r>
       <r>     1.9680     2.4532    24.6731 </r>
       <r>     2.1298     3.2360    25.1966 </r>
       <r>     2.2916     4.9908    26.0040 </r>
       <r>     2.4533     4.0671    26.6619 </r>
       <r>     2.6151     4.7888    27.4366 </r>
       <r>     2.7769     4.4911    28.1631 </r>
       <r>     2.9386     2.4392    28.5577 </r>
       <r>     3.1004     2.7971    29.0102 </r>
       <r>     3.2622     2.3125    29.3843 </r>
       <r>     3.4240     1.6062    29.6441 </r>
       <r>     3.5857     2.4206    30.0357 </r>
       <r>     3.7475     1.5562    30.2874 </r>
       <r>     3.9093     1.6211    30.5497 </r>
       <r>     4.0710     2.7474    30.9941 </r>
       <r>     4.2328     1.6637    31.2633 </r>
       <r>     4.3946     1.8468    31.5620 </r>
       <r>     4.5563     1.1899    31.7545 </r>
       <r>     4.7181     0.6769    31.8640 </r>
       <r>     4.8799     0.6073    31.9623 </r>
       <r>     5.0416     0.2279    31.9991 </r>
       <r>     5.2034     0.0047    31.9999 </r>
       <r>     5.3652     0.0163    32.0025 </r>
       <r>     5.5270     0.2784    32.0475 </r>
       <r>     5.6887     0.2564    32.0890 </r>
       <r>     5.8505     0.9270    32.2390 </r>
       <r>     6.0123     0.3305    32.2925 </r>
       <r>     6.1740     0.8221    32.4254 </r>
       <r>     6.3358     1.2292    32.6243 </r>
       <r>     6.4976     0.3783    32.6855 </r>
       <r>     6.6593     0.8236    32.8187 </r>
       <r>     6.8211     1.8892    33.1243 </r>
       <r>     6.9829     0.8271    33.2581 </r>
       <r>     7.1447     0.8517    33.3959 </r>
       <r>     7.3064     1.8652    33.6976 </r>
       <r>     7.4682     2.1143    34.0397 </r>
       <r>     7.6300     0.7452    34.1602 </r>
       <r>     7.7917     1.7465    34.4427 </r>
       <r>     7.9535     1.8091    34.7354 </r>
       <r>     8.1153     1.3877    34.9599 </r>
       <r>     8.2770     0.8998    35.1054 </r>
       <r>     8.4388     1.9979    35.4286 </r>
       <r>     8.6006     1.4694    35.6663 </r>
       <r>     8.7623     0.8945    35.8111 </r>
       <r>     8.9241     0.6440    35.9152 </r>
       <r>     9.0859     0.5418    36.0029 </r>
       <r>     9.2477    -0.0176    36.0000 </r>
       <r>     9.4094    -0.0003    36.0000 </r>
       <r>     9.5712    -0.0000    36.0000 </r>
       <r>     9.7330    -0.0000    36.0000 </r>
       <r>     9.8947     0.0000    36.0000 </r>
       <r>    10.0565     0.0000    36.0000 </r>
       <r>    10.2183     0.0000    36.0000 </r>
       <r>    10.3800     0.0000    36.0000 </r>
       <r>    10.5418     0.0000    36.0000 </r>
       <r>    10.7036     0.0000    36.0000 </r>
       <r>    10.8654     0.0000    36.0000 </r>
       <r>    11.0271     0.0000    36.0000 </r>
       <r>    11.1889     0.0000    36.0000 </r>
      </set>
     </set>
    </array>
   </total>
  </dos>
 </calculation>
 <structure name="finalpos" >
  <crystal>
   <varray name="basis" >
    <v>       3.19031700       0.00000000       0.00000000 </v>
    <v>      -1.59515800       2.76289700       0.00000000 </v>
    <v>       0.00000000       0.00000000      23.14049200 </v>
   </varray>
   <i name="volume">    203.97226633 </i>
   <varray name="rec_basis" >
    <v>       0.31344848       0.18096941       0.00000000 </v>
    <v>       0.00000000       0.36193894       0.00000000 </v>
    <v>       0.00000000       0.00000000       0.04321429 </v>
   </varray>
  </crystal>
  <varray name="positions" >
   <v>       0.66666700       0.33333300       0.06785900 </v>
   <v>       0.33333300       0.66666700       0.00000000 </v>
   <v>       0.33333300       0.66666700       0.13571500 </v>
   <v>       0.66666700       0.33333300       0.33321600 </v>
   <v>       0.33333300       0.66666700       0.26535800 </v>
   <v>       0.33333300       0.66666700       0.40107200 </v>
  </varray>
 </structure>
</modeling>
