   24   24    1    1
  0.4176334E+02  0.3540400E-09  0.1044544E-08  0.2750143E-08  0.5000000E-15
  1.000000000000000E-004
  CAR 
 unknown system                          
    108     54     68
 
  0.0000000E+00  0.0000000E+00  0.0000000E+00  0.9615385E-02
    1      -14.812917
    2      -13.565521
    3      -13.001865
    4      -12.893997
    5      -12.824450
    6      -12.508375
    7      -12.112631
    8      -11.648171
    9      -11.457904
   10      -11.256694
   11      -11.016384
   12      -10.556503
   13       -9.512471
   14       -8.080821
   15       -8.020805
   16       -7.852884
   17       -6.858731
   18       -6.574203
   19       -6.516062
   20       -5.998919
   21       -5.846866
   22       -5.332205
   23       -5.050622
   24       -4.809925
   25       -4.635262
   26       -4.001677
   27       -3.780923
   28       -3.688196
   29       -3.239301
   30       -3.082495
   31       -3.081549
   32       -3.010621
   33       -2.897530
   34       -2.867583
   35       -2.505404
   36       -2.432055
   37       -2.417903
   38       -2.287396
   39       -2.115730
   40       -2.101937
   41       -2.009867
   42       -1.893135
   43       -1.753821
   44       -1.668310
   45       -1.622487
   46       -1.510984
   47       -1.457696
   48       -1.429953
   49       -1.234978
   50       -1.074011
   51       -0.957096
   52       -0.442344
   53       -0.132897
   54        0.275208
   55        0.466365
   56        0.683889
   57        0.791452
   58        1.145959
   59        1.294502
   60        1.490929
   61        1.657577
   62        1.907497
   63        1.965398
   64        2.010884
   65        2.120397
   66        2.373110
   67        2.408012
   68        2.436032
 
  0.7692308E-01 -0.1387779E-16  0.0000000E+00  0.1923077E-01
    1      -14.757458
    2      -13.504172
    3      -12.960079
    4      -12.820102
    5      -12.772175
    6      -12.452793
    7      -12.050361
    8      -11.605708
    9      -11.408915
   10      -11.203995
   11      -10.967982
   12      -10.525802
   13       -9.507407
   14       -8.100628
   15       -7.995664
   16       -7.814504
   17       -6.826343
   18       -6.612194
   19       -6.510838
   20       -5.992045
   21       -5.814251
   22       -5.385442
   23       -5.009282
   24       -4.805427
   25       -4.693705
   26       -4.334678
   27       -3.798789
   28       -3.699814
   29       -3.529085
   30       -3.427409
   31       -3.293274
   32       -3.210416
   33       -3.108178
   34       -3.003528
   35       -2.788923
   36       -2.653708
   37       -2.518728
   38       -2.479545
   39       -2.255507
   40       -2.225705
   41       -2.093377
   42       -1.995305
   43       -1.984510
   44       -1.864620
   45       -1.816956
   46       -1.755522
   47       -1.542176
   48       -1.417719
   49       -1.199269
   50       -1.008281
   51       -0.891971
   52       -0.297570
   53       -0.073291
   54        0.283030
   55        0.509780
   56        0.737776
   57        0.852410
   58        1.420730
   59        1.587464
   60        1.739261
   61        1.963615
   62        2.084665
   63        2.147351
   64        2.241020
   65        2.284512
   66        2.342490
   67        2.587724
   68        2.751811
 
  0.1538462E+00 -0.2775558E-16  0.0000000E+00  0.1923077E-01
    1      -14.593290
    2      -13.321196
    3      -12.822271
    4      -12.620134
    5      -12.610955
    6      -12.288079
    7      -11.867840
    8      -11.482136
    9      -11.266796
   10      -11.056332
   11      -10.829080
   12      -10.440155
   13       -9.504628
   14       -8.192674
   15       -7.885042
   16       -7.769979
   17       -6.806058
   18       -6.737104
   19       -6.523431
   20       -6.067971
   21       -5.742800
   22       -5.667622
   23       -5.033607
   24       -4.896144
   25       -4.850074
   26       -4.564566
   27       -4.233008
   28       -4.131549
   29       -4.108413
   30       -3.998570
   31       -3.765440
   32       -3.672715
   33       -3.469074
   34       -3.246783
   35       -3.147437
   36       -3.012998
   37       -2.986912
   38       -2.862467
   39       -2.772752
   40       -2.627032
   41       -2.409800
   42       -2.380951
   43       -2.172269
   44       -2.012804
   45       -1.894912
   46       -1.788977
   47       -1.679814
   48       -1.413688
   49       -1.246860
   50       -1.016625
   51       -0.903470
   52       -0.218570
   53       -0.025501
   54        0.064610
   55        0.435966
   56        0.844423
   57        1.007556
   58        1.534326
   59        1.727985
   60        1.956947
   61        2.230181
   62        2.404862
   63        2.536116
   64        2.610742
   65        2.658645
   66        2.817544
   67        2.936258
   68        3.035798
 
  0.2307692E+00 -0.4163336E-16  0.0000000E+00  0.1923077E-01
    1      -14.328312
    2      -13.020176
    3      -12.582482
    4      -12.360905
    5      -12.297935
    6      -12.021459
    7      -11.580043
    8      -11.294953
    9      -11.049752
   10      -10.858404
   11      -10.625738
   12      -10.314858
   13       -9.530517
   14       -8.384016
   15       -7.854811
   16       -7.773691
   17       -7.172803
   18       -6.717675
   19       -6.657633
   20       -6.498877
   21       -6.019942
   22       -5.760969
   23       -5.415387
   24       -5.359584
   25       -4.842207
   26       -4.824664
   27       -4.701806
   28       -4.625331
   29       -4.531338
   30       -4.417151
   31       -4.214959
   32       -4.039814
   33       -3.830594
   34       -3.714514
   35       -3.592142
   36       -3.490096
   37       -3.234149
   38       -3.021916
   39       -2.988649
   40       -2.763056
   41       -2.614164
   42       -2.547048
   43       -2.453206
   44       -2.017579
   45       -1.920400
   46       -1.850518
   47       -1.758502
   48       -1.497796
   49       -1.436223
   50       -1.134302
   51       -1.014873
   52       -0.532403
   53       -0.306525
   54       -0.066413
   55        0.321322
   56        0.728096
   57        0.963029
   58        1.474564
   59        1.822559
   60        1.892151
   61        2.048191
   62        2.236941
   63        2.364424
   64        2.622087
   65        2.748679
   66        2.862893
   67        2.918050
   68        2.974464
 
  0.3076923E+00 -0.5551115E-16  0.0000000E+00  0.1923077E-01
    1      -13.980922
    2      -12.608439
    3      -12.254217
    4      -12.012458
    5      -11.895630
    6      -11.669829
    7      -11.222834
    8      -11.102923
    9      -10.805202
   10      -10.734342
   11      -10.439654
   12      -10.138801
   13       -9.572256
   14       -8.679081
   15       -8.115977
   16       -8.073601
   17       -7.333036
   18       -7.075446
   19       -7.017049
   20       -6.922971
   21       -6.510446
   22       -6.185836
   23       -5.989694
   24       -5.821600
   25       -5.233355
   26       -5.191560
   27       -4.826487
   28       -4.726120
   29       -4.606224
   30       -4.439198
   31       -4.327343
   32       -4.243990
   33       -4.201803
   34       -3.900683
   35       -3.864998
   36       -3.431410
   37       -3.391922
   38       -3.109431
   39       -3.005406
   40       -2.932986
   41       -2.807707
   42       -2.681572
   43       -2.574792
   44       -2.089475
   45       -2.048784
   46       -1.925597
   47       -1.898788
   48       -1.741095
   49       -1.568695
   50       -1.357417
   51       -1.035685
   52       -0.916723
   53       -0.530564
   54       -0.241468
   55        0.104101
   56        0.500533
   57        0.885809
   58        1.424965
   59        1.596652
   60        1.711781
   61        1.808766
   62        1.995030
   63        2.201645
   64        2.340511
   65        2.545835
   66        2.680580
   67        2.715939
   68        2.824812
 
  0.3846154E+00 -0.8326673E-16  0.0000000E+00  0.1923077E-01
    1      -13.595565
    2      -12.100328
    3      -11.891553
    4      -11.593279
    5      -11.467916
    6      -11.272291
    7      -11.066197
    8      -10.875910
    9      -10.739114
   10      -10.650044
   11      -10.479886
   12       -9.911715
   13       -9.560043
   14       -8.855393
   15       -8.543321
   16       -8.401833
   17       -7.808463
   18       -7.483601
   19       -7.441485
   20       -7.333852
   21       -6.832752
   22       -6.781786
   23       -6.687522
   24       -5.952886
   25       -5.725983
   26       -5.233601
   27       -4.726096
   28       -4.617365
   29       -4.541917
   30       -4.375448
   31       -4.333553
   32       -4.255931
   33       -4.103845
   34       -4.080025
   35       -3.678572
   36       -3.607412
   37       -3.328382
   38       -3.293450
   39       -3.179921
   40       -3.115271
   41       -2.838668
   42       -2.759651
   43       -2.518278
   44       -2.322509
   45       -2.212896
   46       -2.093525
   47       -2.049080
   48       -1.871980
   49       -1.752856
   50       -1.465910
   51       -1.319941
   52       -1.086514
   53       -0.608022
   54       -0.389268
   55       -0.043722
   56        0.260821
   57        0.894623
   58        1.318434
   59        1.390972
   60        1.525296
   61        1.711244
   62        1.739398
   63        2.046358
   64        2.229295
   65        2.306382
   66        2.404338
   67        2.584327
   68        2.704581
 
  0.4615385E+00 -0.8326673E-16  0.0000000E+00  0.1923077E-01
    1      -13.291418
    2      -11.715180
    3      -11.525787
    4      -11.171154
    5      -11.165255
    6      -10.979422
    7      -10.971496
    8      -10.869324
    9      -10.857696
   10      -10.753689
   11      -10.659047
   12       -9.819456
   13       -9.467909
   14       -8.827951
   15       -8.711743
   16       -8.465672
   17       -8.107801
   18       -8.090832
   19       -7.736578
   20       -7.596653
   21       -7.311746
   22       -7.203083
   23       -6.924969
   24       -5.914397
   25       -5.808786
   26       -5.164590
   27       -4.935575
   28       -4.563284
   29       -4.525322
   30       -4.290199
   31       -4.092406
   32       -4.043125
   33       -3.974369
   34       -3.928495
   35       -3.849746
   36       -3.611133
   37       -3.559396
   38       -3.283043
   39       -3.237768
   40       -3.065311
   41       -3.023684
   42       -2.791310
   43       -2.715243
   44       -2.387688
   45       -2.349974
   46       -2.223231
   47       -2.134556
   48       -1.889508
   49       -1.750309
   50       -1.602664
   51       -1.553378
   52       -1.171606
   53       -0.593465
   54       -0.459498
   55       -0.099989
   56        0.086204
   57        0.926694
   58        1.135427
   59        1.354813
   60        1.493690
   61        1.622602
   62        1.679090
   63        1.870395
   64        2.059910
   65        2.262539
   66        2.374759
   67        2.424968
   68        2.490365
 
  0.0000000E+00  0.2500000E+00  0.0000000E+00  0.1923077E-01
    1      -14.809240
    2      -13.510216
    3      -13.174965
    4      -12.998548
    5      -12.628725
    6      -12.505163
    7      -11.909816
    8      -11.872055
    9      -11.502803
   10      -11.091706
   11      -11.024638
   12      -10.519621
   13       -9.615236
   14       -8.539792
   15       -7.993707
   16       -7.405968
   17       -6.736331
   18       -6.695692
   19       -6.619671
   20       -5.889711
   21       -5.770191
   22       -5.372704
   23       -4.969895
   24       -4.683974
   25       -4.434275
   26       -4.050152
   27       -4.004110
   28       -3.685866
   29       -3.409632
   30       -3.232353
   31       -3.153016
   32       -3.045852
   33       -2.843276
   34       -2.733287
   35       -2.528738
   36       -2.457698
   37       -2.415240
   38       -2.342173
   39       -2.218918
   40       -2.026528
   41       -1.985101
   42       -1.913928
   43       -1.898734
   44       -1.653448
   45       -1.639223
   46       -1.493774
   47       -1.388433
   48       -1.376964
   49       -1.197788
   50       -1.069531
   51       -0.964519
   52       -0.533433
   53       -0.184493
   54        0.164407
   55        0.570284
   56        0.687593
   57        1.025876
   58        1.180376
   59        1.352004
   60        1.540675
   61        1.686209
   62        1.806582
   63        1.893772
   64        2.073274
   65        2.219953
   66        2.358865
   67        2.453808
   68        2.540915
 
  0.7692308E-01  0.2500000E+00  0.0000000E+00  0.1923077E-01
    1      -14.753027
    2      -13.433397
    3      -13.140227
    4      -12.979421
    5      -12.521348
    6      -12.445558
    7      -11.890133
    8      -11.794818
    9      -11.461542
   10      -11.015057
   11      -10.979480
   12      -10.484299
   13       -9.628814
   14       -8.598366
   15       -7.938594
   16       -7.356718
   17       -6.775875
   18       -6.703303
   19       -6.553447
   20       -5.901041
   21       -5.723873
   22       -5.413209
   23       -4.922497
   24       -4.716555
   25       -4.553681
   26       -4.269454
   27       -4.090698
   28       -3.685945
   29       -3.599529
   30       -3.420448
   31       -3.382905
   32       -3.258219
   33       -3.056684
   34       -3.034524
   35       -2.801272
   36       -2.748307
   37       -2.580108
   38       -2.499323
   39       -2.327512
   40       -2.214706
   41       -2.149727
   42       -2.057877
   43       -1.969950
   44       -1.859109
   45       -1.780301
   46       -1.709659
   47       -1.463696
   48       -1.360454
   49       -1.131573
   50       -1.060518
   51       -0.911488
   52       -0.418226
   53       -0.118195
   54        0.224939
   55        0.443909
   56        0.809151
   57        1.132474
   58        1.459006
   59        1.609226
   60        1.757532
   61        1.923708
   62        2.064353
   63        2.159939
   64        2.228834
   65        2.338003
   66        2.508257
   67        2.625940
   68        2.743535
 
  0.1538462E+00  0.2500000E+00  0.0000000E+00  0.1923077E-01
    1      -14.588550
    2      -13.236899
    3      -12.988014
    4      -12.842863
    5      -12.312625
    6      -12.269508
    7      -11.793855
    8      -11.598126
    9      -11.322169
   10      -10.859021
   11      -10.836286
   12      -10.403433
   13       -9.625718
   14       -8.664325
   15       -7.816866
   16       -7.327084
   17       -6.875982
   18       -6.681274
   19       -6.523378
   20       -6.185676
   21       -5.678330
   22       -5.559251
   23       -5.008105
   24       -4.856988
   25       -4.809602
   26       -4.428290
   27       -4.391660
   28       -4.292679
   29       -4.075065
   30       -3.977721
   31       -3.693312
   32       -3.602486
   33       -3.498127
   34       -3.325489
   35       -3.142559
   36       -2.994901
   37       -2.957024
   38       -2.849721
   39       -2.807752
   40       -2.655008
   41       -2.601118
   42       -2.383149
   43       -2.299092
   44       -2.006998
   45       -1.914560
   46       -1.796602
   47       -1.518833
   48       -1.388392
   49       -1.166959
   50       -1.054800
   51       -0.920933
   52       -0.326083
   53       -0.119496
   54        0.075912
   55        0.320284
   56        0.918696
   57        1.180477
   58        1.469760
   59        1.679352
   60        1.962988
   61        2.090318
   62        2.329855
   63        2.552403
   64        2.720840
   65        2.819578
   66        2.956377
   67        3.021877
   68        3.071053
 
  0.2307692E+00  0.2500000E+00  0.0000000E+00  0.1923077E-01
    1      -14.323817
    2      -12.925606
    3      -12.723768
    4      -12.591401
    5      -12.027710
    6      -11.971644
    7      -11.614780
    8      -11.321602
    9      -11.100429
   10      -10.671435
   11      -10.620298
   12      -10.294750
   13       -9.624349
   14       -8.795961
   15       -7.704917
   16       -7.415346
   17       -7.134252
   18       -6.802109
   19       -6.720758
   20       -6.666693
   21       -5.846509
   22       -5.808818
   23       -5.447260
   24       -5.230692
   25       -5.053529
   26       -4.824167
   27       -4.691567
   28       -4.620466
   29       -4.551536
   30       -4.458661
   31       -4.053573
   32       -3.958655
   33       -3.786681
   34       -3.739945
   35       -3.529035
   36       -3.284593
   37       -3.228936
   38       -3.116403
   39       -2.879266
   40       -2.766120
   41       -2.729641
   42       -2.591322
   43       -2.544990
   44       -2.036517
   45       -1.993807
   46       -1.893689
   47       -1.797260
   48       -1.435221
   49       -1.403477
   50       -1.103664
   51       -1.018632
   52       -0.532074
   53       -0.400889
   54       -0.097905
   55        0.200776
   56        0.764322
   57        0.969241
   58        1.405772
   59        1.538168
   60        1.644961
   61        1.899990
   62        2.193818
   63        2.532034
   64        2.601501
   65        2.696766
   66        2.843750
   67        3.031986
   68        3.173200
 
  0.3076923E+00  0.2500000E+00  0.0000000E+00  0.1923077E-01
    1      -13.977261
    2      -12.509128
    3      -12.361375
    4      -12.232228
    5      -11.674311
    6      -11.599114
    7      -11.384145
    8      -11.007929
    9      -10.836742
   10      -10.629671
   11      -10.416025
   12      -10.118599
   13       -9.610747
   14       -8.995393
   15       -7.965394
   16       -7.731548
   17       -7.510561
   18       -7.141058
   19       -7.111233
   20       -6.986428
   21       -6.354886
   22       -6.215189
   23       -5.944479
   24       -5.848263
   25       -5.404431
   26       -5.312937
   27       -4.964320
   28       -4.667855
   29       -4.466157
   30       -4.392254
   31       -4.347983
   32       -4.196473
   33       -4.036472
   34       -3.814580
   35       -3.624131
   36       -3.456066
   37       -3.355243
   38       -3.049732
   39       -3.030234
   40       -2.902953
   41       -2.799776
   42       -2.653856
   43       -2.516365
   44       -2.349464
   45       -2.127233
   46       -1.992799
   47       -1.912496
   48       -1.770793
   49       -1.562959
   50       -1.359032
   51       -1.037188
   52       -0.791633
   53       -0.599790
   54       -0.263183
   55        0.045766
   56        0.423015
   57        0.811634
   58        1.204441
   59        1.261434
   60        1.359928
   61        1.719299
   62        2.128029
   63        2.246187
   64        2.394117
   65        2.443078
   66        2.603721
   67        2.732540
   68        2.924831
 
  0.3846154E+00  0.2500000E+00  0.0000000E+00  0.1923077E-01
    1      -13.593403
    2      -12.006798
    3      -11.944082
    4      -11.782058
    5      -11.359140
    6      -11.267505
    7      -11.105593
    8      -10.769139
    9      -10.746919
   10      -10.625409
   11      -10.492473
   12       -9.906395
   13       -9.558628
   14       -8.985838
   15       -8.489787
   16       -8.137282
   17       -7.945277
   18       -7.803490
   19       -7.384950
   20       -7.187903
   21       -6.855634
   22       -6.721296
   23       -6.682175
   24       -5.981650
   25       -5.848440
   26       -5.366382
   27       -4.815825
   28       -4.611368
   29       -4.499786
   30       -4.391977
   31       -4.252162
   32       -4.135064
   33       -4.037415
   34       -3.881573
   35       -3.555992
   36       -3.408414
   37       -3.375288
   38       -3.299625
   39       -3.179528
   40       -3.135628
   41       -2.948069
   42       -2.672342
   43       -2.611476
   44       -2.370290
   45       -2.237032
   46       -2.134833
   47       -2.091054
   48       -1.885968
   49       -1.736339
   50       -1.514932
   51       -1.304144
   52       -1.071993
   53       -0.581615
   54       -0.429803
   55       -0.056059
   56        0.170994
   57        0.791147
   58        1.125641
   59        1.184064
   60        1.306415
   61        1.605964
   62        1.800766
   63        2.007443
   64        2.144642
   65        2.243596
   66        2.566192
   67        2.609553
   68        2.684386
 
  0.4615385E+00  0.2500000E+00  0.0000000E+00  0.1923077E-01
    1      -13.291016
    2      -11.709912
    3      -11.455572
    4      -11.286856
    5      -11.223487
    6      -10.986061
    7      -10.906265
    8      -10.888626
    9      -10.867373
   10      -10.724088
   11      -10.604945
   12       -9.829118
   13       -9.466189
   14       -8.846127
   15       -8.578805
   16       -8.424253
   17       -8.354173
   18       -8.086866
   19       -7.685254
   20       -7.542591
   21       -7.340922
   22       -7.162927
   23       -6.970109
   24       -5.957785
   25       -5.833876
   26       -5.059273
   27       -5.035025
   28       -4.597874
   29       -4.490072
   30       -4.250756
   31       -4.159323
   32       -4.043782
   33       -3.956686
   34       -3.889552
   35       -3.688187
   36       -3.664074
   37       -3.522787
   38       -3.288101
   39       -3.216669
   40       -3.086648
   41       -3.008994
   42       -2.753028
   43       -2.664703
   44       -2.624051
   45       -2.275475
   46       -2.189134
   47       -2.147022
   48       -1.837322
   49       -1.742490
   50       -1.615790
   51       -1.568553
   52       -1.249224
   53       -0.580340
   54       -0.453929
   55       -0.143954
   56        0.100715
   57        0.821826
   58        1.195069
   59        1.398149
   60        1.444004
   61        1.526634
   62        1.602394
   63        1.791001
   64        2.088840
   65        2.183368
   66        2.418618
   67        2.463373
   68        2.564729
 
 -0.4615385E+00  0.2500000E+00  0.0000000E+00  0.1923077E-01
    1      -13.292395
    2      -11.700407
    3      -11.559199
    4      -11.167859
    5      -11.094308
    6      -11.002756
    7      -10.958485
    8      -10.858748
    9      -10.831261
   10      -10.782162
   11      -10.726300
   12       -9.809792
   13       -9.468866
   14       -8.821599
   15       -8.778748
   16       -8.459716
   17       -8.092954
   18       -7.968171
   19       -7.739013
   20       -7.630117
   21       -7.304869
   22       -7.243879
   23       -6.962377
   24       -5.901155
   25       -5.711568
   26       -5.200028
   27       -4.752489
   28       -4.610953
   29       -4.596110
   30       -4.383642
   31       -4.056763
   32       -4.032361
   33       -4.023995
   34       -3.973306
   35       -3.908434
   36       -3.675846
   37       -3.538622
   38       -3.392080
   39       -3.305060
   40       -2.949834
   41       -2.844942
   42       -2.798883
   43       -2.705383
   44       -2.442696
   45       -2.395678
   46       -2.196189
   47       -2.153074
   48       -1.788610
   49       -1.688239
   50       -1.591999
   51       -1.525492
   52       -1.299776
   53       -0.597624
   54       -0.415249
   55       -0.165600
   56        0.177746
   57        0.866244
   58        1.311895
   59        1.353968
   60        1.557917
   61        1.661588
   62        1.756093
   63        1.829636
   64        2.216022
   65        2.275182
   66        2.339464
   67        2.461906
   68        2.554128
 
 -0.3846154E+00  0.2500000E+00  0.0000000E+00  0.1923077E-01
    1      -13.597070
    2      -12.126772
    3      -11.813659
    4      -11.595897
    5      -11.508289
    6      -11.271290
    7      -11.028973
    8      -10.954313
    9      -10.715226
   10      -10.652739
   11      -10.475397
   12       -9.934938
   13       -9.544171
   14       -8.766460
   15       -8.561790
   16       -8.515888
   17       -7.773665
   18       -7.465211
   19       -7.366362
   20       -7.344762
   21       -6.856753
   22       -6.830663
   23       -6.691817
   24       -5.936564
   25       -5.633410
   26       -5.077914
   27       -4.876523
   28       -4.706967
   29       -4.432276
   30       -4.414921
   31       -4.329018
   32       -4.286495
   33       -4.137647
   34       -4.104828
   35       -3.746340
   36       -3.668476
   37       -3.430779
   38       -3.349691
   39       -3.194352
   40       -2.960336
   41       -2.857412
   42       -2.721976
   43       -2.529674
   44       -2.306778
   45       -2.251734
   46       -2.108264
   47       -1.968769
   48       -1.850890
   49       -1.625830
   50       -1.454657
   51       -1.290490
   52       -1.215339
   53       -0.610476
   54       -0.273762
   55       -0.134789
   56        0.333208
   57        0.896195
   58        1.324489
   59        1.424973
   60        1.659548
   61        1.792029
   62        1.912193
   63        2.125897
   64        2.241528
   65        2.382865
   66        2.481029
   67        2.521542
   68        2.617263
 
 -0.3076923E+00  0.2500000E+00  0.0000000E+00  0.1923077E-01
    1      -13.981953
    2      -12.620719
    3      -12.193489
    4      -11.984784
    5      -11.969701
    6      -11.669820
    7      -11.268751
    8      -11.046283
    9      -10.797447
   10      -10.764927
   11      -10.445801
   12      -10.144410
   13       -9.551453
   14       -8.580126
   15       -8.213982
   16       -8.119624
   17       -7.358400
   18       -7.028734
   19       -6.958458
   20       -6.889750
   21       -6.574188
   22       -6.178649
   23       -5.998688
   24       -5.802169
   25       -5.174673
   26       -5.128133
   27       -4.915673
   28       -4.692698
   29       -4.663419
   30       -4.464229
   31       -4.338463
   32       -4.261714
   33       -4.174620
   34       -3.977283
   35       -3.844110
   36       -3.479927
   37       -3.422257
   38       -3.108807
   39       -3.015722
   40       -2.874247
   41       -2.776214
   42       -2.677246
   43       -2.548103
   44       -2.113990
   45       -2.050158
   46       -1.911707
   47       -1.888847
   48       -1.737472
   49       -1.551904
   50       -1.366746
   51       -1.047595
   52       -0.944035
   53       -0.467802
   54       -0.148058
   55       -0.005762
   56        0.577214
   57        0.894402
   58        1.402299
   59        1.608265
   60        1.763985
   61        1.915484
   62        1.970570
   63        2.229594
   64        2.349650
   65        2.565137
   66        2.613743
   67        2.732017
   68        2.747873
 
 -0.2307692E+00  0.2500000E+00  0.0000000E+00  0.1923077E-01
    1      -14.328294
    2      -13.015947
    3      -12.584519
    4      -12.375423
    5      -12.292748
    6      -12.021672
    7      -11.562904
    8      -11.310386
    9      -11.053483
   10      -10.848376
   11      -10.624313
   12      -10.308445
   13       -9.526852
   14       -8.424045
   15       -7.825418
   16       -7.788968
   17       -7.181460
   18       -6.714664
   19       -6.661588
   20       -6.424229
   21       -6.074797
   22       -5.762846
   23       -5.403932
   24       -5.352758
   25       -4.859416
   26       -4.825692
   27       -4.685609
   28       -4.619764
   29       -4.537238
   30       -4.400638
   31       -4.219250
   32       -4.124230
   33       -3.820528
   34       -3.731973
   35       -3.552846
   36       -3.467770
   37       -3.201991
   38       -3.019616
   39       -2.953796
   40       -2.783842
   41       -2.632235
   42       -2.524090
   43       -2.456363
   44       -2.072994
   45       -1.915834
   46       -1.849947
   47       -1.768392
   48       -1.501433
   49       -1.431109
   50       -1.140415
   51       -1.032816
   52       -0.485351
   53       -0.260908
   54       -0.012166
   55        0.203042
   56        0.817834
   57        0.943746
   58        1.517909
   59        1.667376
   60        1.831468
   61        2.011585
   62        2.211732
   63        2.367714
   64        2.616066
   65        2.728147
   66        2.886871
   67        2.946104
   68        3.003670
 
 -0.1538462E+00  0.2500000E+00  0.0000000E+00  0.1923077E-01
    1      -14.591987
    2      -13.299732
    3      -12.891566
    4      -12.690545
    5      -12.511265
    6      -12.287910
    7      -11.778990
    8      -11.579754
    9      -11.286053
   10      -10.983911
   11      -10.826938
   12      -10.424473
   13       -9.536784
   14       -8.403430
   15       -7.878018
   16       -7.559983
   17       -6.828133
   18       -6.688189
   19       -6.576131
   20       -6.055691
   21       -5.728628
   22       -5.669601
   23       -5.069334
   24       -4.876265
   25       -4.785626
   26       -4.497683
   27       -4.304210
   28       -4.182080
   29       -4.082894
   30       -3.955800
   31       -3.808694
   32       -3.699742
   33       -3.441005
   34       -3.232949
   35       -3.159265
   36       -3.018534
   37       -2.930309
   38       -2.876677
   39       -2.797426
   40       -2.573401
   41       -2.510856
   42       -2.434116
   43       -2.197913
   44       -2.032629
   45       -1.868795
   46       -1.802809
   47       -1.630884
   48       -1.429507
   49       -1.232487
   50       -0.986298
   51       -0.927580
   52       -0.233167
   53       -0.007923
   54        0.102341
   55        0.367280
   56        0.886647
   57        1.070874
   58        1.411247
   59        1.755948
   60        1.842320
   61        2.178095
   62        2.431497
   63        2.550289
   64        2.668003
   65        2.761423
   66        2.837162
   67        2.950300
   68        3.065040
 
 -0.7692308E-01  0.2500000E+00  0.0000000E+00  0.1923077E-01
    1      -14.754877
    2      -13.465505
    3      -13.091179
    4      -12.900977
    5      -12.625308