 running on    8 total cores
 distrk:  each k-point on    8 cores,    1 groups
 distr:  one band on    2 cores,    4 groups
 using from now: INCAR     
 vasp.5.3.5 31Mar14 (build Oct 29 2014 16:16:03) complex                        
  
 POSCAR found type information on POSCAR  P  Si
 POSCAR found :  2 types and      24 ions
 scaLAPACK will be used

 ----------------------------------------------------------------------------- 
|                                                                             |
|  ADVICE TO THIS USER RUNNING 'VASP/VAMP'   (HEAR YOUR MASTER'S VOICE ...):  |
|                                                                             |
|      You have switched on vdW-DFT.                                          |
|      This routine was written and supplied by Jiri Klimes.                  |
|      We recommed that you carefully read and cite the following             |
|      publication                                                            |
|      J. Klimes, D.R. Bowler, A. Michelides                                  |
|        J. Phys.: Cond Matt. 22 022201 (2010)                                |
|      J. Klimes, D.R. Bowler, A. Michelides                                  |
|        Phys. Rev. B. 83, 195131 (2011)                                      |
|      and references therein.                                                |
|                                                                             |
 ----------------------------------------------------------------------------- 


 ----------------------------------------------------------------------------- 
|                                                                             |
|  ADVICE TO THIS USER RUNNING 'VASP/VAMP'   (HEAR YOUR MASTER'S VOICE ...):  |
|                                                                             |
|      You enforced a specific xc-type in the INCAR file,                     |
|      a different type was found on the POTCAR file                          |
|          I HOPE YOU KNOW, WHAT YOU ARE  DOING                               |
|                                                                             |
 ----------------------------------------------------------------------------- 

 LDA part: xc-table for Pade appr. of Perdew


 VERY BAD NEWS! internal error in subroutine IBZKPT:
 Reciprocal lattice and k-lattice belong to different class of lattices. Often results are still useful...      96


 VERY BAD NEWS! internal error in subroutine IBZKPT:
 Reciprocal lattice and k-lattice belong to different class of lattices. Often results are still useful...      96


 VERY BAD NEWS! internal error in subroutine IBZKPT:
 Reciprocal lattice and k-lattice belong to different class of lattices. Often results are still useful...      96


 VERY BAD NEWS! internal error in subroutine IBZKPT:
 Reciprocal lattice and k-lattice belong to different class of lattices. Often results are still useful...      96


 VERY BAD NEWS! internal error in subroutine IBZKPT:
 Reciprocal lattice and k-lattice belong to different class of lattices. Often results are still useful...      96


 VERY BAD NEWS! internal error in subroutine IBZKPT:
 Reciprocal lattice and k-lattice belong to different class of lattices. Often results are still useful...      96


 VERY BAD NEWS! internal error in subroutine IBZKPT:
 Reciprocal lattice and k-lattice belong to different class of lattices. Often results are still useful...      96


 VERY BAD NEWS! internal error in subroutine IBZKPT:
 Reciprocal lattice and k-lattice belong to different class of lattices. Often results are still useful...      96
 POSCAR, INCAR and KPOINTS ok, starting setup
 WARNING: small aliasing (wrap around) errors must be expected
 FFT: planning ...
 WAVECAR not read
 entering main loop
       N       E                     dE             d eps       ncg     rms          rms(c)
Total vdW correction in eV:     15.9152275
DAV:   1     0.501681383891E+03    0.50168E+03   -0.28736E+04  7352   0.790E+02
DAV:   2    -0.623470453834E+02   -0.56403E+03   -0.54876E+03  9776   0.191E+02
DAV:   3    -0.118943319815E+03   -0.56596E+02   -0.55692E+02  8812   0.625E+01
DAV:   4    -0.121537484088E+03   -0.25942E+01   -0.25749E+01 10856   0.143E+01
DAV:   5    -0.121604631631E+03   -0.67148E-01   -0.67077E-01 10048   0.225E+00    0.108E+01
Total vdW correction in eV:     16.2705732
DAV:   6    -0.118495666221E+03    0.31090E+01   -0.11561E+01  8900   0.936E+00    0.593E+00
Total vdW correction in eV:     16.5690696
DAV:   7    -0.118393885726E+03    0.10178E+00   -0.10429E+01  9024   0.717E+00    0.365E+00
Total vdW correction in eV:     16.8418500
DAV:   8    -0.118194466625E+03    0.19942E+00   -0.27839E+00  9004   0.442E+00    0.143E+00
Total vdW correction in eV:     16.9244751
DAV:   9    -0.118203238379E+03   -0.87718E-02   -0.56761E-01  9008   0.199E+00    0.792E-01
Total vdW correction in eV:     16.9669589
DAV:  10    -0.118178102377E+03    0.25136E-01   -0.10067E-01  8712   0.918E-01    0.349E-01
Total vdW correction in eV:     16.9986068
DAV:  11    -0.118166725862E+03    0.11377E-01   -0.28229E-02  9136   0.469E-01    0.127E-01
Total vdW correction in eV:     17.0065468
DAV:  12    -0.118161793689E+03    0.49322E-02   -0.67458E-03  8928   0.228E-01    0.677E-02
Total vdW correction in eV:     17.0123955
DAV:  13    -0.118156391163E+03    0.54025E-02   -0.14648E-03  9176   0.978E-02    0.296E-02
Total vdW correction in eV:     17.0163740
DAV:  14    -0.118153808748E+03    0.25824E-02   -0.21544E-04  9136   0.461E-02    0.179E-02
Total vdW correction in eV:     17.0201137
DAV:  15    -0.118152613175E+03    0.11956E-02   -0.12531E-04  9328   0.297E-02    0.117E-02
Total vdW correction in eV:     17.0227508
DAV:  16    -0.118152309121E+03    0.30405E-03   -0.45258E-05  8240   0.196E-02    0.753E-03
Total vdW correction in eV:     17.0247896
DAV:  17    -0.118152485573E+03   -0.17645E-03   -0.61466E-05  8144   0.201E-02    0.516E-03
Total vdW correction in eV:     17.0255870
DAV:  18    -0.118153000591E+03   -0.51502E-03   -0.11870E-04  8368   0.219E-02    0.292E-03
Total vdW correction in eV:     17.0256469
DAV:  19    -0.118153200052E+03   -0.19946E-03   -0.71526E-05  7648   0.147E-02    0.175E-03
Total vdW correction in eV:     17.0253774
DAV:  20    -0.118153272883E+03   -0.72831E-04   -0.23236E-05  7104   0.106E-02    0.114E-03
Total vdW correction in eV:     17.0251662
DAV:  21    -0.118153297133E+03   -0.24250E-04   -0.10767E-05  6720   0.737E-03    0.723E-04
Total vdW correction in eV:     17.0250035
DAV:  22    -0.118153272560E+03    0.24573E-04   -0.37588E-05  7240   0.118E-02    0.534E-04
Total vdW correction in eV:     17.0249344
DAV:  23    -0.118153236636E+03    0.35925E-04   -0.26588E-05  6828   0.132E-02    0.291E-04
Total vdW correction in eV:     17.0249117
DAV:  24    -0.118153155248E+03    0.81387E-04   -0.92025E-06  6432   0.861E-03    0.137E-04
Total vdW correction in eV:     17.0249132
DAV:  25    -0.118153147247E+03    0.80014E-05   -0.35138E-06  6232   0.681E-03    0.845E-05
Total vdW correction in eV:     17.0249140
DAV:  26    -0.118153132923E+03    0.14324E-04   -0.69127E-06  7032   0.859E-03    0.337E-05
Total vdW correction in eV:     17.0249139
DAV:  27    -0.118153137293E+03   -0.43700E-05   -0.35372E-06  6488   0.664E-03    0.204E-05
Total vdW correction in eV:     17.0249135
DAV:  28    -0.118153137352E+03   -0.58519E-07   -0.27078E-06  5872   0.598E-03
Total vdW correction in eV:     17.0249121
Total vdW correction in eV:     17.0249131
   1 F= -.11815314E+03 E0= -.11813732E+03  d E =-.316425E-01
