   24   24    1    1
  0.4176334E+02  0.3540400E-09  0.1044544E-08  0.2750143E-08  0.5000000E-15
  1.000000000000000E-004
  CAR 
 unknown system                          
    108     54     68
 
  0.0000000E+00  0.0000000E+00  0.0000000E+00  0.9615385E-02
    1      -14.114042
    2      -13.650088
    3      -12.906996
    4      -12.712341
    5      -12.597536
    6      -12.228418
    7      -12.193838
    8      -11.703836
    9      -11.539729
   10      -11.098170
   11      -11.066651
   12      -10.610079
   13       -8.398717
   14       -8.131038
   15       -7.940093
   16       -7.021673
   17       -6.934573
   18       -6.669530
   19       -6.601576
   20       -6.207362
   21       -5.928379
   22       -5.332528
   23       -4.855963
   24       -4.414191
   25       -4.059339
   26       -3.865403
   27       -3.786400
   28       -3.600042
   29       -3.334888
   30       -3.168847
   31       -2.983414
   32       -2.948141
   33       -2.693524
   34       -2.590735
   35       -2.548209
   36       -2.507345
   37       -2.324600
   38       -2.185225
   39       -2.159871
   40       -2.035271
   41       -1.918915
   42       -1.834805
   43       -1.754425
   44       -1.676467
   45       -1.553814
   46       -1.538303
   47       -1.429665
   48       -1.388541
   49       -1.224299
   50       -1.091668
   51       -0.684071
   52       -0.526117
   53       -0.122328
   54       -0.026512
   55        0.332690
   56        0.784144
   57        1.030940
   58        1.181762
   59        1.217446
   60        1.447088
   61        1.601617
   62        1.855766
   63        1.951143
   64        2.029356
   65        2.320475
   66        2.446332
   67        2.510938
   68        2.688023
 
  0.7692308E-01 -0.1387779E-16  0.0000000E+00  0.1923077E-01
    1      -14.054103
    2      -13.588745
    3      -12.854827
    4      -12.656720
    5      -12.542080
    6      -12.170053
    7      -12.131582
    8      -11.648873
    9      -11.490700
   10      -11.049821
   11      -11.017140
   12      -10.567598
   13       -8.362418
   14       -8.167673
   15       -7.901814
   16       -7.012076
   17       -6.911192
   18       -6.669647
   19       -6.595623
   20       -6.199651
   21       -5.895268
   22       -5.326849
   23       -4.859415
   24       -4.421647
   25       -4.388687
   26       -3.889555
   27       -3.799625
   28       -3.693123
   29       -3.598191
   30       -3.391267
   31       -3.325114
   32       -3.089207
   33       -3.000866
   34       -2.856335
   35       -2.741592
   36       -2.585283
   37       -2.421095
   38       -2.346964
   39       -2.284380
   40       -2.150571
   41       -2.069864
   42       -2.053264
   43       -1.934023
   44       -1.906730
   45       -1.827767
   46       -1.749508
   47       -1.612810
   48       -1.338922
   49       -1.231448
   50       -1.091629
   51       -0.750352
   52       -0.491757
   53       -0.105430
   54        0.081464
   55        0.542358
   56        0.965298
   57        1.221235
   58        1.474547
   59        1.572924
   60        1.656490
   61        1.998079
   62        2.071127
   63        2.109988
   64        2.186287
   65        2.498840
   66        2.615261
   67        2.660050
   68        2.770659
 
  0.1538462E+00 -0.2775558E-16  0.0000000E+00  0.1923077E-01
    1      -13.875834
    2      -13.405785
    3      -12.699029
    4      -12.491287
    5      -12.377715
    6      -11.998411
    7      -11.949044
    8      -11.487260
    9      -11.348408
   10      -10.911112
   11      -10.874142
   12      -10.446725
   13       -8.299261
   14       -8.225427
   15       -7.858997
   16       -7.067802
   17       -6.853840
   18       -6.694418
   19       -6.608634
   20       -6.240908
   21       -5.822753
   22       -5.402362
   23       -5.091936
   24       -4.963648
   25       -4.424469
   26       -4.307916
   27       -4.194524
   28       -4.082599
   29       -3.910797
   30       -3.771178
   31       -3.700405
   32       -3.619061
   33       -3.415608
   34       -3.244808
   35       -3.166772
   36       -3.070887
   37       -2.976992
   38       -2.751704
   39       -2.609028
   40       -2.504855
   41       -2.382703
   42       -2.282286
   43       -2.236663
   44       -2.053897
   45       -1.954825
   46       -1.861446
   47       -1.757685
   48       -1.550116
   49       -1.334822
   50       -1.130286
   51       -0.864745
   52       -0.528327
   53       -0.104435
   54        0.111986
   55        0.818884
   56        1.102739
   57        1.312093
   58        1.779818
   59        1.885789
   60        2.092751
   61        2.175105
   62        2.334528
   63        2.491730
   64        2.539959
   65        2.806509
   66        2.877200
   67        2.938746
   68        3.103630
 
  0.2307692E+00 -0.4163336E-16  0.0000000E+00  0.1923077E-01
    1      -13.584784
    2      -13.104792
    3      -12.442662
    4      -12.221297
    5      -12.111625
    6      -11.725844
    7      -11.661024
    8      -11.231585
    9      -11.130920
   10      -10.708165
   11      -10.662501
   12      -10.267869
   13       -8.469410
   14       -8.126247
   15       -7.932500
   16       -7.415409
   17       -6.913620
   18       -6.796274
   19       -6.745226
   20       -6.414880
   21       -5.844790
   22       -5.727123
   23       -5.451373
   24       -5.434654
   25       -4.922291
   26       -4.725382
   27       -4.628562
   28       -4.595511
   29       -4.436261
   30       -4.271010
   31       -4.057929
   32       -3.898290
   33       -3.774427
   34       -3.601617
   35       -3.572298
   36       -3.255324
   37       -3.133800
   38       -3.096236
   39       -3.016032
   40       -2.710527
   41       -2.592629
   42       -2.538552
   43       -2.317278
   44       -2.052243
   45       -1.993887
   46       -1.921431
   47       -1.835390
   48       -1.621089
   49       -1.557468
   50       -1.256188
   51       -1.065496
   52       -0.647525
   53       -0.300931
   54        0.020907
   55        0.606112
   56        0.771814
   57        1.209313
   58        1.606184
   59        1.785674
   60        1.916363
   61        2.145455
   62        2.242165
   63        2.553211
   64        2.687840
   65        2.770666
   66        2.867127
   67        2.907735
   68        3.102828
 
  0.3076923E+00 -0.5551115E-16  0.0000000E+00  0.1923077E-01
    1      -13.193910
    2      -12.693090
    3      -12.094161
    4      -11.860209
    5      -11.760704
    6      -11.383640
    7      -11.302444
    8      -10.918439
    9      -10.884648
   10      -10.522237
   11      -10.467462
   12      -10.049322
   13       -8.763546
   14       -8.210625
   15       -8.185261
   16       -7.865585
   17       -7.330337
   18       -7.107933
   19       -7.010948
   20       -6.670390
   21       -6.266786
   22       -6.202290
   23       -6.076970
   24       -5.883627
   25       -5.318695
   26       -4.931624
   27       -4.846683
   28       -4.808190
   29       -4.614177
   30       -4.414474
   31       -4.403790
   32       -4.313078
   33       -3.927662
   34       -3.716349
   35       -3.513107
   36       -3.435257
   37       -3.218924
   38       -3.188337
   39       -3.060009
   40       -2.870521
   41       -2.715717
   42       -2.690935
   43       -2.342095
   44       -2.171113
   45       -2.053671
   46       -1.986701
   47       -1.907276
   48       -1.820683
   49       -1.692932
   50       -1.477320
   51       -1.305191
   52       -0.743453
   53       -0.451571
   54       -0.261599
   55        0.316187
   56        0.458087
   57        0.965209
   58        1.264693
   59        1.508090
   60        1.692219
   61        1.873176
   62        2.125555
   63        2.253718
   64        2.479515
   65        2.628072
   66        2.721648
   67        2.852756
   68        3.001219
 
  0.3846154E+00 -0.8326673E-16  0.0000000E+00  0.1923077E-01
    1      -12.736144
    2      -12.184938
    3      -11.674661
    4      -11.449028
    5      -11.364236
    6      -11.065612
    7      -10.959907
    8      -10.731734
    9      -10.669832
   10      -10.563151
   11      -10.403761
   12       -9.774847
   13       -8.939422
   14       -8.579909
   15       -8.488319
   16       -8.142846
   17       -7.647099
   18       -7.567048
   19       -7.527019
   20       -7.144682
   21       -6.863804
   22       -6.774304
   23       -6.681888
   24       -6.366368
   25       -5.319689
   26       -4.983314
   27       -4.795557
   28       -4.645287
   29       -4.609048
   30       -4.382999
   31       -4.324712
   32       -4.177981
   33       -4.039976
   34       -3.762018
   35       -3.632913
   36       -3.430636
   37       -3.375811
   38       -3.321970
   39       -3.255304
   40       -2.900480
   41       -2.826067
   42       -2.609389
   43       -2.429224
   44       -2.391710
   45       -2.242227
   46       -2.131589
   47       -2.020110
   48       -1.950089
   49       -1.830072
   50       -1.562426
   51       -1.350275
   52       -0.891364
   53       -0.599557
   54       -0.424997
   55        0.112548
   56        0.205457
   57        0.702834
   58        1.054974
   59        1.314018
   60        1.575507
   61        1.631604
   62        1.955766
   63        2.142094
   64        2.192585
   65        2.305485
   66        2.575552
   67        2.708868
   68        2.807552
 
  0.4615385E+00 -0.8326673E-16  0.0000000E+00  0.1923077E-01
    1      -12.325618
    2      -11.612039
    3      -11.251716
    4      -11.234301
    5      -11.066483
    6      -10.949669
    7      -10.882286
    8      -10.835112
    9      -10.743854
   10      -10.644858
   11      -10.329092
   12       -9.508193
   13       -8.797476
   14       -8.786327
   15       -8.552587
   16       -8.471120
   17       -8.187679
   18       -7.712323
   19       -7.682676
   20       -7.453797
   21       -7.396902
   22       -7.282249
   23       -7.192350
   24       -6.558877
   25       -5.112035
   26       -5.019538
   27       -4.621065
   28       -4.557671
   29       -4.355688
   30       -4.316538
   31       -4.160798
   32       -4.053549
   33       -3.939082
   34       -3.896071
   35       -3.693597
   36       -3.618349
   37       -3.440263
   38       -3.359149
   39       -3.337061
   40       -3.109219
   41       -2.969485
   42       -2.798745
   43       -2.560333
   44       -2.462661
   45       -2.307193
   46       -2.219611
   47       -2.112949
   48       -1.892917
   49       -1.799214
   50       -1.620407
   51       -1.348202
   52       -0.970731
   53       -0.601046
   54       -0.507503
   55       -0.057717
   56        0.011969
   57        0.583411
   58        0.932236
   59        1.270790
   60        1.453953
   61        1.563008
   62        1.755392
   63        1.959542
   64        2.150789
   65        2.286186
   66        2.372675
   67        2.598753
   68        2.697896
 
  0.0000000E+00  0.2500000E+00  0.0000000E+00  0.1923077E-01
    1      -14.107911
    2      -13.595190
    3      -13.080580
    4      -12.774993
    5      -12.598995
    6      -12.170059
    7      -11.980726
    8      -11.636554
    9      -11.581062
   10      -11.167222
   11      -11.107479
   12      -10.559227
   13       -8.628145
   14       -8.407287
   15       -7.502825
   16       -7.177054
   17       -6.783928
   18       -6.745846
   19       -6.659965
   20       -5.975219
   21       -5.846180
   22       -5.281313
   23       -4.754194
   24       -4.353924
   25       -4.130151
   26       -3.989460
   27       -3.790959
   28       -3.584074
   29       -3.407594
   30       -3.240192
   31       -3.230514
   32       -2.815575
   33       -2.750382
   34       -2.586275
   35       -2.508378
   36       -2.483037
   37       -2.387185
   38       -2.214568
   39       -2.116995
   40       -2.055007
   41       -1.991076
   42       -1.966518
   43       -1.739437
   44       -1.639220
   45       -1.554116
   46       -1.470259
   47       -1.419686
   48       -1.319225
   49       -1.251323
   50       -1.113567
   51       -0.774169
   52       -0.575935
   53       -0.141362
   54        0.099486
   55        0.395703
   56        0.759822
   57        1.078423
   58        1.209506
   59        1.296808
   60        1.536029
   61        1.617982
   62        1.708192
   63        2.020454
   64        2.142008
   65        2.349886
   66        2.512396
   67        2.560569
   68        2.711567
 
  0.7692308E-01  0.2500000E+00  0.0000000E+00  0.1923077E-01
    1      -14.046683
    2      -13.518534
    3      -13.061307
    4      -12.730407
    5      -12.542324
    6      -12.103637
    7      -11.880252
    8      -11.567187
    9      -11.532948
   10      -11.141276
   11      -11.063280
   12      -10.509657
   13       -8.684845
   14       -8.371500
   15       -7.456872
   16       -7.214437
   17       -6.792319
   18       -6.698645
   19       -6.612978
   20       -5.926379
   21       -5.798533
   22       -5.274450
   23       -4.800492
   24       -4.454517
   25       -4.337489
   26       -4.191699
   27       -3.810729
   28       -3.715027
   29       -3.512305
   30       -3.430604
   31       -3.329938
   32       -3.126641
   33       -2.951591
   34       -2.871354
   35       -2.710967
   36       -2.597488
   37       -2.551586
   38       -2.401649
   39       -2.312105
   40       -2.218394
   41       -2.102334
   42       -2.076393
   43       -1.965453
   44       -1.932957
   45       -1.844959
   46       -1.697496
   47       -1.484822
   48       -1.327532
   49       -1.232303
   50       -1.098280
   51       -0.846972
   52       -0.574400
   53       -0.074423
   54        0.156818
   55        0.635658
   56        0.966056
   57        1.209494
   58        1.522171
   59        1.661747
   60        1.710932
   61        1.825966
   62        2.076504
   63        2.120105
   64        2.370535
   65        2.533590
   66        2.670303
   67        2.788039
   68        2.916688
 
  0.1538462E+00  0.2500000E+00  0.0000000E+00  0.1923077E-01
    1      -13.867726
    2      -13.322232
    3      -12.924526
    4      -12.569223
    5      -12.376374
    6      -11.931583
    7      -11.681544
    8      -11.412681
    9      -11.368345
   10      -11.016428
   11      -10.922053
   12      -10.383864
   13       -8.749326
   14       -8.268078
   15       -7.430036
   16       -7.304287
   17       -6.769676
   18       -6.648197
   19       -6.574338
   20       -6.001693
   21       -5.755120
   22       -5.358742
   23       -5.210355
   24       -4.943723
   25       -4.497283
   26       -4.418140
   27       -4.362884
   28       -4.083040
   29       -3.929684
   30       -3.733984
   31       -3.664842
   32       -3.469198
   33       -3.344459
   34       -3.176249
   35       -3.069628
   36       -2.987255
   37       -2.897894
   38       -2.813939
   39       -2.706984
   40       -2.567657
   41       -2.483864
   42       -2.420634
   43       -2.234912
   44       -2.068810
   45       -2.013780
   46       -1.953712
   47       -1.649932
   48       -1.600042
   49       -1.290553
   50       -1.188863
   51       -0.947406
   52       -0.524017
   53       -0.004602
   54        0.144101
   55        0.834015
   56        1.049161
   57        1.345749
   58        1.584977
   59        1.817103
   60        1.993164
   61        2.113965
   62        2.242951
   63        2.560281
   64        2.717633
   65        2.892930
   66        2.972901
   67        3.057798
   68        3.159367
 
  0.2307692E+00  0.2500000E+00  0.0000000E+00  0.1923077E-01
    1      -13.576733
    2      -13.011160
    3      -12.672758
    4      -12.296289
    5      -12.109071
    6      -11.665578
    7      -11.404097
    8      -11.186929
    9      -11.106419
   10      -10.812395
   11      -10.704603
   12      -10.202761
   13       -8.880249
   14       -8.149009
   15       -7.603569
   16       -7.503401
   17       -6.808685
   18       -6.758626
   19       -6.625438
   20       -6.446225
   21       -5.926694
   22       -5.765523
   23       -5.525068
   24       -5.317119
   25       -5.135997
   26       -4.775803
   27       -4.708806
   28       -4.655573
   29       -4.393171
   30       -4.128324
   31       -3.999210
   32       -3.847976
   33       -3.753463
   34       -3.447112
   35       -3.316295
   36       -3.240324
   37       -3.198154
   38       -3.034342
   39       -2.910809
   40       -2.721416
   41       -2.635798
   42       -2.563920
   43       -2.338257
   44       -2.200588
   45       -2.088751
   46       -1.990826
   47       -1.878673
   48       -1.698420
   49       -1.503941
   50       -1.336092
   51       -1.099984
   52       -0.528488
   53       -0.231031
   54       -0.071286
   55        0.478818
   56        0.826922
   57        1.138344
   58        1.373194
   59        1.480274
   60        1.580263
   61        2.084199
   62        2.416314
   63        2.559888
   64        2.697650
   65        2.870314
   66        2.925503
   67        3.050218
   68        3.210824
 
  0.3076923E+00  0.2500000E+00  0.0000000E+00  0.1923077E-01
    1      -13.186835
    2      -12.594872
    3      -12.313182
    4      -11.924130
    5      -11.758192
    6      -11.333998
    7      -11.089653
    8      -10.921656
    9      -10.818768
   10      -10.576053
   11      -10.498737
   12       -9.998044
   13       -9.079707
   14       -8.286526
   15       -7.887012
   16       -7.819316
   17       -7.220394
   18       -7.126110
   19       -7.074120
   20       -6.797095
   21       -6.317239
   22       -6.212516
   23       -6.031109
   24       -5.865927
   25       -5.486698
   26       -5.095836
   27       -5.047255
   28       -4.647962
   29       -4.526217
   30       -4.444295
   31       -4.247606
   32       -4.116847
   33       -3.921024
   34       -3.583047
   35       -3.460171
   36       -3.412992
   37       -3.124653
   38       -3.032214
   39       -2.963798
   40       -2.879084
   41       -2.734618
   42       -2.598026
   43       -2.429019
   44       -2.303949
   45       -2.096008
   46       -2.033101
   47       -1.972185
   48       -1.852989
   49       -1.783859
   50       -1.494389
   51       -1.322997
   52       -0.699448
   53       -0.572294
   54       -0.213244
   55        0.167142
   56        0.487670
   57        0.787855
   58        1.127128
   59        1.151690
   60        1.285376
   61        2.043777
   62        2.183590
   63        2.304826
   64        2.442035
   65        2.528745
   66        2.788012
   67        2.853023
   68        3.027637
 
  0.3846154E+00  0.2500000E+00  0.0000000E+00  0.1923077E-01
    1      -12.731339
    2      -12.091940
    3      -11.862521
    4      -11.486902
    5      -11.363787
    6      -11.036993
    7      -10.831259
    8      -10.710466
    9      -10.687404
   10      -10.575431
   11      -10.366406
   12       -9.767319
   13       -9.069956
   14       -8.612696
   15       -8.223860
   16       -8.116422
   17       -7.886157
   18       -7.609324
   19       -7.472405
   20       -7.236544
   21       -6.809306
   22       -6.765790
   23       -6.617865
   24       -6.386331
   25       -5.449955
   26       -5.117332
   27       -4.894282
   28       -4.703537
   29       -4.571565
   30       -4.387681
   31       -4.223735
   32       -3.969402
   33       -3.918684
   34       -3.637143
   35       -3.461296
   36       -3.392431
   37       -3.370943
   38       -3.227076
   39       -3.168334
   40       -3.023643
   41       -2.800371
   42       -2.715771
   43       -2.446007
   44       -2.353226
   45       -2.276079
   46       -2.180115
   47       -2.056748
   48       -1.966944
   49       -1.804587
   50       -1.595274
   51       -1.369687
   52       -0.992302
   53       -0.745430
   54       -0.322407
   55        0.048353
   56        0.192498
   57        0.526445
   58        0.995278
   59        1.101678
   60        1.232054
   61        1.715785
   62        1.921308
   63        2.006966
   64        2.222840
   65        2.484001
   66        2.560768
   67        2.680542
   68        2.876200
 
  0.4615385E+00  0.2500000E+00  0.0000000E+00  0.1923077E-01
    1      -12.324649
    2      -11.543522
    3      -11.366689
    4      -11.216972
    5      -11.077357
    6      -10.971251
    7      -10.931850
    8      -10.804952
    9      -10.690328
   10      -10.620121
   11      -10.327916
   12       -9.514795
   13       -8.703753
   14       -8.661477
   15       -8.510521
   16       -8.483689
   17       -8.438056
   18       -7.842077
   19       -7.634054
   20       -7.446742
   21       -7.411718
   22       -7.241751
   23       -7.158529
   24       -6.536285
   25       -5.133390
   26       -5.085754
   27       -4.646840
   28       -4.567201
   29       -4.341033
   30       -4.298537
   31       -4.226215
   32       -4.048157
   33       -3.969883
   34       -3.762082
   35       -3.614325
   36       -3.552152
   37       -3.388468
   38       -3.352051
   39       -3.281379
   40       -3.095743
   41       -3.002867
   42       -2.755693
   43       -2.702682
   44       -2.480134
   45       -2.285127
   46       -2.229183
   47       -2.138362
   48       -1.844817
   49       -1.762211
   50       -1.653979
   51       -1.301427
   52       -1.085985
   53       -0.751299
   54       -0.425437
   55       -0.079951
   56        0.103143
   57        0.453261
   58        0.880716
   59        1.324097
   60        1.386406
   61        1.456869
   62        1.678782
   63        1.947714
   64        2.135281
   65        2.343927
   66        2.400948
   67        2.588529
   68        2.669022
 
 -0.4615385E+00  0.2500000E+00  0.0000000E+00  0.1923077E-01
    1      -12.328169
    2      -11.645239
    3      -11.217650
    4      -11.174842
    5      -11.053307
    6      -10.913101
    7      -10.870682
    8      -10.863559
    9      -10.809143
   10      -10.680616
   11      -10.329522
   12       -9.517765
   13       -8.864152
   14       -8.790120
   15       -8.545971
   16       -8.399657
   17       -8.052979
   18       -7.759899
   19       -7.717273
   20       -7.488928
   21       -7.387384
   22       -7.325471
   23       -7.229356
   24       -6.470832
   25       -5.086903
   26       -4.836078
   27       -4.687371
   28       -4.563748
   29       -4.433569
   30       -4.311175
   31       -4.108659
   32       -4.103969
   33       -3.994943
   34       -3.954266
   35       -3.758873
   36       -3.650702
   37       -3.499413
   38       -3.454612
   39       -3.344914
   40       -2.990615
   41       -2.902623
   42       -2.787225
   43       -2.539713
   44       -2.472011
   45       -2.277619
   46       -2.239347
   47       -2.081871
   48       -1.890566
   49       -1.811361
   50       -1.602081
   51       -1.277712
   52       -0.953285
   53       -0.796372
   54       -0.372676
   55       -0.079021
   56        0.133917
   57        0.510651
   58        0.889441
   59        1.267125
   60        1.550034
   61        1.634325
   62        1.695857
   63        2.094495
   64        2.185883
   65        2.287795
   66        2.468242
   67        2.504990
   68        2.650519
 
 -0.3846154E+00  0.2500000E+00  0.0000000E+00  0.1923077E-01
    1      -12.739212
    2      -12.211248
    3      -11.589602
    4      -11.401360
    5      -11.358139
    6      -11.105052
    7      -11.042213
    8      -10.749944
    9      -10.733829
   10      -10.558623
   11      -10.318523
   12       -9.784440
   13       -8.850603
   14       -8.603985
   15       -8.586250
   16       -8.188620
   17       -7.578703
   18       -7.542072
   19       -7.438595
   20       -7.087345
   21       -6.910495
   22       -6.868415
   23       -6.779983
   24       -6.248935
   25       -5.168684
   26       -4.977421
   27       -4.924629
   28       -4.585378
   29       -4.504505
   30       -4.381365
   31       -4.286457
   32       -4.259454
   33       -4.184975
   34       -3.828023
   35       -3.671871
   36       -3.515544
   37       -3.424669
   38       -3.319860
   39       -3.268468
   40       -2.949763
   41       -2.842020
   42       -2.619126
   43       -2.395739
   44       -2.336165
   45       -2.208274
   46       -2.049591
   47       -1.980385
   48       -1.946185
   49       -1.818132
   50       -1.558046
   51       -1.279776
   52       -0.927641
   53       -0.716287
   54       -0.268719
   55        0.056731
   56        0.292423
   57        0.705168
   58        0.995093
   59        1.319772
   60        1.647114
   61        1.776354
   62        2.007993
   63        2.161830
   64        2.307658
   65        2.430618
   66        2.485738
   67        2.643595
   68        2.811270
 
 -0.3076923E+00  0.2500000E+00  0.0000000E+00  0.1923077E-01
    1      -13.195640
    2      -12.705282
    3      -12.052527
    4      -11.837439
    5      -11.758615
    6      -11.396475
    7      -11.349673
    8      -10.975881
    9      -10.878308
   10      -10.528295
   11      -10.400819
   12      -10.055411
   13       -8.664882
   14       -8.298861
   15       -8.253509
   16       -7.861831
   17       -7.275175
   18       -7.112422
   19       -6.982649
   20       -6.550939
   21       -6.395654
   22       -6.256157
   23       -6.086751
   24       -5.823983
   25       -5.259276
   26       -5.006638
   27       -4.876332
   28       -4.754095
   29       -4.518552
   30       -4.408360
   31       -4.398214
   32       -4.328840
   33       -4.005049
   34       -3.817033
   35       -3.567976
   36       -3.399862
   37       -3.213066
   38       -3.184576
   39       -3.068815
   40       -2.877362
   41       -2.802806
   42       -2.687537
   43       -2.297420
   44       -2.132032
   45       -2.015339
   46       -1.970436
   47       -1.900714
   48       -1.802083
   49       -1.597574
   50       -1.471384
   51       -1.243984
   52       -0.972395
   53       -0.499210
   54       -0.103014
   55        0.273407
   56        0.484296
   57        0.979780
   58        1.252412
   59        1.551486
   60        1.802344
   61        1.879963
   62        2.154743
   63        2.258731
   64        2.490239
   65        2.613010
   66        2.723634
   67        2.891739
   68        2.967262
 
 -0.2307692E+00  0.2500000E+00  0.0000000E+00  0.1923077E-01
    1      -13.584559
    2      -13.100582
    3      -12.457311
    4      -12.222385
    5      -12.111752
    6      -11.720581
    7      -11.644188
    8      -11.245762
    9      -11.134843
   10      -10.706779
   11      -10.656614
   12      -10.253140
   13       -8.509614
   14       -8.160693
   15       -7.892980
   16       -7.419072
   17       -6.889374
   18       -6.796932
   19       -6.749302
   20       -6.342668
   21       -5.851276
   22       -5.794320
   23       -5.453640
   24       -5.433588
   25       -4.942132
   26       -4.717917
   27       -4.656537
   28       -4.621713
   29       -4.356436
   30       -4.248472
   31       -4.088107
   32       -3.888578
   33       -3.798652
   34       -3.568984
   35       -3.533857
   36       -3.327806
   37       -3.159960
   38       -3.089533
   39       -2.945630
   40       -2.736588
   41       -2.599213
   42       -2.548434
   43       -2.351862
   44       -2.038117
   45       -1.979614
   46       -1.923255
   47       -1.841219
   48       -1.573776
   49       -1.501117
   50       -1.242416
   51       -1.051752
   52       -0.759048
   53       -0.323771
   54        0.048910
   55        0.576288
   56        0.713777
   57        1.284641
   58        1.607531
   59        1.748272
   60        1.897417
   61        2.124599
   62        2.229889
   63        2.584544
   64        2.671057
   65        2.803223
   66        2.878219
   67        2.941603
   68        3.127685
 
 -0.1538462E+00  0.2500000E+00  0.0000000E+00  0.1923077E-01
    1      -13.873472
    2      -13.384458
    3      -12.772626
    4      -12.515805
    5      -12.379089
    6      -11.973615
    7      -11.860005
    8      -11.468217
    9      -11.367106
   10      -10.913541
   11      -10.907758
   12      -10.417127
   13       -8.491241
   14       -8.265872
   15       -7.648959
   16       -7.152362
   17       -6.797089
   18       -6.678587
   19       -6.643736
   20       -6.148987
   21       -5.796873
   22       -5.412938
   23       -5.105437
   24       -4.941206
   25       -4.424760
   26       -4.352760
   27       -4.266007
   28       -4.051410
   29       -3.915019
   30       -3.791523
   31       -3.717537
   32       -3.576660
   33       -3.417605
   34       -3.225966
   35       -3.097416
   36       -3.017048
   37       -2.989926
   38       -2.794591
   39       -2.615291
   40       -2.540749
   41       -2.422137
   42       -2.301764
   43       -2.274626
   44       -2.059223
   45       -1.980729
   46       -1.867187
   47       -1.720419
   48       -1.478581
   49       -1.322190
   50       -1.119012
   51       -0.935808
   52       -0.505353
   53       -0.088307
   54        0.090247
   55        0.804006
   56        1.047172
   57        1.343142
   58        1.694841
   59        1.795329
   60        2.077874
   61        2.207336
   62        2.355365
   63        2.545049
   64        2.666696
   65        2.791234
   66        2.908143
   67        3.023098
   68        3.119722
 
 -0.7692308E-01  0.2500000E+00  0.0000000E+00  0.1923077E-01
    1      -14.049709
    2      -13.550343
    3      -12.983079
    4      -12.702464
    5      -12.543936