   3   3   0   0
  0.6796202E+02  0.3189484E-09  0.3189484E-09  0.2314280E-08  0.5000000E-15
  1.000000000000000E-004
  CAR 
 unknown system                          
      7.35360908    -18.33090464  301     -3.27502702      1.00000000
    -18.331  0.0000E+00  0.0000E+00
    -18.245  0.0000E+00  0.0000E+00
    -18.160  0.0000E+00  0.0000E+00
    -18.074  0.0000E+00  0.0000E+00
    -17.988 -0.1770E-31 -0.1516E-32
    -17.903 -0.1041E-25 -0.8910E-27
    -17.817 -0.1393E-20 -0.1193E-21
    -17.732 -0.4111E-16 -0.3520E-17
    -17.646 -0.2782E-12 -0.2382E-13
    -17.560 -0.4191E-09 -0.3590E-10
    -17.475 -0.1379E-06 -0.1185E-07
    -17.389 -0.9680E-05 -0.8406E-06
    -17.304 -0.1381E-03 -0.1266E-04
    -17.218 -0.1054E-03 -0.2169E-04
    -17.132  0.4278E-02  0.3446E-03
    -17.047  0.1095E-01  0.1282E-02
    -16.961  0.7595E-02  0.1932E-02
    -16.875  0.1507E-01  0.3222E-02
    -16.790  0.1304E-01  0.4339E-02
    -16.704  0.2599E-02  0.4561E-02
    -16.619  0.1652E-01  0.5976E-02
    -16.533  0.1859E-01  0.7568E-02
    -16.447  0.1051E-01  0.8467E-02
    -16.362  0.3348E-02  0.8754E-02
    -16.276  0.1495E-01  0.1003E-01
    -16.191  0.2807E-01  0.1244E-01
    -16.105  0.1040E-01  0.1333E-01
    -16.019  0.8420E-02  0.1405E-01
    -15.934  0.1964E-01  0.1573E-01
    -15.848  0.5154E-01  0.2014E-01
    -15.762  0.5040E-01  0.2446E-01
    -15.677  0.3665E-01  0.2759E-01
    -15.591  0.4165E-01  0.3116E-01
    -15.506  0.7694E-01  0.3775E-01
    -15.420  0.7008E-01  0.4375E-01
    -15.334  0.8127E-01  0.5071E-01
    -15.249  0.9674E-01  0.5899E-01
    -15.163  0.1028E+00  0.6779E-01
    -15.078  0.9094E-01  0.7558E-01
    -14.992  0.4570E-01  0.7949E-01
    -14.906  0.7846E-02  0.8016E-01
    -14.821 -0.1578E-02  0.8003E-01
    -14.735 -0.3092E-03  0.8000E-01
    -14.649 -0.8747E-05  0.8000E-01
    -14.564 -0.5104E-07  0.8000E-01
    -14.478 -0.6536E-10  0.8000E-01
    -14.393 -0.1876E-13  0.8000E-01
    -14.307  0.0000E+00  0.8000E-01
    -14.221  0.0000E+00  0.8000E-01
    -14.136  0.0000E+00  0.8000E-01
    -14.050  0.0000E+00  0.8000E-01
    -13.965  0.0000E+00  0.8000E-01
    -13.879  0.0000E+00  0.8000E-01
    -13.793  0.0000E+00  0.8000E-01
    -13.708  0.0000E+00  0.8000E-01
    -13.622  0.0000E+00  0.8000E-01
    -13.536  0.0000E+00  0.8000E-01
    -13.451  0.0000E+00  0.8000E-01
    -13.365  0.0000E+00  0.8000E-01
    -13.280  0.0000E+00  0.8000E-01
    -13.194  0.0000E+00  0.8000E-01
    -13.108  0.0000E+00  0.8000E-01
    -13.023  0.0000E+00  0.8000E-01
    -12.937  0.0000E+00  0.8000E-01
    -12.852  0.0000E+00  0.8000E-01
    -12.766  0.0000E+00  0.8000E-01
    -12.680  0.0000E+00  0.8000E-01
    -12.595  0.0000E+00  0.8000E-01
    -12.509  0.0000E+00  0.8000E-01
    -12.423  0.0000E+00  0.8000E-01
    -12.338  0.0000E+00  0.8000E-01
    -12.252  0.0000E+00  0.8000E-01
    -12.167  0.0000E+00  0.8000E-01
    -12.081  0.0000E+00  0.8000E-01
    -11.995  0.0000E+00  0.8000E-01
    -11.910  0.0000E+00  0.8000E-01
    -11.824  0.0000E+00  0.8000E-01
    -11.739  0.0000E+00  0.8000E-01
    -11.653  0.0000E+00  0.8000E-01
    -11.567  0.0000E+00  0.8000E-01
    -11.482  0.0000E+00  0.8000E-01
    -11.396  0.0000E+00  0.8000E-01
    -11.310  0.0000E+00  0.8000E-01
    -11.225  0.0000E+00  0.8000E-01
    -11.139  0.0000E+00  0.8000E-01
    -11.054  0.0000E+00  0.8000E-01
    -10.968  0.0000E+00  0.8000E-01
    -10.882  0.0000E+00  0.8000E-01
    -10.797  0.0000E+00  0.8000E-01
    -10.711  0.0000E+00  0.8000E-01
    -10.626  0.0000E+00  0.8000E-01
    -10.540  0.0000E+00  0.8000E-01
    -10.454  0.0000E+00  0.8000E-01
    -10.369  0.0000E+00  0.8000E-01
    -10.283  0.0000E+00  0.8000E-01
    -10.197  0.0000E+00  0.8000E-01
    -10.112  0.0000E+00  0.8000E-01
    -10.026  0.0000E+00  0.8000E-01
     -9.941  0.0000E+00  0.8000E-01
     -9.855  0.0000E+00  0.8000E-01
     -9.769  0.0000E+00  0.8000E-01
     -9.684 -0.1167E-29  0.8000E-01
     -9.598 -0.5319E-24  0.8000E-01
     -9.513 -0.5520E-19  0.8000E-01
     -9.427 -0.1259E-14  0.8000E-01
     -9.341 -0.6608E-11  0.8000E-01
     -9.256 -0.7713E-08  0.8000E-01
     -9.170 -0.1957E-05  0.8000E-01
     -9.084 -0.1012E-03  0.7999E-01
     -8.999 -0.7586E-03  0.7993E-01
     -8.913  0.3587E-02  0.8023E-01
     -8.828  0.1746E-01  0.8173E-01
     -8.742  0.2024E-01  0.8346E-01
     -8.656  0.3447E-01  0.8641E-01
     -8.571  0.3951E-01  0.8979E-01
     -8.485  0.4362E-01  0.9353E-01
     -8.400  0.6794E-01  0.9934E-01
     -8.314  0.5457E-01  0.1040E+00
     -8.228  0.9569E-01  0.1122E+00
     -8.143  0.1203E+00  0.1225E+00
     -8.057  0.5412E-01  0.1271E+00
     -7.971  0.1835E-01  0.1287E+00
     -7.886  0.4982E-01  0.1330E+00
     -7.800  0.5774E-01  0.1379E+00
     -7.715  0.1051E-01  0.1388E+00
     -7.629  0.7564E-02  0.1395E+00
     -7.543  0.6572E-02  0.1400E+00
     -7.458  0.1815E-01  0.1416E+00
     -7.372  0.1371E-01  0.1428E+00
     -7.287  0.1952E-01  0.1444E+00
     -7.201  0.4450E-01  0.1482E+00
     -7.115  0.7689E-01  0.1548E+00
     -7.030  0.1056E+00  0.1639E+00
     -6.944  0.1102E+00  0.1733E+00
     -6.858  0.8549E-01  0.1806E+00
     -6.773  0.4043E-01  0.1841E+00
     -6.687  0.3408E-01  0.1870E+00
     -6.602  0.2285E-01  0.1890E+00
     -6.516  0.2642E-01  0.1912E+00
     -6.430  0.8170E-01  0.1982E+00
     -6.345  0.1297E+00  0.2093E+00
     -6.259  0.1080E+00  0.2186E+00
     -6.174  0.6716E-01  0.2243E+00
     -6.088  0.4175E-01  0.2279E+00
     -6.002  0.4601E-01  0.2318E+00
     -5.917  0.2285E-01  0.2338E+00
     -5.831  0.2225E-01  0.2357E+00
     -5.745  0.2774E-01  0.2381E+00
     -5.660  0.3172E-01  0.2408E+00
     -5.574  0.2983E-01  0.2433E+00
     -5.489  0.2800E-01  0.2457E+00
     -5.403  0.5676E-01  0.2506E+00
     -5.317  0.6253E-01  0.2559E+00
     -5.232  0.6350E-01  0.2614E+00
     -5.146  0.6094E-01  0.2666E+00
     -5.061  0.9696E-01  0.2749E+00
     -4.975  0.7930E-01  0.2817E+00
     -4.889  0.3497E-01  0.2847E+00
     -4.804  0.7409E-01  0.2910E+00
     -4.718  0.7845E-01  0.2977E+00
     -4.632  0.3712E-01  0.3009E+00
     -4.547  0.2119E-01  0.3027E+00
     -4.461  0.6301E-01  0.3081E+00
     -4.376  0.3904E-01  0.3115E+00
     -4.290  0.3647E-01  0.3146E+00
     -4.204  0.5967E-01  0.3197E+00
     -4.119  0.4810E-01  0.3238E+00
     -4.033  0.7080E-01  0.3299E+00
     -3.948  0.4772E-01  0.3340E+00
     -3.862  0.6794E-01  0.3398E+00
     -3.776  0.4466E-01  0.3436E+00
     -3.691  0.4433E-01  0.3474E+00
     -3.605  0.5172E-01  0.3518E+00
     -3.520  0.2502E-01  0.3540E+00
     -3.434  0.2875E-01  0.3564E+00
     -3.348  0.2883E-01  0.3589E+00
     -3.263  0.1357E-01  0.3601E+00
     -3.177 -0.1676E-03  0.3600E+00
     -3.091 -0.4735E-03  0.3600E+00
     -3.006 -0.2465E-04  0.3600E+00
     -2.920 -0.2691E-06  0.3600E+00
     -2.835 -0.7018E-09  0.3600E+00
     -2.749 -0.4385E-12  0.3600E+00
     -2.663 -0.6384E-16  0.3600E+00
     -2.578  0.0000E+00  0.3600E+00
     -2.492  0.0000E+00  0.3600E+00
     -2.407 -0.9591E-33  0.3600E+00
     -2.321 -0.9181E-27  0.3600E+00
     -2.235 -0.2003E-21  0.3600E+00
     -2.150 -0.9933E-17  0.3600E+00
     -2.064 -0.1072E-12  0.3600E+00
     -1.978 -0.2649E-09  0.3600E+00
     -1.893 -0.1427E-06  0.3600E+00
     -1.807 -0.1592E-04  0.3600E+00
     -1.722 -0.3042E-03  0.3600E+00
     -1.636  0.3287E-03  0.3600E+00
     -1.550  0.7976E-02  0.3607E+00
     -1.465  0.8052E-02  0.3614E+00
     -1.379  0.1609E-01  0.3628E+00
     -1.294  0.4938E-01  0.3670E+00
     -1.208  0.8630E-01  0.3744E+00
     -1.122  0.1485E+00  0.3871E+00
     -1.037  0.1074E+00  0.3963E+00
     -0.951  0.3447E-01  0.3992E+00
     -0.865  0.8721E-01  0.4067E+00
     -0.780  0.1072E+00  0.4159E+00
     -0.694  0.1163E+00  0.4258E+00
     -0.609  0.9782E-01  0.4342E+00
     -0.523  0.4653E-01  0.4382E+00
     -0.437  0.6151E-01  0.4434E+00
     -0.352  0.8984E-01  0.4511E+00
     -0.266  0.4908E-01  0.4553E+00
     -0.181  0.2618E-01  0.4576E+00
     -0.095  0.5422E-01  0.4622E+00
     -0.009  0.8551E-01  0.4695E+00
      0.076  0.4919E-01  0.4738E+00
      0.162  0.1350E-01  0.4749E+00
      0.248  0.2285E-01  0.4769E+00
      0.333  0.3974E-01  0.4803E+00
      0.419  0.4629E-01  0.4842E+00
      0.504  0.1880E-01  0.4858E+00
      0.590  0.1002E-01  0.4867E+00
      0.676  0.5086E-01  0.4911E+00
      0.761  0.4291E-01  0.4947E+00
      0.847  0.3620E-01  0.4978E+00
      0.932  0.6433E-01  0.5033E+00
      1.018  0.5566E-01  0.5081E+00
      1.104  0.4808E-01  0.5122E+00
      1.189  0.2014E-01  0.5139E+00
      1.275  0.1882E-01  0.5156E+00
      1.361  0.2878E-01  0.5180E+00
      1.446  0.1245E-01  0.5191E+00
      1.532  0.9392E-02  0.5199E+00
      1.617  0.1828E-02  0.5200E+00
      1.703 -0.5067E-03  0.5200E+00
      1.789 -0.8794E-04  0.5200E+00
      1.874  0.7925E-03  0.5201E+00
      1.960  0.3260E-02  0.5203E+00
      2.045  0.1110E-01  0.5213E+00
      2.131  0.9337E-02  0.5221E+00
      2.217  0.1303E-01  0.5232E+00
      2.302  0.1499E-01  0.5245E+00
      2.388  0.1939E-01  0.5261E+00
      2.474  0.2380E-01  0.5282E+00
      2.559  0.2192E-01  0.5301E+00
      2.645  0.9089E-02  0.5308E+00
      2.730  0.2175E-01  0.5327E+00
      2.816  0.3249E-01  0.5355E+00
      2.902  0.3998E-01  0.5389E+00
      2.987  0.2805E-01  0.5413E+00
      3.073  0.2893E-01  0.5438E+00
      3.158  0.1567E-01  0.5451E+00
      3.244  0.2698E-01  0.5474E+00
      3.330  0.4395E-01  0.5512E+00
      3.415  0.6919E-01  0.5571E+00
      3.501  0.6166E-01  0.5624E+00
      3.587  0.2899E-01  0.5649E+00
      3.672  0.1489E-01  0.5662E+00
      3.758  0.2264E-01  0.5681E+00
      3.843  0.3721E-01  0.5713E+00
      3.929  0.7550E-01  0.5777E+00
      4.015  0.7770E-01  0.5844E+00
      4.100  0.4053E-01  0.5879E+00
      4.186  0.2895E-01  0.5903E+00
      4.271  0.2695E-01  0.5927E+00
      4.357  0.1447E-01  0.5939E+00
      4.443  0.2077E-01  0.5957E+00
      4.528  0.4081E-01  0.5992E+00
      4.614  0.4553E-01  0.6031E+00
      4.700  0.1758E-01  0.6046E+00
      4.785  0.8317E-02  0.6053E+00
      4.871  0.5508E-01  0.6100E+00
      4.956  0.9827E-01  0.6184E+00
      5.042  0.3816E-01  0.6217E+00
      5.128 -0.2268E-02  0.6215E+00
      5.213  0.2834E-01  0.6239E+00
      5.299  0.4892E-01  0.6281E+00
      5.384  0.8266E-02  0.6288E+00
      5.470 -0.4213E-02  0.6284E+00
      5.556  0.8711E-02  0.6292E+00
      5.641  0.5516E-01  0.6339E+00
      5.727  0.3858E-01  0.6372E+00
      5.813  0.6497E-03  0.6373E+00
      5.898 -0.1684E-02  0.6371E+00
      5.984  0.1010E-02  0.6372E+00
      6.069  0.9469E-02  0.6380E+00
      6.155  0.1108E-01  0.6390E+00
      6.241  0.1040E-01  0.6399E+00
      6.326  0.2107E-02  0.6400E+00
      6.412 -0.4794E-03  0.6400E+00
      6.497 -0.5225E-04  0.6400E+00
      6.583 -0.8084E-06  0.6400E+00
      6.669 -0.2501E-08  0.6400E+00
      6.754 -0.1667E-11  0.6400E+00
      6.840 -0.2468E-15  0.6400E+00
      6.926  0.0000E+00  0.6400E+00
      7.011  0.0000E+00  0.6400E+00
      7.097  0.0000E+00  0.6400E+00
      7.182  0.0000E+00  0.6400E+00
      7.268  0.0000E+00  0.6400E+00
      7.354  0.0000E+00  0.6400E+00
