       N       E                     dE             d eps       ncg     rms          rms(c)
DAV:   1     0.126865797621E+03    0.12687E+03   -0.59230E+03   672   0.794E+02
DAV:   2    -0.759186347216E+01   -0.13446E+03   -0.12240E+03  1048   0.161E+02
DAV:   3    -0.216008338664E+02   -0.14009E+02   -0.13776E+02   944   0.626E+01
DAV:   4    -0.218674483733E+02   -0.26661E+00   -0.26627E+00   824   0.105E+01
DAV:   5    -0.218744004428E+02   -0.69521E-02   -0.69511E-02   936   0.165E+00    0.726E+00
RMM:   6    -0.204560297443E+02    0.14184E+01   -0.59079E+00   672   0.114E+01    0.281E+00
RMM:   7    -0.200302198059E+02    0.42581E+00   -0.52414E-01   672   0.307E+00    0.156E+00
RMM:   8    -0.199282671599E+02    0.10195E+00   -0.21092E-01   672   0.219E+00    0.367E-01
RMM:   9    -0.199213908665E+02    0.68763E-02   -0.66330E-03   672   0.513E-01    0.967E-02
RMM:  10    -0.199204109482E+02    0.97992E-03   -0.10760E-03   674   0.180E-01    0.366E-02
RMM:  11    -0.199201000870E+02    0.31086E-03   -0.56548E-04   673   0.104E-01    0.307E-02
RMM:  12    -0.199183531422E+02    0.17469E-02   -0.33215E-04   672   0.914E-02    0.212E-02
RMM:  13    -0.199178116012E+02    0.54154E-03   -0.29830E-04   672   0.839E-02    0.241E-02
RMM:  14    -0.199186365661E+02   -0.82496E-03   -0.79561E-05   672   0.446E-02    0.598E-03
RMM:  15    -0.199188070748E+02   -0.17051E-03   -0.48770E-05   671   0.317E-02    0.473E-03
RMM:  16    -0.199188736562E+02   -0.66581E-04   -0.36250E-06   509   0.859E-03    0.229E-03
RMM:  17    -0.199188517715E+02    0.21885E-04   -0.94093E-06   580   0.130E-02    0.187E-03
RMM:  18    -0.199188658516E+02   -0.14080E-04   -0.30842E-06   490   0.713E-03    0.945E-04
RMM:  19    -0.199188725963E+02   -0.67447E-05   -0.19877E-06   470   0.642E-03    0.178E-04
RMM:  20    -0.199188726048E+02   -0.84583E-08   -0.19245E-07   387   0.251E-03
   1 F= -.19918873E+02 E0= -.19919119E+02  d E =-.199189E+02
       N       E                     dE             d eps       ncg     rms          rms(c)
DAV:   1    -0.199188797923E+02   -0.71960E-05   -0.45281E-04   912   0.113E-01    0.536E-03
RMM:   2    -0.199189055606E+02   -0.25768E-04   -0.21374E-05   656   0.307E-02    0.225E-03
RMM:   3    -0.199188867266E+02    0.18834E-04   -0.10771E-06   432   0.695E-03    0.132E-03
RMM:   4    -0.199188873886E+02   -0.66199E-06   -0.28478E-07   415   0.392E-03
   2 F= -.19918887E+02 E0= -.19919134E+02  d E =-.147838E-04
       N       E                     dE             d eps       ncg     rms          rms(c)
DAV:   1    -0.199188694202E+02    0.17306E-04   -0.15938E-03   680   0.211E-01    0.102E-02
RMM:   2    -0.199189180992E+02   -0.48679E-04   -0.76997E-05   672   0.589E-02    0.416E-03
RMM:   3    -0.199188833998E+02    0.34699E-04   -0.45224E-06   588   0.130E-02    0.253E-03
RMM:   4    -0.199188837373E+02   -0.33753E-06   -0.55426E-07   438   0.563E-03
   3 F= -.19918884E+02 E0= -.19919130E+02  d E =-.111325E-04
       N       E                     dE             d eps       ncg     rms          rms(c)
DAV:   1    -0.199188608194E+02    0.22580E-04   -0.47098E-04   672   0.126E-01    0.135E-02
RMM:   2    -0.199187990117E+02    0.61808E-04   -0.25267E-05   672   0.324E-02    0.781E-03
RMM:   3    -0.199188875875E+02   -0.88576E-04   -0.28603E-06   538   0.974E-03    0.397E-03
RMM:   4    -0.199188901805E+02   -0.25930E-05   -0.25432E-06   473   0.799E-03    0.556E-04
RMM:   5    -0.199188662502E+02    0.23930E-04   -0.21067E-07   425   0.332E-03    0.333E-04
RMM:   6    -0.199188349549E+02    0.31295E-04   -0.64564E-08   336   0.202E-03    0.149E-04
RMM:   7    -0.199188277008E+02    0.72542E-05   -0.25022E-08   275   0.152E-03    0.528E-05
RMM:   8    -0.199188267294E+02    0.97138E-06   -0.21677E-08   244   0.147E-03
   4 F= -.19918827E+02 E0= -.19919073E+02  d E =0.570079E-04
       N       E                     dE             d eps       ncg     rms          rms(c)
DAV:   1    -0.199188284886E+02   -0.78787E-06   -0.45805E-05   752   0.392E-02    0.421E-03
RMM:   2    -0.199188403580E+02   -0.11869E-04   -0.22038E-06   460   0.100E-02    0.243E-03
RMM:   3    -0.199188096325E+02    0.30725E-04   -0.43189E-07   417   0.457E-03    0.122E-03
RMM:   4    -0.199188084804E+02    0.11522E-05   -0.30659E-07   404   0.308E-03    0.183E-04
RMM:   5    -0.199188157042E+02   -0.72238E-05   -0.27996E-08   269   0.154E-03    0.106E-04
RMM:   6    -0.199188247697E+02   -0.90655E-05   -0.24158E-08   260   0.154E-03    0.434E-05
RMM:   7    -0.199188243942E+02    0.37550E-06   -0.12415E-08   223   0.133E-03
   5 F= -.19918824E+02 E0= -.19919071E+02  d E =0.593431E-04
