   24   24    1    1
  0.4176334E+02  0.3540400E-09  0.1044544E-08  0.2750143E-08  0.5000000E-15
  1.000000000000000E-004
  CAR 
 unknown system                          
    108     54     68
 
  0.0000000E+00  0.0000000E+00  0.0000000E+00  0.9615385E-02
    1      -15.014659
    2      -13.515281
    3      -13.401646
    4      -12.817808
    5      -12.774914
    6      -12.456071
    7      -12.062425
    8      -11.739841
    9      -11.474532
   10      -11.406827
   11      -10.965912
   12       -9.997342
   13       -9.158948
   14       -8.282760
   15       -8.002183
   16       -7.802598
   17       -6.812017
   18       -6.777832
   19       -6.467749
   20       -5.907241
   21       -5.807858
   22       -5.515382
   23       -5.257394
   24       -4.961812
   25       -4.721125
   26       -4.205323
   27       -3.693448
   28       -3.610163
   29       -3.385796
   30       -3.242148
   31       -3.077665
   32       -3.029975
   33       -2.818731
   34       -2.651512
   35       -2.556511
   36       -2.487562
   37       -2.425304
   38       -2.364237
   39       -2.196389
   40       -2.075624
   41       -1.959711
   42       -1.856614
   43       -1.777348
   44       -1.704191
   45       -1.617338
   46       -1.552618
   47       -1.483510
   48       -1.406401
   49       -1.346393
   50       -1.135943
   51       -0.903669
   52       -0.612484
   53       -0.446591
   54        0.137061
   55        0.531641
   56        0.557736
   57        0.960363
   58        1.204010
   59        1.216319
   60        1.342863
   61        1.486301
   62        1.666104
   63        1.826600
   64        1.994411
   65        2.108263
   66        2.138579
   67        2.309973
   68        2.459450
 
  0.7692308E-01 -0.1387779E-16  0.0000000E+00  0.1923077E-01
    1      -14.954348
    2      -13.453945
    3      -13.346285
    4      -12.757894
    5      -12.722655
    6      -12.400489
    7      -12.000222
    8      -11.699948
    9      -11.412984
   10      -11.357795
   11      -10.917539
   12       -9.968274
   13       -9.155023
   14       -8.265212
   15       -8.040780
   16       -7.764680
   17       -6.806945
   18       -6.768429
   19       -6.461956
   20       -5.973290
   21       -5.774439
   22       -5.584993
   23       -5.448296
   24       -4.953155
   25       -4.724736
   26       -4.221688
   27       -3.762623
   28       -3.689496
   29       -3.593041
   30       -3.412198
   31       -3.350437
   32       -3.239651
   33       -3.132134
   34       -2.921713
   35       -2.728023
   36       -2.609059
   37       -2.462685
   38       -2.440152
   39       -2.385388
   40       -2.189886
   41       -2.043365
   42       -2.022430
   43       -1.940420
   44       -1.843902
   45       -1.817620
   46       -1.739279
   47       -1.647235
   48       -1.486141
   49       -1.277196
   50       -1.087259
   51       -0.827774
   52       -0.590158
   53       -0.417332
   54       -0.115560
   55        0.501061
   56        0.821738
   57        0.877775
   58        1.212169
   59        1.584551
   60        1.745217
   61        1.793870
   62        2.013907
   63        2.150056
   64        2.204559
   65        2.289454
   66        2.317680
   67        2.546046
   68        2.640054
 
  0.1538462E+00 -0.2775558E-16  0.0000000E+00  0.1923077E-01
    1      -14.774938
    2      -13.271024
    3      -13.181614
    4      -12.581163
    5      -12.566019
    6      -12.235782
    7      -11.817949
    8      -11.579836
    9      -11.237961
   10      -11.214929
   11      -10.778750
   12       -9.899679
   13       -9.168644
   14       -8.232129
   15       -8.139558
   16       -7.722610
   17       -7.027197
   18       -6.697445
   19       -6.474470
   20       -6.379996
   21       -5.700310
   22       -5.686149
   23       -5.419585
   24       -4.914708
   25       -4.842964
   26       -4.481598
   27       -4.360578
   28       -4.179898
   29       -4.059164
   30       -3.949359
   31       -3.695124
   32       -3.648026
   33       -3.411415
   34       -3.286674
   35       -3.144348
   36       -2.965272
   37       -2.942844
   38       -2.873051
   39       -2.658737
   40       -2.509842
   41       -2.371043
   42       -2.317312
   43       -2.124103
   44       -1.977677
   45       -1.912983
   46       -1.750158
   47       -1.643056
   48       -1.591617
   49       -1.295778
   50       -1.165149
   51       -0.908889
   52       -0.718937
   53       -0.527602
   54        0.074992
   55        0.389630
   56        0.493811
   57        1.125856
   58        1.377354
   59        1.740818
   60        1.983188
   61        2.275097
   62        2.427856
   63        2.455160
   64        2.645077
   65        2.690136
   66        2.938122
   67        3.031469
   68        3.064026
 
  0.2307692E+00 -0.4163336E-16  0.0000000E+00  0.1923077E-01
    1      -14.481951
    2      -12.970232
    3      -12.912777
    4      -12.312274
    5      -12.291922
    6      -11.969207
    7      -11.530968
    8      -11.386998
    9      -11.000852
   10      -10.970045
   11      -10.575697
   12       -9.894335
   13       -9.237659
   14       -8.337158
   15       -8.292356
   16       -7.797002
   17       -7.523465
   18       -6.675632
   19       -6.640098
   20       -6.605987
   21       -5.872306
   22       -5.714034
   23       -5.396266
   24       -5.312490
   25       -5.140525
   26       -4.967091
   27       -4.781037
   28       -4.692703
   29       -4.574248
   30       -4.480480
   31       -4.160590
   32       -4.013133
   33       -3.762644
   34       -3.683496
   35       -3.447602
   36       -3.364584
   37       -3.085556
   38       -2.968900
   39       -2.803108
   40       -2.676010
   41       -2.571113
   42       -2.547626
   43       -2.414397
   44       -2.263191
   45       -1.879324
   46       -1.810820
   47       -1.711065
   48       -1.524956
   49       -1.462902
   50       -1.432963
   51       -1.009524
   52       -0.942353
   53       -0.605998
   54       -0.232737
   55        0.220449
   56        0.494395
   57        1.040531
   58        1.595392
   59        1.910730
   60        2.015110
   61        2.090215
   62        2.275291
   63        2.412648
   64        2.464286
   65        2.704951
   66        2.844803
   67        2.915695
   68        2.992176
 
  0.3076923E+00 -0.5551115E-16  0.0000000E+00  0.1923077E-01
    1      -14.088764
    2      -12.562649
    3      -12.548588
    4      -11.963362
    5      -11.916666
    6      -11.617715
    7      -11.186709
    8      -11.146955
    9      -10.755942
   10      -10.671114
   11      -10.389878
   12      -10.207437
   13       -9.229768
   14       -8.677927
   15       -8.625550
   16       -8.058160
   17       -7.639130
   18       -7.045313
   19       -6.969585
   20       -6.873658
   21       -6.442485
   22       -6.137500
   23       -5.938638
   24       -5.666047
   25       -5.457184
   26       -5.185574
   27       -5.066914
   28       -4.761120
   29       -4.679137
   30       -4.651162
   31       -4.288301
   32       -4.192590
   33       -4.012173
   34       -3.896879
   35       -3.489844
   36       -3.365581
   37       -3.176559
   38       -3.116703
   39       -3.045764
   40       -2.921765
   41       -2.789316
   42       -2.667930
   43       -2.566787
   44       -2.314728
   45       -2.046602
   46       -1.907172
   47       -1.849504
   48       -1.694963
   49       -1.636790
   50       -1.438434
   51       -1.271901
   52       -1.169361
   53       -0.658444
   54       -0.520652
   55       -0.002591
   56        0.376254
   57        0.904335
   58        1.475726
   59        1.685786
   60        1.848480
   61        2.005406
   62        2.187780
   63        2.316468
   64        2.334789
   65        2.417072
   66        2.615224
   67        2.738995
   68        2.865001
 
  0.3846154E+00 -0.8326673E-16  0.0000000E+00  0.1923077E-01
    1      -13.631335
    2      -12.134600
    3      -12.048571
    4      -11.544299
    5      -11.506719
    6      -11.221090
    7      -11.063681
    8      -10.824278
    9      -10.765100
   10      -10.601123
   11      -10.429537
   12      -10.363351
   13       -9.136695
   14       -9.095722
   15       -8.804330
   16       -8.351035
   17       -7.707257
   18       -7.433120
   19       -7.393137
   20       -7.359723
   21       -7.002722
   22       -6.734471
   23       -6.636283
   24       -6.298237
   25       -5.474111
   26       -5.178192
   27       -4.783112
   28       -4.598728
   29       -4.517066
   30       -4.472734
   31       -4.235018
   32       -4.188832
   33       -4.048633
   34       -3.871603
   35       -3.698243
   36       -3.626482
   37       -3.444829
   38       -3.241397
   39       -3.146919
   40       -3.098453
   41       -2.876458
   42       -2.741832
   43       -2.505687
   44       -2.406158
   45       -2.280115
   46       -2.162357
   47       -2.006179
   48       -1.870858
   49       -1.728670
   50       -1.555149
   51       -1.425129
   52       -1.372054
   53       -0.753730
   54       -0.437133
   55       -0.210999
   56        0.113327
   57        0.879214
   58        1.378663
   59        1.576774
   60        1.694849
   61        1.788158
   62        1.962873
   63        2.113327
   64        2.166712
   65        2.309727
   66        2.382203
   67        2.593387
   68        2.742983
 
  0.4615385E+00 -0.8326673E-16  0.0000000E+00  0.1923077E-01
    1      -13.234424
    2      -11.764796
    3      -11.481976
    4      -11.471892
    5      -11.121381
    6      -11.100202
    7      -10.928119
    8      -10.916649
    9      -10.816980
   10      -10.703343
   11      -10.608800
   12      -10.256825
   13       -9.379596
   14       -9.013597
   15       -8.662292
   16       -8.413889
   17       -8.053221
   18       -7.883091
   19       -7.584226
   20       -7.543759
   21       -7.260963
   22       -7.216131
   23       -7.153658
   24       -6.655373
   25       -5.315348
   26       -4.887865
   27       -4.738897
   28       -4.479283
   29       -4.455956
   30       -4.276215
   31       -4.208380
   32       -4.030890
   33       -3.984986
   34       -3.914919
   35       -3.803464
   36       -3.670215
   37       -3.543822
   38       -3.502917
   39       -3.229006
   40       -3.107881
   41       -2.988018
   42       -2.874922
   43       -2.692979
   44       -2.645926
   45       -2.334585
   46       -2.198116
   47       -2.108283
   48       -1.936707
   49       -1.769758
   50       -1.659106
   51       -1.501246
   52       -1.368162
   53       -0.781206
   54       -0.448749
   55       -0.267472
   56       -0.029128
   57        0.836171
   58        1.380682
   59        1.451602
   60        1.553719
   61        1.707679
   62        1.794400
   63        1.998951
   64        2.088178
   65        2.207641
   66        2.374408
   67        2.484135
   68        2.608083
 
  0.0000000E+00  0.2500000E+00  0.0000000E+00  0.1923077E-01
    1      -15.012152
    2      -13.462677
    3      -13.444245
    4      -12.949249
    5      -12.705441
    6      -12.454902
    7      -11.973992
    8      -11.843633
    9      -11.452874
   10      -11.276298
   11      -10.974660
   12       -9.970746
   13       -9.276186
   14       -8.489215
   15       -8.252568
   16       -7.351937
   17       -6.844171
   18       -6.645379
   19       -6.577564
   20       -5.818033
   21       -5.726627
   22       -5.573351
   23       -5.242709
   24       -4.746754
   25       -4.621262
   26       -4.164118
   27       -3.990798
   28       -3.590560
   29       -3.413940
   30       -3.272487
   31       -3.219696
   32       -3.101741
   33       -2.913631
   34       -2.684014
   35       -2.596229
   36       -2.521872
   37       -2.365986
   38       -2.354597
   39       -2.151376
   40       -2.098404
   41       -1.967934
   42       -1.891046
   43       -1.855186
   44       -1.714156
   45       -1.602918
   46       -1.540636
   47       -1.446937
   48       -1.337374
   49       -1.225353
   50       -1.097833
   51       -0.921725
   52       -0.661828
   53       -0.542487
   54       -0.014318
   55        0.537042
   56        0.728601
   57        1.053147
   58        1.205360
   59        1.250842
   60        1.405448
   61        1.559567
   62        1.699441
   63        1.815948
   64        1.841429
   65        2.136969
   66        2.277404
   67        2.361941
   68        2.553474
 
  0.7692308E-01  0.2500000E+00  0.0000000E+00  0.1923077E-01
    1      -14.951338
    2      -13.402361
    3      -13.379961
    4      -12.930145
    5      -12.620132
    6      -12.397981
    7      -11.963876
    8      -11.745166
    9      -11.411538
   10      -11.192633
   11      -10.930346
   12       -9.937273
   13       -9.291041
   14       -8.547770
   15       -8.234532
   16       -7.302928
   17       -6.869136
   18       -6.653613
   19       -6.505975
   20       -5.822698
   21       -5.701188
   22       -5.640499
   23       -5.502489
   24       -4.698126
   25       -4.658696
   26       -4.167233
   27       -4.044340
   28       -3.682087
   29       -3.593565
   30       -3.440330
   31       -3.392743
   32       -3.348312
   33       -3.033957
   34       -2.998543
   35       -2.929629
   36       -2.679452
   37       -2.486596
   38       -2.442368
   39       -2.324988
   40       -2.255283
   41       -2.134422
   42       -2.014991
   43       -1.987170
   44       -1.881816
   45       -1.808500
   46       -1.721070
   47       -1.532796
   48       -1.369830
   49       -1.165870
   50       -1.047044
   51       -0.850412
   52       -0.638219
   53       -0.512319
   54       -0.185154
   55        0.500355
   56        0.879972
   57        0.967012
   58        1.219922
   59        1.616358
   60        1.751672
   61        1.814173
   62        1.967928
   63        2.051444
   64        2.233287
   65        2.385918
   66        2.541878
   67        2.625137
   68        2.693083
 
  0.1538462E+00  0.2500000E+00  0.0000000E+00  0.1923077E-01
    1      -14.771647
    2      -13.238809
    3      -13.184923
    4      -12.793642
    5      -12.426544
    6      -12.231951
    7      -11.849083
    8      -11.547518
    9      -11.272108
   10      -11.018083
   11      -10.789135
   12       -9.869101
   13       -9.299462
   14       -8.613810
   15       -8.223255
   16       -7.276441
   17       -6.999741
   18       -6.631349
   19       -6.479115
   20       -6.453744
   21       -5.644529
   22       -5.601761
   23       -5.481417
   24       -4.822356
   25       -4.715323
   26       -4.427240
   27       -4.347631
   28       -4.295132
   29       -4.245862
   30       -3.942540
   31       -3.697626
   32       -3.591945
   33       -3.348503
   34       -3.322777
   35       -3.184748
   36       -3.009619
   37       -2.936470
   38       -2.782749
   39       -2.727313
   40       -2.587574
   41       -2.489417
   42       -2.301999
   43       -2.258030
   44       -2.026538
   45       -1.904028
   46       -1.858100
   47       -1.492482
   48       -1.420078
   49       -1.251379
   50       -1.113187
   51       -0.978104
   52       -0.774383
   53       -0.632093
   54        0.121954
   55        0.423065
   56        0.553617
   57        1.083758
   58        1.327267
   59        1.660840
   60        1.796827
   61        2.132528
   62        2.373168
   63        2.569103
   64        2.761605
   65        2.863690
   66        3.021321
   67        3.061128
   68        3.102308
 
  0.2307692E+00  0.2500000E+00  0.0000000E+00  0.1923077E-01
    1      -14.478664
    2      -12.967053
    3      -12.873852
    4      -12.542271
    5      -12.137107
    6      -11.964796
    7      -11.637767
    8      -11.270858
    9      -11.050329
   10      -10.773263
   11      -10.571924
   12       -9.886204
   13       -9.322279
   14       -8.745736
   15       -8.319140
   16       -7.437541
   17       -7.358381
   18       -6.838956
   19       -6.670485
   20       -6.618122
   21       -5.798897
   22       -5.705910
   23       -5.470974
   24       -5.185346
   25       -5.068773
   26       -5.010865
   27       -4.882801
   28       -4.737608
   29       -4.636144
   30       -4.524197
   31       -4.003910
   32       -3.952691
   33       -3.713268
   34       -3.676420
   35       -3.324479
   36       -3.183428
   37       -3.068230
   38       -3.050834
   39       -2.935097
   40       -2.674104
   41       -2.603451
   42       -2.509702
   43       -2.489032
   44       -2.236248
   45       -1.967934
   46       -1.870411
   47       -1.756520
   48       -1.549730
   49       -1.522123
   50       -1.363944
   51       -1.030917
   52       -0.919114
   53       -0.693580
   54       -0.192556
   55        0.310006
   56        0.475758
   57        1.018807
   58        1.429971
   59        1.588810
   60        1.732644
   61        1.923239
   62        2.245663
   63        2.424198
   64        2.567186
   65        2.612065
   66        2.751632
   67        3.059904
   68        3.179952
 
  0.3076923E+00  0.2500000E+00  0.0000000E+00  0.1923077E-01
    1      -14.085799
    2      -12.598304
    3      -12.457225
    4      -12.183224
    5      -11.779344
    6      -11.614357
    7      -11.357292
    8      -10.957072
    9      -10.786607
   10      -10.508664
   11      -10.366971
   12      -10.246577
   13       -9.252695
   14       -8.944913
   15       -8.664890
   16       -7.681395
   17       -7.602618
   18       -7.243861
   19       -7.086767
   20       -6.935524
   21       -6.167985
   22       -6.153107
   23       -5.898503
   24       -5.852467
   25       -5.530274
   26       -5.355078
   27       -4.960637
   28       -4.912357
   29       -4.718456
   30       -4.398415
   31       -4.306630
   32       -4.022003
   33       -3.983631
   34       -3.690531
   35       -3.435075
   36       -3.315129
   37       -3.192670
   38       -3.029712
   39       -2.973277
   40       -2.902748
   41       -2.826098
   42       -2.670193
   43       -2.488528
   44       -2.413697
   45       -2.295577
   46       -1.955241
   47       -1.863545
   48       -1.727748
   49       -1.663369
   50       -1.530639
   51       -1.285270
   52       -1.133960
   53       -0.628589
   54       -0.568705
   55        0.017300
   56        0.308320
   57        0.933792
   58        1.244431
   59        1.286416
   60        1.621293
   61        1.974328
   62        2.142844
   63        2.262008
   64        2.369028
   65        2.482472
   66        2.564094
   67        2.647774
   68        2.929275
 
  0.3846154E+00  0.2500000E+00  0.0000000E+00  0.1923077E-01
    1      -13.629185
    2      -12.162857
    3      -11.953745
    4      -11.733208
    5      -11.427487
    6      -11.221495
    7      -11.115874
    8      -10.798490
    9      -10.698805
   10      -10.575387
   11      -10.442170
   12      -10.321756
   13       -9.134285
   14       -9.082079
   15       -8.934746
   16       -8.085656
   17       -7.753858
   18       -7.732273
   19       -7.465330
   20       -7.330896
   21       -6.763511
   22       -6.669347
   23       -6.634031
   24       -6.494602
   25       -5.516639
   26       -5.313794
   27       -4.775952
   28       -4.716883
   29       -4.508751
   30       -4.405765
   31       -4.160349
   32       -4.076169
   33       -3.837938
   34       -3.778277
   35       -3.663803
   36       -3.483449
   37       -3.326468
   38       -3.253869
   39       -3.159056
   40       -3.098356
   41       -2.904235
   42       -2.741253
   43       -2.620712
   44       -2.546804
   45       -2.304742
   46       -2.187875
   47       -2.045049
   48       -1.853554
   49       -1.697491
   50       -1.543562
   51       -1.445398
   52       -1.430609
   53       -0.824356
   54       -0.539045
   55       -0.139805
   56        0.104521
   57        0.824760
   58        1.217611
   59        1.341279
   60        1.514181
   61        1.788502
   62        1.856134
   63        2.007931
   64        2.197863
   65        2.364870
   66        2.527214
   67        2.599066
   68        2.680922
 
  0.4615385E+00  0.2500000E+00  0.0000000E+00  0.1923077E-01
    1      -13.233681
    2      -11.769011
    3      -11.484813
    4      -11.403616
    5      -11.238069
    6      -11.102950
    7      -10.932420
    8      -10.906142
    9      -10.836885
   10      -10.674107
   11      -10.554359
   12      -10.261500
   13       -9.387323
   14       -9.008632
   15       -8.528791
   16       -8.373978
   17       -8.302211
   18       -7.882156
   19       -7.557702
   20       -7.489234
   21       -7.289753
   22       -7.218096
   23       -7.113363
   24       -6.709662
   25       -5.321296
   26       -4.992185
   27       -4.712628
   28       -4.447805
   29       -4.410494
   30       -4.288207
   31       -4.144262
   32       -4.098174
   33       -3.986601
   34       -3.903798
   35       -3.762980
   36       -3.634945
   37       -3.467028
   38       -3.423615
   39       -3.235266
   40       -3.150733
   41       -2.968236
   42       -2.849308
   43       -2.661891
   44       -2.613460
   45       -2.573767
   46       -2.178846
   47       -2.097902
   48       -1.910989
   49       -1.762579
   50       -1.657296
   51       -1.524562
   52       -1.375599
   53       -0.790872
   54       -0.568581
   55       -0.195124
   56       -0.013121
   57        0.763841
   58        1.440740
   59        1.455954
   60        1.513310
   61        1.582289
   62        1.791518
   63        1.869128
   64        2.054434
   65        2.326098
   66        2.467794
   67        2.493164
   68        2.571179
 
 -0.4615385E+00  0.2500000E+00  0.0000000E+00  0.1923077E-01
    1      -13.235082
    2      -11.767142
    3      -11.509099
    4      -11.457549
    5      -11.115561
    6      -11.044959
    7      -10.933875
    8      -10.904461
    9      -10.782272
   10      -10.730160
   11      -10.677361
   12      -10.255581
   13       -9.372701
   14       -9.022859
   15       -8.730826
   16       -8.407707
   17       -7.918281
   18       -7.880326
   19       -7.578586
   20       -7.558532
   21       -7.256826
   22       -7.254287
   23       -7.191663
   24       -6.625632
   25       -5.278899
   26       -4.755798
   27       -4.676214
   28       -4.555080
   29       -4.523754
   30       -4.337823
   31       -4.257007
   32       -4.020213
   33       -3.976152
   34       -3.958211
   35       -3.856851
   36       -3.669612
   37       -3.608319
   38       -3.514149
   39       -3.325813
   40       -3.103286
   41       -2.856240
   42       -2.765016
   43       -2.706566
   44       -2.640235
   45       -2.356966
   46       -2.166260
   47       -2.142259
   48       -1.967961
   49       -1.779448
   50       -1.645203
   51       -1.479549
   52       -1.319050
   53       -0.696179
   54       -0.484943
   55       -0.274580
   56       -0.050920
   57        0.811751
   58        1.356696
   59        1.468416
   60        1.702347
   61        1.744108
   62        1.884436
   63        2.049079
   64        2.163069
   65        2.229210
   66        2.373233
   67        2.408853
   68        2.561240
 
 -0.3846154E+00  0.2500000E+00  0.0000000E+00  0.1923077E-01
    1      -13.632309
    2      -12.122500
    3      -12.074659
    4      -11.532099
    5      -11.459183
    6      -11.218445
    7      -11.049073
    8      -10.904140
    9      -10.758529
   10      -10.603982
   11      -10.425089
   12      -10.375527
   13       -9.147507
   14       -9.091527
   15       -8.716099
   16       -8.464834
   17       -7.713141
   18       -7.415027
   19       -7.305366
   20       -7.252768
   21       -7.115248
   22       -6.783715
   23       -6.640561
   24       -6.256439
   25       -5.432625
   26       -5.015034
   27       -4.859903
   28       -4.804493
   29       -4.436666
   30       -4.377298
   31       -4.257619
   32       -4.195353
   33       -4.070979
   34       -3.967617
   35       -3.748064
   36       -3.689388
   37       -3.408412
   38       -3.369355
   39       -3.166870
   40       -3.106872
   41       -2.858589
   42       -2.681815
   43       -2.508483
   44       -2.400842
   45       -2.248540
   46       -2.164160
   47       -1.926104
   48       -1.868648
   49       -1.736807
   50       -1.564765
   51       -1.387538
   52       -1.323524
   53       -0.685538
   54       -0.446283
   55       -0.210123
   56        0.094934
   57        0.857572
   58        1.335549
   59        1.631204
   60        1.778760
   61        1.919548
   62        2.086474
   63        2.171035
   64        2.256254
   65        2.325872
   66        2.447848
   67        2.491201
   68        2.661760
 
 -0.3076923E+00  0.2500000E+00  0.0000000E+00  0.1923077E-01
    1      -14.089298
    2      -12.571604
    3      -12.543161
    4      -11.938605
    5      -11.920555
    6      -11.617090
    7      -11.219364
    8      -11.113943
    9      -10.748745
   10      -10.727365
   11      -10.395886
   12      -10.185494
   13       -9.225975
   14       -8.687093
   15       -8.528106
   16       -8.160761
   17       -7.635141
   18       -7.011163
   19       -6.974124
   20       -6.843740
   21       -6.479955
   22       -6.130523
   23       -5.947563
   24       -5.631642
   25       -5.442714
   26       -5.150572
   27       -5.103713
   28       -4.853897
   29       -4.618928
   30       -4.572604
   31       -4.288188
   32       -4.214239
   33       -4.121759
   34       -3.899352
   35       -3.487804
   36       -3.429830
   37       -3.225797
   38       -3.088585
   39       -3.034509
   40       -2.902509
   41       -2.772492
   42       -2.647530
   43       -2.565069
   44       -2.348618
   45       -2.008726
   46       -1.898827
   47       -1.839048
   48       -1.696388
   49       -1.627666
   50       -1.415091
   51       -1.270593
   52       -1.168905
   53       -0.627474
   54       -0.526624
   55        0.007279
   56        0.381622
   57        0.906817
   58        1.490809
   59        1.727967
   60        1.960186
   61        2.021025
   62        2.132748
   63        2.279129
   64        2.387331
   65        2.440196
   66        2.659944
   67        2.723780
   68        2.800551
 
 -0.2307692E+00  0.2500000E+00  0.0000000E+00  0.1923077E-01
    1      -14.481761
    2      -12.966121
    3      -12.916374
    4      -12.326376
    5      -12.283779
    6      -11.969300
    7      -11.514555
    8      -11.401061
    9      -11.004316
   10      -10.960342
   11      -10.574272
   12       -9.887140
   13       -9.241253
   14       -8.375852
   15       -8.317615
   16       -7.755658
   17       -7.484473
   18       -6.692639
   19       -6.657083
   20       -6.610008
   21       -5.859020
   22       -5.715294
   23       -5.390205
   24       -5.307787
   25       -5.136098
   26       -4.965458
   27       -4.797611
   28       -4.673482
   29       -4.569488
   30       -4.484016
   31       -4.158013
   32       -4.058702
   33       -3.756339
   34       -3.694721
   35       -3.427442
   36       -3.340624
   37       -3.088929
   38       -2.967977
   39       -2.861425
   40       -2.632031
   41       -2.568453
   42       -2.492097
   43       -2.405852
   44       -2.323751
   45       -1.872367
   46       -1.808701
   47       -1.723814
   48       -1.551850
   49       -1.454849
   50       -1.420611
   51       -1.038176
   52       -0.911324
   53       -0.596460
   54       -0.251684
   55        0.234130
   56        0.530360
   57        1.029078
   58        1.604811
   59        1.881699
   60        2.028484
   61        2.112763
   62        2.201171
   63        2.335464
   64        2.449343
   65        2.738397
   66        2.799613
   67        2.944740
   68        3.000732
 
 -0.1538462E+00  0.2500000E+00  0.0000000E+00  0.1923077E-01
    1      -14.773924
    2      -13.249945
    3      -13.200143
    4      -12.641307
    5      -12.535151
    6      -12.235938
    7      -11.734910
    8      -11.668559
    9      -11.236444
   10      -11.152553
   11      -10.776721
   12       -9.887170
   13       -9.208186
   14       -8.352173
   15       -8.243226
   16       -7.509418
   17       -6.967745
   18       -6.645744
   19       -6.527892
   20       -6.460690
   21       -5.681568
   22       -5.640173
   23       -5.447065
   24       -4.833466
   25       -4.813853
   26       -4.457905
   27       -4.360241
   28       -4.251980
   29       -4.132290
   30       -3.908078
   31       -3.706488
   32       -3.649168
   33       -3.383826
   34       -3.271006
   35       -3.128154
   36       -3.057371
   37       -2.923319
   38       -2.875131
   39       -2.724939
   40       -2.497608
   41       -2.414548
   42       -2.308086
   43       -2.150656
   44       -1.958800
   45       -1.890119
   46       -1.752300
   47       -1.601009
   48       -1.572523
   49       -1.283283
   50       -1.155823
   51       -0.936010
   52       -0.719062
   53       -0.552426
   54        0.015976
   55        0.383297
   56        0.588292
   57        1.089937
   58        1.442095
   59        1.726256
   60        1.857930
   61        2.218461
   62        2.391856
   63        2.497730
   64        2.701675
   65        2.802860
   66        2.927446
   67        3.005303
   68        3.145736
 
 -0.7692308E-01  0.2500000E+00  0.0000000E+00  0.1923077E-01
    1      -14.952535
    2      -13.416091
    3      -13.378993
    4      -12.851686
    5      -12.677261