       N       E                     dE             d eps       ncg     rms          rms(c)
DAV:   1     0.507073426472E+03    0.50707E+03   -0.28771E+04  7376   0.790E+02
DAV:   2    -0.595448577655E+02   -0.56662E+03   -0.55123E+03  9764   0.191E+02
DAV:   3    -0.116455168632E+03   -0.56910E+02   -0.56048E+02  8740   0.627E+01
DAV:   4    -0.119066789458E+03   -0.26116E+01   -0.25919E+01 11016   0.144E+01
DAV:   5    -0.119130871916E+03   -0.64082E-01   -0.63985E-01 10080   0.218E+00    0.117E+01
DAV:   6    -0.115286667523E+03    0.38442E+01   -0.18098E+01  8828   0.106E+01    0.624E+00
DAV:   7    -0.115004152379E+03    0.28252E+00   -0.82249E+00  8952   0.743E+00    0.332E+00
DAV:   8    -0.114990590613E+03    0.13562E-01   -0.21550E+00  8816   0.396E+00    0.139E+00
DAV:   9    -0.115014007435E+03   -0.23417E-01   -0.34502E-01  9008   0.163E+00    0.756E-01
DAV:  10    -0.115000122515E+03    0.13885E-01   -0.12695E-01  9240   0.888E-01    0.454E-01
DAV:  11    -0.114988414821E+03    0.11708E-01   -0.43650E-02  8920   0.568E-01    0.134E-01
DAV:  12    -0.114982911048E+03    0.55038E-02   -0.82571E-03  8596   0.273E-01    0.677E-02
DAV:  13    -0.114978228195E+03    0.46829E-02   -0.12469E-03  9488   0.104E-01    0.352E-02
DAV:  14    -0.114975123002E+03    0.31052E-02   -0.32807E-04  9172   0.576E-02    0.173E-02
DAV:  15    -0.114973294086E+03    0.18289E-02   -0.11227E-04  9264   0.301E-02    0.107E-02
DAV:  16    -0.114972896956E+03    0.39713E-03   -0.38105E-05  8536   0.179E-02    0.645E-03
DAV:  17    -0.114973299949E+03   -0.40299E-03   -0.10514E-04  8128   0.222E-02    0.389E-03
DAV:  18    -0.114973750414E+03   -0.45047E-03   -0.13465E-04  8176   0.208E-02    0.217E-03
DAV:  19    -0.114973833977E+03   -0.83563E-04   -0.42039E-05  7456   0.122E-02    0.125E-03
DAV:  20    -0.114973899552E+03   -0.65575E-04   -0.13874E-05  6528   0.899E-03    0.858E-04
DAV:  21    -0.114973900658E+03   -0.11055E-05   -0.11446E-05  6864   0.747E-03    0.581E-04
DAV:  22    -0.114973858475E+03    0.42183E-04   -0.13816E-05  7088   0.818E-03    0.354E-04
DAV:  23    -0.114973810854E+03    0.47621E-04   -0.62530E-06  6096   0.739E-03    0.201E-04
DAV:  24    -0.114973764800E+03    0.46053E-04   -0.55581E-06  6720   0.670E-03    0.964E-05
DAV:  25    -0.114973755138E+03    0.96619E-05   -0.53469E-06  6296   0.747E-03    0.537E-05
DAV:  26    -0.114973748146E+03    0.69922E-05   -0.31264E-06  6568   0.638E-03    0.257E-05
DAV:  27    -0.114973751755E+03   -0.36083E-05   -0.24848E-06  6336   0.567E-03    0.147E-05
DAV:  28    -0.114973752610E+03   -0.85587E-06   -0.18044E-06  5436   0.514E-03
   1 F= -.11497375E+03 E0= -.11496041E+03  d E =-.266924E-01
