<?xml version="1.0" encoding="ISO-8859-1"?>
<modeling>
 <generator>
  <i name="program" type="string">vasp </i>
  <i name="version" type="string">5.3.5  </i>
  <i name="subversion" type="string">31Mar14 (build Oct 29 2014 16:16:03) complex                          parallel </i>
  <i name="platform" type="string">Linux-UFHPC </i>
  <i name="date" type="string">2016 02 09 </i>
  <i name="time" type="string">17:30:14 </i>
 </generator>
 <incar>
  <i type="string" name="PREC">accurate</i>
  <i type="int" name="IBRION">     2</i>
  <i name="EDIFF">      0.00000100</i>
  <i type="int" name="NSW">     0</i>
  <i type="int" name="ISIF">     3</i>
  <i name="ENCUT">    300.00000000</i>
  <i type="string" name="LREAL"> Auto</i>
  <i type="int" name="ISMEAR">     0</i>
  <i name="SIGMA">      0.10000000</i>
  <i type="logical" name="LWAVE"> F  </i>
  <i type="logical" name="LCHARG"> F  </i>
  <i type="logical" name="LAECHG"> F  </i>
  <i type="string" name="GGA"> Bo</i>
  <i name="PARAM1">      0.18333333</i>
  <i name="PARAM2">      0.22000000</i>
  <i type="logical" name="LUSE_VDW"> T  </i>
  <i name="AGGAC">      0.00000000</i>
 </incar>
 <kpoints>
  <generation param="Gamma">
   <v type="int" name="divisions">      13        4        2 </v>
   <v name="usershift">      0.00000000       0.00000000       0.00000000 </v>
   <v name="genvec1">      0.07692308      -0.00000000       0.00000000 </v>
   <v name="genvec2">      0.00000000       0.25000000       0.00000000 </v>
   <v name="genvec3">      0.00000000       0.00000000       0.50000000 </v>
   <v name="shift">      0.00000000       0.00000000       0.00000000 </v>
  </generation>
  <varray name="kpointlist" >
   <v>       0.00000000       0.00000000       0.00000000 </v>
   <v>       0.07692308      -0.00000000       0.00000000 </v>
   <v>       0.15384615      -0.00000000       0.00000000 </v>
   <v>       0.23076923      -0.00000000       0.00000000 </v>
   <v>       0.30769231      -0.00000000       0.00000000 </v>
   <v>       0.38461538      -0.00000000       0.00000000 </v>
   <v>       0.46153846      -0.00000000       0.00000000 </v>
   <v>       0.00000000       0.25000000       0.00000000 </v>
   <v>       0.07692308       0.25000000       0.00000000 </v>
   <v>       0.15384615       0.25000000       0.00000000 </v>
   <v>       0.23076923       0.25000000       0.00000000 </v>
   <v>       0.30769231       0.25000000       0.00000000 </v>
   <v>       0.38461538       0.25000000       0.00000000 </v>
   <v>       0.46153846       0.25000000       0.00000000 </v>
   <v>      -0.46153846       0.25000000       0.00000000 </v>
   <v>      -0.38461538       0.25000000       0.00000000 </v>
   <v>      -0.30769231       0.25000000       0.00000000 </v>
   <v>      -0.23076923       0.25000000       0.00000000 </v>
   <v>      -0.15384615       0.25000000       0.00000000 </v>
   <v>      -0.07692308       0.25000000       0.00000000 </v>
   <v>       0.00000000       0.50000000       0.00000000 </v>
   <v>       0.07692308       0.50000000       0.00000000 </v>
   <v>       0.15384615       0.50000000       0.00000000 </v>
   <v>       0.23076923       0.50000000       0.00000000 </v>
   <v>       0.30769231       0.50000000       0.00000000 </v>
   <v>       0.38461538       0.50000000       0.00000000 </v>
   <v>       0.46153846       0.50000000       0.00000000 </v>
   <v>       0.00000000       0.00000000       0.50000000 </v>
   <v>       0.07692308      -0.00000000       0.50000000 </v>
   <v>       0.15384615      -0.00000000       0.50000000 </v>
   <v>       0.23076923      -0.00000000       0.50000000 </v>
   <v>       0.30769231      -0.00000000       0.50000000 </v>
   <v>       0.38461538      -0.00000000       0.50000000 </v>
   <v>       0.46153846      -0.00000000       0.50000000 </v>
   <v>       0.00000000       0.25000000       0.50000000 </v>
   <v>       0.07692308       0.25000000       0.50000000 </v>
   <v>       0.15384615       0.25000000       0.50000000 </v>
   <v>       0.23076923       0.25000000       0.50000000 </v>
   <v>       0.30769231       0.25000000       0.50000000 </v>
   <v>       0.38461538       0.25000000       0.50000000 </v>
   <v>       0.46153846       0.25000000       0.50000000 </v>
   <v>      -0.46153846       0.25000000       0.50000000 </v>
   <v>      -0.38461538       0.25000000       0.50000000 </v>
   <v>      -0.30769231       0.25000000       0.50000000 </v>
   <v>      -0.23076923       0.25000000       0.50000000 </v>
   <v>      -0.15384615       0.25000000       0.50000000 </v>
   <v>      -0.07692308       0.25000000       0.50000000 </v>
   <v>       0.00000000       0.50000000       0.50000000 </v>
   <v>       0.07692308       0.50000000       0.50000000 </v>
   <v>       0.15384615       0.50000000       0.50000000 </v>
   <v>       0.23076923       0.50000000       0.50000000 </v>
   <v>       0.30769231       0.50000000       0.50000000 </v>
   <v>       0.38461538       0.50000000       0.50000000 </v>
   <v>       0.46153846       0.50000000       0.50000000 </v>
  </varray>
  <varray name="weights" >
   <v>       0.00961538 </v>
   <v>       0.01923077 </v>
   <v>       0.01923077 </v>
   <v>       0.01923077 </v>
   <v>       0.01923077 </v>
   <v>       0.01923077 </v>
   <v>       0.01923077 </v>
   <v>       0.01923077 </v>
   <v>       0.01923077 </v>
   <v>       0.01923077 </v>
   <v>       0.01923077 </v>
   <v>       0.01923077 </v>
   <v>       0.01923077 </v>
   <v>       0.01923077 </v>
   <v>       0.01923077 </v>
   <v>       0.01923077 </v>
   <v>       0.01923077 </v>
   <v>       0.01923077 </v>
   <v>       0.01923077 </v>
   <v>       0.01923077 </v>
   <v>       0.00961538 </v>
   <v>       0.01923077 </v>
   <v>       0.01923077 </v>
   <v>       0.01923077 </v>
   <v>       0.01923077 </v>
   <v>       0.01923077 </v>
   <v>       0.01923077 </v>
   <v>       0.00961538 </v>
   <v>       0.01923077 </v>
   <v>       0.01923077 </v>
   <v>       0.01923077 </v>
   <v>       0.01923077 </v>
   <v>       0.01923077 </v>
   <v>       0.01923077 </v>
   <v>       0.01923077 </v>
   <v>       0.01923077 </v>
   <v>       0.01923077 </v>
   <v>       0.01923077 </v>
   <v>       0.01923077 </v>
   <v>       0.01923077 </v>
   <v>       0.01923077 </v>
   <v>       0.01923077 </v>
   <v>       0.01923077 </v>
   <v>       0.01923077 </v>
   <v>       0.01923077 </v>
   <v>       0.01923077 </v>
   <v>       0.01923077 </v>
   <v>       0.00961538 </v>
   <v>       0.01923077 </v>
   <v>       0.01923077 </v>
   <v>       0.01923077 </v>
   <v>       0.01923077 </v>
   <v>       0.01923077 </v>
   <v>       0.01923077 </v>
  </varray>
 </kpoints>
 <parameters>
  <separator name="general" >
   <i type="string" name="SYSTEM">unknown system</i>
   <i type="logical" name="LCOMPAT"> F  </i>
  </separator>
  <separator name="electronic" >
   <i type="string" name="PREC">accura</i>
   <i name="ENMAX">    300.00000000</i>
   <i name="ENAUG">    342.92400000</i>
   <i name="EDIFF">      0.00000100</i>
   <i type="int" name="IALGO">    38</i>
   <i type="int" name="IWAVPR">    10</i>
   <i type="int" name="NBANDS">    68</i>
   <i name="NELECT">    108.00000000</i>
   <i type="int" name="TURBO">     0</i>
   <i type="int" name="IRESTART">     0</i>
   <i type="int" name="NREBOOT">     0</i>
   <i type="int" name="NMIN">     0</i>
   <i name="EREF">      0.00000000</i>
   <separator name="electronic smearing" >
    <i type="int" name="ISMEAR">     0</i>
    <i name="SIGMA">      0.10000000</i>
    <i name="KSPACING">      0.50000000</i>
    <i type="logical" name="KGAMMA"> T  </i>
   </separator>
   <separator name="electronic projectors" >
    <i type="logical" name="LREAL"> T  </i>
    <v name="ROPT">     -0.00025000     -0.00025000</v>
    <i type="int" name="LMAXPAW">  -100</i>
    <i type="int" name="LMAXMIX">     2</i>
    <i type="logical" name="NLSPLINE"> F  </i>
   </separator>
   <separator name="electronic startup" >
    <i type="int" name="ISTART">     0</i>
    <i type="int" name="ICHARG">     2</i>
    <i type="int" name="INIWAV">     1</i>
   </separator>
   <separator name="electronic spin" >
    <i type="int" name="ISPIN">     1</i>
    <i type="logical" name="LNONCOLLINEAR"> F  </i>
    <v name="MAGMOM">      1.00000000      1.00000000      1.00000000      1.00000000      1.00000000      1.00000000      1.00000000      1.00000000      1.00000000      1.00000000      1.00000000      1.00000000      1.00000000      1.00000000      1.00000000      1.00000000      1.00000000      1.00000000      1.00000000      1.00000000
      1.00000000      1.00000000      1.00000000      1.00000000</v>
    <i name="NUPDOWN">     -1.00000000</i>
    <i type="logical" name="LSORBIT"> F  </i>
    <v name="SAXIS">      0.00000000      0.00000000      1.00000000</v>
    <i type="logical" name="LSPIRAL"> F  </i>
    <v name="QSPIRAL">      0.00000000      0.00000000      0.00000000</v>
    <i type="logical" name="LZEROZ"> F  </i>
   </separator>
   <separator name="electronic exchange-correlation" >
    <i type="logical" name="LASPH"> F  </i>
    <i type="logical" name="LMETAGGA"> F  </i>
   </separator>
   <separator name="electronic convergence" >
    <i type="int" name="NELM">    60</i>
    <i type="int" name="NELMDL">    -5</i>
    <i type="int" name="NELMIN">     2</i>
    <i name="ENINI">    300.00000000</i>
    <separator name="electronic convergence detail" >
     <i type="logical" name="LDIAG"> T  </i>
     <i type="logical" name="LSUBROT"> F  </i>
     <i name="WEIMIN">      0.00000000</i>
     <i name="EBREAK">      0.00000000</i>
     <i name="DEPER">      0.30000000</i>
     <i type="int" name="NRMM">     4</i>
     <i name="TIME">      0.40000000</i>
    </separator>
   </separator>
   <separator name="electronic mixer" >
    <i name="AMIX">      0.40000000</i>
    <i name="BMIX">      1.00000000</i>
    <i name="AMIN">      0.10000000</i>
    <i name="AMIX_MAG">      1.60000000</i>
    <i name="BMIX_MAG">      1.00000000</i>
    <separator name="electronic mixer details" >
     <i type="int" name="IMIX">     4</i>
     <i type="int" name="MAXMIX">   -45</i>
     <i name="WC">    100.00000000</i>
     <i type="int" name="INIMIX">     1</i>
     <i type="int" name="MIXPRE">     1</i>
     <i type="int" name="MREMOVE">     5</i>
    </separator>
   </separator>
   <separator name="electronic dipolcorrection" >
    <i type="logical" name="LDIPOL"> F  </i>
    <i type="logical" name="LMONO"> F  </i>
    <i type="int" name="IDIPOL">     0</i>
    <i name="EPSILON">      1.00000000</i>
    <v name="DIPOL">   -100.00000000   -100.00000000   -100.00000000</v>
    <i name="EFIELD">      0.00000000</i>
   </separator>
  </separator>
  <separator name="grids" >
   <i type="int" name="NGX">    20</i>
   <i type="int" name="NGY">    60</i>
   <i type="int" name="NGZ">   160</i>
   <i type="int" name="NGXF">    40</i>
   <i type="int" name="NGYF">   120</i>
   <i type="int" name="NGZF">   320</i>
   <i type="logical" name="ADDGRID"> F  </i>
  </separator>
  <separator name="ionic" >
   <i type="int" name="NSW">     0</i>
   <i type="int" name="IBRION">    -1</i>
   <i type="int" name="ISIF">     3</i>
   <i name="PSTRESS">      0.00000000</i>
   <i name="EDIFFG">      0.00001000</i>
   <i type="int" name="NFREE">     1</i>
   <i name="POTIM">      0.50000000</i>
   <i name="SMASS">     -3.00000000</i>
   <i name="SCALEE">      1.00000000</i>
  </separator>
  <separator name="ionic md" >
   <i name="TEBEG">      0.00010000</i>
   <i name="TEEND">      0.00010000</i>
   <i type="int" name="NBLOCK">     1</i>
   <i type="int" name="KBLOCK">     1</i>
   <i type="int" name="NPACO">   256</i>
   <i name="APACO">     16.00000000</i>
  </separator>
  <separator name="symmetry" >
   <i type="int" name="ISYM">     2</i>
   <i name="SYMPREC">      0.00001000</i>
  </separator>
  <separator name="dos" >
   <i type="logical" name="LORBIT"> F  </i>
   <v name="RWIGS">     -1.00000000     -1.00000000</v>
   <i type="int" name="NEDOS">   301</i>
   <i name="EMIN">     10.00000000</i>
   <i name="EMAX">    -10.00000000</i>
   <i name="EFERMI">      0.00000000</i>
  </separator>
  <separator name="writing" >
   <i type="int" name="NWRITE">     2</i>
   <i type="logical" name="LWAVE"> F  </i>
   <i type="logical" name="LCHARG"> F  </i>
   <i type="logical" name="LPARD"> F  </i>
   <i type="logical" name="LVTOT"> F  </i>
   <i type="logical" name="LVHAR"> F  </i>
   <i type="logical" name="LELF"> F  </i>
   <i type="logical" name="LOPTICS"> F  </i>
   <v name="STM">      0.00000000      0.00000000      0.00000000      0.00000000      0.00000000      0.00000000      0.00000000</v>
  </separator>
  <separator name="performance" >
   <i type="int" name="NPAR">     4</i>
   <i type="int" name="NSIM">     4</i>
   <i type="int" name="NBLK">    -1</i>
   <i type="logical" name="LPLANE"> T  </i>
   <i type="logical" name="LSCALAPACK"> T  </i>
   <i type="logical" name="LSCAAWARE"> F  </i>
   <i type="logical" name="LSCALU"> F  </i>
   <i type="logical" name="LASYNC"> F  </i>
   <i type="logical" name="LORBITALREAL"> F  </i>
  </separator>
  <separator name="miscellaneous" >
   <i type="int" name="IDIOT">     3</i>
   <i type="logical" name="LMUSIC"> F  </i>
   <v name="POMASS">     30.97400000     28.08500000</v>
   <v name="DARWINR">      0.00000000      0.00000000</v>
   <v name="DARWINV">      1.00000000      1.00000000</v>
   <i type="logical" name="LCORR"> T  </i>
  </separator>
  <i type="logical" name="GGA_COMPAT"> T  </i>
  <i type="logical" name="LBERRY"> F  </i>
  <i type="int" name="ICORELEVEL">     0</i>
  <i type="logical" name="LDAU"> F  </i>
  <i type="int" name="I_CONSTRAINED_M">     0</i>
  <separator name="electronic exchange-correlation" >
   <i type="string" name="GGA">BO</i>
   <i type="int" name="VOSKOWN">     0</i>
   <i type="logical" name="LHFCALC"> F  </i>
   <i type="string" name="PRECFOCK"></i>
   <i type="logical" name="LSYMGRAD"> F  </i>
   <i type="logical" name="LHFONE"> F  </i>
   <i type="logical" name="LRHFCALC"> F  </i>
   <i type="logical" name="LTHOMAS"> F  </i>
   <i type="logical" name="LMODELHF"> F  </i>
   <i name="ENCUT4O">     -1.00000000</i>
   <i type="int" name="EXXOEP">     0</i>
   <i type="int" name="FOURORBIT">     0</i>
   <i name="AEXX">      0.00000000</i>
   <i name="HFALPHA">      0.00000000</i>
   <i name="MCALPHA">      0.00000000</i>
   <i name="ALDAX">      1.00000000</i>
   <i name="AGGAX">      1.00000000</i>
   <i name="ALDAC">      1.00000000</i>
   <i name="AGGAC">      0.00000000</i>
   <i type="int" name="NKREDX">     1</i>
   <i type="int" name="NKREDY">     1</i>
   <i type="int" name="NKREDZ">     1</i>
   <i type="logical" name="SHIFTRED"> F  </i>
   <i type="logical" name="ODDONLY"> F  </i>
   <i type="logical" name="EVENONLY"> F  </i>
   <i type="int" name="LMAXFOCK">     0</i>
   <i type="int" name="NMAXFOCKAE">     0</i>
   <i type="logical" name="LFOCKAEDFT"> F  </i>
   <i name="HFSCREEN">      0.00000000</i>
   <i name="HFSCREENC">      0.00000000</i>
   <i type="int" name="NBANDSGWLOW">     0</i>
  </separator>
  <separator name="vdW DFT" >
   <i type="logical" name="LUSE_VDW"> T  </i>
   <i name="Zab_VDW">     -0.84910000</i>
   <i name="PARAM1">      0.18333333</i>
   <i name="PARAM2">      0.22000000</i>
   <i name="PARAM3">      0.00000000</i>
  </separator>
  <separator name="model GW" >
   <i type="int" name="MODEL_GW">     0</i>
   <i name="MODEL_EPS0">     25.05800243</i>
   <i name="MODEL_ALPHA">      1.00000000</i>
  </separator>
  <separator name="linear response parameters" >
   <i type="logical" name="LEPSILON"> F  </i>
   <i type="logical" name="LRPA"> F  </i>
   <i type="logical" name="LNABLA"> F  </i>
   <i type="logical" name="LVEL"> F  </i>
   <i type="int" name="KINTER">     0</i>
   <i name="CSHIFT">      0.10000000</i>
   <i name="OMEGAMAX">     -1.00000000</i>
   <i name="DEG_THRESHOLD">      0.00200000</i>
  </separator>
  <separator name="orbital magnetization" >
   <i type="logical" name="NUCIND"> F  </i>
   <v name="MAGPOS">      0.00000000      0.00000000      0.00000000</v>
   <i type="logical" name="LNICSALL"> T  </i>
   <i type="logical" name="ORBITALMAG"> F  </i>
   <i type="logical" name="LMAGBLOCH"> F  </i>
   <i type="logical" name="LCHIMAG"> F  </i>
   <i type="logical" name="LGAUGE"> T  </i>
   <i type="int" name="MAGATOM">     0</i>
   <v name="MAGDIPOL">      0.00000000      0.00000000      0.00000000</v>
   <v name="AVECCONST">      0.00000000      0.00000000      0.00000000</v>
  </separator>
  <separator name="response functions" >
   <i type="logical" name="LADDER"> F  </i>
   <i type="logical" name="LFXC"> F  </i>
   <i type="logical" name="LHARTREE"> T  </i>
   <i type="int" name="IBSE">     0</i>
   <i type="logical" name="LTCTE"> F  </i>
   <i type="logical" name="LTETE"> F  </i>
   <i type="logical" name="LTRIPLET"> F  </i>
   <i type="logical" name="LFXCEPS"> F  </i>
   <i type="logical" name="LFXHEG"> F  </i>
   <i type="logical" name="L2ORDER"> F  </i>
   <i type="logical" name="LUSEW"> F  </i>
   <i name="ENCUTGW">     -2.00000000</i>
   <i name="ENCUTGWSOFT">     -2.00000000</i>
   <i name="ENCUTLF">     -1.00000000</i>
   <i type="int" name="LMAXMP2">    -1</i>
   <i name="SCISSOR">      0.00000000</i>
   <i type="int" name="NOMEGA">     0</i>
   <i type="int" name="NOMEGAR">     0</i>
   <i type="int" name="NBANDSGW">    -1</i>
   <i type="int" name="NBANDSO">    -1</i>
   <i type="int" name="NBANDSV">    -1</i>
   <i type="int" name="NELM">     1</i>
   <i type="int" name="DIM">     3</i>
   <i type="int" name="ANTIRES">     0</i>
   <i name="OMEGAMAX">    -30.00000000</i>
   <i name="OMEGAMIN">    -30.00000000</i>
   <i name="OMEGATL">   -200.00000000</i>
   <i type="int" name="OMEGAGRID">     0</i>
   <i name="CSHIFT">     -0.10000000</i>
   <i type="logical" name="SELFENERGY"> F  </i>
   <i type="logical" name="LSPECTRAL"> F  </i>
   <i type="logical" name="ODDONLYGW"> F  </i>
   <i type="logical" name="EVENONLYGW"> F  </i>
   <i type="int" name="NKREDLFX">     1</i>
   <i type="int" name="NKREDLFY">     1</i>
   <i type="int" name="NKREDLFZ">     1</i>
   <i type="int" name="MAXMEM">  1800</i>
   <i type="int" name="TELESCOPE">     0</i>
   <i type="int" name="TAUPAR">     1</i>
  </separator>
  <separator name="External order field" >
   <i name="OFIELD_KAPPA">      0.00000000</i>
   <v name="OFIELD_K">      0.00000000      0.00000000      0.00000000</v>
   <i name="OFIELD_Q6_NEAR">      0.00000000</i>
   <i name="OFIELD_Q6_FAR">      0.00000000</i>
   <i name="OFIELD_A">      0.00000000</i>
  </separator>
 </parameters>
 <atominfo>
  <atoms>      24 </atoms>
  <types>       2 </types>
  <array name="atoms" >
   <dimension dim="1">ion</dimension>
   <field type="string">element</field>
   <field type="int">atomtype</field>
   <set>
    <rc><c>P </c><c>   1</c></rc>
    <rc><c>P </c><c>   1</c></rc>
    <rc><c>P </c><c>   1</c></rc>
    <rc><c>P </c><c>   1</c></rc>
    <rc><c>P </c><c>   1</c></rc>
    <rc><c>P </c><c>   1</c></rc>
    <rc><c>P </c><c>   1</c></rc>
    <rc><c>P </c><c>   1</c></rc>
    <rc><c>P </c><c>   1</c></rc>
    <rc><c>P </c><c>   1</c></rc>
    <rc><c>P </c><c>   1</c></rc>
    <rc><c>P </c><c>   1</c></rc>
    <rc><c>Si</c><c>   2</c></rc>
    <rc><c>Si</c><c>   2</c></rc>
    <rc><c>Si</c><c>   2</c></rc>
    <rc><c>Si</c><c>   2</c></rc>
    <rc><c>Si</c><c>   2</c></rc>
    <rc><c>Si</c><c>   2</c></rc>
    <rc><c>Si</c><c>   2</c></rc>
    <rc><c>Si</c><c>   2</c></rc>
    <rc><c>Si</c><c>   2</c></rc>
    <rc><c>Si</c><c>   2</c></rc>
    <rc><c>Si</c><c>   2</c></rc>
    <rc><c>Si</c><c>   2</c></rc>
   </set>
  </array>
  <array name="atomtypes" >
   <dimension dim="1">type</dimension>
   <field type="int">atomspertype</field>
   <field type="string">element</field>
   <field>mass</field>
   <field>valence</field>
   <field type="string">pseudopotential</field>
   <set>
    <rc><c>  12</c><c>P </c><c>     30.97400000</c><c>      5.00000000</c><c>  PAW_PBE P 17Jan2003                   </c></rc>
    <rc><c>  12</c><c>Si</c><c>     28.08500000</c><c>      4.00000000</c><c> PAW_PBE Si 05Jan2001                   </c></rc>
   </set>
  </array>
 </atominfo>
 <structure name="initialpos" >
  <crystal>
   <varray name="basis" >
    <v>       3.54040000       0.00000000       0.00000000 </v>
    <v>      -1.77020000      10.29434800       0.00000000 </v>
    <v>       0.00000000       0.00000000      27.50142900 </v>
   </varray>
   <i name="volume">   1002.32009712 </i>
   <varray name="rec_basis" >
    <v>       0.28245396       0.04857034       0.00000000 </v>
    <v>       0.00000000       0.09714068       0.00000000 </v>
    <v>       0.00000000       0.00000000       0.03636175 </v>
   </varray>
  </crystal>
  <varray name="positions" >
   <v>       0.11402300       0.22804500       0.23316207 </v>
   <v>       0.31402300       0.72804500       0.51499159 </v>
   <v>       0.45808900       0.91617900       0.20939482 </v>
   <v>       0.65808900       0.41617900       0.49122434 </v>
   <v>       0.31085400       0.62170900       0.08414979 </v>
   <v>       0.31085400       0.62170900       0.36597930 </v>
   <v>       0.99923000       0.99846000       0.08631254 </v>
   <v>       0.99923000       0.99846000       0.36814206 </v>
   <v>       0.65492700       0.30985400       0.06041748 </v>
   <v>       0.65492700       0.30985400       0.34224700 </v>
   <v>       0.76973800       0.53947500       0.20725292 </v>
   <v>       0.96973800       0.03947500       0.48908244 </v>
   <v>       0.93971600       0.87943300       0.15783749 </v>
   <v>       0.13971600       0.37943300       0.43966701 </v>
   <v>       0.20515200       0.41030300       0.18578822 </v>
   <v>       0.40515200       0.91030300       0.46761774 </v>
   <v>       0.20184900       0.40369900       0.09969156 </v>
   <v>       0.20184900       0.40369900       0.38152107 </v>
   <v>       0.56380500       0.12761000       0.10779021 </v>
   <v>       0.56380500       0.12761000       0.38961973 </v>
   <v>       0.56710600       0.13421200       0.19387616 </v>
   <v>       0.76710600       0.63421200       0.47570568 </v>
   <v>       0.82923400       0.65846800       0.13571444 </v>
   <v>       0.02923400       0.15846800       0.41754396 </v>
  </varray>
 </structure>
 <calculation>
  <scstep>
   <time name="dav">   64.64   64.67</time>
   <time name="total">   80.71   80.79</time>
   <energy>
    <i name="alphaZ">     36.80884744 </i>
    <i name="ewald">  12038.37508607 </i>
    <i name="hartreedc"> -15061.04607125 </i>
    <i name="XCdc">    -86.91763022 </i>
    <i name="pawpsdc">   1056.43050070 </i>
    <i name="pawaedc">   -732.41190547 </i>
    <i name="eentropy">     -0.04682309 </i>
    <i name="bandstr">    -98.15983815 </i>
    <i name="atom">   3354.04126044 </i>
    <i name="e_fr_energy">    507.07342647 </i>
    <i name="e_wo_entrp">    507.12024956 </i>
    <i name="e_0_energy">    507.09683802 </i>
   </energy>
  </scstep>
  <scstep>
   <time name="dav">   78.38   78.43</time>
   <time name="total">   78.39   78.44</time>
   <energy>
    <i name="e_fr_energy">    -59.54485777 </i>
    <i name="e_wo_entrp">    -59.52587391 </i>
    <i name="e_0_energy">    -59.53536584 </i>
   </energy>
  </scstep>
  <scstep>
   <time name="dav">   70.60   70.64</time>
   <time name="total">   70.61   70.65</time>
   <energy>
    <i name="e_fr_energy">   -116.45516863 </i>
    <i name="e_wo_entrp">   -116.44111766 </i>
    <i name="e_0_energy">   -116.44814314 </i>
   </energy>
  </scstep>
  <scstep>
   <time name="dav">   84.54   84.56</time>
   <time name="total">   84.56   84.57</time>
   <energy>
    <i name="e_fr_energy">   -119.06678946 </i>
    <i name="e_wo_entrp">   -119.05098893 </i>
    <i name="e_0_energy">   -119.05888919 </i>
   </energy>
  </scstep>
  <scstep>
   <time name="dav">   79.15   79.19</time>
   <time name="total">   83.09   83.14</time>
   <energy>
    <i name="e_fr_energy">   -119.13087192 </i>
    <i name="e_wo_entrp">   -119.11516662 </i>
    <i name="e_0_energy">   -119.12301927 </i>
   </energy>
  </scstep>
  <scstep>
   <time name="dav">   67.18   67.23</time>
   <time name="total">   85.62   85.68</time>
   <energy>
    <i name="e_fr_energy">   -115.28666752 </i>
    <i name="e_wo_entrp">   -115.27013759 </i>
    <i name="e_0_energy">   -115.27840256 </i>
   </energy>
  </scstep>
  <scstep>
   <time name="dav">   67.62   67.66</time>
   <time name="total">   85.93   85.97</time>
   <energy>
    <i name="e_fr_energy">   -115.00415238 </i>
    <i name="e_wo_entrp">   -114.97860977 </i>
    <i name="e_0_energy">   -114.99138107 </i>
   </energy>
  </scstep>
  <scstep>
   <time name="dav">   68.34   68.36</time>
   <time name="total">   86.82   86.85</time>
   <energy>
    <i name="e_fr_energy">   -114.99059061 </i>
    <i name="e_wo_entrp">   -114.96378196 </i>
    <i name="e_0_energy">   -114.97718629 </i>
   </energy>
  </scstep>
  <scstep>
   <time name="dav">   70.61   70.62</time>
   <time name="total">   89.07   89.09</time>
   <energy>
    <i name="e_fr_energy">   -115.01400744 </i>
    <i name="e_wo_entrp">   -114.98921079 </i>
    <i name="e_0_energy">   -115.00160911 </i>
   </energy>
  </scstep>
  <scstep>
   <time name="dav">   69.28   69.30</time>
   <time name="total">   87.62   87.65</time>
   <energy>
    <i name="e_fr_energy">   -115.00012252 </i>
    <i name="e_wo_entrp">   -114.97204096 </i>
    <i name="e_0_energy">   -114.98608174 </i>
   </energy>
  </scstep>
  <scstep>
   <time name="dav">   67.59   67.61</time>
   <time name="total">   85.93   85.95</time>
   <energy>
    <i name="e_fr_energy">   -114.98841482 </i>
    <i name="e_wo_entrp">   -114.96203877 </i>
    <i name="e_0_energy">   -114.97522680 </i>
   </energy>
  </scstep>
  <scstep>
   <time name="dav">   66.73   66.75</time>
   <time name="total">   85.10   85.14</time>
   <energy>
    <i name="e_fr_energy">   -114.98291105 </i>
    <i name="e_wo_entrp">   -114.95621236 </i>
    <i name="e_0_energy">   -114.96956171 </i>
   </energy>
  </scstep>
  <scstep>
   <time name="dav">   71.25   71.26</time>
   <time name="total">   89.65   89.67</time>
   <energy>
    <i name="e_fr_energy">   -114.97822819 </i>
    <i name="e_wo_entrp">   -114.95149144 </i>
    <i name="e_0_energy">   -114.96485982 </i>
   </energy>
  </scstep>
  <scstep>
   <time name="dav">   69.83   69.87</time>
   <time name="total">   88.31   88.36</time>
   <energy>
    <i name="e_fr_energy">   -114.97512300 </i>
    <i name="e_wo_entrp">   -114.94843180 </i>
    <i name="e_0_energy">   -114.96177740 </i>
   </energy>
  </scstep>
  <scstep>
   <time name="dav">   72.59   72.63</time>
   <time name="total">   91.22   91.27</time>
   <energy>
    <i name="e_fr_energy">   -114.97329409 </i>
    <i name="e_wo_entrp">   -114.94659592 </i>
    <i name="e_0_energy">   -114.95994500 </i>
   </energy>
  </scstep>
  <scstep>
   <time name="dav">   69.24   69.25</time>
   <time name="total">   87.77   87.80</time>
   <energy>
    <i name="e_fr_energy">   -114.97289696 </i>
    <i name="e_wo_entrp">   -114.94620308 </i>
    <i name="e_0_energy">   -114.95955002 </i>
   </energy>
  </scstep>
  <scstep>
   <time name="dav">   65.57   65.58</time>
   <time name="total">   84.28   84.30</time>
   <energy>
    <i name="e_fr_energy">   -114.97329995 </i>
    <i name="e_wo_entrp">   -114.94660306 </i>
    <i name="e_0_energy">   -114.95995151 </i>
   </energy>
  </scstep>
  <scstep>
   <time name="dav">   68.97   69.00</time>
   <time name="total">   87.98   88.04</time>
   <energy>
    <i name="e_fr_energy">   -114.97375041 </i>
    <i name="e_wo_entrp">   -114.94705943 </i>
    <i name="e_0_energy">   -114.96040492 </i>
   </energy>
  </scstep>
  <scstep>
   <time name="dav">   65.73   65.75</time>
   <time name="total">   84.69   84.72</time>
   <energy>
    <i name="e_fr_energy">   -114.97383398 </i>
    <i name="e_wo_entrp">   -114.94714134 </i>
    <i name="e_0_energy">   -114.96048766 </i>
   </energy>
  </scstep>
  <scstep>
   <time name="dav">   58.98   59.00</time>
   <time name="total">   77.87   77.91</time>
   <energy>
    <i name="e_fr_energy">   -114.97389955 </i>
    <i name="e_wo_entrp">   -114.94720686 </i>
    <i name="e_0_energy">   -114.96055320 </i>
   </energy>
  </scstep>
  <scstep>
   <time name="dav">   60.03   60.05</time>
   <time name="total">   78.84   78.87</time>
   <energy>
    <i name="e_fr_energy">   -114.97390066 </i>
    <i name="e_wo_entrp">   -114.94720776 </i>
    <i name="e_0_energy">   -114.96055421 </i>
   </energy>
  </scstep>
  <scstep>
   <time name="dav">   60.92   60.93</time>
   <time name="total">   79.77   79.79</time>
   <energy>
    <i name="e_fr_energy">   -114.97385847 </i>
    <i name="e_wo_entrp">   -114.94716638 </i>
    <i name="e_0_energy">   -114.96051243 </i>
   </energy>
  </scstep>
  <scstep>
   <time name="dav">   55.87   55.91</time>
   <time name="total">   74.85   74.90</time>
   <energy>
    <i name="e_fr_energy">   -114.97381085 </i>
    <i name="e_wo_entrp">   -114.94711829 </i>
    <i name="e_0_energy">   -114.96046457 </i>
   </energy>
  </scstep>
  <scstep>
   <time name="dav">   61.40   61.44</time>
   <time name="total">   80.57   80.62</time>
   <energy>
    <i name="e_fr_energy">   -114.97376480 </i>
    <i name="e_wo_entrp">   -114.94707246 </i>
    <i name="e_0_energy">   -114.96041863 </i>
   </energy>
  </scstep>
  <scstep>
   <time name="dav">   59.04   59.05</time>
   <time name="total">   78.03   78.06</time>
   <energy>
    <i name="e_fr_energy">   -114.97375514 </i>
    <i name="e_wo_entrp">   -114.94706274 </i>
    <i name="e_0_energy">   -114.96040894 </i>
   </energy>
  </scstep>
  <scstep>
   <time name="dav">   58.74   58.76</time>
   <time name="total">   77.65   77.69</time>
   <energy>
    <i name="e_fr_energy">   -114.97374815 </i>
    <i name="e_wo_entrp">   -114.94705573 </i>
    <i name="e_0_energy">   -114.96040194 </i>
   </energy>
  </scstep>
  <scstep>
   <time name="dav">   57.88   57.91</time>
   <time name="total">   76.85   76.89</time>
   <energy>
    <i name="e_fr_energy">   -114.97375175 </i>
    <i name="e_wo_entrp">   -114.94705936 </i>
    <i name="e_0_energy">   -114.96040556 </i>
   </energy>
  </scstep>
  <scstep>
   <time name="dav">   48.18   48.19</time>
   <time name="total">   62.83   62.85</time>
   <energy>
    <i name="alphaZ">     36.80884744 </i>
    <i name="ewald">  12038.37508607 </i>
    <i name="hartreedc"> -15164.15638743 </i>
    <i name="XCdc">    -79.08746390 </i>
    <i name="pawpsdc">   1185.20175115 </i>
    <i name="pawaedc">   -865.12329255 </i>
    <i name="eentropy">     -0.02669240 </i>
    <i name="bandstr">   -621.00686143 </i>
    <i name="atom">   3354.04126044 </i>
    <i name="e_fr_energy">   -114.97375261 </i>
    <i name="e_wo_entrp">   -114.94706021 </i>
    <i name="e_0_energy">   -114.96040641 </i>
   </energy>
  </scstep>
  <structure>
   <crystal>
    <varray name="basis" >
     <v>       3.54040000       0.00000000       0.00000000 </v>
     <v>      -1.77020000      10.29434800       0.00000000 </v>
     <v>       0.00000000       0.00000000      27.50142900 </v>
    </varray>
    <i name="volume">   1002.32009712 </i>
    <varray name="rec_basis" >
     <v>       0.28245396       0.04857034       0.00000000 </v>
     <v>       0.00000000       0.09714068       0.00000000 </v>
     <v>       0.00000000       0.00000000       0.03636175 </v>
    </varray>
   </crystal>
   <varray name="positions" >
    <v>       0.11402300       0.22804500       0.23316207 </v>
    <v>       0.31402300       0.72804500       0.51499159 </v>
    <v>       0.45808900       0.91617900       0.20939482 </v>
    <v>       0.65808900       0.41617900       0.49122434 </v>
    <v>       0.31085400       0.62170900       0.08414979 </v>
    <v>       0.31085400       0.62170900       0.36597930 </v>
    <v>       0.99923000       0.99846000       0.08631254 </v>
    <v>       0.99923000       0.99846000       0.36814206 </v>
    <v>       0.65492700       0.30985400       0.06041748 </v>
    <v>       0.65492700       0.30985400       0.34224700 </v>
    <v>       0.76973800       0.53947500       0.20725292 </v>
    <v>       0.96973800       0.03947500       0.48908244 </v>
    <v>       0.93971600       0.87943300       0.15783749 </v>
    <v>       0.13971600       0.37943300       0.43966701 </v>
    <v>       0.20515200       0.41030300       0.18578822 </v>
    <v>       0.40515200       0.91030300       0.46761774 </v>
    <v>       0.20184900       0.40369900       0.09969156 </v>
    <v>       0.20184900       0.40369900       0.38152107 </v>
    <v>       0.56380500       0.12761000       0.10779021 </v>
    <v>       0.56380500       0.12761000       0.38961973 </v>
    <v>       0.56710600       0.13421200       0.19387616 </v>
    <v>       0.76710600       0.63421200       0.47570568 </v>
    <v>       0.82923400       0.65846800       0.13571444 </v>
    <v>       0.02923400       0.15846800       0.41754396 </v>
   </varray>
  </structure>
  <varray name="forces" >
   <v>      -0.00749104      -0.03652647      -0.00179360 </v>
   <v>      -0.10484402       0.01427111      -0.08404325 </v>
   <v>      -0.00038131      -0.01285243       0.08065748 </v>
   <v>       0.10886910      -0.22955785       0.15615912 </v>
   <v>      -0.00035315      -0.00343429       0.00691671 </v>
   <v>       0.25802765      -0.08230389       0.79259099 </v>
   <v>      -0.00132125      -0.00058829       0.00214244 </v>
   <v>       1.03338125      -2.14719201      -2.14256653 </v>
   <v>       0.00130025      -0.00045474       0.00930026 </v>
   <v>      -0.11246039       0.23441703      -0.81533246 </v>
   <v>       0.00103979       0.00770606       0.09266244 </v>
   <v>      -0.01588002      -0.42543409       0.83677221 </v>
   <v>       0.00239194      -0.00344412       0.00725930 </v>
   <v>      -2.80413376      -3.69260151      28.43168382 </v>
   <v>      -0.00270072       0.01281176       0.05005635 </v>
   <v>      -0.05726436       0.54090803       0.20316520 </v>
   <v>       0.00016152       0.00190984      -0.02034620 </v>
   <v>       3.00096682       6.14646731     -28.77994475 </v>
   <v>      -0.00341422      -0.00976506      -0.01486828 </v>
   <v>      -9.81113636      -2.65732239      -8.25402106 </v>
   <v>       0.00172133      -0.02072637       0.01523461 </v>
   <v>      -0.22099528      -0.09298492      -0.91954879 </v>
   <v>       0.00190207       0.00896223      -0.00173522 </v>
   <v>       8.73261415       2.44773508      10.34959921 </v>
  </varray>
  <varray name="stress" >
   <v>      41.12543444       4.16800856       1.33792457 </v>
   <v>       4.16800861      13.28437198      -6.52740502 </v>
   <v>       1.33792471      -6.52740504      86.02379853 </v>
  </varray>
  <energy>
   <i name="e_fr_energy">   -114.97375261 </i>
   <i name="e_wo_entrp">   -114.96040641 </i>
   <i name="e_0_energy">     -0.02669240 </i>
  </energy>
  <time name="totalsc"> 2406.25 2407.75</time>
  <eigenvalues>
   <array>
    <dimension dim="1">band</dimension>
    <dimension dim="2">kpoint</dimension>
    <dimension dim="3">spin</dimension>
    <field>eigene</field>
    <field>occ</field>
    <set>
     <set comment="spin 1">
      <set comment="kpoint 1">
       <r>  -15.0147    1.0000 </r>
       <r>  -13.5153    1.0000 </r>
       <r>  -13.4016    1.0000 </r>
       <r>  -12.8178    1.0000 </r>
       <r>  -12.7749    1.0000 </r>
       <r>  -12.4561    1.0000 </r>
       <r>  -12.0624    1.0000 </r>
       <r>  -11.7398    1.0000 </r>
       <r>  -11.4745    1.0000 </r>
       <r>  -11.4068    1.0000 </r>
       <r>  -10.9659    1.0000 </r>
       <r>   -9.9973    1.0000 </r>
       <r>   -9.1589    1.0000 </r>
       <r>   -8.2828    1.0000 </r>
       <r>   -8.0022    1.0000 </r>
       <r>   -7.8026    1.0000 </r>
       <r>   -6.8120    1.0000 </r>
       <r>   -6.7778    1.0000 </r>
       <r>   -6.4677    1.0000 </r>
       <r>   -5.9072    1.0000 </r>
       <r>   -5.8079    1.0000 </r>
       <r>   -5.5154    1.0000 </r>
       <r>   -5.2574    1.0000 </r>
       <r>   -4.9618    1.0000 </r>
       <r>   -4.7211    1.0000 </r>
       <r>   -4.2053    1.0000 </r>
       <r>   -3.6934    1.0000 </r>
       <r>   -3.6102    1.0000 </r>
       <r>   -3.3858    1.0000 </r>
       <r>   -3.2421    1.0000 </r>
       <r>   -3.0777    1.0000 </r>
       <r>   -3.0300    1.0000 </r>
       <r>   -2.8187    1.0000 </r>
       <r>   -2.6515    1.0000 </r>
       <r>   -2.5565    1.0000 </r>
       <r>   -2.4876    1.0000 </r>
       <r>   -2.4253    1.0000 </r>
       <r>   -2.3642    1.0000 </r>
       <r>   -2.1964    1.0000 </r>
       <r>   -2.0756    1.0000 </r>
       <r>   -1.9597    1.0000 </r>
       <r>   -1.8566    1.0000 </r>
       <r>   -1.7773    1.0000 </r>
       <r>   -1.7042    1.0000 </r>
       <r>   -1.6173    1.0000 </r>
       <r>   -1.5526    1.0000 </r>
       <r>   -1.4835    1.0000 </r>
       <r>   -1.4064    1.0000 </r>
       <r>   -1.3464    1.0000 </r>
       <r>   -1.1359    1.0000 </r>
       <r>   -0.9037    1.0000 </r>
       <r>   -0.6125    1.0000 </r>
       <r>   -0.4466    1.0000 </r>
       <r>    0.1371    0.0001 </r>
       <r>    0.5316    0.0000 </r>
       <r>    0.5577    0.0000 </r>
       <r>    0.9604    0.0000 </r>
       <r>    1.2040    0.0000 </r>
       <r>    1.2163    0.0000 </r>
       <r>    1.3429    0.0000 </r>
       <r>    1.4863    0.0000 </r>
       <r>    1.6661    0.0000 </r>
       <r>    1.8266    0.0000 </r>
       <r>    1.9944    0.0000 </r>
       <r>    2.1083    0.0000 </r>
       <r>    2.1386    0.0000 </r>
       <r>    2.3100    0.0000 </r>
       <r>    2.4595    0.0000 </r>
      </set>
      <set comment="kpoint 2">
       <r>  -14.9543    1.0000 </r>
       <r>  -13.4539    1.0000 </r>
       <r>  -13.3463    1.0000 </r>
       <r>  -12.7579    1.0000 </r>
       <r>  -12.7227    1.0000 </r>
       <r>  -12.4005    1.0000 </r>
       <r>  -12.0002    1.0000 </r>
       <r>  -11.6999    1.0000 </r>
       <r>  -11.4130    1.0000 </r>
       <r>  -11.3578    1.0000 </r>
       <r>  -10.9175    1.0000 </r>
       <r>   -9.9683    1.0000 </r>
       <r>   -9.1550    1.0000 </r>
       <r>   -8.2652    1.0000 </r>
       <r>   -8.0408    1.0000 </r>
       <r>   -7.7647    1.0000 </r>
       <r>   -6.8069    1.0000 </r>
       <r>   -6.7684    1.0000 </r>
       <r>   -6.4620    1.0000 </r>
       <r>   -5.9733    1.0000 </r>
       <r>   -5.7744    1.0000 </r>
       <r>   -5.5850    1.0000 </r>
       <r>   -5.4483    1.0000 </r>
       <r>   -4.9532    1.0000 </r>
       <r>   -4.7247    1.0000 </r>
       <r>   -4.2217    1.0000 </r>
       <r>   -3.7626    1.0000 </r>
       <r>   -3.6895    1.0000 </r>
       <r>   -3.5930    1.0000 </r>
       <r>   -3.4122    1.0000 </r>
       <r>   -3.3504    1.0000 </r>
       <r>   -3.2397    1.0000 </r>
       <r>   -3.1321    1.0000 </r>
       <r>   -2.9217    1.0000 </r>
       <r>   -2.7280    1.0000 </r>
       <r>   -2.6091    1.0000 </r>
       <r>   -2.4627    1.0000 </r>
       <r>   -2.4402    1.0000 </r>
       <r>   -2.3854    1.0000 </r>
       <r>   -2.1899    1.0000 </r>
       <r>   -2.0434    1.0000 </r>
       <r>   -2.0224    1.0000 </r>
       <r>   -1.9404    1.0000 </r>
       <r>   -1.8439    1.0000 </r>
       <r>   -1.8176    1.0000 </r>
       <r>   -1.7393    1.0000 </r>
       <r>   -1.6472    1.0000 </r>
       <r>   -1.4861    1.0000 </r>
       <r>   -1.2772    1.0000 </r>
       <r>   -1.0873    1.0000 </r>
       <r>   -0.8278    1.0000 </r>
       <r>   -0.5902    1.0000 </r>
       <r>   -0.4173    1.0000 </r>
       <r>   -0.1156    0.4519 </r>
       <r>    0.5011    0.0000 </r>
       <r>    0.8217    0.0000 </r>
       <r>    0.8778    0.0000 </r>
       <r>    1.2122    0.0000 </r>
       <r>    1.5846    0.0000 </r>
       <r>    1.7452    0.0000 </r>
       <r>    1.7939    0.0000 </r>
       <r>    2.0139    0.0000 </r>
       <r>    2.1501    0.0000 </r>
       <r>    2.2046    0.0000 </r>
       <r>    2.2895    0.0000 </r>
       <r>    2.3177    0.0000 </r>
       <r>    2.5460    0.0000 </r>
       <r>    2.6401    0.0000 </r>
      </set>
      <set comment="kpoint 3">
       <r>  -14.7749    1.0000 </r>
       <r>  -13.2710    1.0000 </r>
       <r>  -13.1816    1.0000 </r>
       <r>  -12.5812    1.0000 </r>
       <r>  -12.5660    1.0000 </r>
       <r>  -12.2358    1.0000 </r>
       <r>  -11.8179    1.0000 </r>
       <r>  -11.5798    1.0000 </r>
       <r>  -11.2380    1.0000 </r>
       <r>  -11.2149    1.0000 </r>
       <r>  -10.7787    1.0000 </r>
       <r>   -9.8997    1.0000 </r>
       <r>   -9.1686    1.0000 </r>
       <r>   -8.2321    1.0000 </r>
       <r>   -8.1396    1.0000 </r>
       <r>   -7.7226    1.0000 </r>
       <r>   -7.0272    1.0000 </r>
       <r>   -6.6974    1.0000 </r>
       <r>   -6.4745    1.0000 </r>
       <r>   -6.3800    1.0000 </r>
       <r>   -5.7003    1.0000 </r>
       <r>   -5.6861    1.0000 </r>
       <r>   -5.4196    1.0000 </r>
       <r>   -4.9147    1.0000 </r>
       <r>   -4.8430    1.0000 </r>
       <r>   -4.4816    1.0000 </r>
       <r>   -4.3606    1.0000 </r>
       <r>   -4.1799    1.0000 </r>
       <r>   -4.0592    1.0000 </r>
       <r>   -3.9494    1.0000 </r>
       <r>   -3.6951    1.0000 </r>
       <r>   -3.6480    1.0000 </r>
       <r>   -3.4114    1.0000 </r>
       <r>   -3.2867    1.0000 </r>
       <r>   -3.1443    1.0000 </r>
       <r>   -2.9653    1.0000 </r>
       <r>   -2.9428    1.0000 </r>
       <r>   -2.8731    1.0000 </r>
       <r>   -2.6587    1.0000 </r>
       <r>   -2.5098    1.0000 </r>
       <r>   -2.3710    1.0000 </r>
       <r>   -2.3173    1.0000 </r>
       <r>   -2.1241    1.0000 </r>
       <r>   -1.9777    1.0000 </r>
       <r>   -1.9130    1.0000 </r>
       <r>   -1.7502    1.0000 </r>
       <r>   -1.6431    1.0000 </r>
       <r>   -1.5916    1.0000 </r>
       <r>   -1.2958    1.0000 </r>
       <r>   -1.1651    1.0000 </r>
       <r>   -0.9089    1.0000 </r>
       <r>   -0.7189    1.0000 </r>
       <r>   -0.5276    1.0000 </r>
       <r>    0.0750    0.0024 </r>
       <r>    0.3896    0.0000 </r>
       <r>    0.4938    0.0000 </r>
       <r>    1.1259    0.0000 </r>
       <r>    1.3774    0.0000 </r>
       <r>    1.7408    0.0000 </r>
       <r>    1.9832    0.0000 </r>
       <r>    2.2751    0.0000 </r>
       <r>    2.4279    0.0000 </r>
       <r>    2.4552    0.0000 </r>
       <r>    2.6451    0.0000 </r>
       <r>    2.6901    0.0000 </r>
       <r>    2.9381    0.0000 </r>
       <r>    3.0315    0.0000 </r>
       <r>    3.0640    0.0000 </r>
      </set>
      <set comment="kpoint 4">
       <r>  -14.4820    1.0000 </r>
       <r>  -12.9702    1.0000 </r>
       <r>  -12.9128    1.0000 </r>
       <r>  -12.3123    1.0000 </r>
       <r>  -12.2919    1.0000 </r>
       <r>  -11.9692    1.0000 </r>
       <r>  -11.5310    1.0000 </r>
       <r>  -11.3870    1.0000 </r>
       <r>  -11.0009    1.0000 </r>
       <r>  -10.9700    1.0000 </r>
       <r>  -10.5757    1.0000 </r>
       <r>   -9.8943    1.0000 </r>
       <r>   -9.2377    1.0000 </r>
       <r>   -8.3372    1.0000 </r>
       <r>   -8.2924    1.0000 </r>
       <r>   -7.7970    1.0000 </r>
       <r>   -7.5235    1.0000 </r>
       <r>   -6.6756    1.0000 </r>
       <r>   -6.6401    1.0000 </r>
       <r>   -6.6060    1.0000 </r>
       <r>   -5.8723    1.0000 </r>
       <r>   -5.7140    1.0000 </r>
       <r>   -5.3963    1.0000 </r>
       <r>   -5.3125    1.0000 </r>
       <r>   -5.1405    1.0000 </r>
       <r>   -4.9671    1.0000 </r>
       <r>   -4.7810    1.0000 </r>
       <r>   -4.6927    1.0000 </r>
       <r>   -4.5742    1.0000 </r>
       <r>   -4.4805    1.0000 </r>
       <r>   -4.1606    1.0000 </r>
       <r>   -4.0131    1.0000 </r>
       <r>   -3.7626    1.0000 </r>
       <r>   -3.6835    1.0000 </r>
       <r>   -3.4476    1.0000 </r>
       <r>   -3.3646    1.0000 </r>
       <r>   -3.0856    1.0000 </r>
       <r>   -2.9689    1.0000 </r>
       <r>   -2.8031    1.0000 </r>
       <r>   -2.6760    1.0000 </r>
       <r>   -2.5711    1.0000 </r>
       <r>   -2.5476    1.0000 </r>
       <r>   -2.4144    1.0000 </r>
       <r>   -2.2632    1.0000 </r>
       <r>   -1.8793    1.0000 </r>
       <r>   -1.8108    1.0000 </r>
       <r>   -1.7111    1.0000 </r>
       <r>   -1.5250    1.0000 </r>
       <r>   -1.4629    1.0000 </r>
       <r>   -1.4330    1.0000 </r>
       <r>   -1.0095    1.0000 </r>
       <r>   -0.9424    1.0000 </r>
       <r>   -0.6060    1.0000 </r>
       <r>   -0.2327    0.9378 </r>
       <r>    0.2204    0.0000 </r>
       <r>    0.4944    0.0000 </r>
       <r>    1.0405    0.0000 </r>
       <r>    1.5954    0.0000 </r>
       <r>    1.9107    0.0000 </r>
       <r>    2.0151    0.0000 </r>
       <r>    2.0902    0.0000 </r>
       <r>    2.2753    0.0000 </r>
       <r>    2.4126    0.0000 </r>
       <r>    2.4643    0.0000 </r>
       <r>    2.7050    0.0000 </r>
       <r>    2.8448    0.0000 </r>
       <r>    2.9157    0.0000 </r>
       <r>    2.9922    0.0000 </r>
      </set>
      <set comment="kpoint 5">
       <r>  -14.0888    1.0000 </r>
       <r>  -12.5626    1.0000 </r>
       <r>  -12.5486    1.0000 </r>
       <r>  -11.9634    1.0000 </r>
       <r>  -11.9167    1.0000 </r>
       <r>  -11.6177    1.0000 </r>
       <r>  -11.1867    1.0000 </r>
       <r>  -11.1470    1.0000 </r>
       <r>  -10.7559    1.0000 </r>
       <r>  -10.6711    1.0000 </r>
       <r>  -10.3899    1.0000 </r>
       <r>  -10.2074    1.0000 </r>
       <r>   -9.2298    1.0000 </r>
       <r>   -8.6779    1.0000 </r>
       <r>   -8.6256    1.0000 </r>
       <r>   -8.0582    1.0000 </r>
       <r>   -7.6391    1.0000 </r>
       <r>   -7.0453    1.0000 </r>
       <r>   -6.9696    1.0000 </r>
       <r>   -6.8737    1.0000 </r>
       <r>   -6.4425    1.0000 </r>
       <r>   -6.1375    1.0000 </r>
       <r>   -5.9386    1.0000 </r>
       <r>   -5.6660    1.0000 </r>
       <r>   -5.4572    1.0000 </r>
       <r>   -5.1856    1.0000 </r>
       <r>   -5.0669    1.0000 </r>
       <r>   -4.7611    1.0000 </r>
       <r>   -4.6791    1.0000 </r>
       <r>   -4.6512    1.0000 </r>
       <r>   -4.2883    1.0000 </r>
       <r>   -4.1926    1.0000 </r>
       <r>   -4.0122    1.0000 </r>
       <r>   -3.8969    1.0000 </r>
       <r>   -3.4898    1.0000 </r>
       <r>   -3.3656    1.0000 </r>
       <r>   -3.1766    1.0000 </r>
       <r>   -3.1167    1.0000 </r>
       <r>   -3.0458    1.0000 </r>
       <r>   -2.9218    1.0000 </r>
       <r>   -2.7893    1.0000 </r>
       <r>   -2.6679    1.0000 </r>
       <r>   -2.5668    1.0000 </r>
       <r>   -2.3147    1.0000 </r>
       <r>   -2.0466    1.0000 </r>
       <r>   -1.9072    1.0000 </r>
       <r>   -1.8495    1.0000 </r>
       <r>   -1.6950    1.0000 </r>
       <r>   -1.6368    1.0000 </r>
       <r>   -1.4384    1.0000 </r>
       <r>   -1.2719    1.0000 </r>
       <r>   -1.1694    1.0000 </r>
       <r>   -0.6584    1.0000 </r>
       <r>   -0.5207    1.0000 </r>
       <r>   -0.0026    0.0429 </r>
       <r>    0.3763    0.0000 </r>
       <r>    0.9043    0.0000 </r>
       <r>    1.4757    0.0000 </r>
       <r>    1.6858    0.0000 </r>
       <r>    1.8485    0.0000 </r>
       <r>    2.0054    0.0000 </r>
       <r>    2.1878    0.0000 </r>
       <r>    2.3165    0.0000 </r>
       <r>    2.3348    0.0000 </r>
       <r>    2.4171    0.0000 </r>
       <r>    2.6152    0.0000 </r>
       <r>    2.7390    0.0000 </r>
       <r>    2.8650    0.0000 </r>
      </set>
      <set comment="kpoint 6">
       <r>  -13.6313    1.0000 </r>
       <r>  -12.1346    1.0000 </r>
       <r>  -12.0486    1.0000 </r>
       <r>  -11.5443    1.0000 </r>
       <r>  -11.5067    1.0000 </r>
       <r>  -11.2211    1.0000 </r>
       <r>  -11.0637    1.0000 </r>
       <r>  -10.8243    1.0000 </r>
       <r>  -10.7651    1.0000 </r>
       <r>  -10.6011    1.0000 </r>
       <r>  -10.4295    1.0000 </r>
       <r>  -10.3634    1.0000 </r>
       <r>   -9.1367    1.0000 </r>
       <r>   -9.0957    1.0000 </r>
       <r>   -8.8043    1.0000 </r>
       <r>   -8.3510    1.0000 </r>
       <r>   -7.7073    1.0000 </r>
       <r>   -7.4331    1.0000 </r>
       <r>   -7.3931    1.0000 </r>
       <r>   -7.3597    1.0000 </r>
       <r>   -7.0027    1.0000 </r>
       <r>   -6.7345    1.0000 </r>
       <r>   -6.6363    1.0000 </r>
       <r>   -6.2982    1.0000 </r>
       <r>   -5.4741    1.0000 </r>
       <r>   -5.1782    1.0000 </r>
       <r>   -4.7831    1.0000 </r>
       <r>   -4.5987    1.0000 </r>
       <r>   -4.5171    1.0000 </r>
       <r>   -4.4727    1.0000 </r>
       <r>   -4.2350    1.0000 </r>
       <r>   -4.1888    1.0000 </r>
       <r>   -4.0486    1.0000 </r>
       <r>   -3.8716    1.0000 </r>
       <r>   -3.6982    1.0000 </r>
       <r>   -3.6265    1.0000 </r>
       <r>   -3.4448    1.0000 </r>
       <r>   -3.2414    1.0000 </r>
       <r>   -3.1469    1.0000 </r>
       <r>   -3.0985    1.0000 </r>
       <r>   -2.8765    1.0000 </r>
       <r>   -2.7418    1.0000 </r>
       <r>   -2.5057    1.0000 </r>
       <r>   -2.4062    1.0000 </r>
       <r>   -2.2801    1.0000 </r>
       <r>   -2.1624    1.0000 </r>
       <r>   -2.0062    1.0000 </r>
       <r>   -1.8709    1.0000 </r>
       <r>   -1.7287    1.0000 </r>
       <r>   -1.5551    1.0000 </r>
       <r>   -1.4251    1.0000 </r>
       <r>   -1.3721    1.0000 </r>
       <r>   -0.7537    1.0000 </r>
       <r>   -0.4371    1.0000 </r>
       <r>   -0.2110    0.8904 </r>
       <r>    0.1133    0.0004 </r>
       <r>    0.8792    0.0000 </r>
       <r>    1.3787    0.0000 </r>
       <r>    1.5768    0.0000 </r>
       <r>    1.6948    0.0000 </r>
       <r>    1.7882    0.0000 </r>
       <r>    1.9629    0.0000 </r>
       <r>    2.1133    0.0000 </r>
       <r>    2.1667    0.0000 </r>
       <r>    2.3097    0.0000 </r>
       <r>    2.3822    0.0000 </r>
       <r>    2.5934    0.0000 </r>
       <r>    2.7430    0.0000 </r>
      </set>
      <set comment="kpoint 7">
       <r>  -13.2344    1.0000 </r>
       <r>  -11.7648    1.0000 </r>
       <r>  -11.4820    1.0000 </r>
       <r>  -11.4719    1.0000 </r>
       <r>  -11.1214    1.0000 </r>
       <r>  -11.1002    1.0000 </r>
       <r>  -10.9281    1.0000 </r>
       <r>  -10.9166    1.0000 </r>
       <r>  -10.8170    1.0000 </r>
       <r>  -10.7033    1.0000 </r>
       <r>  -10.6088    1.0000 </r>
       <r>  -10.2568    1.0000 </r>
       <r>   -9.3796    1.0000 </r>
       <r>   -9.0136    1.0000 </r>
       <r>   -8.6623    1.0000 </r>
       <r>   -8.4139    1.0000 </r>
       <r>   -8.0532    1.0000 </r>
       <r>   -7.8831    1.0000 </r>
       <r>   -7.5842    1.0000 </r>
       <r>   -7.5438    1.0000 </r>
       <r>   -7.2610    1.0000 </r>
       <r>   -7.2161    1.0000 </r>
       <r>   -7.1537    1.0000 </r>
       <r>   -6.6554    1.0000 </r>
       <r>   -5.3153    1.0000 </r>
       <r>   -4.8879    1.0000 </r>
       <r>   -4.7389    1.0000 </r>
       <r>   -4.4793    1.0000 </r>
       <r>   -4.4560    1.0000 </r>
       <r>   -4.2762    1.0000 </r>
       <r>   -4.2084    1.0000 </r>
       <r>   -4.0309    1.0000 </r>
       <r>   -3.9850    1.0000 </r>
       <r>   -3.9149    1.0000 </r>
       <r>   -3.8035    1.0000 </r>
       <r>   -3.6702    1.0000 </r>
       <r>   -3.5438    1.0000 </r>
       <r>   -3.5029    1.0000 </r>
       <r>   -3.2290    1.0000 </r>
       <r>   -3.1079    1.0000 </r>
       <r>   -2.9880    1.0000 </r>
       <r>   -2.8749    1.0000 </r>
       <r>   -2.6930    1.0000 </r>
       <r>   -2.6459    1.0000 </r>
       <r>   -2.3346    1.0000 </r>
       <r>   -2.1981    1.0000 </r>
       <r>   -2.1083    1.0000 </r>
       <r>   -1.9367    1.0000 </r>
       <r>   -1.7698    1.0000 </r>
       <r>   -1.6591    1.0000 </r>
       <r>   -1.5012    1.0000 </r>
       <r>   -1.3682    1.0000 </r>
       <r>   -0.7812    1.0000 </r>
       <r>   -0.4487    1.0000 </r>
       <r>   -0.2675    0.9787 </r>
       <r>   -0.0291    0.0896 </r>
       <r>    0.8362    0.0000 </r>
       <r>    1.3807    0.0000 </r>
       <r>    1.4516    0.0000 </r>
       <r>    1.5537    0.0000 </r>
       <r>    1.7077    0.0000 </r>
       <r>    1.7944    0.0000 </r>
       <r>    1.9990    0.0000 </r>
       <r>    2.0882    0.0000 </r>
       <r>    2.2076    0.0000 </r>
       <r>    2.3744    0.0000 </r>
       <r>    2.4841    0.0000 </r>
       <r>    2.6081    0.0000 </r>
      </set>
      <set comment="kpoint 8">
       <r>  -15.0122    1.0000 </r>
       <r>  -13.4627    1.0000 </r>
       <r>  -13.4442    1.0000 </r>
       <r>  -12.9492    1.0000 </r>
       <r>  -12.7054    1.0000 </r>
       <r>  -12.4549    1.0000 </r>
       <r>  -11.9740    1.0000 </r>
       <r>  -11.8436    1.0000 </r>
       <r>  -11.4529    1.0000 </r>
       <r>  -11.2763    1.0000 </r>
       <r>  -10.9747    1.0000 </r>
       <r>   -9.9707    1.0000 </r>
       <r>   -9.2762    1.0000 </r>
       <r>   -8.4892    1.0000 </r>
       <r>   -8.2526    1.0000 </r>
       <r>   -7.3519    1.0000 </r>
       <r>   -6.8442    1.0000 </r>
       <r>   -6.6454    1.0000 </r>
       <r>   -6.5776    1.0000 </r>
       <r>   -5.8180    1.0000 </r>
       <r>   -5.7266    1.0000 </r>
       <r>   -5.5734    1.0000 </r>
       <r>   -5.2427    1.0000 </r>
       <r>   -4.7468    1.0000 </r>
       <r>   -4.6213    1.0000 </r>
       <r>   -4.1641    1.0000 </r>
       <r>   -3.9908    1.0000 </r>
       <r>   -3.5906    1.0000 </r>
       <r>   -3.4139    1.0000 </r>
       <r>   -3.2725    1.0000 </r>
       <r>   -3.2197    1.0000 </r>
       <r>   -3.1017    1.0000 </r>
       <r>   -2.9136    1.0000 </r>
       <r>   -2.6840    1.0000 </r>
       <r>   -2.5962    1.0000 </r>
       <r>   -2.5219    1.0000 </r>
       <r>   -2.3660    1.0000 </r>
       <r>   -2.3546    1.0000 </r>
       <r>   -2.1514    1.0000 </r>
       <r>   -2.0984    1.0000 </r>
       <r>   -1.9679    1.0000 </r>
       <r>   -1.8910    1.0000 </r>
       <r>   -1.8552    1.0000 </r>
       <r>   -1.7142    1.0000 </r>
       <r>   -1.6029    1.0000 </r>
       <r>   -1.5406    1.0000 </r>
       <r>   -1.4469    1.0000 </r>
       <r>   -1.3374    1.0000 </r>
       <r>   -1.2254    1.0000 </r>
       <r>   -1.0978    1.0000 </r>
       <r>   -0.9217    1.0000 </r>
       <r>   -0.6618    1.0000 </r>
       <r>   -0.5425    1.0000 </r>
       <r>   -0.0143    0.0603 </r>
       <r>    0.5370    0.0000 </r>
       <r>    0.7286    0.0000 </r>
       <r>    1.0531    0.0000 </r>
       <r>    1.2054    0.0000 </r>
       <r>    1.2508    0.0000 </r>
       <r>    1.4054    0.0000 </r>
       <r>    1.5596    0.0000 </r>
       <r>    1.6994    0.0000 </r>
       <r>    1.8159    0.0000 </r>
       <r>    1.8414    0.0000 </r>
       <r>    2.1370    0.0000 </r>
       <r>    2.2774    0.0000 </r>
       <r>    2.3619    0.0000 </r>
       <r>    2.5535    0.0000 </r>
      </set>
      <set comment="kpoint 9">
       <r>  -14.9513    1.0000 </r>
       <r>  -13.4024    1.0000 </r>
       <r>  -13.3800    1.0000 </r>
       <r>  -12.9301    1.0000 </r>
       <r>  -12.6201    1.0000 </r>
       <r>  -12.3980    1.0000 </r>
       <r>  -11.9639    1.0000 </r>
       <r>  -11.7452    1.0000 </r>
       <r>  -11.4115    1.0000 </r>
       <r>  -11.1926    1.0000 </r>
       <r>  -10.9303    1.0000 </r>
       <r>   -9.9373    1.0000 </r>
       <r>   -9.2910    1.0000 </r>
       <r>   -8.5478    1.0000 </r>
       <r>   -8.2345    1.0000 </r>
       <r>   -7.3029    1.0000 </r>
       <r>   -6.8691    1.0000 </r>
       <r>   -6.6536    1.0000 </r>
       <r>   -6.5060    1.0000 </r>
       <r>   -5.8227    1.0000 </r>
       <r>   -5.7012    1.0000 </r>
       <r>   -5.6405    1.0000 </r>
       <r>   -5.5025    1.0000 </r>
       <r>   -4.6981    1.0000 </r>
       <r>   -4.6587    1.0000 </r>
       <r>   -4.1672    1.0000 </r>
       <r>   -4.0443    1.0000 </r>
       <r>   -3.6821    1.0000 </r>
       <r>   -3.5936    1.0000 </r>
       <r>   -3.4403    1.0000 </r>
       <r>   -3.3927    1.0000 </r>
       <r>   -3.3483    1.0000 </r>
       <r>   -3.0340    1.0000 </r>
       <r>   -2.9985    1.0000 </r>
       <r>   -2.9296    1.0000 </r>
       <r>   -2.6795    1.0000 </r>
       <r>   -2.4866    1.0000 </r>
       <r>   -2.4424    1.0000 </r>
       <r>   -2.3250    1.0000 </r>
       <r>   -2.2553    1.0000 </r>
       <r>   -2.1344    1.0000 </r>
       <r>   -2.0150    1.0000 </r>
       <r>   -1.9872    1.0000 </r>
       <r>   -1.8818    1.0000 </r>
       <r>   -1.8085    1.0000 </r>
       <r>   -1.7211    1.0000 </r>
       <r>   -1.5328    1.0000 </r>
       <r>   -1.3698    1.0000 </r>
       <r>   -1.1659    1.0000 </r>
       <r>   -1.0470    1.0000 </r>
       <r>   -0.8504    1.0000 </r>
       <r>   -0.6382    1.0000 </r>
       <r>   -0.5123    1.0000 </r>
       <r>   -0.1852    0.8060 </r>
       <r>    0.5004    0.0000 </r>
       <r>    0.8800    0.0000 </r>
       <r>    0.9670    0.0000 </r>
       <r>    1.2199    0.0000 </r>
       <r>    1.6164    0.0000 </r>
       <r>    1.7517    0.0000 </r>
       <r>    1.8142    0.0000 </r>
       <r>    1.9679    0.0000 </r>
       <r>    2.0514    0.0000 </r>
       <r>    2.2333    0.0000 </r>
       <r>    2.3859    0.0000 </r>
       <r>    2.5419    0.0000 </r>
       <r>    2.6251    0.0000 </r>
       <r>    2.6931    0.0000 </r>
      </set>
      <set comment="kpoint 10">
       <r>  -14.7716    1.0000 </r>
       <r>  -13.2388    1.0000 </r>
       <r>  -13.1849    1.0000 </r>
       <r>  -12.7936    1.0000 </r>
       <r>  -12.4265    1.0000 </r>
       <r>  -12.2320    1.0000 </r>
       <r>  -11.8491    1.0000 </r>
       <r>  -11.5475    1.0000 </r>
       <r>  -11.2721    1.0000 </r>
       <r>  -11.0181    1.0000 </r>
       <r>  -10.7891    1.0000 </r>
       <r>   -9.8691    1.0000 </r>
       <r>   -9.2995    1.0000 </r>
       <r>   -8.6138    1.0000 </r>
       <r>   -8.2233    1.0000 </r>
       <r>   -7.2764    1.0000 </r>
       <r>   -6.9997    1.0000 </r>
       <r>   -6.6313    1.0000 </r>
       <r>   -6.4791    1.0000 </r>
       <r>   -6.4537    1.0000 </r>
       <r>   -5.6445    1.0000 </r>
       <r>   -5.6018    1.0000 </r>
       <r>   -5.4814    1.0000 </r>
       <r>   -4.8224    1.0000 </r>
       <r>   -4.7153    1.0000 </r>
       <r>   -4.4272    1.0000 </r>
       <r>   -4.3476    1.0000 </r>
       <r>   -4.2951    1.0000 </r>
       <r>   -4.2459    1.0000 </r>
       <r>   -3.9425    1.0000 </r>
       <r>   -3.6976    1.0000 </r>
       <r>   -3.5919    1.0000 </r>
       <r>   -3.3485    1.0000 </r>
       <r>   -3.3228    1.0000 </r>
       <r>   -3.1847    1.0000 </r>
       <r>   -3.0096    1.0000 </r>
       <r>   -2.9365    1.0000 </r>
       <r>   -2.7827    1.0000 </r>
       <r>   -2.7273    1.0000 </r>
       <r>   -2.5876    1.0000 </r>
       <r>   -2.4894    1.0000 </r>
       <r>   -2.3020    1.0000 </r>
       <r>   -2.2580    1.0000 </r>
       <r>   -2.0265    1.0000 </r>
       <r>   -1.9040    1.0000 </r>
       <r>   -1.8581    1.0000 </r>
       <r>   -1.4925    1.0000 </r>
       <r>   -1.4201    1.0000 </r>
       <r>   -1.2514    1.0000 </r>
       <r>   -1.1132    1.0000 </r>
       <r>   -0.9781    1.0000 </r>
       <r>   -0.7744    1.0000 </r>
       <r>   -0.6321    1.0000 </r>
       <r>    0.1220    0.0003 </r>
       <r>    0.4231    0.0000 </r>
       <r>    0.5536    0.0000 </r>
       <r>    1.0838    0.0000 </r>
       <r>    1.3273    0.0000 </r>
       <r>    1.6608    0.0000 </r>
       <r>    1.7968    0.0000 </r>
       <r>    2.1325    0.0000 </r>
       <r>    2.3732    0.0000 </r>
       <r>    2.5691    0.0000 </r>
       <r>    2.7616    0.0000 </r>
       <r>    2.8637    0.0000 </r>
       <r>    3.0213    0.0000 </r>
       <r>    3.0611    0.0000 </r>
       <r>    3.1023    0.0000 </r>
      </set>
      <set comment="kpoint 11">
       <r>  -14.4787    1.0000 </r>
       <r>  -12.9671    1.0000 </r>
       <r>  -12.8739    1.0000 </r>
       <r>  -12.5423    1.0000 </r>
       <r>  -12.1371    1.0000 </r>
       <r>  -11.9648    1.0000 </r>
       <r>  -11.6378    1.0000 </r>
       <r>  -11.2709    1.0000 </r>
       <r>  -11.0503    1.0000 </r>
       <r>  -10.7733    1.0000 </r>
       <r>  -10.5719    1.0000 </r>
       <r>   -9.8862    1.0000 </r>
       <r>   -9.3223    1.0000 </r>
       <r>   -8.7457    1.0000 </r>
       <r>   -8.3191    1.0000 </r>
       <r>   -7.4375    1.0000 </r>
       <r>   -7.3584    1.0000 </r>
       <r>   -6.8390    1.0000 </r>
       <r>   -6.6705    1.0000 </r>
       <r>   -6.6181    1.0000 </r>
       <r>   -5.7989    1.0000 </r>
       <r>   -5.7059    1.0000 </r>
       <r>   -5.4710    1.0000 </r>
       <r>   -5.1853    1.0000 </r>
       <r>   -5.0688    1.0000 </r>
       <r>   -5.0109    1.0000 </r>
       <r>   -4.8828    1.0000 </r>
       <r>   -4.7376    1.0000 </r>
       <r>   -4.6361    1.0000 </r>
       <r>   -4.5242    1.0000 </r>
       <r>   -4.0039    1.0000 </r>
       <r>   -3.9527    1.0000 </r>
       <r>   -3.7133    1.0000 </r>
       <r>   -3.6764    1.0000 </r>
       <r>   -3.3245    1.0000 </r>
       <r>   -3.1834    1.0000 </r>
       <r>   -3.0682    1.0000 </r>
       <r>   -3.0508    1.0000 </r>
       <r>   -2.9351    1.0000 </r>
       <r>   -2.6741    1.0000 </r>
       <r>   -2.6035    1.0000 </r>
       <r>   -2.5097    1.0000 </r>
       <r>   -2.4890    1.0000 </r>
       <r>   -2.2362    1.0000 </r>
       <r>   -1.9679    1.0000 </r>
       <r>   -1.8704    1.0000 </r>
       <r>   -1.7565    1.0000 </r>
       <r>   -1.5497    1.0000 </r>
       <r>   -1.5221    1.0000 </r>
       <r>   -1.3639    1.0000 </r>
       <r>   -1.0309    1.0000 </r>
       <r>   -0.9191    1.0000 </r>
       <r>   -0.6936    1.0000 </r>
       <r>   -0.1926    0.8335 </r>
       <r>    0.3100    0.0000 </r>
       <r>    0.4758    0.0000 </r>
       <r>    1.0188    0.0000 </r>
       <r>    1.4300    0.0000 </r>
       <r>    1.5888    0.0000 </r>
       <r>    1.7326    0.0000 </r>
       <r>    1.9232    0.0000 </r>
       <r>    2.2457    0.0000 </r>
       <r>    2.4242    0.0000 </r>
       <r>    2.5672    0.0000 </r>
       <r>    2.6121    0.0000 </r>
       <r>    2.7516    0.0000 </r>
       <r>    3.0599    0.0000 </r>
       <r>    3.1800    0.0000 </r>
      </set>
      <set comment="kpoint 12">
       <r>  -14.0858    1.0000 </r>
       <r>  -12.5983    1.0000 </r>
       <r>  -12.4572    1.0000 </r>
       <r>  -12.1832    1.0000 </r>
       <r>  -11.7793    1.0000 </r>
       <r>  -11.6144    1.0000 </r>
       <r>  -11.3573    1.0000 </r>
       <r>  -10.9571    1.0000 </r>
       <r>  -10.7866    1.0000 </r>
       <r>  -10.5087    1.0000 </r>
       <r>  -10.3670    1.0000 </r>
       <r>  -10.2466    1.0000 </r>
       <r>   -9.2527    1.0000 </r>
       <r>   -8.9449    1.0000 </r>
       <r>   -8.6649    1.0000 </r>
       <r>   -7.6814    1.0000 </r>
       <r>   -7.6026    1.0000 </r>
       <r>   -7.2439    1.0000 </r>
       <r>   -7.0868    1.0000 </r>
       <r>   -6.9355    1.0000 </r>
       <r>   -6.1680    1.0000 </r>
       <r>   -6.1531    1.0000 </r>
       <r>   -5.8985    1.0000 </r>
       <r>   -5.8525    1.0000 </r>
       <r>   -5.5303    1.0000 </r>
       <r>   -5.3551    1.0000 </r>
       <r>   -4.9606    1.0000 </r>
       <r>   -4.9124    1.0000 </r>
       <r>   -4.7185    1.0000 </r>
       <r>   -4.3984    1.0000 </r>
       <r>   -4.3066    1.0000 </r>
       <r>   -4.0220    1.0000 </r>
       <r>   -3.9836    1.0000 </r>
       <r>   -3.6905    1.0000 </r>
       <r>   -3.4351    1.0000 </r>
       <r>   -3.3151    1.0000 </r>
       <r>   -3.1927    1.0000 </r>
       <r>   -3.0297    1.0000 </r>
       <r>   -2.9733    1.0000 </r>
       <r>   -2.9027    1.0000 </r>
       <r>   -2.8261    1.0000 </r>
       <r>   -2.6702    1.0000 </r>
       <r>   -2.4885    1.0000 </r>
       <r>   -2.4137    1.0000 </r>
       <r>   -2.2956    1.0000 </r>
       <r>   -1.9552    1.0000 </r>
       <r>   -1.8635    1.0000 </r>
       <r>   -1.7277    1.0000 </r>
       <r>   -1.6634    1.0000 </r>
       <r>   -1.5306    1.0000 </r>
       <r>   -1.2853    1.0000 </r>
       <r>   -1.1340    1.0000 </r>
       <r>   -0.6286    1.0000 </r>
       <r>   -0.5687    1.0000 </r>
       <r>    0.0173    0.0228 </r>
       <r>    0.3083    0.0000 </r>
       <r>    0.9338    0.0000 </r>
       <r>    1.2444    0.0000 </r>
       <r>    1.2864    0.0000 </r>
       <r>    1.6213    0.0000 </r>
       <r>    1.9743    0.0000 </r>
       <r>    2.1428    0.0000 </r>
       <r>    2.2620    0.0000 </r>
       <r>    2.3690    0.0000 </r>
       <r>    2.4825    0.0000 </r>
       <r>    2.5641    0.0000 </r>
       <r>    2.6478    0.0000 </r>
       <r>    2.9293    0.0000 </r>
      </set>
      <set comment="kpoint 13">
       <r>  -13.6292    1.0000 </r>
       <r>  -12.1629    1.0000 </r>
       <r>  -11.9537    1.0000 </r>
       <r>  -11.7332    1.0000 </r>
       <r>  -11.4275    1.0000 </r>
       <r>  -11.2215    1.0000 </r>
       <r>  -11.1159    1.0000 </r>
       <r>  -10.7985    1.0000 </r>
       <r>  -10.6988    1.0000 </r>
       <r>  -10.5754    1.0000 </r>
       <r>  -10.4422    1.0000 </r>
       <r>  -10.3218    1.0000 </r>
       <r>   -9.1343    1.0000 </r>
       <r>   -9.0821    1.0000 </r>
       <r>   -8.9347    1.0000 </r>
       <r>   -8.0857    1.0000 </r>
       <r>   -7.7539    1.0000 </r>
       <r>   -7.7323    1.0000 </r>
       <r>   -7.4653    1.0000 </r>
       <r>   -7.3309    1.0000 </r>
       <r>   -6.7635    1.0000 </r>
       <r>   -6.6693    1.0000 </r>
       <r>   -6.6340    1.0000 </r>
       <r>   -6.4946    1.0000 </r>
       <r>   -5.5166    1.0000 </r>
       <r>   -5.3138    1.0000 </r>
       <r>   -4.7760    1.0000 </r>
       <r>   -4.7169    1.0000 </r>
       <r>   -4.5088    1.0000 </r>
       <r>   -4.4058    1.0000 </r>
       <r>   -4.1603    1.0000 </r>
       <r>   -4.0762    1.0000 </r>
       <r>   -3.8379    1.0000 </r>
       <r>   -3.7783    1.0000 </r>
       <r>   -3.6638    1.0000 </r>
       <r>   -3.4834    1.0000 </r>
       <r>   -3.3265    1.0000 </r>
       <r>   -3.2539    1.0000 </r>
       <r>   -3.1591    1.0000 </r>
       <r>   -3.0984    1.0000 </r>
       <r>   -2.9042    1.0000 </r>
       <r>   -2.7413    1.0000 </r>
       <r>   -2.6207    1.0000 </r>
       <r>   -2.5468    1.0000 </r>
       <r>   -2.3047    1.0000 </r>
       <r>   -2.1879    1.0000 </r>
       <r>   -2.0450    1.0000 </r>
       <r>   -1.8536    1.0000 </r>
       <r>   -1.6975    1.0000 </r>
       <r>   -1.5436    1.0000 </r>
       <r>   -1.4454    1.0000 </r>
       <r>   -1.4306    1.0000 </r>
       <r>   -0.8244    1.0000 </r>
       <r>   -0.5390    1.0000 </r>
       <r>   -0.1398    0.5879 </r>
       <r>    0.1045    0.0006 </r>
       <r>    0.8248    0.0000 </r>
       <r>    1.2176    0.0000 </r>
       <r>    1.3413    0.0000 </r>
       <r>    1.5142    0.0000 </r>
       <r>    1.7885    0.0000 </r>
       <r>    1.8561    0.0000 </r>
       <r>    2.0079    0.0000 </r>
       <r>    2.1979    0.0000 </r>
       <r>    2.3649    0.0000 </r>
       <r>    2.5272    0.0000 </r>
       <r>    2.5991    0.0000 </r>
       <r>    2.6809    0.0000 </r>
      </set>
      <set comment="kpoint 14">
       <r>  -13.2337    1.0000 </r>
       <r>  -11.7690    1.0000 </r>
       <r>  -11.4848    1.0000 </r>
       <r>  -11.4036    1.0000 </r>
       <r>  -11.2381    1.0000 </r>
       <r>  -11.1029    1.0000 </r>
       <r>  -10.9324    1.0000 </r>
       <r>  -10.9061    1.0000 </r>
       <r>  -10.8369    1.0000 </r>
       <r>  -10.6741    1.0000 </r>
       <r>  -10.5544    1.0000 </r>
       <r>  -10.2615    1.0000 </r>
       <r>   -9.3873    1.0000 </r>
       <r>   -9.0086    1.0000 </r>
       <r>   -8.5288    1.0000 </r>
       <r>   -8.3740    1.0000 </r>
       <r>   -8.3022    1.0000 </r>
       <r>   -7.8822    1.0000 </r>
       <r>   -7.5577    1.0000 </r>
       <r>   -7.4892    1.0000 </r>
       <r>   -7.2898    1.0000 </r>
       <r>   -7.2181    1.0000 </r>
       <r>   -7.1134    1.0000 </r>
       <r>   -6.7097    1.0000 </r>
       <r>   -5.3213    1.0000 </r>
       <r>   -4.9922    1.0000 </r>
       <r>   -4.7126    1.0000 </r>
       <r>   -4.4478    1.0000 </r>
       <r>   -4.4105    1.0000 </r>
       <r>   -4.2882    1.0000 </r>
       <r>   -4.1443    1.0000 </r>
       <r>   -4.0982    1.0000 </r>
       <r>   -3.9866    1.0000 </r>
       <r>   -3.9038    1.0000 </r>
       <r>   -3.7630    1.0000 </r>
       <r>   -3.6349    1.0000 </r>
       <r>   -3.4670    1.0000 </r>
       <r>   -3.4236    1.0000 </r>
       <r>   -3.2353    1.0000 </r>
       <r>   -3.1507    1.0000 </r>
       <r>   -2.9682    1.0000 </r>
       <r>   -2.8493    1.0000 </r>
       <r>   -2.6619    1.0000 </r>
       <r>   -2.6135    1.0000 </r>
       <r>   -2.5738    1.0000 </r>
       <r>   -2.1788    1.0000 </r>
       <r>   -2.0979    1.0000 </r>
       <r>   -1.9110    1.0000 </r>
       <r>   -1.7626    1.0000 </r>
       <r>   -1.6573    1.0000 </r>
       <r>   -1.5246    1.0000 </r>
       <r>   -1.3756    1.0000 </r>
       <r>   -0.7909    1.0000 </r>
       <r>   -0.5686    1.0000 </r>
       <r>   -0.1951    0.8424 </r>
       <r>   -0.0131    0.0583 </r>
       <r>    0.7638    0.0000 </r>
       <r>    1.4407    0.0000 </r>
       <r>    1.4560    0.0000 </r>
       <r>    1.5133    0.0000 </r>
       <r>    1.5823    0.0000 </r>
       <r>    1.7915    0.0000 </r>
       <r>    1.8691    0.0000 </r>
       <r>    2.0544    0.0000 </r>
       <r>    2.3261    0.0000 </r>
       <r>    2.4678    0.0000 </r>
       <r>    2.4932    0.0000 </r>
       <r>    2.5712    0.0000 </r>
      </set>
      <set comment="kpoint 15">
       <r>  -13.2351    1.0000 </r>
       <r>  -11.7671    1.0000 </r>
       <r>  -11.5091    1.0000 </r>
       <r>  -11.4575    1.0000 </r>
       <r>  -11.1156    1.0000 </r>
       <r>  -11.0450    1.0000 </r>
       <r>  -10.9339    1.0000 </r>
       <r>  -10.9045    1.0000 </r>
       <r>  -10.7823    1.0000 </r>
       <r>  -10.7302    1.0000 </r>
       <r>  -10.6774    1.0000 </r>
       <r>  -10.2556    1.0000 </r>
       <r>   -9.3727    1.0000 </r>
       <r>   -9.0229    1.0000 </r>
       <r>   -8.7308    1.0000 </r>
       <r>   -8.4077    1.0000 </r>
       <r>   -7.9183    1.0000 </r>
       <r>   -7.8803    1.0000 </r>
       <r>   -7.5786    1.0000 </r>
       <r>   -7.5585    1.0000 </r>
       <r>   -7.2568    1.0000 </r>
       <r>   -7.2543    1.0000 </r>
       <r>   -7.1917    1.0000 </r>
       <r>   -6.6256    1.0000 </r>
       <r>   -5.2789    1.0000 </r>
       <r>   -4.7558    1.0000 </r>
       <r>   -4.6762    1.0000 </r>
       <r>   -4.5551    1.0000 </r>
       <r>   -4.5238    1.0000 </r>
       <r>   -4.3378    1.0000 </r>
       <r>   -4.2570    1.0000 </r>
       <r>   -4.0202    1.0000 </r>
       <r>   -3.9762    1.0000 </r>
       <r>   -3.9582    1.0000 </r>
       <r>   -3.8569    1.0000 </r>
       <r>   -3.6696    1.0000 </r>
       <r>   -3.6083    1.0000 </r>
       <r>   -3.5141    1.0000 </r>
       <r>   -3.3258    1.0000 </r>
       <r>   -3.1033    1.0000 </r>
       <r>   -2.8562    1.0000 </r>
       <r>   -2.7650    1.0000 </r>
       <r>   -2.7066    1.0000 </r>
       <r>   -2.6402    1.0000 </r>
       <r>   -2.3570    1.0000 </r>
       <r>   -2.1663    1.0000 </r>
       <r>   -2.1423    1.0000 </r>
       <r>   -1.9680    1.0000 </r>
       <r>   -1.7794    1.0000 </r>
       <r>   -1.6452    1.0000 </r>
       <r>   -1.4795    1.0000 </r>
       <r>   -1.3190    1.0000 </r>
       <r>   -0.6962    1.0000 </r>
       <r>   -0.4849    1.0000 </r>
       <r>   -0.2746    0.9833 </r>
       <r>   -0.0509    0.1503 </r>
       <r>    0.8118    0.0000 </r>
       <r>    1.3567    0.0000 </r>
       <r>    1.4684    0.0000 </r>
       <r>    1.7023    0.0000 </r>
       <r>    1.7441    0.0000 </r>
       <r>    1.8844    0.0000 </r>
       <r>    2.0491    0.0000 </r>
       <r>    2.1631    0.0000 </r>
       <r>    2.2292    0.0000 </r>
       <r>    2.3732    0.0000 </r>
       <r>    2.4089    0.0000 </r>
       <r>    2.5612    0.0000 </r>
      </set>
      <set comment="kpoint 16">
       <r>  -13.6323    1.0000 </r>
       <r>  -12.1225    1.0000 </r>
       <r>  -12.0747    1.0000 </r>
       <r>  -11.5321    1.0000 </r>
       <r>  -11.4592    1.0000 </r>
       <r>  -11.2184    1.0000 </r>
       <r>  -11.0491    1.0000 </r>
       <r>  -10.9041    1.0000 </r>
       <r>  -10.7585    1.0000 </r>
       <r>  -10.6040    1.0000 </r>
       <r>  -10.4251    1.0000 </r>
       <r>  -10.3755    1.0000 </r>
       <r>   -9.1475    1.0000 </r>
       <r>   -9.0915    1.0000 </r>
       <r>   -8.7161    1.0000 </r>
       <r>   -8.4648    1.0000 </r>
       <r>   -7.7131    1.0000 </r>
       <r>   -7.4150    1.0000 </r>
       <r>   -7.3054    1.0000 </r>
       <r>   -7.2528    1.0000 </r>
       <r>   -7.1152    1.0000 </r>
       <r>   -6.7837    1.0000 </r>
       <r>   -6.6406    1.0000 </r>
       <r>   -6.2564    1.0000 </r>
       <r>   -5.4326    1.0000 </r>
       <r>   -5.0150    1.0000 </r>
       <r>   -4.8599    1.0000 </r>
       <r>   -4.8045    1.0000 </r>
       <r>   -4.4367    1.0000 </r>
       <r>   -4.3773    1.0000 </r>
       <r>   -4.2576    1.0000 </r>
       <r>   -4.1954    1.0000 </r>
       <r>   -4.0710    1.0000 </r>
       <r>   -3.9676    1.0000 </r>
       <r>   -3.7481    1.0000 </r>
       <r>   -3.6894    1.0000 </r>
       <r>   -3.4084    1.0000 </r>
       <r>   -3.3694    1.0000 </r>
       <r>   -3.1669    1.0000 </r>
       <r>   -3.1069    1.0000 </r>
       <r>   -2.8586    1.0000 </r>
       <r>   -2.6818    1.0000 </r>
       <r>   -2.5085    1.0000 </r>
       <r>   -2.4008    1.0000 </r>
       <r>   -2.2485    1.0000 </r>
       <r>   -2.1642    1.0000 </r>
       <r>   -1.9261    1.0000 </r>
       <r>   -1.8686    1.0000 </r>
       <r>   -1.7368    1.0000 </r>
       <r>   -1.5648    1.0000 </r>
       <r>   -1.3875    1.0000 </r>
       <r>   -1.3235    1.0000 </r>
       <r>   -0.6855    1.0000 </r>
       <r>   -0.4463    1.0000 </r>
       <r>   -0.2101    0.8881 </r>
       <r>    0.0949    0.0010 </r>
       <r>    0.8576    0.0000 </r>
       <r>    1.3355    0.0000 </r>
       <r>    1.6312    0.0000 </r>
       <r>    1.7788    0.0000 </r>
       <r>    1.9195    0.0000 </r>
       <r>    2.0865    0.0000 </r>
       <r>    2.1710    0.0000 </r>
       <r>    2.2563    0.0000 </r>
       <r>    2.3259    0.0000 </r>
       <r>    2.4478    0.0000 </r>
       <r>    2.4912    0.0000 </r>
       <r>    2.6618    0.0000 </r>
      </set>
      <set comment="kpoint 17">
       <r>  -14.0893    1.0000 </r>
       <r>  -12.5716    1.0000 </r>
       <r>  -12.5432    1.0000 </r>
       <r>  -11.9386    1.0000 </r>
       <r>  -11.9206    1.0000 </r>
       <r>  -11.6171    1.0000 </r>
       <r>  -11.2194    1.0000 </r>
       <r>  -11.1139    1.0000 </r>
       <r>  -10.7487    1.0000 </r>
       <r>  -10.7274    1.0000 </r>
       <r>  -10.3959    1.0000 </r>
       <r>  -10.1855    1.0000 </r>
       <r>   -9.2260    1.0000 </r>
       <r>   -8.6871    1.0000 </r>
       <r>   -8.5281    1.0000 </r>
       <r>   -8.1608    1.0000 </r>
       <r>   -7.6351    1.0000 </r>
       <r>   -7.0112    1.0000 </r>
       <r>   -6.9741    1.0000 </r>
       <r>   -6.8437    1.0000 </r>
       <r>   -6.4800    1.0000 </r>
       <r>   -6.1305    1.0000 </r>
       <r>   -5.9476    1.0000 </r>
       <r>   -5.6316    1.0000 </r>
       <r>   -5.4427    1.0000 </r>
       <r>   -5.1506    1.0000 </r>
       <r>   -5.1037    1.0000 </r>
       <r>   -4.8539    1.0000 </r>
       <r>   -4.6189    1.0000 </r>
       <r>   -4.5726    1.0000 </r>
       <r>   -4.2882    1.0000 </r>
       <r>   -4.2142    1.0000 </r>
       <r>   -4.1218    1.0000 </r>
       <r>   -3.8994    1.0000 </r>
       <r>   -3.4878    1.0000 </r>
       <r>   -3.4298    1.0000 </r>
       <r>   -3.2258    1.0000 </r>
       <r>   -3.0886    1.0000 </r>
       <r>   -3.0345    1.0000 </r>
       <r>   -2.9025    1.0000 </r>
       <r>   -2.7725    1.0000 </r>
       <r>   -2.6475    1.0000 </r>
       <r>   -2.5651    1.0000 </r>
       <r>   -2.3486    1.0000 </r>
       <r>   -2.0087    1.0000 </r>
       <r>   -1.8988    1.0000 </r>
       <r>   -1.8390    1.0000 </r>
       <r>   -1.6964    1.0000 </r>
       <r>   -1.6277    1.0000 </r>
       <r>   -1.4151    1.0000 </r>
       <r>   -1.2706    1.0000 </r>
       <r>   -1.1689    1.0000 </r>
       <r>   -0.6275    1.0000 </r>
       <r>   -0.5266    1.0000 </r>
       <r>    0.0073    0.0316 </r>
       <r>    0.3816    0.0000 </r>
       <r>    0.9068    0.0000 </r>
       <r>    1.4908    0.0000 </r>
       <r>    1.7280    0.0000 </r>
       <r>    1.9602    0.0000 </r>
       <r>    2.0210    0.0000 </r>
       <r>    2.1327    0.0000 </r>
       <r>    2.2791    0.0000 </r>
       <r>    2.3873    0.0000 </r>
       <r>    2.4402    0.0000 </r>
       <r>    2.6599    0.0000 </r>
       <r>    2.7238    0.0000 </r>
       <r>    2.8006    0.0000 </r>
      </set>
      <set comment="kpoint 18">
       <r>  -14.4818    1.0000 </r>
       <r>  -12.9661    1.0000 </r>
       <r>  -12.9164    1.0000 </r>
       <r>  -12.3264    1.0000 </r>
       <r>  -12.2838    1.0000 </r>
       <r>  -11.9693    1.0000 </r>
       <r>  -11.5146    1.0000 </r>
       <r>  -11.4011    1.0000 </r>
       <r>  -11.0043    1.0000 </r>
       <r>  -10.9603    1.0000 </r>
       <r>  -10.5743    1.0000 </r>
       <r>   -9.8871    1.0000 </r>
       <r>   -9.2413    1.0000 </r>
       <r>   -8.3759    1.0000 </r>
       <r>   -8.3176    1.0000 </r>
       <r>   -7.7557    1.0000 </r>
       <r>   -7.4845    1.0000 </r>
       <r>   -6.6926    1.0000 </r>
       <r>   -6.6571    1.0000 </r>
       <r>   -6.6100    1.0000 </r>
       <r>   -5.8590    1.0000 </r>
       <r>   -5.7153    1.0000 </r>
       <r>   -5.3902    1.0000 </r>
       <r>   -5.3078    1.0000 </r>
       <r>   -5.1361    1.0000 </r>
       <r>   -4.9655    1.0000 </r>
       <r>   -4.7976    1.0000 </r>
       <r>   -4.6735    1.0000 </r>
       <r>   -4.5695    1.0000 </r>
       <r>   -4.4840    1.0000 </r>
       <r>   -4.1580    1.0000 </r>
       <r>   -4.0587    1.0000 </r>
       <r>   -3.7563    1.0000 </r>
       <r>   -3.6947    1.0000 </r>
       <r>   -3.4274    1.0000 </r>
       <r>   -3.3406    1.0000 </r>
       <r>   -3.0889    1.0000 </r>
       <r>   -2.9680    1.0000 </r>
       <r>   -2.8614    1.0000 </r>
       <r>   -2.6320    1.0000 </r>
       <r>   -2.5685    1.0000 </r>
       <r>   -2.4921    1.0000 </r>
       <r>   -2.4059    1.0000 </r>
       <r>   -2.3238    1.0000 </r>
       <r>   -1.8724    1.0000 </r>
       <r>   -1.8087    1.0000 </r>
       <r>   -1.7238    1.0000 </r>
       <r>   -1.5518    1.0000 </r>
       <r>   -1.4548    1.0000 </r>
       <r>   -1.4206    1.0000 </r>
       <r>   -1.0382    1.0000 </r>
       <r>   -0.9113    1.0000 </r>
       <r>   -0.5965    1.0000 </r>
       <r>   -0.2517    0.9644 </r>
       <r>    0.2341    0.0000 </r>
       <r>    0.5304    0.0000 </r>
       <r>    1.0291    0.0000 </r>
       <r>    1.6048    0.0000 </r>
       <r>    1.8817    0.0000 </r>
[...]
       <r>    2.6683    0.0000 </r>
      </set>
      <set comment="kpoint 54">
       <r>  -13.2343    1.0000 </r>
       <r>  -11.7713    1.0000 </r>
       <r>  -11.4687    1.0000 </r>
       <r>  -11.4589    1.0000 </r>
       <r>  -11.1436    1.0000 </r>
       <r>  -11.1178    1.0000 </r>
       <r>  -10.9232    1.0000 </r>
       <r>  -10.9126    1.0000 </r>
       <r>  -10.8227    1.0000 </r>
       <r>  -10.6965    1.0000 </r>
       <r>  -10.5952    1.0000 </r>
       <r>  -10.2602    1.0000 </r>
       <r>   -9.3804    1.0000 </r>
       <r>   -9.0179    1.0000 </r>
       <r>   -8.6394    1.0000 </r>
       <r>   -8.4144    1.0000 </r>
       <r>   -8.0933    1.0000 </r>
       <r>   -7.8784    1.0000 </r>
       <r>   -7.5409    1.0000 </r>
       <r>   -7.5242    1.0000 </r>
       <r>   -7.2690    1.0000 </r>
       <r>   -7.2578    1.0000 </r>
       <r>   -7.1442    1.0000 </r>
       <r>   -6.6753    1.0000 </r>
       <r>   -5.2923    1.0000 </r>
       <r>   -4.9177    1.0000 </r>
       <r>   -4.7161    1.0000 </r>
       <r>   -4.4896    1.0000 </r>
       <r>   -4.4453    1.0000 </r>
       <r>   -4.2649    1.0000 </r>
       <r>   -4.1931    1.0000 </r>
       <r>   -4.0628    1.0000 </r>
       <r>   -4.0199    1.0000 </r>
       <r>   -3.9133    1.0000 </r>
       <r>   -3.7449    1.0000 </r>
       <r>   -3.7343    1.0000 </r>
       <r>   -3.5288    1.0000 </r>
       <r>   -3.4648    1.0000 </r>
       <r>   -3.2316    1.0000 </r>
       <r>   -3.1232    1.0000 </r>
       <r>   -2.9993    1.0000 </r>
       <r>   -2.8397    1.0000 </r>
       <r>   -2.6966    1.0000 </r>
       <r>   -2.6467    1.0000 </r>
       <r>   -2.3520    1.0000 </r>
       <r>   -2.1920    1.0000 </r>
       <r>   -2.1132    1.0000 </r>
       <r>   -1.9263    1.0000 </r>
       <r>   -1.7488    1.0000 </r>
       <r>   -1.6622    1.0000 </r>
       <r>   -1.5042    1.0000 </r>
       <r>   -1.3334    1.0000 </r>
       <r>   -0.7114    1.0000 </r>
       <r>   -0.6129    1.0000 </r>
       <r>   -0.1985    0.8535 </r>
       <r>   -0.0321    0.0965 </r>
       <r>    0.7340    0.0000 </r>
       <r>    1.3605    0.0000 </r>
       <r>    1.4289    0.0000 </r>
       <r>    1.5820    0.0000 </r>
       <r>    1.7036    0.0000 </r>
       <r>    1.8695    0.0000 </r>
       <r>    2.0429    0.0000 </r>
       <r>    2.0884    0.0000 </r>
       <r>    2.2261    0.0000 </r>
       <r>    2.3365    0.0000 </r>
       <r>    2.4607    0.0000 </r>
       <r>    2.6038    0.0000 </r>
      </set>
     </set>
    </set>
   </array>
  </eigenvalues>
  <separator name="orbital magnetization" >
   <v name="MAGDIPOLOUT">      0.00000000      0.00000000      0.00000000</v>
  </separator>
  <dos>
   <i name="efermi">     -0.12410201 </i>
   <total>
    <array>
     <dimension dim="1">gridpoints</dimension>
     <dimension dim="2">spin</dimension>
     <field>energy</field>
     <field>total</field>
     <field>integrated</field>
     <set>
      <set comment="spin 1">
       <r>   -16.0147     0.0000     0.0000 </r>
       <r>   -15.9473     0.0000     0.0000 </r>
       <r>   -15.8800     0.0000     0.0000 </r>
       <r>   -15.8127     0.0000     0.0000 </r>
       <r>   -15.7454     0.0000     0.0000 </r>
       <r>   -15.6781     0.0000     0.0000 </r>
       <r>   -15.6107     0.0000     0.0000 </r>
       <r>   -15.5434     0.0000     0.0000 </r>
       <r>   -15.4761     0.0000     0.0000 </r>
       <r>   -15.4088     0.0000     0.0000 </r>
       <r>   -15.3415     0.0000     0.0000 </r>
       <r>   -15.2741     0.0003     0.0000 </r>
       <r>   -15.2068     0.0072     0.0005 </r>
       <r>   -15.1395     0.0928     0.0068 </r>
       <r>   -15.0722     0.5559     0.0442 </r>
       <r>   -15.0049     1.6207     0.1533 </r>
       <r>   -14.9375     2.3743     0.3131 </r>
       <r>   -14.8702     1.9713     0.4458 </r>
       <r>   -14.8029     1.6811     0.5590 </r>
       <r>   -14.7356     1.7495     0.6768 </r>
       <r>   -14.6683     1.0724     0.7490 </r>
       <r>   -14.6010     0.4672     0.7804 </r>
       <r>   -14.5336     0.8608     0.8384 </r>
       <r>   -14.4663     1.6144     0.9470 </r>
       <r>   -14.3990     1.3561     1.0383 </r>
       <r>   -14.3317     0.4929     1.0715 </r>
       <r>   -14.2644     0.1036     1.0785 </r>
       <r>   -14.1970     0.2546     1.0956 </r>
       <r>   -14.1297     0.9816     1.1617 </r>
       <r>   -14.0624     1.6611     1.2735 </r>
       <r>   -13.9951     1.2135     1.3552 </r>
       <r>   -13.9278     0.3821     1.3809 </r>
       <r>   -13.8604     0.0541     1.3846 </r>
       <r>   -13.7931     0.0499     1.3879 </r>
       <r>   -13.7258     0.3607     1.4122 </r>
       <r>   -13.6585     1.2026     1.4932 </r>
       <r>   -13.5912     1.8830     1.6199 </r>
       <r>   -13.5238     2.0644     1.7589 </r>
       <r>   -13.4565     3.0310     1.9630 </r>
       <r>   -13.3892     4.2546     2.2494 </r>
       <r>   -13.3219     4.5757     2.5574 </r>
       <r>   -13.2546     5.0234     2.8956 </r>
       <r>   -13.1872     5.1416     3.2417 </r>
       <r>   -13.1199     3.6723     3.4889 </r>
       <r>   -13.0526     2.3724     3.6486 </r>
       <r>   -12.9853     2.9282     3.8458 </r>
       <r>   -12.9180     4.2969     4.1350 </r>
       <r>   -12.8506     4.4605     4.4353 </r>
       <r>   -12.7833     3.6182     4.6789 </r>
       <r>   -12.7160     3.1584     4.8915 </r>
       <r>   -12.6487     3.8274     5.1492 </r>
       <r>   -12.5814     5.6191     5.5274 </r>
       <r>   -12.5141     6.7199     5.9798 </r>
       <r>   -12.4467     6.1195     6.3918 </r>
       <r>   -12.3794     5.2137     6.7428 </r>
       <r>   -12.3121     4.5488     7.0490 </r>
       <r>   -12.2448     4.5106     7.3527 </r>
       <r>   -12.1775     5.1707     7.7007 </r>
       <r>   -12.1101     5.6710     8.0825 </r>
       <r>   -12.0428     5.6683     8.4641 </r>
       <r>   -11.9755     6.4122     8.8958 </r>
       <r>   -11.9082     6.9358     9.3627 </r>
       <r>   -11.8409     6.2920     9.7862 </r>
       <r>   -11.7735     6.2047    10.2039 </r>
       <r>   -11.7062     6.3748    10.6331 </r>
       <r>   -11.6389     6.5038    11.0709 </r>
       <r>   -11.5716     7.2447    11.5586 </r>
       <r>   -11.5043     8.8072    12.1515 </r>
       <r>   -11.4369    10.1160    12.8325 </r>
       <r>   -11.3696     9.0326    13.4406 </r>
       <r>   -11.3023     7.5555    13.9492 </r>
       <r>   -11.2350     8.3640    14.5123 </r>
       <r>   -11.1677     9.4627    15.1493 </r>
       <r>   -11.1003     9.6334    15.7978 </r>
       <r>   -11.0330     9.7153    16.4518 </r>
       <r>   -10.9657    10.3540    17.1489 </r>
       <r>   -10.8984    10.6250    17.8641 </r>
       <r>   -10.8311    10.2403    18.5535 </r>
       <r>   -10.7637    10.7784    19.2791 </r>
       <r>   -10.6964    10.0018    19.9524 </r>
       <r>   -10.6291     8.0103    20.4917 </r>
       <r>   -10.5618     6.9170    20.9573 </r>
       <r>   -10.4945     5.5445    21.3306 </r>
       <r>   -10.4271     4.7612    21.6511 </r>
       <r>   -10.3598     5.1528    21.9980 </r>
       <r>   -10.2925     5.0451    22.3376 </r>
       <r>   -10.2252     4.3566    22.6309 </r>
       <r>   -10.1579     2.9342    22.8284 </r>
       <r>   -10.0906     1.3731    22.9209 </r>
       <r>   -10.0232     1.3930    23.0146 </r>
       <r>    -9.9559     3.3142    23.2378 </r>
       <r>    -9.8886     5.0763    23.5795 </r>
       <r>    -9.8213     4.1607    23.8596 </r>
       <r>    -9.7540     1.7167    23.9751 </r>
       <r>    -9.6866     0.3375    23.9979 </r>
       <r>    -9.6193     0.0327    24.0001 </r>
       <r>    -9.5520     0.0488    24.0034 </r>
       <r>    -9.4847     0.4412    24.0331 </r>
       <r>    -9.4174     1.9053    24.1613 </r>
       <r>    -9.3500     4.2624    24.4483 </r>
       <r>    -9.2827     6.0371    24.8547 </r>
       <r>    -9.2154     6.7194    25.3070 </r>
       <r>    -9.1481     6.5013    25.7447 </r>
       <r>    -9.0808     5.6912    26.1278 </r>
       <r>    -9.0134     4.5372    26.4333 </r>
       <r>    -8.9461     3.4165    26.6633 </r>
       <r>    -8.8788     2.5978    26.8381 </r>
       <r>    -8.8115     2.4717    27.0045 </r>
       <r>    -8.7442     3.7316    27.2557 </r>
       <r>    -8.6768     5.3523    27.6160 </r>
       <r>    -8.6095     5.1272    27.9612 </r>
       <r>    -8.5422     3.8249    28.2187 </r>
       <r>    -8.4749     3.5595    28.4583 </r>
       <r>    -8.4076     4.6419    28.7708 </r>
       <r>    -8.3402     6.3246    29.1966 </r>
       <r>    -8.2729     7.4714    29.6995 </r>
       <r>    -8.2056     6.9907    30.1702 </r>
       <r>    -8.1383     4.9750    30.5051 </r>
       <r>    -8.0710     3.4793    30.7393 </r>
       <r>    -8.0037     2.7255    30.9228 </r>
       <r>    -7.9363     2.3502    31.0810 </r>
       <r>    -7.8690     2.8717    31.2743 </r>
       <r>    -7.8017     3.8604    31.5342 </r>
       <r>    -7.7344     5.0352    31.8732 </r>
       <r>    -7.6671     5.5524    32.2469 </r>
       <r>    -7.5997     5.8597    32.6414 </r>
       <r>    -7.5324     6.5333    33.0812 </r>
       <r>    -7.4651     6.6700    33.5303 </r>
       <r>    -7.3978     6.8939    33.9944 </r>
       <r>    -7.3305     7.7537    34.5163 </r>
       <r>    -7.2631     8.6270    35.0971 </r>
       <r>    -7.1958     8.1459    35.6455 </r>
       <r>    -7.1285     6.1070    36.0566 </r>
       <r>    -7.0612     4.9037    36.3867 </r>
       <r>    -6.9939     5.3814    36.7490 </r>
       <r>    -6.9265     6.2278    37.1682 </r>
       <r>    -6.8592     6.8286    37.6279 </r>
       <r>    -6.7919     7.3428    38.1222 </r>
       <r>    -6.7246     8.8703    38.7194 </r>
       <r>    -6.6573    11.8019    39.5139 </r>
       <r>    -6.5899    12.0326    40.3239 </r>
       <r>    -6.5226     8.8522    40.9198 </r>
       <r>    -6.4553     6.5303    41.3594 </r>
       <r>    -6.3880     4.8430    41.6855 </r>
       <r>    -6.3207     3.2148    41.9019 </r>
       <r>    -6.2533     2.7438    42.0866 </r>
       <r>    -6.1860     3.0095    42.2892 </r>
       <r>    -6.1187     2.8265    42.4795 </r>
       <r>    -6.0514     1.9685    42.6120 </r>
       <r>    -5.9841     2.0560    42.7504 </r>
       <r>    -5.9168     3.6116    42.9935 </r>
       <r>    -5.8494     5.2959    43.3501 </r>
       <r>    -5.7821     6.5908    43.7937 </r>
       <r>    -5.7148     7.8423    44.3217 </r>
       <r>    -5.6475     8.7585    44.9113 </r>
       <r>    -5.5802     8.8886    45.5097 </r>
       <r>    -5.5128     9.3108    46.1365 </r>
       <r>    -5.4455     9.4919    46.7755 </r>
       <r>    -5.3782     8.0339    47.3163 </r>
       <r>    -5.3109     6.6395    47.7633 </r>
       <r>    -5.2436     5.9357    48.1628 </r>
       <r>    -5.1762     5.2608    48.5170 </r>
       <r>    -5.1089     5.0037    48.8538 </r>
       <r>    -5.0416     5.5121    49.2249 </r>
       <r>    -4.9743     6.8994    49.6894 </r>
       <r>    -4.9070     8.2906    50.2475 </r>
       <r>    -4.8396     9.4449    50.8833 </r>
       <r>    -4.7723    10.9366    51.6196 </r>
       <r>    -4.7050    12.3577    52.4515 </r>
       <r>    -4.6377    12.2111    53.2735 </r>
       <r>    -4.5704    10.8110    54.0013 </r>
       <r>    -4.5030    10.4820    54.7070 </r>
       <r>    -4.4357    10.9474    55.4439 </r>
       <r>    -4.3684    10.6885    56.1635 </r>
       <r>    -4.3011    10.9845    56.9030 </r>
       <r>    -4.2338    12.2169    57.7254 </r>
       <r>    -4.1664    12.7376    58.5829 </r>
       <r>    -4.0991    12.4405    59.4204 </r>
       <r>    -4.0318    13.2565    60.3128 </r>
       <r>    -3.9645    13.9618    61.2527 </r>
       <r>    -3.8972    11.6499    62.0369 </r>
       <r>    -3.8298     8.7357    62.6250 </r>
       <r>    -3.7625     9.7558    63.2818 </r>
       <r>    -3.6952    13.6594    64.2013 </r>
       <r>    -3.6279    14.2811    65.1627 </r>
       <r>    -3.5606    11.4769    65.9353 </r>
       <r>    -3.4933    10.8045    66.6627 </r>
       <r>    -3.4259    13.4532    67.5683 </r>
       <r>    -3.3586    15.3810    68.6038 </r>
       <r>    -3.2913    14.7846    69.5991 </r>
       <r>    -3.2240    14.3685    70.5664 </r>
       <r>    -3.1567    15.5062    71.6102 </r>
       <r>    -3.0893    16.7039    72.7347 </r>
       <r>    -3.0220    16.8160    73.8668 </r>
       <r>    -2.9547    16.4451    74.9738 </r>
       <r>    -2.8874    15.6389    76.0266 </r>
       <r>    -2.8201    13.6297    76.9442 </r>
       <r>    -2.7527    12.5958    77.7921 </r>
       <r>    -2.6854    14.7468    78.7849 </r>
       <r>    -2.6181    17.0588    79.9333 </r>
       <r>    -2.5508    17.0878    81.0836 </r>
       <r>    -2.4835    16.3798    82.1863 </r>
       <r>    -2.4161    15.7563    83.2470 </r>
       <r>    -2.3488    15.2938    84.2765 </r>
       <r>    -2.2815    14.4190    85.2472 </r>
       <r>    -2.2142    13.0629    86.1266 </r>
       <r>    -2.1469    12.4947    86.9677 </r>
       <r>    -2.0795    12.4766    87.8077 </r>
       <r>    -2.0122    13.1816    88.6950 </r>
       <r>    -1.9449    15.5223    89.7400 </r>
       <r>    -1.8776    17.9667    90.9495 </r>
       <r>    -1.8103    18.0755    92.1663 </r>
       <r>    -1.7429    16.8813    93.3028 </r>
       <r>    -1.6756    15.9253    94.3749 </r>
       <r>    -1.6083    14.6211    95.3591 </r>
       <r>    -1.5410    14.3629    96.3260 </r>
       <r>    -1.4737    15.1450    97.3456 </r>
       <r>    -1.4064    14.9382    98.3512 </r>
       <r>    -1.3390    13.1403    99.2358 </r>
       <r>    -1.2717    10.8021    99.9630 </r>
       <r>    -1.2044     8.6965   100.5484 </r>
       <r>    -1.1371     7.6576   101.0640 </r>
       <r>    -1.0698     7.4074   101.5626 </r>
       <r>    -1.0024     6.9575   102.0310 </r>
       <r>    -0.9351     6.8498   102.4921 </r>
       <r>    -0.8678     7.0137   102.9643 </r>
       <r>    -0.8005     6.9319   103.4309 </r>
       <r>    -0.7332     7.4978   103.9357 </r>
       <r>    -0.6658     9.1041   104.5486 </r>
       <r>    -0.5985    10.3397   105.2446 </r>
       <r>    -0.5312    10.0224   105.9193 </r>
       <r>    -0.4639     8.0241   106.4595 </r>
       <r>    -0.3966     4.8574   106.7865 </r>
       <r>    -0.3292     2.7058   106.9687 </r>
       <r>    -0.2619     3.5073   107.2048 </r>
       <r>    -0.1946     5.6565   107.5856 </r>
       <r>    -0.1273     5.9029   107.9829 </r>
       <r>    -0.0600     5.1073   108.3268 </r>
       <r>     0.0074     5.4951   108.6967 </r>
       <r>     0.0747     5.6555   109.0774 </r>
       <r>     0.1420     4.4901   109.3797 </r>
       <r>     0.2093     3.0007   109.5817 </r>
       <r>     0.2766     2.6705   109.7615 </r>
       <r>     0.3440     3.6202   110.0052 </r>
       <r>     0.4113     4.8442   110.3313 </r>
       <r>     0.4786     5.9010   110.7285 </r>
       <r>     0.5459     6.0282   111.1344 </r>
       <r>     0.6132     4.2697   111.4218 </r>
       <r>     0.6805     2.5034   111.5903 </r>
       <r>     0.7479     2.6776   111.7706 </r>
       <r>     0.8152     4.4765   112.0719 </r>
       <r>     0.8825     6.2796   112.4947 </r>
       <r>     0.9498     6.5529   112.9358 </r>
       <r>     1.0171     5.9018   113.3331 </r>
       <r>     1.0845     5.3140   113.6909 </r>
       <r>     1.1518     4.9351   114.0231 </r>
       <r>     1.2191     5.6934   114.4064 </r>
       <r>     1.2864     6.9568   114.8747 </r>
       <r>     1.3537     7.9267   115.4083 </r>
       <r>     1.4211     8.8930   116.0070 </r>
       <r>     1.4884     9.2144   116.6273 </r>
       <r>     1.5557     9.5645   117.2712 </r>
       <r>     1.6230    10.7492   117.9948 </r>
       <r>     1.6903    11.9820   118.8014 </r>
       <r>     1.7577    13.2741   119.6950 </r>
       <r>     1.8250    13.4515   120.6006 </r>
       <r>     1.8923    11.9249   121.4033 </r>
       <r>     1.9596    10.9701   122.1418 </r>
       <r>     2.0269    11.8120   122.9370 </r>
       <r>     2.0943    13.2748   123.8307 </r>
       <r>     2.1616    14.3747   124.7984 </r>
       <r>     2.2289    14.8270   125.7965 </r>
       <r>     2.2962    15.3243   126.8281 </r>
       <r>     2.3635    15.9443   127.9015 </r>
       <r>     2.4309    15.9813   128.9773 </r>
       <r>     2.4982    15.4336   130.0163 </r>
       <r>     2.5655    14.8731   131.0176 </r>
       <r>     2.6328    13.9176   131.9545 </r>
       <r>     2.7001    12.1872   132.7749 </r>
       <r>     2.7675    10.1447   133.4579 </r>
       <r>     2.8348     7.8234   133.9845 </r>
       <r>     2.9021     6.2754   134.4070 </r>
       <r>     2.9694     6.0948   134.8173 </r>
       <r>     3.0367     6.1419   135.2307 </r>
       <r>     3.1040     5.3814   135.5930 </r>
       <r>     3.1714     3.6836   135.8410 </r>
       <r>     3.2387     1.7710   135.9602 </r>
       <r>     3.3060     0.5095   135.9945 </r>
       <r>     3.3733     0.0759   135.9996 </r>
       <r>     3.4406     0.0054   136.0000 </r>
       <r>     3.5080     0.0002   136.0000 </r>
       <r>     3.5753     0.0000   136.0000 </r>
       <r>     3.6426     0.0000   136.0000 </r>
       <r>     3.7099     0.0000   136.0000 </r>
       <r>     3.7772     0.0000   136.0000 </r>
       <r>     3.8446     0.0000   136.0000 </r>
       <r>     3.9119     0.0000   136.0000 </r>
       <r>     3.9792     0.0000   136.0000 </r>
       <r>     4.0465     0.0000   136.0000 </r>
       <r>     4.1138     0.0000   136.0000 </r>
       <r>     4.1812     0.0000   136.0000 </r>
      </set>
     </set>
    </array>
   </total>
  </dos>
 </calculation>
 <structure name="finalpos" >
  <crystal>
   <varray name="basis" >
    <v>       3.54040000       0.00000000       0.00000000 </v>
    <v>      -1.77020000      10.29434800       0.00000000 </v>
    <v>       0.00000000       0.00000000      27.50142900 </v>
   </varray>
   <i name="volume">   1002.32009712 </i>
   <varray name="rec_basis" >
    <v>       0.28245396       0.04857034       0.00000000 </v>
    <v>       0.00000000       0.09714068       0.00000000 </v>
    <v>       0.00000000       0.00000000       0.03636175 </v>
   </varray>
  </crystal>
  <varray name="positions" >
   <v>       0.11402300       0.22804500       0.23316207 </v>
   <v>       0.31402300       0.72804500       0.51499159 </v>
   <v>       0.45808900       0.91617900       0.20939482 </v>
   <v>       0.65808900       0.41617900       0.49122434 </v>
   <v>       0.31085400       0.62170900       0.08414979 </v>
   <v>       0.31085400       0.62170900       0.36597930 </v>
   <v>       0.99923000       0.99846000       0.08631254 </v>
   <v>       0.99923000       0.99846000       0.36814206 </v>
   <v>       0.65492700       0.30985400       0.06041748 </v>
   <v>       0.65492700       0.30985400       0.34224700 </v>
   <v>       0.76973800       0.53947500       0.20725292 </v>
   <v>       0.96973800       0.03947500       0.48908244 </v>
   <v>       0.93971600       0.87943300       0.15783749 </v>
   <v>       0.13971600       0.37943300       0.43966701 </v>
   <v>       0.20515200       0.41030300       0.18578822 </v>
   <v>       0.40515200       0.91030300       0.46761774 </v>
   <v>       0.20184900       0.40369900       0.09969156 </v>
   <v>       0.20184900       0.40369900       0.38152107 </v>
   <v>       0.56380500       0.12761000       0.10779021 </v>
   <v>       0.56380500       0.12761000       0.38961973 </v>
   <v>       0.56710600       0.13421200       0.19387616 </v>
   <v>       0.76710600       0.63421200       0.47570568 </v>
   <v>       0.82923400       0.65846800       0.13571444 </v>
   <v>       0.02923400       0.15846800       0.41754396 </v>
  </varray>
 </structure>
</modeling>
