<?xml version="1.0" encoding="ISO-8859-1"?>
<modeling>
 <generator>
  <i name="program" type="string">vasp </i>
  <i name="version" type="string">5.3.5  </i>
  <i name="subversion" type="string">31Mar14 (build Oct 29 2014 16:16:03) complex                          parallel </i>
  <i name="platform" type="string">Linux-UFHPC </i>
  <i name="date" type="string">2016 02 09 </i>
  <i name="time" type="string">17:45:16 </i>
 </generator>
 <incar>
  <i type="string" name="PREC">accurate</i>
  <i type="int" name="IBRION">     2</i>
  <i name="EDIFF">      0.00000100</i>
  <i type="int" name="NSW">     0</i>
  <i type="int" name="ISIF">     3</i>
  <i name="ENCUT">    300.00000000</i>
  <i type="string" name="LREAL"> Auto</i>
  <i type="int" name="ISMEAR">     0</i>
  <i name="SIGMA">      0.10000000</i>
  <i type="logical" name="LWAVE"> F  </i>
  <i type="logical" name="LCHARG"> F  </i>
  <i type="logical" name="LAECHG"> F  </i>
  <i type="string" name="GGA"> Bo</i>
  <i name="PARAM1">      0.18333333</i>
  <i name="PARAM2">      0.22000000</i>
  <i type="logical" name="LUSE_VDW"> T  </i>
  <i name="AGGAC">      0.00000000</i>
 </incar>
 <kpoints>
  <generation param="Gamma">
   <v type="int" name="divisions">      13        4        2 </v>
   <v name="usershift">      0.00000000       0.00000000       0.00000000 </v>
   <v name="genvec1">      0.07692308      -0.00000000       0.00000000 </v>
   <v name="genvec2">      0.00000000       0.25000000       0.00000000 </v>
   <v name="genvec3">      0.00000000       0.00000000       0.50000000 </v>
   <v name="shift">      0.00000000       0.00000000       0.00000000 </v>
  </generation>
  <varray name="kpointlist" >
   <v>       0.00000000       0.00000000       0.00000000 </v>
   <v>       0.07692308      -0.00000000       0.00000000 </v>
   <v>       0.15384615      -0.00000000       0.00000000 </v>
   <v>       0.23076923      -0.00000000       0.00000000 </v>
   <v>       0.30769231      -0.00000000       0.00000000 </v>
   <v>       0.38461538      -0.00000000       0.00000000 </v>
   <v>       0.46153846      -0.00000000       0.00000000 </v>
   <v>       0.00000000       0.25000000       0.00000000 </v>
   <v>       0.07692308       0.25000000       0.00000000 </v>
   <v>       0.15384615       0.25000000       0.00000000 </v>
   <v>       0.23076923       0.25000000       0.00000000 </v>
   <v>       0.30769231       0.25000000       0.00000000 </v>
   <v>       0.38461538       0.25000000       0.00000000 </v>
   <v>       0.46153846       0.25000000       0.00000000 </v>
   <v>      -0.46153846       0.25000000       0.00000000 </v>
   <v>      -0.38461538       0.25000000       0.00000000 </v>
   <v>      -0.30769231       0.25000000       0.00000000 </v>
   <v>      -0.23076923       0.25000000       0.00000000 </v>
   <v>      -0.15384615       0.25000000       0.00000000 </v>
   <v>      -0.07692308       0.25000000       0.00000000 </v>
   <v>       0.00000000       0.50000000       0.00000000 </v>
   <v>       0.07692308       0.50000000       0.00000000 </v>
   <v>       0.15384615       0.50000000       0.00000000 </v>
   <v>       0.23076923       0.50000000       0.00000000 </v>
   <v>       0.30769231       0.50000000       0.00000000 </v>
   <v>       0.38461538       0.50000000       0.00000000 </v>
   <v>       0.46153846       0.50000000       0.00000000 </v>
   <v>       0.00000000       0.00000000       0.50000000 </v>
   <v>       0.07692308      -0.00000000       0.50000000 </v>
   <v>       0.15384615      -0.00000000       0.50000000 </v>
   <v>       0.23076923      -0.00000000       0.50000000 </v>
   <v>       0.30769231      -0.00000000       0.50000000 </v>
   <v>       0.38461538      -0.00000000       0.50000000 </v>
   <v>       0.46153846      -0.00000000       0.50000000 </v>
   <v>       0.00000000       0.25000000       0.50000000 </v>
   <v>       0.07692308       0.25000000       0.50000000 </v>
   <v>       0.15384615       0.25000000       0.50000000 </v>
   <v>       0.23076923       0.25000000       0.50000000 </v>
   <v>       0.30769231       0.25000000       0.50000000 </v>
   <v>       0.38461538       0.25000000       0.50000000 </v>
   <v>       0.46153846       0.25000000       0.50000000 </v>
   <v>      -0.46153846       0.25000000       0.50000000 </v>
   <v>      -0.38461538       0.25000000       0.50000000 </v>
   <v>      -0.30769231       0.25000000       0.50000000 </v>
   <v>      -0.23076923       0.25000000       0.50000000 </v>
   <v>      -0.15384615       0.25000000       0.50000000 </v>
   <v>      -0.07692308       0.25000000       0.50000000 </v>
   <v>       0.00000000       0.50000000       0.50000000 </v>
   <v>       0.07692308       0.50000000       0.50000000 </v>
   <v>       0.15384615       0.50000000       0.50000000 </v>
   <v>       0.23076923       0.50000000       0.50000000 </v>
   <v>       0.30769231       0.50000000       0.50000000 </v>
   <v>       0.38461538       0.50000000       0.50000000 </v>
   <v>       0.46153846       0.50000000       0.50000000 </v>
  </varray>
  <varray name="weights" >
   <v>       0.00961538 </v>
   <v>       0.01923077 </v>
   <v>       0.01923077 </v>
   <v>       0.01923077 </v>
   <v>       0.01923077 </v>
   <v>       0.01923077 </v>
   <v>       0.01923077 </v>
   <v>       0.01923077 </v>
   <v>       0.01923077 </v>
   <v>       0.01923077 </v>
   <v>       0.01923077 </v>
   <v>       0.01923077 </v>
   <v>       0.01923077 </v>
   <v>       0.01923077 </v>
   <v>       0.01923077 </v>
   <v>       0.01923077 </v>
   <v>       0.01923077 </v>
   <v>       0.01923077 </v>
   <v>       0.01923077 </v>
   <v>       0.01923077 </v>
   <v>       0.00961538 </v>
   <v>       0.01923077 </v>
   <v>       0.01923077 </v>
   <v>       0.01923077 </v>
   <v>       0.01923077 </v>
   <v>       0.01923077 </v>
   <v>       0.01923077 </v>
   <v>       0.00961538 </v>
   <v>       0.01923077 </v>
   <v>       0.01923077 </v>
   <v>       0.01923077 </v>
   <v>       0.01923077 </v>
   <v>       0.01923077 </v>
   <v>       0.01923077 </v>
   <v>       0.01923077 </v>
   <v>       0.01923077 </v>
   <v>       0.01923077 </v>
   <v>       0.01923077 </v>
   <v>       0.01923077 </v>
   <v>       0.01923077 </v>
   <v>       0.01923077 </v>
   <v>       0.01923077 </v>
   <v>       0.01923077 </v>
   <v>       0.01923077 </v>
   <v>       0.01923077 </v>
   <v>       0.01923077 </v>
   <v>       0.01923077 </v>
   <v>       0.00961538 </v>
   <v>       0.01923077 </v>
   <v>       0.01923077 </v>
   <v>       0.01923077 </v>
   <v>       0.01923077 </v>
   <v>       0.01923077 </v>
   <v>       0.01923077 </v>
  </varray>
 </kpoints>
 <parameters>
  <separator name="general" >
   <i type="string" name="SYSTEM">unknown system</i>
   <i type="logical" name="LCOMPAT"> F  </i>
  </separator>
  <separator name="electronic" >
   <i type="string" name="PREC">accura</i>
   <i name="ENMAX">    300.00000000</i>
   <i name="ENAUG">    342.92400000</i>
   <i name="EDIFF">      0.00000100</i>
   <i type="int" name="IALGO">    38</i>
   <i type="int" name="IWAVPR">    10</i>
   <i type="int" name="NBANDS">    68</i>
   <i name="NELECT">    108.00000000</i>
   <i type="int" name="TURBO">     0</i>
   <i type="int" name="IRESTART">     0</i>
   <i type="int" name="NREBOOT">     0</i>
   <i type="int" name="NMIN">     0</i>
   <i name="EREF">      0.00000000</i>
   <separator name="electronic smearing" >
    <i type="int" name="ISMEAR">     0</i>
    <i name="SIGMA">      0.10000000</i>
    <i name="KSPACING">      0.50000000</i>
    <i type="logical" name="KGAMMA"> T  </i>
   </separator>
   <separator name="electronic projectors" >
    <i type="logical" name="LREAL"> T  </i>
    <v name="ROPT">     -0.00025000     -0.00025000</v>
    <i type="int" name="LMAXPAW">  -100</i>
    <i type="int" name="LMAXMIX">     2</i>
    <i type="logical" name="NLSPLINE"> F  </i>
   </separator>
   <separator name="electronic startup" >
    <i type="int" name="ISTART">     0</i>
    <i type="int" name="ICHARG">     2</i>
    <i type="int" name="INIWAV">     1</i>
   </separator>
   <separator name="electronic spin" >
    <i type="int" name="ISPIN">     1</i>
    <i type="logical" name="LNONCOLLINEAR"> F  </i>
    <v name="MAGMOM">      1.00000000      1.00000000      1.00000000      1.00000000      1.00000000      1.00000000      1.00000000      1.00000000      1.00000000      1.00000000      1.00000000      1.00000000      1.00000000      1.00000000      1.00000000      1.00000000      1.00000000      1.00000000      1.00000000      1.00000000
      1.00000000      1.00000000      1.00000000      1.00000000</v>
    <i name="NUPDOWN">     -1.00000000</i>
    <i type="logical" name="LSORBIT"> F  </i>
    <v name="SAXIS">      0.00000000      0.00000000      1.00000000</v>
    <i type="logical" name="LSPIRAL"> F  </i>
    <v name="QSPIRAL">      0.00000000      0.00000000      0.00000000</v>
    <i type="logical" name="LZEROZ"> F  </i>
   </separator>
   <separator name="electronic exchange-correlation" >
    <i type="logical" name="LASPH"> F  </i>
    <i type="logical" name="LMETAGGA"> F  </i>
   </separator>
   <separator name="electronic convergence" >
    <i type="int" name="NELM">    60</i>
    <i type="int" name="NELMDL">    -5</i>
    <i type="int" name="NELMIN">     2</i>
    <i name="ENINI">    300.00000000</i>
    <separator name="electronic convergence detail" >
     <i type="logical" name="LDIAG"> T  </i>
     <i type="logical" name="LSUBROT"> F  </i>
     <i name="WEIMIN">      0.00000000</i>
     <i name="EBREAK">      0.00000000</i>
     <i name="DEPER">      0.30000000</i>
     <i type="int" name="NRMM">     4</i>
     <i name="TIME">      0.40000000</i>
    </separator>
   </separator>
   <separator name="electronic mixer" >
    <i name="AMIX">      0.40000000</i>
    <i name="BMIX">      1.00000000</i>
    <i name="AMIN">      0.10000000</i>
    <i name="AMIX_MAG">      1.60000000</i>
    <i name="BMIX_MAG">      1.00000000</i>
    <separator name="electronic mixer details" >
     <i type="int" name="IMIX">     4</i>
     <i type="int" name="MAXMIX">   -45</i>
     <i name="WC">    100.00000000</i>
     <i type="int" name="INIMIX">     1</i>
     <i type="int" name="MIXPRE">     1</i>
     <i type="int" name="MREMOVE">     5</i>
    </separator>
   </separator>
   <separator name="electronic dipolcorrection" >
    <i type="logical" name="LDIPOL"> F  </i>
    <i type="logical" name="LMONO"> F  </i>
    <i type="int" name="IDIPOL">     0</i>
    <i name="EPSILON">      1.00000000</i>
    <v name="DIPOL">   -100.00000000   -100.00000000   -100.00000000</v>
    <i name="EFIELD">      0.00000000</i>
   </separator>
  </separator>
  <separator name="grids" >
   <i type="int" name="NGX">    20</i>
   <i type="int" name="NGY">    60</i>
   <i type="int" name="NGZ">   160</i>
   <i type="int" name="NGXF">    40</i>
   <i type="int" name="NGYF">   120</i>
   <i type="int" name="NGZF">   320</i>
   <i type="logical" name="ADDGRID"> F  </i>
  </separator>
  <separator name="ionic" >
   <i type="int" name="NSW">     0</i>
   <i type="int" name="IBRION">    -1</i>
   <i type="int" name="ISIF">     3</i>
   <i name="PSTRESS">      0.00000000</i>
   <i name="EDIFFG">      0.00001000</i>
   <i type="int" name="NFREE">     1</i>
   <i name="POTIM">      0.50000000</i>
   <i name="SMASS">     -3.00000000</i>
   <i name="SCALEE">      1.00000000</i>
  </separator>
  <separator name="ionic md" >
   <i name="TEBEG">      0.00010000</i>
   <i name="TEEND">      0.00010000</i>
   <i type="int" name="NBLOCK">     1</i>
   <i type="int" name="KBLOCK">     1</i>
   <i type="int" name="NPACO">   256</i>
   <i name="APACO">     16.00000000</i>
  </separator>
  <separator name="symmetry" >
   <i type="int" name="ISYM">     2</i>
   <i name="SYMPREC">      0.00001000</i>
  </separator>
  <separator name="dos" >
   <i type="logical" name="LORBIT"> F  </i>
   <v name="RWIGS">     -1.00000000     -1.00000000</v>
   <i type="int" name="NEDOS">   301</i>
   <i name="EMIN">     10.00000000</i>
   <i name="EMAX">    -10.00000000</i>
   <i name="EFERMI">      0.00000000</i>
  </separator>
  <separator name="writing" >
   <i type="int" name="NWRITE">     2</i>
   <i type="logical" name="LWAVE"> F  </i>
   <i type="logical" name="LCHARG"> F  </i>
   <i type="logical" name="LPARD"> F  </i>
   <i type="logical" name="LVTOT"> F  </i>
   <i type="logical" name="LVHAR"> F  </i>
   <i type="logical" name="LELF"> F  </i>
   <i type="logical" name="LOPTICS"> F  </i>
   <v name="STM">      0.00000000      0.00000000      0.00000000      0.00000000      0.00000000      0.00000000      0.00000000</v>
  </separator>
  <separator name="performance" >
   <i type="int" name="NPAR">     4</i>
   <i type="int" name="NSIM">     4</i>
   <i type="int" name="NBLK">    -1</i>
   <i type="logical" name="LPLANE"> T  </i>
   <i type="logical" name="LSCALAPACK"> T  </i>
   <i type="logical" name="LSCAAWARE"> F  </i>
   <i type="logical" name="LSCALU"> F  </i>
   <i type="logical" name="LASYNC"> F  </i>
   <i type="logical" name="LORBITALREAL"> F  </i>
  </separator>
  <separator name="miscellaneous" >
   <i type="int" name="IDIOT">     3</i>
   <i type="logical" name="LMUSIC"> F  </i>
   <v name="POMASS">     30.97400000     28.08500000</v>
   <v name="DARWINR">      0.00000000      0.00000000</v>
   <v name="DARWINV">      1.00000000      1.00000000</v>
   <i type="logical" name="LCORR"> T  </i>
  </separator>
  <i type="logical" name="GGA_COMPAT"> T  </i>
  <i type="logical" name="LBERRY"> F  </i>
  <i type="int" name="ICORELEVEL">     0</i>
  <i type="logical" name="LDAU"> F  </i>
  <i type="int" name="I_CONSTRAINED_M">     0</i>
  <separator name="electronic exchange-correlation" >
   <i type="string" name="GGA">BO</i>
   <i type="int" name="VOSKOWN">     0</i>
   <i type="logical" name="LHFCALC"> F  </i>
   <i type="string" name="PRECFOCK"></i>
   <i type="logical" name="LSYMGRAD"> F  </i>
   <i type="logical" name="LHFONE"> F  </i>
   <i type="logical" name="LRHFCALC"> F  </i>
   <i type="logical" name="LTHOMAS"> F  </i>
   <i type="logical" name="LMODELHF"> F  </i>
   <i name="ENCUT4O">     -1.00000000</i>
   <i type="int" name="EXXOEP">     0</i>
   <i type="int" name="FOURORBIT">     0</i>
   <i name="AEXX">      0.00000000</i>
   <i name="HFALPHA">      0.00000000</i>
   <i name="MCALPHA">      0.00000000</i>
   <i name="ALDAX">      1.00000000</i>
   <i name="AGGAX">      1.00000000</i>
   <i name="ALDAC">      1.00000000</i>
   <i name="AGGAC">      0.00000000</i>
   <i type="int" name="NKREDX">     1</i>
   <i type="int" name="NKREDY">     1</i>
   <i type="int" name="NKREDZ">     1</i>
   <i type="logical" name="SHIFTRED"> F  </i>
   <i type="logical" name="ODDONLY"> F  </i>
   <i type="logical" name="EVENONLY"> F  </i>
   <i type="int" name="LMAXFOCK">     0</i>
   <i type="int" name="NMAXFOCKAE">     0</i>
   <i type="logical" name="LFOCKAEDFT"> F  </i>
   <i name="HFSCREEN">      0.00000000</i>
   <i name="HFSCREENC">      0.00000000</i>
   <i type="int" name="NBANDSGWLOW">     0</i>
  </separator>
  <separator name="vdW DFT" >
   <i type="logical" name="LUSE_VDW"> T  </i>
   <i name="Zab_VDW">     -0.84910000</i>
   <i name="PARAM1">      0.18333333</i>
   <i name="PARAM2">      0.22000000</i>
   <i name="PARAM3">      0.00000000</i>
  </separator>
  <separator name="model GW" >
   <i type="int" name="MODEL_GW">     0</i>
   <i name="MODEL_EPS0">     25.05800243</i>
   <i name="MODEL_ALPHA">      1.00000000</i>
  </separator>
  <separator name="linear response parameters" >
   <i type="logical" name="LEPSILON"> F  </i>
   <i type="logical" name="LRPA"> F  </i>
   <i type="logical" name="LNABLA"> F  </i>
   <i type="logical" name="LVEL"> F  </i>
   <i type="int" name="KINTER">     0</i>
   <i name="CSHIFT">      0.10000000</i>
   <i name="OMEGAMAX">     -1.00000000</i>
   <i name="DEG_THRESHOLD">      0.00200000</i>
  </separator>
  <separator name="orbital magnetization" >
   <i type="logical" name="NUCIND"> F  </i>
   <v name="MAGPOS">      0.00000000      0.00000000      0.00000000</v>
   <i type="logical" name="LNICSALL"> T  </i>
   <i type="logical" name="ORBITALMAG"> F  </i>
   <i type="logical" name="LMAGBLOCH"> F  </i>
   <i type="logical" name="LCHIMAG"> F  </i>
   <i type="logical" name="LGAUGE"> T  </i>
   <i type="int" name="MAGATOM">     0</i>
   <v name="MAGDIPOL">      0.00000000      0.00000000      0.00000000</v>
   <v name="AVECCONST">      0.00000000      0.00000000      0.00000000</v>
  </separator>
  <separator name="response functions" >
   <i type="logical" name="LADDER"> F  </i>
   <i type="logical" name="LFXC"> F  </i>
   <i type="logical" name="LHARTREE"> T  </i>
   <i type="int" name="IBSE">     0</i>
   <i type="logical" name="LTCTE"> F  </i>
   <i type="logical" name="LTETE"> F  </i>
   <i type="logical" name="LTRIPLET"> F  </i>
   <i type="logical" name="LFXCEPS"> F  </i>
   <i type="logical" name="LFXHEG"> F  </i>
   <i type="logical" name="L2ORDER"> F  </i>
   <i type="logical" name="LUSEW"> F  </i>
   <i name="ENCUTGW">     -2.00000000</i>
   <i name="ENCUTGWSOFT">     -2.00000000</i>
   <i name="ENCUTLF">     -1.00000000</i>
   <i type="int" name="LMAXMP2">    -1</i>
   <i name="SCISSOR">      0.00000000</i>
   <i type="int" name="NOMEGA">     0</i>
   <i type="int" name="NOMEGAR">     0</i>
   <i type="int" name="NBANDSGW">    -1</i>
   <i type="int" name="NBANDSO">    -1</i>
   <i type="int" name="NBANDSV">    -1</i>
   <i type="int" name="NELM">     1</i>
   <i type="int" name="DIM">     3</i>
   <i type="int" name="ANTIRES">     0</i>
   <i name="OMEGAMAX">    -30.00000000</i>
   <i name="OMEGAMIN">    -30.00000000</i>
   <i name="OMEGATL">   -200.00000000</i>
   <i type="int" name="OMEGAGRID">     0</i>
   <i name="CSHIFT">     -0.10000000</i>
   <i type="logical" name="SELFENERGY"> F  </i>
   <i type="logical" name="LSPECTRAL"> F  </i>
   <i type="logical" name="ODDONLYGW"> F  </i>
   <i type="logical" name="EVENONLYGW"> F  </i>
   <i type="int" name="NKREDLFX">     1</i>
   <i type="int" name="NKREDLFY">     1</i>
   <i type="int" name="NKREDLFZ">     1</i>
   <i type="int" name="MAXMEM">  1800</i>
   <i type="int" name="TELESCOPE">     0</i>
   <i type="int" name="TAUPAR">     1</i>
  </separator>
  <separator name="External order field" >
   <i name="OFIELD_KAPPA">      0.00000000</i>
   <v name="OFIELD_K">      0.00000000      0.00000000      0.00000000</v>
   <i name="OFIELD_Q6_NEAR">      0.00000000</i>
   <i name="OFIELD_Q6_FAR">      0.00000000</i>
   <i name="OFIELD_A">      0.00000000</i>
  </separator>
 </parameters>
 <atominfo>
  <atoms>      24 </atoms>
  <types>       2 </types>
  <array name="atoms" >
   <dimension dim="1">ion</dimension>
   <field type="string">element</field>
   <field type="int">atomtype</field>
   <set>
    <rc><c>P </c><c>   1</c></rc>
    <rc><c>P </c><c>   1</c></rc>
    <rc><c>P </c><c>   1</c></rc>
    <rc><c>P </c><c>   1</c></rc>
    <rc><c>P </c><c>   1</c></rc>
    <rc><c>P </c><c>   1</c></rc>
    <rc><c>P </c><c>   1</c></rc>
    <rc><c>P </c><c>   1</c></rc>
    <rc><c>P </c><c>   1</c></rc>
    <rc><c>P </c><c>   1</c></rc>
    <rc><c>P </c><c>   1</c></rc>
    <rc><c>P </c><c>   1</c></rc>
    <rc><c>Si</c><c>   2</c></rc>
    <rc><c>Si</c><c>   2</c></rc>
    <rc><c>Si</c><c>   2</c></rc>
    <rc><c>Si</c><c>   2</c></rc>
    <rc><c>Si</c><c>   2</c></rc>
    <rc><c>Si</c><c>   2</c></rc>
    <rc><c>Si</c><c>   2</c></rc>
    <rc><c>Si</c><c>   2</c></rc>
    <rc><c>Si</c><c>   2</c></rc>
    <rc><c>Si</c><c>   2</c></rc>
    <rc><c>Si</c><c>   2</c></rc>
    <rc><c>Si</c><c>   2</c></rc>
   </set>
  </array>
  <array name="atomtypes" >
   <dimension dim="1">type</dimension>
   <field type="int">atomspertype</field>
   <field type="string">element</field>
   <field>mass</field>
   <field>valence</field>
   <field type="string">pseudopotential</field>
   <set>
    <rc><c>  12</c><c>P </c><c>     30.97400000</c><c>      5.00000000</c><c>  PAW_PBE P 17Jan2003                   </c></rc>
    <rc><c>  12</c><c>Si</c><c>     28.08500000</c><c>      4.00000000</c><c> PAW_PBE Si 05Jan2001                   </c></rc>
   </set>
  </array>
 </atominfo>
 <structure name="initialpos" >
  <crystal>
   <varray name="basis" >
    <v>       3.54040000       0.00000000       0.00000000 </v>
    <v>      -1.77020000      10.29434800       0.00000000 </v>
    <v>       0.00000000       0.00000000      27.50142900 </v>
   </varray>
   <i name="volume">   1002.32009712 </i>
   <varray name="rec_basis" >
    <v>       0.28245396       0.04857034       0.00000000 </v>
    <v>       0.00000000       0.09714068       0.00000000 </v>
    <v>       0.00000000       0.00000000       0.03636175 </v>
   </varray>
  </crystal>
  <varray name="positions" >
   <v>       0.11402300       0.22804500       0.23316207 </v>
   <v>       0.41402300       0.72804500       0.51499159 </v>
   <v>       0.45808900       0.91617900       0.20939482 </v>
   <v>       0.75808900       0.41617900       0.49122434 </v>
   <v>       0.31085400       0.62170900       0.08414979 </v>
   <v>       0.31085400       0.62170900       0.36597930 </v>
   <v>       0.99923000       0.99846000       0.08631254 </v>
   <v>       0.99923000       0.99846000       0.36814206 </v>
   <v>       0.65492700       0.30985400       0.06041748 </v>
   <v>       0.65492700       0.30985400       0.34224700 </v>
   <v>       0.76973800       0.53947500       0.20725292 </v>
   <v>       0.06973800       0.03947500       0.48908244 </v>
   <v>       0.93971600       0.87943300       0.15783749 </v>
   <v>       0.23971600       0.37943300       0.43966701 </v>
   <v>       0.20515200       0.41030300       0.18578822 </v>
   <v>       0.50515200       0.91030300       0.46761774 </v>
   <v>       0.20184900       0.40369900       0.09969156 </v>
   <v>       0.20184900       0.40369900       0.38152107 </v>
   <v>       0.56380500       0.12761000       0.10779021 </v>
   <v>       0.56380500       0.12761000       0.38961973 </v>
   <v>       0.56710600       0.13421200       0.19387616 </v>
   <v>       0.86710600       0.63421200       0.47570568 </v>
   <v>       0.82923400       0.65846800       0.13571444 </v>
   <v>       0.12923400       0.15846800       0.41754396 </v>
  </varray>
 </structure>
 <calculation>
  <scstep>
   <time name="dav">   66.83   66.86</time>
   <time name="total">   83.07   83.11</time>
   <energy>
    <i name="alphaZ">     36.80884744 </i>
    <i name="ewald">  12038.37508336 </i>
    <i name="hartreedc"> -15061.04606959 </i>
    <i name="XCdc">    -86.91762752 </i>
    <i name="pawpsdc">   1056.43050070 </i>
    <i name="pawaedc">   -732.41190547 </i>
    <i name="eentropy">     -0.04659514 </i>
    <i name="bandstr">    -98.14831389 </i>
    <i name="atom">   3354.04126044 </i>
    <i name="e_fr_energy">    507.08518033 </i>
    <i name="e_wo_entrp">    507.13177547 </i>
    <i name="e_0_energy">    507.10847790 </i>
   </energy>
  </scstep>
  <scstep>
   <time name="dav">   83.41   83.44</time>
   <time name="total">   83.42   83.45</time>
   <energy>
    <i name="e_fr_energy">    -59.44727775 </i>
    <i name="e_wo_entrp">    -59.42828274 </i>
    <i name="e_0_energy">    -59.43778024 </i>
   </energy>
  </scstep>
  <scstep>
   <time name="dav">   76.18   76.20</time>
   <time name="total">   76.19   76.21</time>
   <energy>
    <i name="e_fr_energy">   -116.46061454 </i>
    <i name="e_wo_entrp">   -116.44582406 </i>
    <i name="e_0_energy">   -116.45321930 </i>
   </energy>
  </scstep>
  <scstep>
   <time name="dav">   92.45   92.48</time>
   <time name="total">   92.46   92.49</time>
   <energy>
    <i name="e_fr_energy">   -119.07278136 </i>
    <i name="e_wo_entrp">   -119.05708241 </i>
    <i name="e_0_energy">   -119.06493189 </i>
   </energy>
  </scstep>
  <scstep>
   <time name="dav">   85.20   85.22</time>
   <time name="total">   89.53   89.56</time>
   <energy>
    <i name="e_fr_energy">   -119.13105998 </i>
    <i name="e_wo_entrp">   -119.11537721 </i>
    <i name="e_0_energy">   -119.12321860 </i>
   </energy>
  </scstep>
  <scstep>
   <time name="dav">   76.44   76.47</time>
   <time name="total">   95.39   95.42</time>
   <energy>
    <i name="e_fr_energy">   -115.28763961 </i>
    <i name="e_wo_entrp">   -115.27099717 </i>
    <i name="e_0_energy">   -115.27931839 </i>
   </energy>
  </scstep>
  <scstep>
   <time name="dav">   77.41   77.44</time>
   <time name="total">   96.53   96.57</time>
   <energy>
    <i name="e_fr_energy">   -115.00464254 </i>
    <i name="e_wo_entrp">   -114.97903724 </i>
    <i name="e_0_energy">   -114.99183989 </i>
   </energy>
  </scstep>
  <scstep>
   <time name="dav">   76.62   76.64</time>
   <time name="total">   95.79   95.82</time>
   <energy>
    <i name="e_fr_energy">   -114.99063872 </i>
    <i name="e_wo_entrp">   -114.96368481 </i>
    <i name="e_0_energy">   -114.97716176 </i>
   </energy>
  </scstep>
  <scstep>
   <time name="dav">   77.98   78.01</time>
   <time name="total">   97.04   97.07</time>
   <energy>
    <i name="e_fr_energy">   -115.01389892 </i>
    <i name="e_wo_entrp">   -114.98898649 </i>
    <i name="e_0_energy">   -115.00144271 </i>
   </energy>
  </scstep>
  <scstep>
   <time name="dav">   79.73   79.76</time>
   <time name="total">   98.80   98.84</time>
   <energy>
    <i name="e_fr_energy">   -115.00012282 </i>
    <i name="e_wo_entrp">   -114.97184754 </i>
    <i name="e_0_energy">   -114.98598518 </i>
   </energy>
  </scstep>
  <scstep>
   <time name="dav">   77.51   77.54</time>
   <time name="total">   96.58   96.61</time>
   <energy>
    <i name="e_fr_energy">   -114.98834299 </i>
    <i name="e_wo_entrp">   -114.96182589 </i>
    <i name="e_0_energy">   -114.97508444 </i>
   </energy>
  </scstep>
  <scstep>
   <time name="dav">   75.16   75.19</time>
   <time name="total">   94.26   94.29</time>
   <energy>
    <i name="e_fr_energy">   -114.98282682 </i>
    <i name="e_wo_entrp">   -114.95597552 </i>
    <i name="e_0_energy">   -114.96940117 </i>
   </energy>
  </scstep>
  <scstep>
   <time name="dav">   81.29   81.31</time>
   <time name="total">  100.44  100.47</time>
   <energy>
    <i name="e_fr_energy">   -114.97816237 </i>
    <i name="e_wo_entrp">   -114.95127194 </i>
    <i name="e_0_energy">   -114.96471715 </i>
   </energy>
  </scstep>
  <scstep>
   <time name="dav">   79.23   79.25</time>
   <time name="total">   98.32   98.35</time>
   <energy>
    <i name="e_fr_energy">   -114.97503396 </i>
    <i name="e_wo_entrp">   -114.94819151 </i>
    <i name="e_0_energy">   -114.96161273 </i>
   </energy>
  </scstep>
  <scstep>
   <time name="dav">   79.67   79.70</time>
   <time name="total">   98.68   98.72</time>
   <energy>
    <i name="e_fr_energy">   -114.97320098 </i>
    <i name="e_wo_entrp">   -114.94635199 </i>
    <i name="e_0_energy">   -114.95977649 </i>
   </energy>
  </scstep>
  <scstep>
   <time name="dav">   75.04   75.06</time>
   <time name="total">   94.09   94.12</time>
   <energy>
    <i name="e_fr_energy">   -114.97280964 </i>
    <i name="e_wo_entrp">   -114.94596446 </i>
    <i name="e_0_energy">   -114.95938705 </i>
   </energy>
  </scstep>
  <scstep>
   <time name="dav">   71.76   71.78</time>
   <time name="total">   90.76   90.79</time>
   <energy>
    <i name="e_fr_energy">   -114.97321444 </i>
    <i name="e_wo_entrp">   -114.94636676 </i>
    <i name="e_0_energy">   -114.95979060 </i>
   </energy>
  </scstep>
  <scstep>
   <time name="dav">   72.58   72.60</time>
   <time name="total">   91.58   91.61</time>
   <energy>
    <i name="e_fr_energy">   -114.97366790 </i>
    <i name="e_wo_entrp">   -114.94682620 </i>
    <i name="e_0_energy">   -114.96024705 </i>
   </energy>
  </scstep>
  <scstep>
   <time name="dav">   67.41   67.43</time>
   <time name="total">   86.47   86.50</time>
   <energy>
    <i name="e_fr_energy">   -114.97375351 </i>
    <i name="e_wo_entrp">   -114.94691015 </i>
    <i name="e_0_energy">   -114.96033183 </i>
   </energy>
  </scstep>
  <scstep>
   <time name="dav">   61.78   61.80</time>
   <time name="total">   80.76   80.79</time>
   <energy>
    <i name="e_fr_energy">   -114.97381712 </i>
    <i name="e_wo_entrp">   -114.94697359 </i>
    <i name="e_0_energy">   -114.96039536 </i>
   </energy>
  </scstep>
  <scstep>
   <time name="dav">   63.38   63.40</time>
   <time name="total">   82.48   82.50</time>
   <energy>
    <i name="e_fr_energy">   -114.97381737 </i>
    <i name="e_wo_entrp">   -114.94697369 </i>
    <i name="e_0_energy">   -114.96039553 </i>
   </energy>
  </scstep>
  <scstep>
   <time name="dav">   65.16   65.18</time>
   <time name="total">   84.22   84.25</time>
   <energy>
    <i name="e_fr_energy">   -114.97377589 </i>
    <i name="e_wo_entrp">   -114.94693298 </i>
    <i name="e_0_energy">   -114.96035443 </i>
   </energy>
  </scstep>
  <scstep>
   <time name="dav">   58.80   58.82</time>
   <time name="total">   77.73   77.75</time>
   <energy>
    <i name="e_fr_energy">   -114.97372512 </i>
    <i name="e_wo_entrp">   -114.94688177 </i>
    <i name="e_0_energy">   -114.96030344 </i>
   </energy>
  </scstep>
  <scstep>
   <time name="dav">   62.46   62.48</time>
   <time name="total">   81.57   81.60</time>
   <energy>
    <i name="e_fr_energy">   -114.97367858 </i>
    <i name="e_wo_entrp">   -114.94683544 </i>
    <i name="e_0_energy">   -114.96025701 </i>
   </energy>
  </scstep>
  <scstep>
   <time name="dav">   60.52   60.54</time>
   <time name="total">   79.49   79.51</time>
   <energy>
    <i name="e_fr_energy">   -114.97366949 </i>
    <i name="e_wo_entrp">   -114.94682630 </i>
    <i name="e_0_energy">   -114.96024789 </i>
   </energy>
  </scstep>
  <scstep>
   <time name="dav">   60.71   60.73</time>
   <time name="total">   79.81   79.83</time>
   <energy>
    <i name="e_fr_energy">   -114.97366261 </i>
    <i name="e_wo_entrp">   -114.94681942 </i>
    <i name="e_0_energy">   -114.96024102 </i>
   </energy>
  </scstep>
  <scstep>
   <time name="dav">   58.37   58.38</time>
   <time name="total">   77.35   77.37</time>
   <energy>
    <i name="e_fr_energy">   -114.97366541 </i>
    <i name="e_wo_entrp">   -114.94682223 </i>
    <i name="e_0_energy">   -114.96024382 </i>
   </energy>
  </scstep>
  <scstep>
   <time name="dav">   53.76   53.78</time>
   <time name="total">   68.48   68.50</time>
   <energy>
    <i name="alphaZ">     36.80884744 </i>
    <i name="ewald">  12038.37508336 </i>
    <i name="hartreedc"> -15164.15815937 </i>
    <i name="XCdc">    -79.08740634 </i>
    <i name="pawpsdc">   1185.20122704 </i>
    <i name="pawaedc">   -865.12274916 </i>
    <i name="eentropy">     -0.02684319 </i>
    <i name="bandstr">   -621.00492627 </i>
    <i name="atom">   3354.04126044 </i>
    <i name="e_fr_energy">   -114.97366605 </i>
    <i name="e_wo_entrp">   -114.94682286 </i>
    <i name="e_0_energy">   -114.96024445 </i>
   </energy>
  </scstep>
  <structure>
   <crystal>
    <varray name="basis" >
     <v>       3.54040000       0.00000000       0.00000000 </v>
     <v>      -1.77020000      10.29434800       0.00000000 </v>
     <v>       0.00000000       0.00000000      27.50142900 </v>
    </varray>
    <i name="volume">   1002.32009712 </i>
    <varray name="rec_basis" >
     <v>       0.28245396       0.04857034       0.00000000 </v>
     <v>       0.00000000       0.09714068       0.00000000 </v>
     <v>       0.00000000       0.00000000       0.03636175 </v>
    </varray>
   </crystal>
   <varray name="positions" >
    <v>       0.11402300       0.22804500       0.23316207 </v>
    <v>       0.41402300       0.72804500       0.51499159 </v>
    <v>       0.45808900       0.91617900       0.20939482 </v>
    <v>       0.75808900       0.41617900       0.49122434 </v>
    <v>       0.31085400       0.62170900       0.08414979 </v>
    <v>       0.31085400       0.62170900       0.36597930 </v>
    <v>       0.99923000       0.99846000       0.08631254 </v>
    <v>       0.99923000       0.99846000       0.36814206 </v>
    <v>       0.65492700       0.30985400       0.06041748 </v>
    <v>       0.65492700       0.30985400       0.34224700 </v>
    <v>       0.76973800       0.53947500       0.20725292 </v>
    <v>       0.06973800       0.03947500       0.48908244 </v>
    <v>       0.93971600       0.87943300       0.15783749 </v>
    <v>       0.23971600       0.37943300       0.43966701 </v>
    <v>       0.20515200       0.41030300       0.18578822 </v>
    <v>       0.50515200       0.91030300       0.46761774 </v>
    <v>       0.20184900       0.40369900       0.09969156 </v>
    <v>       0.20184900       0.40369900       0.38152107 </v>
    <v>       0.56380500       0.12761000       0.10779021 </v>
    <v>       0.56380500       0.12761000       0.38961973 </v>
    <v>       0.56710600       0.13421200       0.19387616 </v>
    <v>       0.86710600       0.63421200       0.47570568 </v>
    <v>       0.82923400       0.65846800       0.13571444 </v>
    <v>       0.12923400       0.15846800       0.41754396 </v>
   </varray>
  </structure>
  <varray name="forces" >
   <v>       0.00780299      -0.03654563      -0.00182315 </v>
   <v>       0.10615700       0.01419075      -0.08400731 </v>
   <v>      -0.00041239      -0.01289466       0.08065740 </v>
   <v>      -0.10964729      -0.22926815       0.15645699 </v>
   <v>      -0.00079439      -0.00345217       0.00694156 </v>
   <v>      -0.25832195      -0.08238128       0.79203874 </v>
   <v>       0.00086414      -0.00059659       0.00215823 </v>
   <v>      -1.03258178      -2.14756596      -2.14273395 </v>
   <v>       0.00082115      -0.00043688       0.00928526 </v>
   <v>       0.11308389       0.23407480      -0.81564516 </v>
   <v>      -0.00086821       0.00770014       0.09264279 </v>
   <v>       0.01495409      -0.42566568       0.83665972 </v>
   <v>       0.00295003      -0.00343456       0.00726107 </v>
   <v>       2.80852155      -3.69282120      28.43177947 </v>
   <v>      -0.00183897       0.01280021       0.05006812 </v>
   <v>       0.05593284       0.54142013       0.20336363 </v>
   <v>      -0.00102747       0.00191721      -0.02035960 </v>
   <v>      -3.00282658       6.14685651     -28.77991747 </v>
   <v>      -0.00179446      -0.00978106      -0.01485132 </v>
   <v>       9.80464333      -2.65705503      -8.25343170 </v>
   <v>      -0.00063221      -0.02074638       0.01518683 </v>
   <v>       0.22052091      -0.09332074      -0.91949573 </v>
   <v>       0.00113338       0.00895046      -0.00173120 </v>
   <v>      -8.72663959       2.44805576      10.34949678 </v>
  </varray>
  <varray name="stress" >
   <v>      41.11831315      -4.16782067      -1.33557532 </v>
   <v>      -4.16782070      13.28253171      -6.52641137 </v>
   <v>      -1.33557538      -6.52641130      86.02708405 </v>
  </varray>
  <energy>
   <i name="e_fr_energy">   -114.97366605 </i>
   <i name="e_wo_entrp">   -114.96024445 </i>
   <i name="e_0_energy">     -0.02684319 </i>
  </energy>
  <time name="totalsc"> 2580.71 2581.54</time>
  <eigenvalues>
   <array>
    <dimension dim="1">band</dimension>
    <dimension dim="2">kpoint</dimension>
    <dimension dim="3">spin</dimension>
    <field>eigene</field>
    <field>occ</field>
    <set>
     <set comment="spin 1">
      <set comment="kpoint 1">
       <r>  -15.0148    1.0000 </r>
       <r>  -13.5151    1.0000 </r>
       <r>  -13.4017    1.0000 </r>
       <r>  -12.8180    1.0000 </r>
       <r>  -12.7748    1.0000 </r>
       <r>  -12.4559    1.0000 </r>
       <r>  -12.0623    1.0000 </r>
       <r>  -11.7399    1.0000 </r>
       <r>  -11.4748    1.0000 </r>
       <r>  -11.4067    1.0000 </r>
       <r>  -10.9657    1.0000 </r>
       <r>   -9.9974    1.0000 </r>
       <r>   -9.1590    1.0000 </r>
       <r>   -8.2829    1.0000 </r>
       <r>   -8.0020    1.0000 </r>
       <r>   -7.8024    1.0000 </r>
       <r>   -6.8119    1.0000 </r>
       <r>   -6.7779    1.0000 </r>
       <r>   -6.4676    1.0000 </r>
       <r>   -5.9074    1.0000 </r>
       <r>   -5.8077    1.0000 </r>
       <r>   -5.5156    1.0000 </r>
       <r>   -5.2575    1.0000 </r>
       <r>   -4.9619    1.0000 </r>
       <r>   -4.7210    1.0000 </r>
       <r>   -4.2053    1.0000 </r>
       <r>   -3.6933    1.0000 </r>
       <r>   -3.6101    1.0000 </r>
       <r>   -3.3859    1.0000 </r>
       <r>   -3.2422    1.0000 </r>
       <r>   -3.0775    1.0000 </r>
       <r>   -3.0298    1.0000 </r>
       <r>   -2.8186    1.0000 </r>
       <r>   -2.6516    1.0000 </r>
       <r>   -2.5566    1.0000 </r>
       <r>   -2.4877    1.0000 </r>
       <r>   -2.4252    1.0000 </r>
       <r>   -2.3641    1.0000 </r>
       <r>   -2.1964    1.0000 </r>
       <r>   -2.0756    1.0000 </r>
       <r>   -1.9598    1.0000 </r>
       <r>   -1.8565    1.0000 </r>
       <r>   -1.7773    1.0000 </r>
       <r>   -1.7040    1.0000 </r>
       <r>   -1.6172    1.0000 </r>
       <r>   -1.5525    1.0000 </r>
       <r>   -1.4837    1.0000 </r>
       <r>   -1.4062    1.0000 </r>
       <r>   -1.3464    1.0000 </r>
       <r>   -1.1359    1.0000 </r>
       <r>   -0.9038    1.0000 </r>
       <r>   -0.6124    1.0000 </r>
       <r>   -0.4467    1.0000 </r>
       <r>    0.1368    0.0001 </r>
       <r>    0.5315    0.0000 </r>
       <r>    0.5575    0.0000 </r>
       <r>    0.9602    0.0000 </r>
       <r>    1.2039    0.0000 </r>
       <r>    1.2164    0.0000 </r>
       <r>    1.3430    0.0000 </r>
       <r>    1.4862    0.0000 </r>
       <r>    1.6662    0.0000 </r>
       <r>    1.8266    0.0000 </r>
       <r>    1.9945    0.0000 </r>
       <r>    2.1082    0.0000 </r>
       <r>    2.1387    0.0000 </r>
       <r>    2.3100    0.0000 </r>
       <r>    2.4596    0.0000 </r>
      </set>
      <set comment="kpoint 2">
       <r>  -14.9545    1.0000 </r>
       <r>  -13.4538    1.0000 </r>
       <r>  -13.3463    1.0000 </r>
       <r>  -12.7581    1.0000 </r>
       <r>  -12.7225    1.0000 </r>
       <r>  -12.4003    1.0000 </r>
       <r>  -12.0001    1.0000 </r>
       <r>  -11.6999    1.0000 </r>
       <r>  -11.4135    1.0000 </r>
       <r>  -11.3576    1.0000 </r>
       <r>  -10.9174    1.0000 </r>
       <r>   -9.9680    1.0000 </r>
       <r>   -9.1548    1.0000 </r>
       <r>   -8.2673    1.0000 </r>
       <r>   -8.0407    1.0000 </r>
       <r>   -7.7645    1.0000 </r>
       <r>   -6.8009    1.0000 </r>
       <r>   -6.7669    1.0000 </r>
       <r>   -6.4618    1.0000 </r>
       <r>   -5.9928    1.0000 </r>
       <r>   -5.7740    1.0000 </r>
       <r>   -5.5641    1.0000 </r>
       <r>   -5.4528    1.0000 </r>
       <r>   -4.9561    1.0000 </r>
       <r>   -4.7245    1.0000 </r>
       <r>   -4.2220    1.0000 </r>
       <r>   -3.7677    1.0000 </r>
       <r>   -3.6915    1.0000 </r>
       <r>   -3.5937    1.0000 </r>
       <r>   -3.4119    1.0000 </r>
       <r>   -3.3438    1.0000 </r>
       <r>   -3.2396    1.0000 </r>
       <r>   -3.1315    1.0000 </r>
       <r>   -2.9208    1.0000 </r>
       <r>   -2.7284    1.0000 </r>
       <r>   -2.5897    1.0000 </r>
       <r>   -2.4669    1.0000 </r>
       <r>   -2.4527    1.0000 </r>
       <r>   -2.3922    1.0000 </r>
       <r>   -2.1925    1.0000 </r>
       <r>   -2.0557    1.0000 </r>
       <r>   -2.0176    1.0000 </r>
       <r>   -1.9397    1.0000 </r>
       <r>   -1.8401    1.0000 </r>
       <r>   -1.8010    1.0000 </r>
       <r>   -1.7450    1.0000 </r>
       <r>   -1.6448    1.0000 </r>
       <r>   -1.4853    1.0000 </r>
       <r>   -1.2780    1.0000 </r>
       <r>   -1.0881    1.0000 </r>
       <r>   -0.8318    1.0000 </r>
       <r>   -0.5927    1.0000 </r>
       <r>   -0.4109    1.0000 </r>
       <r>   -0.1236    0.4956 </r>
       <r>    0.5001    0.0000 </r>
       <r>    0.8177    0.0000 </r>
       <r>    0.8915    0.0000 </r>
       <r>    1.2173    0.0000 </r>
       <r>    1.5838    0.0000 </r>
       <r>    1.7431    0.0000 </r>
       <r>    1.7931    0.0000 </r>
       <r>    2.0329    0.0000 </r>
       <r>    2.1416    0.0000 </r>
       <r>    2.1962    0.0000 </r>
       <r>    2.2858    0.0000 </r>
       <r>    2.3078    0.0000 </r>
       <r>    2.5507    0.0000 </r>
       <r>    2.6402    0.0000 </r>
      </set>
      <set comment="kpoint 3">
       <r>  -14.7751    1.0000 </r>
       <r>  -13.2709    1.0000 </r>
       <r>  -13.1817    1.0000 </r>
       <r>  -12.5812    1.0000 </r>
       <r>  -12.5659    1.0000 </r>
       <r>  -12.2356    1.0000 </r>
       <r>  -11.8178    1.0000 </r>
       <r>  -11.5792    1.0000 </r>
       <r>  -11.2396    1.0000 </r>
       <r>  -11.2148    1.0000 </r>
       <r>  -10.7786    1.0000 </r>
       <r>   -9.8980    1.0000 </r>
       <r>   -9.1676    1.0000 </r>
       <r>   -8.2417    1.0000 </r>
       <r>   -8.1396    1.0000 </r>
       <r>   -7.7225    1.0000 </r>
       <r>   -6.9960    1.0000 </r>
       <r>   -6.6973    1.0000 </r>
       <r>   -6.4750    1.0000 </r>
       <r>   -6.4170    1.0000 </r>
       <r>   -5.7006    1.0000 </r>
       <r>   -5.6682    1.0000 </r>
       <r>   -5.4254    1.0000 </r>
       <r>   -4.9025    1.0000 </r>
       <r>   -4.8423    1.0000 </r>
       <r>   -4.4785    1.0000 </r>
       <r>   -4.3762    1.0000 </r>
       <r>   -4.1792    1.0000 </r>
       <r>   -4.0590    1.0000 </r>
       <r>   -3.9490    1.0000 </r>
       <r>   -3.6952    1.0000 </r>
       <r>   -3.6466    1.0000 </r>
       <r>   -3.4073    1.0000 </r>
       <r>   -3.2831    1.0000 </r>
       <r>   -3.1464    1.0000 </r>
       <r>   -2.9777    1.0000 </r>
       <r>   -2.9442    1.0000 </r>
       <r>   -2.8902    1.0000 </r>
       <r>   -2.6845    1.0000 </r>
       <r>   -2.4735    1.0000 </r>
       <r>   -2.3593    1.0000 </r>
       <r>   -2.3203    1.0000 </r>
       <r>   -2.1234    1.0000 </r>
       <r>   -1.9560    1.0000 </r>
       <r>   -1.9073    1.0000 </r>
       <r>   -1.7443    1.0000 </r>
       <r>   -1.6562    1.0000 </r>
       <r>   -1.6043    1.0000 </r>
       <r>   -1.2946    1.0000 </r>
       <r>   -1.1658    1.0000 </r>
       <r>   -0.9136    1.0000 </r>
       <r>   -0.7118    1.0000 </r>
       <r>   -0.5152    1.0000 </r>
       <r>    0.0188    0.0215 </r>
       <r>    0.3759    0.0000 </r>
       <r>    0.5462    0.0000 </r>
       <r>    1.1098    0.0000 </r>
       <r>    1.4475    0.0000 </r>
       <r>    1.7407    0.0000 </r>
       <r>    1.9829    0.0000 </r>
       <r>    2.2689    0.0000 </r>
       <r>    2.3709    0.0000 </r>
       <r>    2.4592    0.0000 </r>
       <r>    2.6443    0.0000 </r>
       <r>    2.6847    0.0000 </r>
       <r>    2.9391    0.0000 </r>
       <r>    3.0203    0.0000 </r>
       <r>    3.0637    0.0000 </r>
      </set>
      <set comment="kpoint 4">
       <r>  -14.4821    1.0000 </r>
       <r>  -12.9701    1.0000 </r>
       <r>  -12.9130    1.0000 </r>
       <r>  -12.3121    1.0000 </r>
       <r>  -12.2918    1.0000 </r>
       <r>  -11.9690    1.0000 </r>
       <r>  -11.5308    1.0000 </r>
       <r>  -11.3845    1.0000 </r>
       <r>  -11.0010    1.0000 </r>
       <r>  -10.9756    1.0000 </r>
       <r>  -10.5755    1.0000 </r>
       <r>   -9.8883    1.0000 </r>
       <r>   -9.2363    1.0000 </r>
       <r>   -8.3402    1.0000 </r>
       <r>   -8.3103    1.0000 </r>
       <r>   -7.7969    1.0000 </r>
       <r>   -7.4916    1.0000 </r>
       <r>   -6.6847    1.0000 </r>
       <r>   -6.6537    1.0000 </r>
       <r>   -6.6061    1.0000 </r>
       <r>   -5.8690    1.0000 </r>
       <r>   -5.7133    1.0000 </r>
       <r>   -5.3869    1.0000 </r>
       <r>   -5.3121    1.0000 </r>
       <r>   -5.1412    1.0000 </r>
       <r>   -4.9653    1.0000 </r>
       <r>   -4.7778    1.0000 </r>
       <r>   -4.6747    1.0000 </r>
       <r>   -4.5754    1.0000 </r>
       <r>   -4.4808    1.0000 </r>
       <r>   -4.1616    1.0000 </r>
       <r>   -4.0641    1.0000 </r>
       <r>   -3.7612    1.0000 </r>
       <r>   -3.6876    1.0000 </r>
       <r>   -3.4471    1.0000 </r>
       <r>   -3.3484    1.0000 </r>
       <r>   -3.0892    1.0000 </r>
       <r>   -2.9698    1.0000 </r>
       <r>   -2.8572    1.0000 </r>
       <r>   -2.6183    1.0000 </r>
       <r>   -2.5612    1.0000 </r>
       <r>   -2.4937    1.0000 </r>
       <r>   -2.4041    1.0000 </r>
       <r>   -2.3226    1.0000 </r>
       <r>   -1.8805    1.0000 </r>
       <r>   -1.8078    1.0000 </r>
       <r>   -1.7109    1.0000 </r>
       <r>   -1.5511    1.0000 </r>
       <r>   -1.4550    1.0000 </r>
       <r>   -1.4249    1.0000 </r>
       <r>   -1.0341    1.0000 </r>
       <r>   -0.9122    1.0000 </r>
       <r>   -0.5923    1.0000 </r>
       <r>   -0.2546    0.9673 </r>
       <r>    0.2289    0.0000 </r>
       <r>    0.5266    0.0000 </r>
       <r>    1.0329    0.0000 </r>
       <r>    1.6088    0.0000 </r>
       <r>    1.9166    0.0000 </r>
       <r>    2.0475    0.0000 </r>
       <r>    2.1304    0.0000 </r>
       <r>    2.2112    0.0000 </r>
       <r>    2.3456    0.0000 </r>
       <r>    2.4408    0.0000 </r>
       <r>    2.7042    0.0000 </r>
       <r>    2.8258    0.0000 </r>
       <r>    2.9136    0.0000 </r>
       <r>    2.9947    0.0000 </r>
      </set>
      <set comment="kpoint 5">
       <r>  -14.0889    1.0000 </r>
       <r>  -12.5628    1.0000 </r>
       <r>  -12.5488    1.0000 </r>
       <r>  -11.9632    1.0000 </r>
       <r>  -11.9159    1.0000 </r>
       <r>  -11.6175    1.0000 </r>
       <r>  -11.1838    1.0000 </r>
       <r>  -11.1423    1.0000 </r>
       <r>  -10.7560    1.0000 </r>
       <r>  -10.6953    1.0000 </r>
       <r>  -10.3897    1.0000 </r>
       <r>  -10.1869    1.0000 </r>
       <r>   -9.2302    1.0000 </r>
       <r>   -8.6872    1.0000 </r>
       <r>   -8.6257    1.0000 </r>
       <r>   -8.0579    1.0000 </r>
       <r>   -7.6322    1.0000 </r>
       <r>   -7.0530    1.0000 </r>
       <r>   -6.9693    1.0000 </r>
       <r>   -6.8733    1.0000 </r>
       <r>   -6.4299    1.0000 </r>
       <r>   -6.1375    1.0000 </r>
       <r>   -5.9386    1.0000 </r>
       <r>   -5.6488    1.0000 </r>
       <r>   -5.4645    1.0000 </r>
       <r>   -5.1872    1.0000 </r>
       <r>   -5.1105    1.0000 </r>
       <r>   -4.7602    1.0000 </r>
       <r>   -4.6741    1.0000 </r>
       <r>   -4.5817    1.0000 </r>
       <r>   -4.2883    1.0000 </r>
       <r>   -4.1925    1.0000 </r>
       <r>   -4.1147    1.0000 </r>
       <r>   -3.8833    1.0000 </r>
       <r>   -3.4685    1.0000 </r>
       <r>   -3.3661    1.0000 </r>
       <r>   -3.2159    1.0000 </r>
       <r>   -3.0833    1.0000 </r>
       <r>   -3.0259    1.0000 </r>
       <r>   -2.9063    1.0000 </r>
       <r>   -2.7836    1.0000 </r>
       <r>   -2.6398    1.0000 </r>
       <r>   -2.5684    1.0000 </r>
       <r>   -2.3714    1.0000 </r>
       <r>   -2.0500    1.0000 </r>
       <r>   -1.9065    1.0000 </r>
       <r>   -1.8463    1.0000 </r>
       <r>   -1.7013    1.0000 </r>
       <r>   -1.6341    1.0000 </r>
       <r>   -1.4303    1.0000 </r>
       <r>   -1.2738    1.0000 </r>
       <r>   -1.1588    1.0000 </r>
       <r>   -0.6480    1.0000 </r>
       <r>   -0.5092    1.0000 </r>
       <r>    0.0083    0.0303 </r>
       <r>    0.3836    0.0000 </r>
       <r>    0.9090    0.0000 </r>
       <r>    1.4834    0.0000 </r>
       <r>    1.6804    0.0000 </r>
       <r>    1.8463    0.0000 </r>
       <r>    2.0303    0.0000 </r>
       <r>    2.1090    0.0000 </r>
       <r>    2.2384    0.0000 </r>
       <r>    2.3290    0.0000 </r>
       <r>    2.4179    0.0000 </r>
       <r>    2.6100    0.0000 </r>
       <r>    2.7317    0.0000 </r>
       <r>    2.8613    0.0000 </r>
      </set>
      <set comment="kpoint 6">
       <r>  -13.6315    1.0000 </r>
       <r>  -12.1364    1.0000 </r>
       <r>  -12.0484    1.0000 </r>
       <r>  -11.5440    1.0000 </r>
       <r>  -11.4981    1.0000 </r>
       <r>  -11.2209    1.0000 </r>
       <r>  -11.0679    1.0000 </r>
       <r>  -10.8241    1.0000 </r>
       <r>  -10.7773    1.0000 </r>
       <r>  -10.6010    1.0000 </r>
       <r>  -10.4294    1.0000 </r>
       <r>  -10.3541    1.0000 </r>
       <r>   -9.1474    1.0000 </r>
       <r>   -9.0843    1.0000 </r>
       <r>   -8.8042    1.0000 </r>
       <r>   -8.3508    1.0000 </r>
       <r>   -7.7298    1.0000 </r>
       <r>   -7.4331    1.0000 </r>
       <r>   -7.3912    1.0000 </r>
       <r>   -7.3347    1.0000 </r>
       <r>   -6.9932    1.0000 </r>
       <r>   -6.7344    1.0000 </r>
       <r>   -6.6363    1.0000 </r>
       <r>   -6.3191    1.0000 </r>
       <r>   -5.4527    1.0000 </r>
       <r>   -5.1775    1.0000 </r>
       <r>   -4.8308    1.0000 </r>
       <r>   -4.5985    1.0000 </r>
       <r>   -4.5035    1.0000 </r>
       <r>   -4.3782    1.0000 </r>
       <r>   -4.2786    1.0000 </r>
       <r>   -4.1949    1.0000 </r>
       <r>   -4.0600    1.0000 </r>
       <r>   -3.9265    1.0000 </r>
       <r>   -3.7263    1.0000 </r>
       <r>   -3.6263    1.0000 </r>
       <r>   -3.3906    1.0000 </r>
       <r>   -3.2416    1.0000 </r>
       <r>   -3.1567    1.0000 </r>
       <r>   -3.1098    1.0000 </r>
       <r>   -2.8275    1.0000 </r>
       <r>   -2.7272    1.0000 </r>
       <r>   -2.5390    1.0000 </r>
       <r>   -2.4224    1.0000 </r>
       <r>   -2.2805    1.0000 </r>
       <r>   -2.1633    1.0000 </r>
       <r>   -2.0061    1.0000 </r>
       <r>   -1.8711    1.0000 </r>
       <r>   -1.7302    1.0000 </r>
       <r>   -1.5438    1.0000 </r>
       <r>   -1.4137    1.0000 </r>
       <r>   -1.3481    1.0000 </r>
       <r>   -0.7114    1.0000 </r>
       <r>   -0.4984    1.0000 </r>
       <r>   -0.1746    0.7612 </r>
       <r>    0.1030    0.0007 </r>
       <r>    0.8488    0.0000 </r>
       <r>    1.3768    0.0000 </r>
       <r>    1.5553    0.0000 </r>
       <r>    1.6935    0.0000 </r>
       <r>    1.7903    0.0000 </r>
       <r>    1.9825    0.0000 </r>
       <r>    2.1118    0.0000 </r>
       <r>    2.1524    0.0000 </r>
       <r>    2.3063    0.0000 </r>
       <r>    2.4244    0.0000 </r>
       <r>    2.5479    0.0000 </r>
       <r>    2.7561    0.0000 </r>
      </set>
      <set comment="kpoint 7">
       <r>  -13.2346    1.0000 </r>
       <r>  -11.7711    1.0000 </r>
       <r>  -11.4763    1.0000 </r>
       <r>  -11.4595    1.0000 </r>
       <r>  -11.1225    1.0000 </r>
       <r>  -11.1183    1.0000 </r>
       <r>  -10.9216    1.0000 </r>
       <r>  -10.9145    1.0000 </r>
       <r>  -10.8169    1.0000 </r>
       <r>  -10.7032    1.0000 </r>
       <r>  -10.6086    1.0000 </r>
       <r>  -10.2597    1.0000 </r>
       <r>   -9.3788    1.0000 </r>
       <r>   -9.0196    1.0000 </r>
       <r>   -8.6621    1.0000 </r>
       <r>   -8.4137    1.0000 </r>
       <r>   -8.0531    1.0000 </r>
       <r>   -7.8786    1.0000 </r>
       <r>   -7.5479    1.0000 </r>
       <r>   -7.5285    1.0000 </r>
       <r>   -7.2689    1.0000 </r>
       <r>   -7.2571    1.0000 </r>
       <r>   -7.1538    1.0000 </r>
       <r>   -6.6653    1.0000 </r>
       <r>   -5.2874    1.0000 </r>
       <r>   -4.8882    1.0000 </r>
       <r>   -4.7181    1.0000 </r>
       <r>   -4.5030    1.0000 </r>
       <r>   -4.4675    1.0000 </r>
       <r>   -4.2553    1.0000 </r>
       <r>   -4.1995    1.0000 </r>
       <r>   -4.0500    1.0000 </r>
       <r>   -4.0120    1.0000 </r>
       <r>   -3.9143    1.0000 </r>
       <r>   -3.8023    1.0000 </r>
       <r>   -3.7270    1.0000 </r>
       <r>   -3.5464    1.0000 </r>
       <r>   -3.4774    1.0000 </r>
       <r>   -3.2288    1.0000 </r>
       <r>   -3.1154    1.0000 </r>
       <r>   -2.9791    1.0000 </r>
       <r>   -2.8385    1.0000 </r>
       <r>   -2.6992    1.0000 </r>
       <r>   -2.6443    1.0000 </r>
       <r>   -2.3338    1.0000 </r>
       <r>   -2.1927    1.0000 </r>
       <r>   -2.1170    1.0000 </r>
       <r>   -1.9322    1.0000 </r>
       <r>   -1.7527    1.0000 </r>
       <r>   -1.6599    1.0000 </r>
       <r>   -1.4993    1.0000 </r>
       <r>   -1.3268    1.0000 </r>
       <r>   -0.6988    1.0000 </r>
       <r>   -0.6047    1.0000 </r>
       <r>   -0.2081    0.8818 </r>
       <r>   -0.0360    0.1058 </r>
       <r>    0.7421    0.0000 </r>
       <r>    1.3693    0.0000 </r>
       <r>    1.4394    0.0000 </r>
       <r>    1.5675    0.0000 </r>
       <r>    1.7301    0.0000 </r>
       <r>    1.8446    0.0000 </r>
       <r>    2.0663    0.0000 </r>
       <r>    2.1052    0.0000 </r>
       <r>    2.2538    0.0000 </r>
       <r>    2.3375    0.0000 </r>
       <r>    2.4552    0.0000 </r>
       <r>    2.6005    0.0000 </r>
      </set>
      <set comment="kpoint 8">
       <r>  -15.0123    1.0000 </r>
       <r>  -13.4626    1.0000 </r>
       <r>  -13.4443    1.0000 </r>
       <r>  -12.9491    1.0000 </r>
       <r>  -12.7056    1.0000 </r>
       <r>  -12.4547    1.0000 </r>
       <r>  -11.9741    1.0000 </r>
       <r>  -11.8435    1.0000 </r>
       <r>  -11.4527    1.0000 </r>
       <r>  -11.2765    1.0000 </r>
       <r>  -10.9745    1.0000 </r>
       <r>   -9.9709    1.0000 </r>
       <r>   -9.2762    1.0000 </r>
       <r>   -8.4891    1.0000 </r>
       <r>   -8.2527    1.0000 </r>
       <r>   -7.3518    1.0000 </r>
       <r>   -6.8443    1.0000 </r>
       <r>   -6.6452    1.0000 </r>
       <r>   -6.5774    1.0000 </r>
       <r>   -5.8181    1.0000 </r>
       <r>   -5.7265    1.0000 </r>
       <r>   -5.5735    1.0000 </r>
       <r>   -5.2428    1.0000 </r>
       <r>   -4.7469    1.0000 </r>
       <r>   -4.6211    1.0000 </r>
       <r>   -4.1641    1.0000 </r>
       <r>   -3.9907    1.0000 </r>
       <r>   -3.5905    1.0000 </r>
       <r>   -3.4140    1.0000 </r>
       <r>   -3.2724    1.0000 </r>
       <r>   -3.2197    1.0000 </r>
       <r>   -3.1016    1.0000 </r>
       <r>   -2.9137    1.0000 </r>
       <r>   -2.6839    1.0000 </r>
       <r>   -2.5964    1.0000 </r>
       <r>   -2.5219    1.0000 </r>
       <r>   -2.3658    1.0000 </r>
       <r>   -2.3545    1.0000 </r>
       <r>   -2.1513    1.0000 </r>
       <r>   -2.0984    1.0000 </r>
       <r>   -1.9679    1.0000 </r>
       <r>   -1.8911    1.0000 </r>
       <r>   -1.8550    1.0000 </r>
       <r>   -1.7142    1.0000 </r>
       <r>   -1.6028    1.0000 </r>
       <r>   -1.5408    1.0000 </r>
       <r>   -1.4469    1.0000 </r>
       <r>   -1.3372    1.0000 </r>
       <r>   -1.2253    1.0000 </r>
       <r>   -1.0978    1.0000 </r>
       <r>   -0.9218    1.0000 </r>
       <r>   -0.6619    1.0000 </r>
       <r>   -0.5424    1.0000 </r>
       <r>   -0.0146    0.0603 </r>
       <r>    0.5369    0.0000 </r>
       <r>    0.7284    0.0000 </r>
       <r>    1.0530    0.0000 </r>
       <r>    1.2053    0.0000 </r>
       <r>    1.2509    0.0000 </r>
       <r>    1.4056    0.0000 </r>
       <r>    1.5595    0.0000 </r>
       <r>    1.6995    0.0000 </r>
       <r>    1.8160    0.0000 </r>
       <r>    1.8416    0.0000 </r>
       <r>    2.1368    0.0000 </r>
       <r>    2.2776    0.0000 </r>
       <r>    2.3619    0.0000 </r>
       <r>    2.5538    0.0000 </r>
      </set>
      <set comment="kpoint 9">
       <r>  -14.9515    1.0000 </r>
       <r>  -13.4024    1.0000 </r>
       <r>  -13.3798    1.0000 </r>
       <r>  -12.9300    1.0000 </r>
       <r>  -12.6201    1.0000 </r>
       <r>  -12.3978    1.0000 </r>
       <r>  -11.9640    1.0000 </r>
       <r>  -11.7450    1.0000 </r>
       <r>  -11.4114    1.0000 </r>
       <r>  -11.1935    1.0000 </r>
       <r>  -10.9302    1.0000 </r>
       <r>   -9.9356    1.0000 </r>
       <r>   -9.2906    1.0000 </r>
       <r>   -8.5476    1.0000 </r>
       <r>   -8.2425    1.0000 </r>
       <r>   -7.3029    1.0000 </r>
       <r>   -6.8451    1.0000 </r>
       <r>   -6.6534    1.0000 </r>
       <r>   -6.5055    1.0000 </r>
       <r>   -5.9060    1.0000 </r>
       <r>   -5.6928    1.0000 </r>
       <r>   -5.5997    1.0000 </r>
       <r>   -5.4759    1.0000 </r>
       <r>   -4.7009    1.0000 </r>
       <r>   -4.6614    1.0000 </r>
       <r>   -4.1681    1.0000 </r>
       <r>   -4.0448    1.0000 </r>
       <r>   -3.7297    1.0000 </r>
       <r>   -3.5992    1.0000 </r>
       <r>   -3.4201    1.0000 </r>
       <r>   -3.3652    1.0000 </r>
       <r>   -3.3413    1.0000 </r>
       <r>   -3.0485    1.0000 </r>
       <r>   -2.9965    1.0000 </r>
       <r>   -2.9167    1.0000 </r>
       <r>   -2.6763    1.0000 </r>
       <r>   -2.4817    1.0000 </r>
       <r>   -2.4033    1.0000 </r>
       <r>   -2.3610    1.0000 </r>
       <r>   -2.2718    1.0000 </r>
       <r>   -2.1363    1.0000 </r>
       <r>   -2.0725    1.0000 </r>
       <r>   -1.9859    1.0000 </r>
       <r>   -1.8350    1.0000 </r>
       <r>   -1.7712    1.0000 </r>
       <r>   -1.7184    1.0000 </r>
       <r>   -1.5581    1.0000 </r>
       <r>   -1.3672    1.0000 </r>
       <r>   -1.1691    1.0000 </r>
       <r>   -1.0448    1.0000 </r>
       <r>   -0.8611    1.0000 </r>
       <r>   -0.6587    1.0000 </r>
       <r>   -0.4888    1.0000 </r>
       <r>   -0.1827    0.7954 </r>
       <r>    0.4785    0.0000 </r>
       <r>    0.8592    0.0000 </r>
       <r>    1.0255    0.0000 </r>
       <r>    1.2355    0.0000 </r>
       <r>    1.6137    0.0000 </r>
       <r>    1.7595    0.0000 </r>
       <r>    1.8103    0.0000 </r>
       <r>    1.9652    0.0000 </r>
       <r>    2.1310    0.0000 </r>
       <r>    2.2023    0.0000 </r>
       <r>    2.2754    0.0000 </r>
       <r>    2.5386    0.0000 </r>
       <r>    2.6342    0.0000 </r>
       <r>    2.7052    0.0000 </r>
      </set>
      <set comment="kpoint 10">
       <r>  -14.7718    1.0000 </r>
       <r>  -13.2389    1.0000 </r>
       <r>  -13.1848    1.0000 </r>
       <r>  -12.7935    1.0000 </r>
       <r>  -12.4264    1.0000 </r>
       <r>  -12.2318    1.0000 </r>
       <r>  -11.8490    1.0000 </r>
       <r>  -11.5473    1.0000 </r>
       <r>  -11.2720    1.0000 </r>
       <r>  -11.0203    1.0000 </r>
       <r>  -10.7890    1.0000 </r>
       <r>   -9.8650    1.0000 </r>
       <r>   -9.2987    1.0000 </r>
       <r>   -8.6136    1.0000 </r>
       <r>   -8.2402    1.0000 </r>
       <r>   -7.2762    1.0000 </r>
       <r>   -6.9338    1.0000 </r>
       <r>   -6.6311    1.0000 </r>
       <r>   -6.5296    1.0000 </r>
       <r>   -6.4723    1.0000 </r>
       <r>   -5.6436    1.0000 </r>
       <r>   -5.5870    1.0000 </r>
       <r>   -5.4826    1.0000 </r>
       <r>   -4.8201    1.0000 </r>
       <r>   -4.6930    1.0000 </r>
       <r>   -4.4036    1.0000 </r>
       <r>   -4.3514    1.0000 </r>
       <r>   -4.3256    1.0000 </r>
       <r>   -4.2569    1.0000 </r>
       <r>   -3.9429    1.0000 </r>
       <r>   -3.7015    1.0000 </r>
       <r>   -3.5923    1.0000 </r>
       <r>   -3.3653    1.0000 </r>
       <r>   -3.2863    1.0000 </r>
       <r>   -3.2176    1.0000 </r>
       <r>   -3.0223    1.0000 </r>
       <r>   -2.9366    1.0000 </r>
       <r>   -2.7934    1.0000 </r>
       <r>   -2.7215    1.0000 </r>
       <r>   -2.5860    1.0000 </r>
       <r>   -2.4721    1.0000 </r>
       <r>   -2.3011    1.0000 </r>
       <r>   -2.2715    1.0000 </r>
       <r>   -1.9817    1.0000 </r>
       <r>   -1.8942    1.0000 </r>
       <r>   -1.8462    1.0000 </r>
       <r>   -1.4906    1.0000 </r>
       <r>   -1.4682    1.0000 </r>
       <r>   -1.2561    1.0000 </r>
       <r>   -1.1132    1.0000 </r>
       <r>   -0.9585    1.0000 </r>
       <r>   -0.7736    1.0000 </r>
       <r>   -0.6154    1.0000 </r>
       <r>    0.0358    0.0118 </r>
       <r>    0.4056    0.0000 </r>
       <r>    0.6398    0.0000 </r>
       <r>    1.0672    0.0000 </r>
       <r>    1.4072    0.0000 </r>
       <r>    1.6609    0.0000 </r>
       <r>    1.8054    0.0000 </r>
       <r>    2.1313    0.0000 </r>
       <r>    2.3669    0.0000 </r>
       <r>    2.5051    0.0000 </r>
       <r>    2.7534    0.0000 </r>
       <r>    2.8585    0.0000 </r>
       <r>    2.9692    0.0000 </r>
       <r>    3.0611    0.0000 </r>
       <r>    3.0978    0.0000 </r>
      </set>
      <set comment="kpoint 11">
       <r>  -14.4788    1.0000 </r>
       <r>  -12.9672    1.0000 </r>
       <r>  -12.8737    1.0000 </r>
       <r>  -12.5421    1.0000 </r>
       <r>  -12.1370    1.0000 </r>
       <r>  -11.9646    1.0000 </r>
       <r>  -11.6369    1.0000 </r>
       <r>  -11.2707    1.0000 </r>
       <r>  -11.0502    1.0000 </r>
       <r>  -10.7787    1.0000 </r>
       <r>  -10.5718    1.0000 </r>
       <r>   -9.8779    1.0000 </r>
       <r>   -9.3222    1.0000 </r>
       <r>   -8.7456    1.0000 </r>
       <r>   -8.3398    1.0000 </r>
       <r>   -7.4042    1.0000 </r>
       <r>   -7.3514    1.0000 </r>
       <r>   -6.8679    1.0000 </r>
       <r>   -6.6703    1.0000 </r>
       <r>   -6.6178    1.0000 </r>
       <r>   -5.7988    1.0000 </r>
       <r>   -5.7146    1.0000 </r>
       <r>   -5.4533    1.0000 </r>
       <r>   -5.1851    1.0000 </r>
       <r>   -5.0428    1.0000 </r>
       <r>   -5.0162    1.0000 </r>
       <r>   -4.9146    1.0000 </r>
       <r>   -4.7044    1.0000 </r>
       <r>   -4.6358    1.0000 </r>
       <r>   -4.5244    1.0000 </r>
       <r>   -4.0292    1.0000 </r>
       <r>   -3.9771    1.0000 </r>
       <r>   -3.7128    1.0000 </r>
       <r>   -3.6945    1.0000 </r>
       <r>   -3.3063    1.0000 </r>
       <r>   -3.1807    1.0000 </r>
       <r>   -3.0673    1.0000 </r>
       <r>   -3.0549    1.0000 </r>
       <r>   -2.9387    1.0000 </r>
       <r>   -2.6486    1.0000 </r>
       <r>   -2.6061    1.0000 </r>
       <r>   -2.5043    1.0000 </r>
       <r>   -2.4530    1.0000 </r>
       <r>   -2.2713    1.0000 </r>
       <r>   -1.9694    1.0000 </r>
       <r>   -1.8684    1.0000 </r>
       <r>   -1.7565    1.0000 </r>
       <r>   -1.5831    1.0000 </r>
       <r>   -1.4992    1.0000 </r>
       <r>   -1.3616    1.0000 </r>
       <r>   -1.0466    1.0000 </r>
       <r>   -0.9071    1.0000 </r>
       <r>   -0.6760    1.0000 </r>
       <r>   -0.2087    0.8836 </r>
       <r>    0.3063    0.0000 </r>
       <r>    0.5294    0.0000 </r>
       <r>    1.0074    0.0000 </r>
       <r>    1.4304    0.0000 </r>
       <r>    1.5919    0.0000 </r>
       <r>    1.7517    0.0000 </r>
       <r>    1.9146    0.0000 </r>
       <r>    2.2234    0.0000 </r>
       <r>    2.4125    0.0000 </r>
       <r>    2.5339    0.0000 </r>
       <r>    2.6025    0.0000 </r>
       <r>    2.7516    0.0000 </r>
       <r>    3.0557    0.0000 </r>
       <r>    3.1453    0.0000 </r>
      </set>
      <set comment="kpoint 12">
       <r>  -14.0859    1.0000 </r>
       <r>  -12.5986    1.0000 </r>
       <r>  -12.4571    1.0000 </r>
       <r>  -12.1831    1.0000 </r>
       <r>  -11.7789    1.0000 </r>
       <r>  -11.6141    1.0000 </r>
       <r>  -11.3550    1.0000 </r>
       <r>  -10.9569    1.0000 </r>
       <r>  -10.7865    1.0000 </r>
       <r>  -10.5301    1.0000 </r>
       <r>  -10.3666    1.0000 </r>
       <r>  -10.2251    1.0000 </r>
       <r>   -9.2535    1.0000 </r>
       <r>   -8.9448    1.0000 </r>
       <r>   -8.6711    1.0000 </r>
       <r>   -7.6809    1.0000 </r>
       <r>   -7.5983    1.0000 </r>
       <r>   -7.2468    1.0000 </r>
       <r>   -7.0865    1.0000 </r>
       <r>   -6.9353    1.0000 </r>
       <r>   -6.1681    1.0000 </r>
       <r>   -6.1467    1.0000 </r>
       <r>   -5.8976    1.0000 </r>
       <r>   -5.8439    1.0000 </r>
       <r>   -5.5356    1.0000 </r>
       <r>   -5.3547    1.0000 </r>
       <r>   -5.0015    1.0000 </r>
       <r>   -4.9128    1.0000 </r>
       <r>   -4.6586    1.0000 </r>
       <r>   -4.3994    1.0000 </r>
       <r>   -4.3055    1.0000 </r>
       <r>   -4.0807    1.0000 </r>
       <r>   -3.9836    1.0000 </r>
       <r>   -3.6984    1.0000 </r>
       <r>   -3.4013    1.0000 </r>
       <r>   -3.3141    1.0000 </r>
       <r>   -3.2124    1.0000 </r>
       <r>   -3.0121    1.0000 </r>
       <r>   -2.9597    1.0000 </r>
       <r>   -2.9075    1.0000 </r>
       <r>   -2.8277    1.0000 </r>
       <r>   -2.6271    1.0000 </r>
       <r>   -2.5070    1.0000 </r>
       <r>   -2.4438    1.0000 </r>
       <r>   -2.3026    1.0000 </r>
       <r>   -1.9542    1.0000 </r>
       <r>   -1.8628    1.0000 </r>
       <r>   -1.7329    1.0000 </r>
       <r>   -1.6625    1.0000 </r>
       <r>   -1.5210    1.0000 </r>
       <r>   -1.2835    1.0000 </r>
       <r>   -1.1339    1.0000 </r>
       <r>   -0.6448    1.0000 </r>
       <r>   -0.5375    1.0000 </r>
       <r>    0.0198    0.0208 </r>
       <r>    0.3224    0.0000 </r>
       <r>    0.9370    0.0000 </r>
       <r>    1.2431    0.0000 </r>
       <r>    1.2856    0.0000 </r>
       <r>    1.6128    0.0000 </r>
       <r>    1.9694    0.0000 </r>
       <r>    2.1199    0.0000 </r>
       <r>    2.2634    0.0000 </r>
       <r>    2.3470    0.0000 </r>
       <r>    2.4767    0.0000 </r>
       <r>    2.5435    0.0000 </r>
       <r>    2.6444    0.0000 </r>
       <r>    2.9177    0.0000 </r>
      </set>
      <set comment="kpoint 13">
       <r>  -13.6293    1.0000 </r>
       <r>  -12.1635    1.0000 </r>
       <r>  -11.9536    1.0000 </r>
       <r>  -11.7330    1.0000 </r>
       <r>  -11.4231    1.0000 </r>
       <r>  -11.2214    1.0000 </r>
       <r>  -11.1191    1.0000 </r>
       <r>  -10.8021    1.0000 </r>
       <r>  -10.6987    1.0000 </r>
       <r>  -10.5752    1.0000 </r>
       <r>  -10.4420    1.0000 </r>
       <r>  -10.3191    1.0000 </r>
       <r>   -9.1385    1.0000 </r>
       <r>   -9.0777    1.0000 </r>
       <r>   -8.9346    1.0000 </r>
       <r>   -8.0854    1.0000 </r>
       <r>   -7.7542    1.0000 </r>
       <r>   -7.7413    1.0000 </r>
       <r>   -7.4557    1.0000 </r>
       <r>   -7.3307    1.0000 </r>
       <r>   -6.7511    1.0000 </r>
       <r>   -6.6692    1.0000 </r>
       <r>   -6.6340    1.0000 </r>
       <r>   -6.5099    1.0000 </r>
       <r>   -5.5102    1.0000 </r>
       <r>   -5.3135    1.0000 </r>
       <r>   -4.7814    1.0000 </r>
       <r>   -4.7340    1.0000 </r>
       <r>   -4.4650    1.0000 </r>
       <r>   -4.3970    1.0000 </r>
       <r>   -4.1977    1.0000 </r>
       <r>   -4.0863    1.0000 </r>
       <r>   -3.8404    1.0000 </r>
       <r>   -3.7948    1.0000 </r>
       <r>   -3.6473    1.0000 </r>
       <r>   -3.4713    1.0000 </r>
       <r>   -3.3266    1.0000 </r>
       <r>   -3.2538    1.0000 </r>
       <r>   -3.1697    1.0000 </r>
       <r>   -3.0978    1.0000 </r>
       <r>   -2.9021    1.0000 </r>
       <r>   -2.6906    1.0000 </r>
       <r>   -2.6458    1.0000 </r>
       <r>   -2.5674    1.0000 </r>
       <r>   -2.3050    1.0000 </r>
       <r>   -2.1879    1.0000 </r>
       <r>   -2.0456    1.0000 </r>
       <r>   -1.8537    1.0000 </r>
       <r>   -1.7000    1.0000 </r>
       <r>   -1.5367    1.0000 </r>
       <r>   -1.4515    1.0000 </r>
       <r>   -1.4113    1.0000 </r>
       <r>   -0.8117    1.0000 </r>
       <r>   -0.5578    1.0000 </r>
       <r>   -0.1325    0.5457 </r>
       <r>    0.1045    0.0006 </r>
       <r>    0.8123    0.0000 </r>
       <r>    1.2177    0.0000 </r>
       <r>    1.3392    0.0000 </r>
       <r>    1.5132    0.0000 </r>
       <r>    1.8255    0.0000 </r>
       <r>    1.8410    0.0000 </r>
       <r>    1.9984    0.0000 </r>
       <r>    2.1949    0.0000 </r>
       <r>    2.3510    0.0000 </r>
       <r>    2.5191    0.0000 </r>
       <r>    2.6143    0.0000 </r>
       <r>    2.6717    0.0000 </r>
      </set>
      <set comment="kpoint 14">
       <r>  -13.2338    1.0000 </r>
       <r>  -11.7698    1.0000 </r>
       <r>  -11.4828    1.0000 </r>
       <r>  -11.4034    1.0000 </r>
       <r>  -11.2379    1.0000 </r>
       <r>  -11.1052    1.0000 </r>
       <r>  -10.9322    1.0000 </r>
       <r>  -10.9054    1.0000 </r>
       <r>  -10.8367    1.0000 </r>
       <r>  -10.6739    1.0000 </r>
       <r>  -10.5542    1.0000 </r>
       <r>  -10.2621    1.0000 </r>
       <r>   -9.3873    1.0000 </r>
       <r>   -9.0095    1.0000 </r>
       <r>   -8.5286    1.0000 </r>
       <r>   -8.3738    1.0000 </r>
       <r>   -8.3021    1.0000 </r>
       <r>   -7.8816    1.0000 </r>
       <r>   -7.5521    1.0000 </r>
       <r>   -7.4889    1.0000 </r>
       <r>   -7.2896    1.0000 </r>
       <r>   -7.2242    1.0000 </r>
       <r>   -7.1133    1.0000 </r>
       <r>   -6.7107    1.0000 </r>
       <r>   -5.3182    1.0000 </r>
       <r>   -4.9920    1.0000 </r>
       <r>   -4.7104    1.0000 </r>
       <r>   -4.4487    1.0000 </r>
       <r>   -4.4151    1.0000 </r>
       <r>   -4.2819    1.0000 </r>
       <r>   -4.1418    1.0000 </r>
       <r>   -4.0997    1.0000 </r>
       <r>   -3.9964    1.0000 </r>
       <r>   -3.9037    1.0000 </r>
       <r>   -3.7670    1.0000 </r>
       <r>   -3.6348    1.0000 </r>
       <r>   -3.4666    1.0000 </r>
       <r>   -3.4206    1.0000 </r>
       <r>   -3.2350    1.0000 </r>
       <r>   -3.1521    1.0000 </r>
       <r>   -2.9674    1.0000 </r>
       <r>   -2.8457    1.0000 </r>
       <r>   -2.6633    1.0000 </r>
       <r>   -2.6129    1.0000 </r>
       <r>   -2.5734    1.0000 </r>
       <r>   -2.1780    1.0000 </r>
       <r>   -2.0989    1.0000 </r>
       <r>   -1.9106    1.0000 </r>
       <r>   -1.7600    1.0000 </r>
       <r>   -1.6573    1.0000 </r>
       <r>   -1.5240    1.0000 </r>
       <r>   -1.3709    1.0000 </r>
       <r>   -0.7820    1.0000 </r>
       <r>   -0.5853    1.0000 </r>
       <r>   -0.1891    0.8201 </r>
       <r>   -0.0148    0.0607 </r>
       <r>    0.7519    0.0000 </r>
       <r>    1.4324    0.0000 </r>
       <r>    1.4612    0.0000 </r>
       <r>    1.5190    0.0000 </r>
       <r>    1.5823    0.0000 </r>
       <r>    1.8047    0.0000 </r>
       <r>    1.8736    0.0000 </r>
       <r>    2.0508    0.0000 </r>
       <r>    2.3299    0.0000 </r>
       <r>    2.4621    0.0000 </r>
       <r>    2.4919    0.0000 </r>
       <r>    2.5699    0.0000 </r>
      </set>
      <set comment="kpoint 15">
       <r>  -13.2352    1.0000 </r>
       <r>  -11.7665    1.0000 </r>
       <r>  -11.5090    1.0000 </r>
       <r>  -11.4598    1.0000 </r>
       <r>  -11.1132    1.0000 </r>
       <r>  -11.0448    1.0000 </r>
       <r>  -10.9352    1.0000 </r>
       <r>  -10.9043    1.0000 </r>
       <r>  -10.7821    1.0000 </r>
       <r>  -10.7300    1.0000 </r>
       <r>  -10.6772    1.0000 </r>
       <r>  -10.2555    1.0000 </r>
       <r>   -9.3729    1.0000 </r>
       <r>   -9.0223    1.0000 </r>
       <r>   -8.7307    1.0000 </r>
       <r>   -8.4075    1.0000 </r>
       <r>   -7.9181    1.0000 </r>
       <r>   -7.8810    1.0000 </r>
       <r>   -7.5787    1.0000 </r>
       <r>   -7.5648    1.0000 </r>
       <r>   -7.2546    1.0000 </r>
       <r>   -7.2508    1.0000 </r>
       <r>   -7.1913    1.0000 </r>
       <r>   -6.6244    1.0000 </r>
       <r>   -5.2827    1.0000 </r>
       <r>   -4.7569    1.0000 </r>
       <r>   -4.6777    1.0000 </r>
       <r>   -4.5546    1.0000 </r>
       <r>   -4.5205    1.0000 </r>
       <r>   -4.3365    1.0000 </r>
       <r>   -4.2585    1.0000 </r>
       <r>   -4.0168    1.0000 </r>
       <r>   -3.9781    1.0000 </r>
       <r>   -3.9578    1.0000 </r>
       <r>   -3.8567    1.0000 </r>
       <r>   -3.6637    1.0000 </r>
       <r>   -3.6064    1.0000 </r>
       <r>   -3.5153    1.0000 </r>
       <r>   -3.3257    1.0000 </r>
       <r>   -3.1048    1.0000 </r>
       <r>   -2.8610    1.0000 </r>
       <r>   -2.7645    1.0000 </r>
       <r>   -2.7057    1.0000 </r>
       <r>   -2.6410    1.0000 </r>
       <r>   -2.3569    1.0000 </r>
       <r>   -2.1683    1.0000 </r>
       <r>   -2.1394    1.0000 </r>
       <r>   -1.9691    1.0000 </r>
       <r>   -1.7809    1.0000 </r>
       <r>   -1.6449    1.0000 </r>
       <r>   -1.4796    1.0000 </r>
       <r>   -1.3241    1.0000 </r>
       <r>   -0.7072    1.0000 </r>
       <r>   -0.4623    1.0000 </r>
       <r>   -0.2853    0.9886 </r>
       <r>   -0.0505    0.1483 </r>
       <r>    0.8228    0.0000 </r>
       <r>    1.3572    0.0000 </r>
       <r>    1.4737    0.0000 </r>
       <r>    1.6964    0.0000 </r>
       <r>    1.7479    0.0000 </r>
       <r>    1.8874    0.0000 </r>
       <r>    2.0097    0.0000 </r>
       <r>    2.1687    0.0000 </r>
       <r>    2.2363    0.0000 </r>
       <r>    2.3684    0.0000 </r>
       <r>    2.4167    0.0000 </r>
       <r>    2.5667    0.0000 </r>
      </set>
      <set comment="kpoint 16">
       <r>  -13.6324    1.0000 </r>
       <r>  -12.1218    1.0000 </r>
       <r>  -12.0745    1.0000 </r>
       <r>  -11.5354    1.0000 </r>
       <r>  -11.4590    1.0000 </r>
       <r>  -11.2183    1.0000 </r>
       <r>  -11.0480    1.0000 </r>
       <r>  -10.9040    1.0000 </r>
       <r>  -10.7534    1.0000 </r>
       <r>  -10.6038    1.0000 </r>
       <r>  -10.4249    1.0000 </r>
       <r>  -10.3798    1.0000 </r>
       <r>   -9.1437    1.0000 </r>
       <r>   -9.0958    1.0000 </r>
       <r>   -8.7159    1.0000 </r>
       <r>   -8.4647    1.0000 </r>
       <r>   -7.7051    1.0000 </r>
       <r>   -7.4149    1.0000 </r>
       <r>   -7.3052    1.0000 </r>
       <r>   -7.2670    1.0000 </r>
       <r>   -7.1142    1.0000 </r>
       <r>   -6.7835    1.0000 </r>
       <r>   -6.6403    1.0000 </r>
       <r>   -6.2492    1.0000 </r>
       <r>   -5.4419    1.0000 </r>
       <r>   -5.0148    1.0000 </r>
       <r>   -4.8489    1.0000 </r>
       <r>   -4.7978    1.0000 </r>
       <r>   -4.4639    1.0000 </r>
       <r>   -4.3758    1.0000 </r>
       <r>   -4.2581    1.0000 </r>
       <r>   -4.2042    1.0000 </r>
       <r>   -4.0658    1.0000 </r>
       <r>   -3.9355    1.0000 </r>
       <r>   -3.7357    1.0000 </r>
       <r>   -3.6880    1.0000 </r>
       <r>   -3.4265    1.0000 </r>
       <r>   -3.3719    1.0000 </r>
       <r>   -3.1651    1.0000 </r>
       <r>   -3.1042    1.0000 </r>
       <r>   -2.8752    1.0000 </r>
       <r>   -2.6838    1.0000 </r>
       <r>   -2.5037    1.0000 </r>
       <r>   -2.3877    1.0000 </r>
       <r>   -2.2504    1.0000 </r>
       <r>   -2.1636    1.0000 </r>
       <r>   -1.9262    1.0000 </r>
       <r>   -1.8685    1.0000 </r>
       <r>   -1.7370    1.0000 </r>
       <r>   -1.5685    1.0000 </r>
       <r>   -1.3888    1.0000 </r>
       <r>   -1.3350    1.0000 </r>
       <r>   -0.7056    1.0000 </r>
       <r>   -0.4156    1.0000 </r>
       <r>   -0.2314    0.9350 </r>
       <r>    0.1017    0.0007 </r>
       <r>    0.8682    0.0000 </r>
       <r>    1.3353    0.0000 </r>
       <r>    1.6466    0.0000 </r>
       <r>    1.7708    0.0000 </r>
       <r>    1.9165    0.0000 </r>
       <r>    2.1129    0.0000 </r>
       <r>    2.1921    0.0000 </r>
       <r>    2.2454    0.0000 </r>
       <r>    2.2978    0.0000 </r>
       <r>    2.4290    0.0000 </r>
       <r>    2.4845    0.0000 </r>
       <r>    2.6691    0.0000 </r>
      </set>
      <set comment="kpoint 17">
       <r>  -14.0894    1.0000 </r>
       <r>  -12.5714    1.0000 </r>
       <r>  -12.5429    1.0000 </r>
       <r>  -11.9394    1.0000 </r>
       <r>  -11.9204    1.0000 </r>
       <r>  -11.6169    1.0000 </r>
       <r>  -11.2194    1.0000 </r>
       <r>  -11.1204    1.0000 </r>
       <r>  -10.7479    1.0000 </r>
       <r>  -10.7109    1.0000 </r>
       <r>  -10.3958    1.0000 </r>
       <r>  -10.1991    1.0000 </r>
       <r>   -9.2259    1.0000 </r>
       <r>   -8.6806    1.0000 </r>
       <r>   -8.5279    1.0000 </r>
       <r>   -8.1606    1.0000 </r>
       <r>   -7.6403    1.0000 </r>
       <r>   -7.0048    1.0000 </r>
       <r>   -6.9742    1.0000 </r>
       <r>   -6.8437    1.0000 </r>
       <r>   -6.4899    1.0000 </r>
       <r>   -6.1302    1.0000 </r>
       <r>   -5.9473    1.0000 </r>
       <r>   -5.6440    1.0000 </r>
       <r>   -5.4384    1.0000 </r>
       <r>   -5.1348    1.0000 </r>
       <r>   -5.0894    1.0000 </r>
       <r>   -4.8535    1.0000 </r>
       <r>   -4.6314    1.0000 </r>
       <r>   -4.6130    1.0000 </r>
       <r>   -4.2879    1.0000 </r>
       <r>   -4.2145    1.0000 </r>
       <r>   -4.0509    1.0000 </r>
       <r>   -3.9067    1.0000 </r>
       <r>   -3.5017    1.0000 </r>
       <r>   -3.4293    1.0000 </r>
       <r>   -3.2009    1.0000 </r>
       <r>   -3.1118    1.0000 </r>
       <r>   -3.0458    1.0000 </r>
       <r>   -2.9119    1.0000 </r>
       <r>   -2.7782    1.0000 </r>
       <r>   -2.6671    1.0000 </r>
       <r>   -2.5622    1.0000 </r>
       <r>   -2.3101    1.0000 </r>
       <r>   -2.0057    1.0000 </r>
       <r>   -1.8995    1.0000 </r>
       <r>   -1.8414    1.0000 </r>
       <r>   -1.6916    1.0000 </r>
       <r>   -1.6303    1.0000 </r>
       <r>   -1.4192    1.0000 </r>
       <r>   -1.2677    1.0000 </r>
       <r>   -1.1786    1.0000 </r>
       <r>   -0.6417    1.0000 </r>
       <r>   -0.5286    1.0000 </r>
       <r>   -0.0016    0.0412 </r>
       <r>    0.3787    0.0000 </r>
       <r>    0.9023    0.0000 </r>
       <r>    1.4838    0.0000 </r>
       <r>    1.7357    0.0000 </r>
       <r>    1.9516    0.0000 </r>
       <r>    2.0085    0.0000 </r>
       <r>    2.2001    0.0000 </r>
       <r>    2.2967    0.0000 </r>
       <r>    2.4220    0.0000 </r>
       <r>    2.4688    0.0000 </r>
       <r>    2.6432    0.0000 </r>
       <r>    2.7270    0.0000 </r>
       <r>    2.8037    0.0000 </r>
      </set>
      <set comment="kpoint 18">
       <r>  -14.4819    1.0000 </r>
       <r>  -12.9660    1.0000 </r>
       <r>  -12.9163    1.0000 </r>
       <r>  -12.3262    1.0000 </r>
       <r>  -12.2843    1.0000 </r>
       <r>  -11.9691    1.0000 </r>
       <r>  -11.5145    1.0000 </r>
       <r>  -11.4037    1.0000 </r>
       <r>  -11.0040    1.0000 </r>
       <r>  -10.9546    1.0000 </r>
       <r>  -10.5741    1.0000 </r>
       <r>   -9.8941    1.0000 </r>
       <r>   -9.2428    1.0000 </r>
       <r>   -8.3750    1.0000 </r>
       <r>   -8.2949    1.0000 </r>
       <r>   -7.7554    1.0000 </r>
       <r>   -7.5208    1.0000 </r>
       <r>   -6.6773    1.0000 </r>
       <r>   -6.6468    1.0000 </r>
       <r>   -6.6096    1.0000 </r>
       <r>   -5.8624    1.0000 </r>
       <r>   -5.7158    1.0000 </r>
       <r>   -5.4012    1.0000 </r>
       <r>   -5.3079    1.0000 </r>
       <r>   -5.1366    1.0000 </r>
       <r>   -4.9661    1.0000 </r>
       <r>   -4.8005    1.0000 </r>
       <r>   -4.6943    1.0000 </r>
       <r>   -4.5684    1.0000 </r>
       <r>   -4.4832    1.0000 </r>
       <r>   -4.1562    1.0000 </r>
       <r>   -4.0013    1.0000 </r>
       <r>   -3.7577    1.0000 </r>
       <r>   -3.6908    1.0000 </r>
       <r>   -3.4279    1.0000 </r>
       <r>   -3.3595    1.0000 </r>
       <r>   -3.0847    1.0000 </r>
       <r>   -2.9661    1.0000 </r>
       <r>   -2.8020    1.0000 </r>
       <r>   -2.6891    1.0000 </r>
       <r>   -2.5758    1.0000 </r>
       <r>   -2.5630    1.0000 </r>
       <r>   -2.4159    1.0000 </r>
       <r>   -2.2588    1.0000 </r>
       <r>   -1.8708    1.0000 </r>
       <r>   -1.8117    1.0000 </r>
       <r>   -1.7234    1.0000 </r>
       <r>   -1.5222    1.0000 </r>
       <r>   -1.4655    1.0000 </r>
       <r>   -1.4284    1.0000 </r>
       <r>   -1.0123    1.0000 </r>
       <r>   -0.9432    1.0000 </r>
       <r>   -0.6117    1.0000 </r>
       <r>   -0.2285    0.9297 </r>
       <r>    0.2249    0.0000 </r>
       <r>    0.4928    0.0000 </r>
       <r>    1.0377    0.0000 </r>
       <r>    1.5906    0.0000 </r>
       <r>    1.8750    0.0000 </r>
[...]
       <r>    2.6804    0.0000 </r>
      </set>
      <set comment="kpoint 54">
       <r>  -13.2344    1.0000 </r>
       <r>  -11.7651    1.0000 </r>
       <r>  -11.4829    1.0000 </r>
       <r>  -11.4623    1.0000 </r>
       <r>  -11.1432    1.0000 </r>
       <r>  -11.0993    1.0000 </r>
       <r>  -10.9266    1.0000 </r>
       <r>  -10.9176    1.0000 </r>
       <r>  -10.8224    1.0000 </r>
       <r>  -10.6963    1.0000 </r>
       <r>  -10.5951    1.0000 </r>
       <r>  -10.2579    1.0000 </r>
       <r>   -9.3814    1.0000 </r>
       <r>   -9.0120    1.0000 </r>
       <r>   -8.6392    1.0000 </r>
       <r>   -8.4143    1.0000 </r>
       <r>   -8.0931    1.0000 </r>
       <r>   -7.8836    1.0000 </r>
       <r>   -7.5831    1.0000 </r>
       <r>   -7.5333    1.0000 </r>
       <r>   -7.2652    1.0000 </r>
       <r>   -7.2124    1.0000 </r>
       <r>   -7.1437    1.0000 </r>
       <r>   -6.6660    1.0000 </r>
       <r>   -5.3197    1.0000 </r>
       <r>   -4.9172    1.0000 </r>
       <r>   -4.7367    1.0000 </r>
       <r>   -4.4603    1.0000 </r>
       <r>   -4.4376    1.0000 </r>
       <r>   -4.2877    1.0000 </r>
       <r>   -4.2089    1.0000 </r>
       <r>   -4.0473    1.0000 </r>
       <r>   -3.9790    1.0000 </r>
       <r>   -3.9139    1.0000 </r>
       <r>   -3.7429    1.0000 </r>
       <r>   -3.6838    1.0000 </r>
       <r>   -3.5274    1.0000 </r>
       <r>   -3.4916    1.0000 </r>
       <r>   -3.2318    1.0000 </r>
       <r>   -3.1136    1.0000 </r>
       <r>   -3.0068    1.0000 </r>
       <r>   -2.8778    1.0000 </r>
       <r>   -2.6907    1.0000 </r>
       <r>   -2.6475    1.0000 </r>
       <r>   -2.3525    1.0000 </r>
       <r>   -2.1971    1.0000 </r>
       <r>   -2.1044    1.0000 </r>
       <r>   -1.9299    1.0000 </r>
       <r>   -1.7675    1.0000 </r>
       <r>   -1.6613    1.0000 </r>
       <r>   -1.5061    1.0000 </r>
       <r>   -1.3747    1.0000 </r>
       <r>   -0.7914    1.0000 </r>
       <r>   -0.4641    1.0000 </r>
       <r>   -0.2548    0.9675 </r>
       <r>   -0.0246    0.0792 </r>
       <r>    0.8283    0.0000 </r>
       <r>    1.3665    0.0000 </r>
       <r>    1.4497    0.0000 </r>
       <r>    1.5546    0.0000 </r>
       <r>    1.6801    0.0000 </r>
       <r>    1.8214    0.0000 </r>
       <r>    1.9945    0.0000 </r>
       <r>    2.0594    0.0000 </r>
       <r>    2.2087    0.0000 </r>
       <r>    2.3399    0.0000 </r>
       <r>    2.5120    0.0000 </r>
       <r>    2.6008    0.0000 </r>
      </set>
     </set>
    </set>
   </array>
  </eigenvalues>
  <separator name="orbital magnetization" >
   <v name="MAGDIPOLOUT">      0.00000000      0.00000000      0.00000000</v>
  </separator>
  <dos>
   <i name="efermi">     -0.12434411 </i>
   <total>
    <array>
     <dimension dim="1">gridpoints</dimension>
     <dimension dim="2">spin</dimension>
     <field>energy</field>
     <field>total</field>
     <field>integrated</field>
     <set>
      <set comment="spin 1">
       <r>   -16.0148     0.0000     0.0000 </r>
       <r>   -15.9475     0.0000     0.0000 </r>
       <r>   -15.8802     0.0000     0.0000 </r>
       <r>   -15.8129     0.0000     0.0000 </r>
       <r>   -15.7455     0.0000     0.0000 </r>
       <r>   -15.6782     0.0000     0.0000 </r>
       <r>   -15.6109     0.0000     0.0000 </r>
       <r>   -15.5436     0.0000     0.0000 </r>
       <r>   -15.4763     0.0000     0.0000 </r>
       <r>   -15.4090     0.0000     0.0000 </r>
       <r>   -15.3417     0.0000     0.0000 </r>
       <r>   -15.2744     0.0002     0.0000 </r>
       <r>   -15.2071     0.0072     0.0005 </r>
       <r>   -15.1397     0.0925     0.0067 </r>
       <r>   -15.0724     0.5545     0.0441 </r>
       <r>   -15.0051     1.6185     0.1530 </r>
       <r>   -14.9378     2.3740     0.3128 </r>
       <r>   -14.8705     1.9727     0.4456 </r>
       <r>   -14.8032     1.6809     0.5587 </r>
       <r>   -14.7359     1.7501     0.6765 </r>
       <r>   -14.6686     1.0746     0.7489 </r>
       <r>   -14.6013     0.4675     0.7803 </r>
       <r>   -14.5339     0.8586     0.8381 </r>
       <r>   -14.4666     1.6133     0.9467 </r>
       <r>   -14.3993     1.3585     1.0381 </r>
       <r>   -14.3320     0.4951     1.0715 </r>
       <r>   -14.2647     0.1039     1.0785 </r>
       <r>   -14.1974     0.2532     1.0955 </r>
       <r>   -14.1301     0.9784     1.1614 </r>
       <r>   -14.0628     1.6604     1.2731 </r>
       <r>   -13.9955     1.2169     1.3550 </r>
       <r>   -13.9282     0.3844     1.3809 </r>
       <r>   -13.8608     0.0546     1.3846 </r>
       <r>   -13.7935     0.0494     1.3879 </r>
       <r>   -13.7262     0.3583     1.4120 </r>
       <r>   -13.6589     1.1983     1.4927 </r>
       <r>   -13.5916     1.8804     1.6193 </r>
       <r>   -13.5243     2.0589     1.7578 </r>
       <r>   -13.4570     3.0197     1.9611 </r>
       <r>   -13.3897     4.2493     2.2471 </r>
       <r>   -13.3224     4.5758     2.5551 </r>
       <r>   -13.2550     5.0209     2.8931 </r>
       <r>   -13.1877     5.1462     3.2395 </r>
       <r>   -13.1204     3.6835     3.4874 </r>
       <r>   -13.0531     2.3747     3.6473 </r>
       <r>   -12.9858     2.9167     3.8436 </r>
       <r>   -12.9185     4.2880     4.1322 </r>
       <r>   -12.8512     4.4657     4.4328 </r>
       <r>   -12.7839     3.6282     4.6770 </r>
       <r>   -12.7166     3.1612     4.8898 </r>
       <r>   -12.6492     3.8163     5.1467 </r>
       <r>   -12.5819     5.6020     5.5237 </r>
       <r>   -12.5146     6.7166     5.9758 </r>
       <r>   -12.4473     6.1248     6.3881 </r>
       <r>   -12.3800     5.2215     6.7396 </r>
       <r>   -12.3127     4.5550     7.0462 </r>
       <r>   -12.2454     4.5070     7.3495 </r>
       <r>   -12.1781     5.1646     7.6972 </r>
       <r>   -12.1108     5.6703     8.0788 </r>
       <r>   -12.0435     5.6633     8.4601 </r>
       <r>   -11.9761     6.4006     8.8909 </r>
       <r>   -11.9088     6.9405     9.3581 </r>
       <r>   -11.8415     6.3012     9.7822 </r>
       <r>   -11.7742     6.2034    10.1997 </r>
       <r>   -11.7069     6.3730    10.6287 </r>
       <r>   -11.6396     6.4939    11.0658 </r>
       <r>   -11.5723     7.2267    11.5523 </r>
       <r>   -11.5050     8.7934    12.1441 </r>
       <r>   -11.4377    10.1198    12.8253 </r>
       <r>   -11.3703     9.0531    13.4347 </r>
       <r>   -11.3030     7.5624    13.9437 </r>
       <r>   -11.2357     8.3359    14.5048 </r>
       <r>   -11.1684     9.4520    15.1410 </r>
       <r>   -11.1011     9.6559    15.7910 </r>
       <r>   -11.0338     9.7197    16.4452 </r>
       <r>   -10.9665    10.3254    17.1402 </r>
       <r>   -10.8992    10.6147    17.8547 </r>
       <r>   -10.8319    10.2330    18.5435 </r>
       <r>   -10.7646    10.7780    19.2690 </r>
       <r>   -10.6972    10.0657    19.9465 </r>
       <r>   -10.6299     8.0111    20.4858 </r>
       <r>   -10.5626     6.8827    20.9490 </r>
       <r>   -10.4953     5.5992    21.3259 </r>
       <r>   -10.4280     4.7818    21.6478 </r>
       <r>   -10.3607     5.1403    21.9938 </r>
       <r>   -10.2934     5.0514    22.3338 </r>
       <r>   -10.2261     4.3723    22.6281 </r>
       <r>   -10.1588     2.9545    22.8270 </r>
       <r>   -10.0914     1.3832    22.9201 </r>
       <r>   -10.0241     1.3798    23.0129 </r>
       <r>    -9.9568     3.2856    23.2341 </r>
       <r>    -9.8895     5.0679    23.5752 </r>
       <r>    -9.8222     4.1879    23.8571 </r>
       <r>    -9.7549     1.7438    23.9745 </r>
       <r>    -9.6876     0.3462    23.9978 </r>
       <r>    -9.6203     0.0336    24.0001 </r>
       <r>    -9.5530     0.0472    24.0032 </r>
       <r>    -9.4856     0.4305    24.0322 </r>
       <r>    -9.4183     1.8762    24.1585 </r>
       <r>    -9.3510     4.2295    24.4432 </r>
       <r>    -9.2837     6.0233    24.8486 </r>
       <r>    -9.2164     6.7205    25.3010 </r>
       <r>    -9.1491     6.5057    25.7389 </r>
       <r>    -9.0818     5.7042    26.1228 </r>
       <r>    -9.0145     4.5537    26.4294 </r>
       <r>    -8.9472     3.4275    26.6601 </r>
       <r>    -8.8799     2.6043    26.8354 </r>
       <r>    -8.8125     2.4631    27.0012 </r>
       <r>    -8.7452     3.7012    27.2503 </r>
       <r>    -8.6779     5.3372    27.6095 </r>
       <r>    -8.6106     5.1465    27.9559 </r>
       <r>    -8.5433     3.8406    28.2145 </r>
       <r>    -8.4760     3.5511    28.4535 </r>
       <r>    -8.4087     4.6174    28.7643 </r>
       <r>    -8.3414     6.3018    29.1885 </r>
       <r>    -8.2741     7.4660    29.6910 </r>
       <r>    -8.2067     7.0157    30.1632 </r>
       <r>    -8.1394     5.0068    30.5002 </r>
       <r>    -8.0721     3.4931    30.7354 </r>
       <r>    -8.0048     2.7389    30.9197 </r>
       <r>    -7.9375     2.3536    31.0782 </r>
       <r>    -7.8702     2.8591    31.2706 </r>
       <r>    -7.8029     3.8381    31.5289 </r>
       <r>    -7.7356     5.0168    31.8666 </r>
       <r>    -7.6683     5.5513    32.2403 </r>
       <r>    -7.6009     5.8478    32.6339 </r>
       <r>    -7.5336     6.5275    33.0733 </r>
       <r>    -7.4663     6.6849    33.5233 </r>
       <r>    -7.3990     6.8492    33.9843 </r>
       <r>    -7.3317     7.7046    34.5029 </r>
       <r>    -7.2644     8.6813    35.0872 </r>
       <r>    -7.1971     8.1874    35.6383 </r>
       <r>    -7.1298     6.1174    36.0501 </r>
       <r>    -7.0625     4.8784    36.3785 </r>
       <r>    -6.9952     5.3454    36.7383 </r>
       <r>    -6.9278     6.2858    37.1614 </r>
       <r>    -6.8605     6.8760    37.6242 </r>
       <r>    -6.7932     7.2430    38.1117 </r>
       <r>    -6.7259     8.7333    38.6996 </r>
       <r>    -6.6586    11.7886    39.4931 </r>
       <r>    -6.5913    12.1690    40.3122 </r>
       <r>    -6.5240     8.9833    40.9168 </r>
       <r>    -6.4567     6.4243    41.3493 </r>
       <r>    -6.3894     4.7853    41.6714 </r>
       <r>    -6.3220     3.3808    41.8989 </r>
       <r>    -6.2547     2.8008    42.0875 </r>
       <r>    -6.1874     2.9529    42.2862 </r>
       <r>    -6.1201     2.8120    42.4755 </r>
       <r>    -6.0528     1.9913    42.6095 </r>
       <r>    -5.9855     1.9748    42.7425 </r>
       <r>    -5.9182     3.5621    42.9822 </r>
       <r>    -5.8509     5.4197    43.3470 </r>
       <r>    -5.7836     6.5809    43.7900 </r>
       <r>    -5.7162     7.7117    44.3091 </r>
       <r>    -5.6489     8.7162    44.8958 </r>
       <r>    -5.5816     8.8887    45.4941 </r>
       <r>    -5.5143     9.3264    46.1218 </r>
       <r>    -5.4470     9.5383    46.7639 </r>
       <r>    -5.3797     8.0715    47.3072 </r>
       <r>    -5.3124     6.6410    47.7542 </r>
       <r>    -5.2451     5.9335    48.1536 </r>
       <r>    -5.1778     5.2732    48.5085 </r>
       <r>    -5.1105     5.0429    48.8479 </r>
       <r>    -5.0431     5.4640    49.2157 </r>
       <r>    -4.9758     6.8163    49.6745 </r>
       <r>    -4.9085     8.3153    50.2342 </r>
       <r>    -4.8412     9.4718    50.8718 </r>
       <r>    -4.7739    10.8102    51.5994 </r>
       <r>    -4.7066    12.2883    52.4266 </r>
       <r>    -4.6393    12.2949    53.2542 </r>
       <r>    -4.5720    10.8686    53.9857 </r>
       <r>    -4.5047    10.4540    54.6894 </r>
       <r>    -4.4373    10.9708    55.4279 </r>
       <r>    -4.3700    10.7271    56.1499 </r>
       <r>    -4.3027    10.8473    56.8800 </r>
       <r>    -4.2354    12.1346    57.6968 </r>
       <r>    -4.1681    12.8318    58.5605 </r>
       <r>    -4.1008    12.4977    59.4018 </r>
       <r>    -4.0335    13.2222    60.2918 </r>
       <r>    -3.9662    13.9550    61.2311 </r>
       <r>    -3.8989    11.7462    62.0217 </r>
       <r>    -3.8315     8.7302    62.6094 </r>
       <r>    -3.7642     9.7025    63.2625 </r>
       <r>    -3.6969    13.5982    64.1778 </r>
       <r>    -3.6296    14.2656    65.1380 </r>
       <r>    -3.5623    11.5304    65.9141 </r>
       <r>    -3.4950    10.7842    66.6400 </r>
       <r>    -3.4277    13.3528    67.5388 </r>
       <r>    -3.3604    15.3818    68.5741 </r>
       <r>    -3.2931    14.9337    69.5793 </r>
       <r>    -3.2258    14.4520    70.5521 </r>
       <r>    -3.1584    15.3464    71.5851 </r>
       <r>    -3.0911    16.5195    72.6970 </r>
       <r>    -3.0238    16.8068    73.8283 </r>
       <r>    -2.9565    16.4764    74.9373 </r>
       <r>    -2.8892    15.7622    75.9983 </r>
       <r>    -2.8219    13.8310    76.9293 </r>
       <r>    -2.7546    12.5852    77.7764 </r>
       <r>    -2.6873    14.5531    78.7560 </r>
       <r>    -2.6200    16.9131    79.8944 </r>
       <r>    -2.5526    17.0872    81.0446 </r>
       <r>    -2.4853    16.4990    82.1551 </r>
       <r>    -2.4180    15.8249    83.2203 </r>
       <r>    -2.3507    15.2864    84.2493 </r>
       <r>    -2.2834    14.4627    85.2228 </r>
       <r>    -2.2161    13.0826    86.1034 </r>
       <r>    -2.1488    12.4471    86.9412 </r>
       <r>    -2.0815    12.4523    87.7794 </r>
       <r>    -2.0142    13.1568    88.6649 </r>
       <r>    -1.9468    15.4695    89.7062 </r>
       <r>    -1.8795    17.9292    90.9130 </r>
       <r>    -1.8122    18.0792    92.1300 </r>
       <r>    -1.7449    16.9526    93.2710 </r>
       <r>    -1.6776    15.9607    94.3454 </r>
       <r>    -1.6103    14.5663    95.3258 </r>
       <r>    -1.5430    14.4085    96.2957 </r>
       <r>    -1.4757    15.2436    97.3217 </r>
       <r>    -1.4084    14.8751    98.3230 </r>
       <r>    -1.3411    13.1221    99.2062 </r>
       <r>    -1.2737    10.9130    99.9408 </r>
       <r>    -1.2064     8.7898   100.5325 </r>
       <r>    -1.1391     7.6909   101.0501 </r>
       <r>    -1.0718     7.3973   101.5481 </r>
       <r>    -1.0045     6.9543   102.0162 </r>
       <r>    -0.9372     6.8790   102.4792 </r>
       <r>    -0.8699     7.0211   102.9518 </r>
       <r>    -0.8026     6.9055   103.4166 </r>
       <r>    -0.7353     7.4409   103.9174 </r>
       <r>    -0.6679     9.0843   104.5289 </r>
       <r>    -0.6006    10.3547   105.2259 </r>
       <r>    -0.5333    10.0290   105.9010 </r>
       <r>    -0.4660     8.0936   106.4457 </r>
       <r>    -0.3987     4.9376   106.7781 </r>
       <r>    -0.3314     2.7486   106.9631 </r>
       <r>    -0.2641     3.4656   107.1964 </r>
       <r>    -0.1968     5.5904   107.5727 </r>
       <r>    -0.1295     5.9373   107.9723 </r>
       <r>    -0.0622     5.1407   108.3183 </r>
       <r>     0.0052     5.4738   108.6868 </r>
       <r>     0.0725     5.6379   109.0663 </r>
       <r>     0.1398     4.5259   109.3709 </r>
       <r>     0.2071     3.0464   109.5760 </r>
       <r>     0.2744     2.6591   109.7550 </r>
       <r>     0.3417     3.5746   109.9956 </r>
       <r>     0.4090     4.8168   110.3198 </r>
       <r>     0.4763     5.9164   110.7180 </r>
       <r>     0.5436     6.0310   111.1240 </r>
       <r>     0.6110     4.2949   111.4131 </r>
       <r>     0.6783     2.5463   111.5845 </r>
       <r>     0.7456     2.6445   111.7625 </r>
       <r>     0.8129     4.3974   112.0585 </r>
       <r>     0.8802     6.3215   112.4840 </r>
       <r>     0.9475     6.5656   112.9259 </r>
       <r>     1.0148     5.7941   113.3159 </r>
       <r>     1.0821     5.3746   113.6777 </r>
       <r>     1.1494     4.9979   114.0141 </r>
       <r>     1.2168     5.6294   114.3930 </r>
       <r>     1.2841     6.9285   114.8594 </r>
       <r>     1.3514     7.8800   115.3898 </r>
       <r>     1.4187     8.7290   115.9773 </r>
       <r>     1.4860     9.2043   116.5969 </r>
       <r>     1.5533     9.7602   117.2538 </r>
       <r>     1.6206    10.7437   117.9770 </r>
       <r>     1.6879    11.7480   118.7678 </r>
       <r>     1.7552    13.0521   119.6463 </r>
       <r>     1.8225    13.6128   120.5626 </r>
       <r>     1.8899    12.2567   121.3876 </r>
       <r>     1.9572    10.9947   122.1277 </r>
       <r>     2.0245    11.6389   122.9111 </r>
       <r>     2.0918    12.9720   123.7843 </r>
       <r>     2.1591    14.1397   124.7360 </r>
       <r>     2.2264    15.1717   125.7572 </r>
       <r>     2.2937    15.7790   126.8193 </r>
       <r>     2.3610    15.6752   127.8744 </r>
       <r>     2.4283    15.4529   128.9146 </r>
       <r>     2.4957    15.5278   129.9598 </r>
       <r>     2.5630    15.3035   130.9899 </r>
       <r>     2.6303    14.0194   131.9335 </r>
       <r>     2.6976    12.0735   132.7462 </r>
       <r>     2.7649    10.1497   133.4294 </r>
       <r>     2.8322     7.9604   133.9652 </r>
       <r>     2.8995     6.3299   134.3913 </r>
       <r>     2.9668     6.0907   134.8012 </r>
       <r>     3.0341     6.1964   135.2183 </r>
       <r>     3.1015     5.4467   135.5849 </r>
       <r>     3.1688     3.7364   135.8364 </r>
       <r>     3.2361     1.8111   135.9583 </r>
       <r>     3.3034     0.5318   135.9941 </r>
       <r>     3.3707     0.0811   135.9996 </r>
       <r>     3.4380     0.0058   136.0000 </r>
       <r>     3.5053     0.0002   136.0000 </r>
       <r>     3.5726     0.0000   136.0000 </r>
       <r>     3.6399     0.0000   136.0000 </r>
       <r>     3.7072     0.0000   136.0000 </r>
       <r>     3.7746     0.0000   136.0000 </r>
       <r>     3.8419     0.0000   136.0000 </r>
       <r>     3.9092     0.0000   136.0000 </r>
       <r>     3.9765     0.0000   136.0000 </r>
       <r>     4.0438     0.0000   136.0000 </r>
       <r>     4.1111     0.0000   136.0000 </r>
       <r>     4.1784     0.0000   136.0000 </r>
      </set>
     </set>
    </array>
   </total>
  </dos>
 </calculation>
 <structure name="finalpos" >
  <crystal>
   <varray name="basis" >
    <v>       3.54040000       0.00000000       0.00000000 </v>
    <v>      -1.77020000      10.29434800       0.00000000 </v>
    <v>       0.00000000       0.00000000      27.50142900 </v>
   </varray>
   <i name="volume">   1002.32009712 </i>
   <varray name="rec_basis" >
    <v>       0.28245396       0.04857034       0.00000000 </v>
    <v>       0.00000000       0.09714068       0.00000000 </v>
    <v>       0.00000000       0.00000000       0.03636175 </v>
   </varray>
  </crystal>
  <varray name="positions" >
   <v>       0.11402300       0.22804500       0.23316207 </v>
   <v>       0.41402300       0.72804500       0.51499159 </v>
   <v>       0.45808900       0.91617900       0.20939482 </v>
   <v>       0.75808900       0.41617900       0.49122434 </v>
   <v>       0.31085400       0.62170900       0.08414979 </v>
   <v>       0.31085400       0.62170900       0.36597930 </v>
   <v>       0.99923000       0.99846000       0.08631254 </v>
   <v>       0.99923000       0.99846000       0.36814206 </v>
   <v>       0.65492700       0.30985400       0.06041748 </v>
   <v>       0.65492700       0.30985400       0.34224700 </v>
   <v>       0.76973800       0.53947500       0.20725292 </v>
   <v>       0.06973800       0.03947500       0.48908244 </v>
   <v>       0.93971600       0.87943300       0.15783749 </v>
   <v>       0.23971600       0.37943300       0.43966701 </v>
   <v>       0.20515200       0.41030300       0.18578822 </v>
   <v>       0.50515200       0.91030300       0.46761774 </v>
   <v>       0.20184900       0.40369900       0.09969156 </v>
   <v>       0.20184900       0.40369900       0.38152107 </v>
   <v>       0.56380500       0.12761000       0.10779021 </v>
   <v>       0.56380500       0.12761000       0.38961973 </v>
   <v>       0.56710600       0.13421200       0.19387616 </v>
   <v>       0.86710600       0.63421200       0.47570568 </v>
   <v>       0.82923400       0.65846800       0.13571444 </v>
   <v>       0.12923400       0.15846800       0.41754396 </v>
  </varray>
 </structure>
</modeling>
