 running on    8 total cores
 distrk:  each k-point on    8 cores,    1 groups
 distr:  one band on    2 cores,    4 groups
 using from now: INCAR     
 vasp.5.3.5 31Mar14 (build Oct 29 2014 16:16:03) complex                        
  
 POSCAR found type information on POSCAR  P  Si
 POSCAR found :  2 types and      24 ions
 scaLAPACK will be used

 ----------------------------------------------------------------------------- 
|                                                                             |
|  ADVICE TO THIS USER RUNNING 'VASP/VAMP'   (HEAR YOUR MASTER'S VOICE ...):  |
|                                                                             |
|      You have switched on vdW-DFT.                                          |
|      This routine was written and supplied by Jiri Klimes.                  |
|      We recommed that you carefully read and cite the following             |
|      publication                                                            |
|      J. Klimes, D.R. Bowler, A. Michelides                                  |
|        J. Phys.: Cond Matt. 22 022201 (2010)                                |
|      J. Klimes, D.R. Bowler, A. Michelides                                  |
|        Phys. Rev. B. 83, 195131 (2011)                                      |
|      and references therein.                                                |
|                                                                             |
 ----------------------------------------------------------------------------- 


 ----------------------------------------------------------------------------- 
|                                                                             |
|  ADVICE TO THIS USER RUNNING 'VASP/VAMP'   (HEAR YOUR MASTER'S VOICE ...):  |
|                                                                             |
|      You enforced a specific xc-type in the INCAR file,                     |
|      a different type was found on the POTCAR file                          |
|          I HOPE YOU KNOW, WHAT YOU ARE  DOING                               |
|                                                                             |
 ----------------------------------------------------------------------------- 

 LDA part: xc-table for Pade appr. of Perdew


 VERY BAD NEWS! internal error in subroutine IBZKPT:
 Reciprocal lattice and k-lattice belong to different class of lattices. Often results are still useful...      96


 VERY BAD NEWS! internal error in subroutine IBZKPT:
 Reciprocal lattice and k-lattice belong to different class of lattices. Often results are still useful...      96


 VERY BAD NEWS! internal error in subroutine IBZKPT:
 Reciprocal lattice and k-lattice belong to different class of lattices. Often results are still useful...      96


 VERY BAD NEWS! internal error in subroutine IBZKPT:
 Reciprocal lattice and k-lattice belong to different class of lattices. Often results are still useful...      96


 VERY BAD NEWS! internal error in subroutine IBZKPT:
 Reciprocal lattice and k-lattice belong to different class of lattices. Often results are still useful...      96


 VERY BAD NEWS! internal error in subroutine IBZKPT:
 Reciprocal lattice and k-lattice belong to different class of lattices. Often results are still useful...      96


 VERY BAD NEWS! internal error in subroutine IBZKPT:
 Reciprocal lattice and k-lattice belong to different class of lattices. Often results are still useful...      96


 VERY BAD NEWS! internal error in subroutine IBZKPT:
 Reciprocal lattice and k-lattice belong to different class of lattices. Often results are still useful...      96
 POSCAR, INCAR and KPOINTS ok, starting setup
 WARNING: small aliasing (wrap around) errors must be expected
 FFT: planning ...
 WAVECAR not read
 entering main loop
       N       E                     dE             d eps       ncg     rms          rms(c)
Total vdW correction in eV:     15.9009834
DAV:   1     0.501397576886E+03    0.50140E+03   -0.28730E+04  7360   0.790E+02
DAV:   2    -0.631127560900E+02   -0.56451E+03   -0.54971E+03  9772   0.190E+02
DAV:   3    -0.119593673454E+03   -0.56481E+02   -0.55685E+02  8692   0.625E+01
DAV:   4    -0.122231879790E+03   -0.26382E+01   -0.26196E+01 10984   0.143E+01
DAV:   5    -0.122294053829E+03   -0.62174E-01   -0.62106E-01 10000   0.220E+00    0.110E+01
Total vdW correction in eV:     16.2605839
DAV:   6    -0.118693236502E+03    0.36008E+01   -0.10294E+01  8752   0.939E+00    0.577E+00
Total vdW correction in eV:     16.6459017
DAV:   7    -0.118596463045E+03    0.96773E-01   -0.55966E+00  8592   0.601E+00    0.252E+00
Total vdW correction in eV:     16.8522359
DAV:   8    -0.118626514059E+03   -0.30051E-01   -0.77839E-01  9336   0.248E+00    0.112E+00
Total vdW correction in eV:     16.9348604
DAV:   9    -0.118618704688E+03    0.78094E-02   -0.15464E-01  9104   0.121E+00    0.478E-01
Total vdW correction in eV:     16.9769540
DAV:  10    -0.118608205392E+03    0.10499E-01   -0.58258E-02  9264   0.717E-01    0.184E-01
Total vdW correction in eV:     16.9929353
DAV:  11    -0.118600917663E+03    0.72877E-02   -0.10176E-02  8936   0.327E-01    0.869E-02
Total vdW correction in eV:     17.0010876
DAV:  12    -0.118594017091E+03    0.69006E-02   -0.25401E-03  9512   0.142E-01    0.405E-02
Total vdW correction in eV:     17.0052886
DAV:  13    -0.118590675894E+03    0.33412E-02   -0.46680E-04  9088   0.695E-02    0.219E-02
Total vdW correction in eV:     17.0102827
DAV:  14    -0.118588442641E+03    0.22333E-02   -0.16509E-04  9336   0.379E-02    0.118E-02
Total vdW correction in eV:     17.0130336
DAV:  15    -0.118587970138E+03    0.47250E-03   -0.51228E-05  8904   0.208E-02    0.762E-03
Total vdW correction in eV:     17.0157838
DAV:  16    -0.118588252445E+03   -0.28231E-03   -0.76487E-05  8040   0.209E-02    0.461E-03
Total vdW correction in eV:     17.0166258
DAV:  17    -0.118588656690E+03   -0.40425E-03   -0.11736E-04  8344   0.211E-02    0.303E-03
Total vdW correction in eV:     17.0166204
DAV:  18    -0.118588901429E+03   -0.24474E-03   -0.93399E-05  7584   0.158E-02    0.151E-03
Total vdW correction in eV:     17.0163414
DAV:  19    -0.118588970117E+03   -0.68688E-04   -0.11582E-05  7016   0.833E-03    0.109E-03
Total vdW correction in eV:     17.0161158
DAV:  20    -0.118589006011E+03   -0.35894E-04   -0.28446E-05  7184   0.102E-02    0.735E-04
Total vdW correction in eV:     17.0159852
DAV:  21    -0.118588991711E+03    0.14299E-04   -0.21748E-05  7168   0.109E-02    0.486E-04
Total vdW correction in eV:     17.0158954
DAV:  22    -0.118588916775E+03    0.74936E-04   -0.17537E-05  6680   0.112E-02    0.236E-04
Total vdW correction in eV:     17.0158971
DAV:  23    -0.118588866902E+03    0.49873E-04   -0.58237E-06  6296   0.801E-03    0.147E-04
Total vdW correction in eV:     17.0158962
DAV:  24    -0.118588841802E+03    0.25101E-04   -0.90468E-06  7140   0.938E-03    0.634E-05
Total vdW correction in eV:     17.0158978
DAV:  25    -0.118588842217E+03   -0.41486E-06   -0.37286E-06  6880   0.634E-03
Total vdW correction in eV:     17.0158942
Total vdW correction in eV:     17.0158988
   1 F= -.11858884E+03 E0= -.11857867E+03  d E =-.203463E-01
