  24  24   0   0
  0.4176334E+02  0.3540400E-09  0.1044544E-08  0.2750143E-08  0.5000000E-15
  1.000000000000000E-004
  CAR 
 unknown system                          
      4.11990571    -16.35978100  301     -0.02146991      1.00000000
    -16.360  0.0000E+00  0.0000E+00
    -16.292  0.0000E+00  0.0000E+00
    -16.223  0.0000E+00  0.0000E+00
    -16.155  0.0000E+00  0.0000E+00
    -16.087  0.0000E+00  0.0000E+00
    -16.018  0.0000E+00  0.0000E+00
    -15.950  0.9383E-16  0.6405E-17
    -15.882  0.1558E-12  0.1065E-13
    -15.814  0.1422E-09  0.9716E-11
    -15.745  0.5233E-07  0.3582E-08
    -15.677  0.7856E-05  0.5399E-06
    -15.609  0.4889E-03  0.3392E-04
    -15.541  0.1293E-01  0.9165E-03
    -15.472  0.1502E+00  0.1117E-01
    -15.404  0.7955E+00  0.6548E-01
    -15.336  0.1986E+01  0.2010E+00
    -15.268  0.2483E+01  0.3705E+00
    -15.199  0.2098E+01  0.5137E+00
    -15.131  0.1930E+01  0.6454E+00
    -15.063  0.1368E+01  0.7388E+00
    -14.994  0.7971E+00  0.7932E+00
    -14.926  0.1261E+01  0.8793E+00
    -14.858  0.1663E+01  0.9928E+00
    -14.790  0.9758E+00  0.1059E+01
    -14.721  0.3390E+00  0.1083E+01
    -14.653  0.6196E+00  0.1125E+01
    -14.585  0.1470E+01  0.1225E+01
    -14.517  0.1529E+01  0.1330E+01
    -14.448  0.6805E+00  0.1376E+01
    -14.380  0.2416E+00  0.1393E+01
    -14.312  0.6612E+00  0.1438E+01
    -14.244  0.1516E+01  0.1541E+01
    -14.175  0.1516E+01  0.1645E+01
    -14.107  0.8927E+00  0.1706E+01
    -14.039  0.1157E+01  0.1785E+01
    -13.970  0.1678E+01  0.1899E+01
    -13.902  0.1121E+01  0.1976E+01
    -13.834  0.3167E+00  0.1997E+01
    -13.766  0.3919E-01  0.2000E+01
    -13.697  0.2900E-01  0.2002E+01
    -13.629  0.2017E+00  0.2016E+01
    -13.561  0.7715E+00  0.2068E+01
    -13.493  0.1606E+01  0.2178E+01
    -13.424  0.2029E+01  0.2317E+01
    -13.356  0.2092E+01  0.2459E+01
    -13.288  0.2570E+01  0.2635E+01
    -13.220  0.3513E+01  0.2875E+01
    -13.151  0.3881E+01  0.3140E+01
    -13.083  0.3537E+01  0.3381E+01
    -13.015  0.3989E+01  0.3653E+01
    -12.946  0.4455E+01  0.3957E+01
    -12.878  0.3697E+01  0.4210E+01
    -12.810  0.2927E+01  0.4410E+01
    -12.742  0.3175E+01  0.4626E+01
    -12.673  0.3963E+01  0.4897E+01
    -12.605  0.4922E+01  0.5233E+01
    -12.537  0.5698E+01  0.5622E+01
    -12.469  0.6346E+01  0.6055E+01
    -12.400  0.6752E+01  0.6516E+01
    -12.332  0.6073E+01  0.6931E+01
    -12.264  0.4819E+01  0.7260E+01
    -12.196  0.4012E+01  0.7533E+01
    -12.127  0.4476E+01  0.7839E+01
    -12.059  0.6568E+01  0.8287E+01
    -11.991  0.8113E+01  0.8841E+01
    -11.923  0.7148E+01  0.9329E+01
    -11.854  0.6558E+01  0.9777E+01
    -11.786  0.7269E+01  0.1027E+02
    -11.718  0.7122E+01  0.1076E+02
    -11.649  0.6869E+01  0.1123E+02
    -11.581  0.7039E+01  0.1171E+02
    -11.513  0.7343E+01  0.1221E+02
    -11.445  0.7821E+01  0.1274E+02
    -11.376  0.8183E+01  0.1330E+02
    -11.308  0.9034E+01  0.1392E+02
    -11.240  0.9487E+01  0.1457E+02
    -11.172  0.8400E+01  0.1514E+02
    -11.103  0.8306E+01  0.1571E+02
    -11.035  0.9479E+01  0.1635E+02
    -10.967  0.1035E+02  0.1706E+02
    -10.899  0.1077E+02  0.1780E+02
    -10.830  0.1118E+02  0.1856E+02
    -10.762  0.1001E+02  0.1924E+02
    -10.694  0.8200E+01  0.1980E+02
    -10.625  0.7985E+01  0.2035E+02
    -10.557  0.8094E+01  0.2090E+02
    -10.489  0.7381E+01  0.2140E+02
    -10.421  0.5387E+01  0.2177E+02
    -10.352  0.2680E+01  0.2196E+02
    -10.284  0.1364E+01  0.2205E+02
    -10.216  0.1994E+01  0.2218E+02
    -10.148  0.3522E+01  0.2242E+02
    -10.079  0.5552E+01  0.2280E+02
    -10.011  0.6876E+01  0.2327E+02
     -9.943  0.6049E+01  0.2369E+02
     -9.875  0.3444E+01  0.2392E+02
     -9.806  0.1359E+01  0.2401E+02
     -9.738  0.1280E+01  0.2410E+02
     -9.670  0.1676E+01  0.2422E+02
     -9.601  0.1059E+01  0.2429E+02
     -9.533  0.4900E+00  0.2432E+02
     -9.465  0.1127E+01  0.2440E+02
     -9.397  0.2904E+01  0.2460E+02
     -9.328  0.5004E+01  0.2494E+02
     -9.260  0.6266E+01  0.2537E+02
     -9.192  0.5727E+01  0.2576E+02
     -9.124  0.4338E+01  0.2605E+02
     -9.055  0.3255E+01  0.2628E+02
     -8.987  0.3236E+01  0.2650E+02
     -8.919  0.3776E+01  0.2675E+02
     -8.851  0.3629E+01  0.2700E+02
     -8.782  0.3731E+01  0.2726E+02
     -8.714  0.3966E+01  0.2753E+02
     -8.646  0.3551E+01  0.2777E+02
     -8.578  0.3585E+01  0.2801E+02
     -8.509  0.4823E+01  0.2834E+02
     -8.441  0.5821E+01  0.2874E+02
     -8.373  0.4796E+01  0.2907E+02
     -8.304  0.2793E+01  0.2926E+02
     -8.236  0.1908E+01  0.2939E+02
     -8.168  0.2335E+01  0.2955E+02
     -8.100  0.2784E+01  0.2974E+02
     -8.031  0.2418E+01  0.2990E+02
     -7.963  0.2410E+01  0.3007E+02
     -7.895  0.3561E+01  0.3031E+02
     -7.827  0.5009E+01  0.3065E+02
     -7.758  0.5387E+01  0.3102E+02
     -7.690  0.4462E+01  0.3133E+02
     -7.622  0.4209E+01  0.3161E+02
     -7.554  0.5017E+01  0.3196E+02
     -7.485  0.6434E+01  0.3239E+02
     -7.417  0.8307E+01  0.3296E+02
     -7.349  0.8888E+01  0.3357E+02
     -7.280  0.8107E+01  0.3412E+02
     -7.212  0.8941E+01  0.3473E+02
     -7.144  0.1160E+02  0.3552E+02
     -7.076  0.1167E+02  0.3632E+02
     -7.007  0.8450E+01  0.3690E+02
     -6.939  0.5564E+01  0.3728E+02
     -6.871  0.5285E+01  0.3764E+02
     -6.803  0.7325E+01  0.3814E+02
     -6.734  0.1001E+02  0.3882E+02
     -6.666  0.1106E+02  0.3958E+02
     -6.598  0.8621E+01  0.4017E+02
     -6.530  0.5517E+01  0.4054E+02
     -6.461  0.4449E+01  0.4085E+02
     -6.393  0.5257E+01  0.4120E+02
     -6.325  0.6746E+01  0.4167E+02
     -6.256  0.7573E+01  0.4218E+02
     -6.188  0.7086E+01  0.4267E+02
     -6.120  0.5168E+01  0.4302E+02
     -6.052  0.3953E+01  0.4329E+02
     -5.983  0.4013E+01  0.4356E+02
     -5.915  0.4323E+01  0.4386E+02
     -5.847  0.5294E+01  0.4422E+02
     -5.779  0.6167E+01  0.4464E+02
     -5.710  0.5789E+01  0.4504E+02
     -5.642  0.5552E+01  0.4541E+02
     -5.574  0.6311E+01  0.4584E+02
     -5.506  0.6505E+01  0.4629E+02
     -5.437  0.6137E+01  0.4671E+02
     -5.369  0.6177E+01  0.4713E+02
     -5.301  0.6467E+01  0.4757E+02
     -5.232  0.7345E+01  0.4807E+02
     -5.164  0.7135E+01  0.4856E+02
     -5.096  0.5652E+01  0.4895E+02
     -5.028  0.6340E+01  0.4938E+02
     -4.959  0.8842E+01  0.4998E+02
     -4.891  0.9610E+01  0.5064E+02
     -4.823  0.8368E+01  0.5121E+02
     -4.755  0.7424E+01  0.5172E+02
     -4.686  0.8029E+01  0.5226E+02
     -4.618  0.9035E+01  0.5288E+02
     -4.550  0.9425E+01  0.5352E+02
     -4.482  0.9679E+01  0.5418E+02
     -4.413  0.1041E+02  0.5490E+02
     -4.345  0.1131E+02  0.5567E+02
     -4.277  0.1141E+02  0.5645E+02
     -4.209  0.1134E+02  0.5722E+02
     -4.140  0.1230E+02  0.5806E+02
     -4.072  0.1383E+02  0.5900E+02
     -4.004  0.1487E+02  0.6002E+02
     -3.935  0.1423E+02  0.6099E+02
     -3.867  0.1198E+02  0.6181E+02
     -3.799  0.1085E+02  0.6255E+02
     -3.731  0.1224E+02  0.6338E+02
     -3.662  0.1366E+02  0.6432E+02
     -3.594  0.1263E+02  0.6518E+02
     -3.526  0.1138E+02  0.6596E+02
     -3.458  0.1277E+02  0.6683E+02
     -3.389  0.1434E+02  0.6781E+02
     -3.321  0.1431E+02  0.6878E+02
     -3.253  0.1479E+02  0.6979E+02
     -3.185  0.1663E+02  0.7093E+02
     -3.116  0.1862E+02  0.7220E+02
     -3.048  0.1873E+02  0.7348E+02
     -2.980  0.1718E+02  0.7465E+02
     -2.911  0.1534E+02  0.7570E+02
     -2.843  0.1485E+02  0.7671E+02
     -2.775  0.1662E+02  0.7785E+02
     -2.707  0.1814E+02  0.7908E+02
     -2.638  0.1803E+02  0.8032E+02
     -2.570  0.1741E+02  0.8150E+02
     -2.502  0.1695E+02  0.8266E+02
     -2.434  0.1686E+02  0.8381E+02
     -2.365  0.1610E+02  0.8491E+02
     -2.297  0.1469E+02  0.8591E+02
     -2.229  0.1393E+02  0.8686E+02
     -2.161  0.1409E+02  0.8783E+02
     -2.092  0.1364E+02  0.8876E+02
     -2.024  0.1359E+02  0.8969E+02
     -1.956  0.1533E+02  0.9073E+02
     -1.887  0.1639E+02  0.9185E+02
     -1.819  0.1577E+02  0.9293E+02
     -1.751  0.1572E+02  0.9400E+02
     -1.683  0.1539E+02  0.9505E+02
     -1.614  0.1392E+02  0.9600E+02
     -1.546  0.1337E+02  0.9691E+02
     -1.478  0.1383E+02  0.9786E+02
     -1.410  0.1363E+02  0.9879E+02
     -1.341  0.1222E+02  0.9962E+02
     -1.273  0.1097E+02  0.1004E+03
     -1.205  0.9405E+01  0.1010E+03
     -1.137  0.8310E+01  0.1016E+03
     -1.068  0.9626E+01  0.1022E+03
     -1.000  0.1072E+02  0.1030E+03
     -0.932  0.9661E+01  0.1036E+03
     -0.863  0.8563E+01  0.1042E+03
     -0.795  0.7935E+01  0.1048E+03
     -0.727  0.6232E+01  0.1052E+03
     -0.659  0.4697E+01  0.1055E+03
     -0.590  0.3970E+01  0.1058E+03
     -0.522  0.3224E+01  0.1060E+03
     -0.454  0.2240E+01  0.1061E+03
     -0.386  0.1894E+01  0.1063E+03
     -0.317  0.2649E+01  0.1065E+03
     -0.249  0.3963E+01  0.1067E+03
     -0.181  0.4825E+01  0.1071E+03
     -0.113  0.5571E+01  0.1074E+03
     -0.044  0.6266E+01  0.1079E+03
      0.024  0.5503E+01  0.1082E+03
      0.092  0.4131E+01  0.1085E+03
      0.160  0.3118E+01  0.1087E+03
      0.229  0.2536E+01  0.1089E+03
      0.297  0.1931E+01  0.1090E+03
      0.365  0.1617E+01  0.1092E+03
      0.434  0.2252E+01  0.1093E+03
      0.502  0.3299E+01  0.1095E+03
      0.570  0.3829E+01  0.1098E+03
      0.638  0.3144E+01  0.1100E+03
      0.707  0.2022E+01  0.1101E+03
      0.775  0.1956E+01  0.1103E+03
      0.843  0.3213E+01  0.1105E+03
      0.911  0.4809E+01  0.1108E+03
      0.980  0.5262E+01  0.1112E+03
      1.048  0.4536E+01  0.1115E+03
      1.116  0.5248E+01  0.1119E+03
      1.184  0.8194E+01  0.1124E+03
      1.253  0.1141E+02  0.1132E+03
      1.321  0.1292E+02  0.1141E+03
      1.389  0.1191E+02  0.1149E+03
      1.458  0.1054E+02  0.1156E+03
      1.526  0.1139E+02  0.1164E+03
      1.594  0.1346E+02  0.1173E+03
      1.662  0.1413E+02  0.1183E+03
      1.731  0.1386E+02  0.1192E+03
      1.799  0.1363E+02  0.1201E+03
      1.867  0.1268E+02  0.1210E+03
      1.935  0.1174E+02  0.1218E+03
      2.004  0.1197E+02  0.1226E+03
      2.072  0.1256E+02  0.1235E+03
      2.140  0.1266E+02  0.1243E+03
      2.208  0.1343E+02  0.1253E+03
      2.277  0.1461E+02  0.1263E+03
      2.345  0.1491E+02  0.1273E+03
      2.413  0.1540E+02  0.1283E+03
      2.482  0.1558E+02  0.1294E+03
      2.550  0.1480E+02  0.1304E+03
      2.618  0.1487E+02  0.1314E+03
      2.686  0.1444E+02  0.1324E+03
      2.755  0.1190E+02  0.1332E+03
      2.823  0.9137E+01  0.1338E+03
      2.891  0.8089E+01  0.1344E+03
      2.959  0.7575E+01  0.1349E+03
      3.028  0.6458E+01  0.1354E+03
      3.096  0.5072E+01  0.1357E+03
      3.164  0.3093E+01  0.1359E+03
      3.232  0.1111E+01  0.1360E+03
      3.301  0.1989E+00  0.1360E+03
      3.369  0.1631E-01  0.1360E+03
      3.437  0.5850E-03  0.1360E+03
      3.506  0.8898E-05  0.1360E+03
      3.574  0.5627E-07  0.1360E+03
      3.642  0.1459E-09  0.1360E+03
      3.710  0.1535E-12  0.1360E+03
      3.779  0.0000E+00  0.1360E+03
      3.847  0.0000E+00  0.1360E+03
      3.915  0.0000E+00  0.1360E+03
      3.983  0.0000E+00  0.1360E+03
      4.052  0.0000E+00  0.1360E+03
      4.120  0.0000E+00  0.1360E+03
