   24   24    1    1
  0.4176334E+02  0.3540400E-09  0.1044544E-08  0.2750143E-08  0.5000000E-15
  1.000000000000000E-004
  CAR 
 unknown system                          
    108     54     68
 
  0.0000000E+00  0.0000000E+00  0.0000000E+00  0.9615385E-02
    1      -15.359781
    2      -13.568274
    3      -13.202298
    4      -12.828684
    5      -12.686614
    6      -12.506863
    7      -12.114904
    8      -11.839449
    9      -11.467148
   10      -11.455657
   11      -11.018385
   12      -10.077661
   13       -9.194419
   14       -8.061735
   15       -7.857270
   16       -7.176321
   17       -7.135879
   18       -6.834465
   19       -6.523216
   20       -6.318325
   21       -5.854195
   22       -5.361698
   23       -5.028541
   24       -4.767814
   25       -4.262866
   26       -4.016073
   27       -3.754158
   28       -3.644792
   29       -3.434820
   30       -3.298210
   31       -3.174833
   32       -3.083059
   33       -2.871934
   34       -2.848471
   35       -2.734112
   36       -2.502119
   37       -2.447857
   38       -2.422085
   39       -2.360598
   40       -2.201792
   41       -2.073701
   42       -1.942822
   43       -1.882425
   44       -1.757150
   45       -1.723462
   46       -1.670459
   47       -1.604036
   48       -1.496702
   49       -1.459759
   50       -1.278090
   51       -1.130200
   52       -1.055005
   53       -0.102503
   54        0.222191
   55        0.910851
   56        1.108580
   57        1.179945
   58        1.253544
   59        1.316060
   60        1.396627
   61        1.682711
   62        1.827967
   63        1.926421
   64        2.030522
   65        2.133060
   66        2.407286
   67        2.448945
   68        2.623242
 
  0.7692308E-01 -0.1387779E-16  0.0000000E+00  0.1923077E-01
    1      -15.306749
    2      -13.506925
    3      -13.147177
    4      -12.776527
    5      -12.627952
    6      -12.451210
    7      -12.052700
    8      -11.791129
    9      -11.415972
   10      -11.403083
   11      -10.970015
   12      -10.052570
   13       -9.185729
   14       -8.098336
   15       -7.820405
   16       -7.199337
   17       -7.106734
   18       -6.808038
   19       -6.517706
   20       -6.318028
   21       -5.821059
   22       -5.485299
   23       -5.178933
   24       -4.775209
   25       -4.618279
   26       -4.010527
   27       -3.789007
   28       -3.675610
   29       -3.526934
   30       -3.459487
   31       -3.305988
   32       -3.221955
   33       -3.159728
   34       -2.949211
   35       -2.888753
   36       -2.767040
   37       -2.632180
   38       -2.504943
   39       -2.449663
   40       -2.313083
   41       -2.222751
   42       -2.066241
   43       -2.019443
   44       -1.991240
   45       -1.866292
   46       -1.780898
   47       -1.646439
   48       -1.552479
   49       -1.534832
   50       -1.284792
   51       -1.110184
   52       -0.993997
   53       -0.079254
   54        0.234406
   55        0.843406
   56        1.117289
   57        1.295424
   58        1.523349
   59        1.627506
   60        1.739452
   61        1.940589
   62        2.104988
   63        2.168191
   64        2.247287
   65        2.291113
   66        2.584512
   67        2.598249
   68        2.747174
 
  0.1538462E+00 -0.2775558E-16  0.0000000E+00  0.1923077E-01
    1      -15.150507
    2      -13.323946
    3      -12.983924
    4      -12.620778
    5      -12.454471
    6      -12.286304
    7      -11.870375
    8      -11.648876
    9      -11.271889
   10      -11.245780
   11      -10.831236
   12       -9.991682
   13       -9.178281
   14       -8.194549
   15       -7.778447
   16       -7.397884
   17       -7.030884
   18       -6.747229
   19       -6.531323
   20       -6.405248
   21       -5.937455
   22       -5.743451
   23       -5.296837
   24       -4.903860
   25       -4.839228
   26       -4.252484
   27       -4.163313
   28       -4.099040
   29       -3.997360
   30       -3.936919
   31       -3.729520
   32       -3.702187
   33       -3.442928
   34       -3.295264
   35       -3.195169
   36       -3.151348
   37       -2.996077
   38       -2.952652
   39       -2.723158
   40       -2.558556
   41       -2.476931
   42       -2.383169
   43       -2.232526
   44       -2.164132
   45       -1.968494
   46       -1.810195
   47       -1.686001
   48       -1.632069
   49       -1.325872
   50       -1.186980
   51       -1.011695
   52       -0.829332
   53       -0.240296
   54        0.025875
   55        0.577394
   56        0.966942
   57        1.164065
   58        1.802027
   59        1.916593
   60        2.218985
   61        2.328771
   62        2.409978
   63        2.449372
   64        2.599399
   65        2.660016
   66        2.873389
   67        2.953905
   68        3.050669
 
  0.2307692E+00 -0.4163336E-16  0.0000000E+00  0.1923077E-01
    1      -14.901184
    2      -13.022928
    3      -12.720401
    4      -12.364525
    5      -12.174982
    6      -12.019446
    7      -11.582888
    8      -11.423563
    9      -11.054487
   10      -11.000767
   11      -10.628207
   12       -9.955027
   13       -9.221317
   14       -8.385982
   15       -7.922678
   16       -7.847344
   17       -7.007852
   18       -6.733008
   19       -6.668336
   20       -6.641897
   21       -6.087125
   22       -5.766071
   23       -5.539007
   24       -5.365467
   25       -5.240977
   26       -4.842645
   27       -4.634883
   28       -4.608258
   29       -4.526574
   30       -4.320322
   31       -4.208281
   32       -3.924950
   33       -3.808759
   34       -3.679562
   35       -3.501299
   36       -3.376740
   37       -3.151569
   38       -3.038970
   39       -2.998731
   40       -2.717350
   41       -2.652238
   42       -2.502771
   43       -2.404385
   44       -2.189868
   45       -1.935293
   46       -1.865770
   47       -1.763895
   48       -1.694484
   49       -1.500817
   50       -1.262064
   51       -1.074529
   52       -0.678241
   53       -0.513959
   54       -0.381890
   55        0.412413
   56        0.918578
   57        1.164139
   58        1.771908
   59        1.835840
   60        2.013518
   61        2.185651
   62        2.254616
   63        2.327318
   64        2.513402
   65        2.648158
   66        2.789779
   67        2.876277
   68        2.952519
 
  0.3076923E+00 -0.5551115E-16  0.0000000E+00  0.1923077E-01
    1      -14.582051
    2      -12.611230
    3      -12.377688
    4      -12.016244
    5      -11.810246
    6      -11.667715
    7      -11.225736
    8      -11.147341
    9      -10.810140
   10      -10.717024
   11      -10.442481
   12      -10.071962
   13       -9.308596
   14       -8.680978
   15       -8.492375
   16       -8.110753
   17       -7.240766
   18       -7.024042
   19       -6.931770
   20       -6.919792
   21       -6.333058
   22       -6.191230
   23       -5.991949
   24       -5.831759
   25       -5.593110
   26       -5.242550
   27       -4.983441
   28       -4.798093
   29       -4.725845
   30       -4.440538
   31       -4.334949
   32       -4.246667
   33       -3.920130
   34       -3.816552
   35       -3.441874
   36       -3.412264
   37       -3.177542
   38       -3.108702
   39       -2.985271
   40       -2.942151
   41       -2.796016
   42       -2.633683
   43       -2.445064
   44       -2.329101
   45       -2.093218
   46       -1.927746
   47       -1.902715
   48       -1.742868
   49       -1.686730
   50       -1.431866
   51       -1.272315
   52       -1.049797
   53       -0.804115
   54       -0.572737
   55        0.141244
   56        0.844793
   57        1.291625
   58        1.545138
   59        1.663911
   60        1.778064
   61        1.920442
   62        2.006952
   63        2.182175
   64        2.301216
   65        2.401978
   66        2.681538
   67        2.707132
   68        2.813146
 
  0.3846154E+00 -0.8326673E-16  0.0000000E+00  0.1923077E-01
    1      -14.245211
    2      -12.103941
    3      -12.017818
    4      -11.597146
    5      -11.411689
    6      -11.270659
    7      -10.936753
    8      -10.876030
    9      -10.655550
   10      -10.525257
   11      -10.482855
   12      -10.232188
   13       -9.421256
   14       -8.948262
   15       -8.857150
   16       -8.403216
   17       -7.638382
   18       -7.486219
   19       -7.441912
   20       -7.162719
   21       -6.800135
   22       -6.787147
   23       -6.687406
   24       -6.270461
   25       -5.426903
   26       -5.245328
   27       -4.965918
   28       -4.641668
   29       -4.553874
   30       -4.379411
   31       -4.254413
   32       -4.105620
   33       -4.085016
   34       -3.801290
   35       -3.682799
   36       -3.389423
   37       -3.295487
   38       -3.218078
   39       -3.094872
   40       -3.049348
   41       -2.786805
   42       -2.676717
   43       -2.610766
   44       -2.481647
   45       -2.308627
   46       -2.157460
   47       -2.055225
   48       -1.881795
   49       -1.699346
   50       -1.498919
   51       -1.477213
   52       -1.306639
   53       -0.890486
   54       -0.743306
   55       -0.130393
   56        0.584082
   57        1.313225
   58        1.406725
   59        1.575168
   60        1.653293
   61        1.687393
   62        1.854741
   63        2.032847
   64        2.065844
   65        2.241437
   66        2.407388
   67        2.574663
   68        2.730697
 
  0.4615385E+00 -0.8326673E-16  0.0000000E+00  0.1923077E-01
    1      -14.002083
    2      -11.810841
    3      -11.527827
    4      -11.174525
    5      -11.098930
    6      -10.971636
    7      -10.873246
    8      -10.864160
    9      -10.755784
   10      -10.663369
   11      -10.520427
   12      -10.117955
   13       -9.701194
   14       -9.126660
   15       -8.715718
   16       -8.465916
   17       -8.106088
   18       -7.801309
   19       -7.597455
   20       -7.495296
   21       -7.312949
   22       -7.210063
   23       -7.140203
   24       -6.397658
   25       -5.150799
   26       -4.993517
   27       -4.930721
   28       -4.532973
   29       -4.412109
   30       -4.263538
   31       -4.109627
   32       -4.015474
   33       -3.966774
   34       -3.862862
   35       -3.766114
   36       -3.603245
   37       -3.482944
   38       -3.282285
   39       -3.212244
   40       -3.045669
   41       -2.954874
   42       -2.788549
   43       -2.724500
   44       -2.681518
   45       -2.382705
   46       -2.220093
   47       -2.148968
   48       -1.865297
   49       -1.760864
   50       -1.586847
   51       -1.464868
   52       -1.383130
   53       -0.917282
   54       -0.835708
   55       -0.295488
   56        0.420514
   57        1.212707
   58        1.332011
   59        1.498754
   60        1.533352
   61        1.628151
   62        1.804254
   63        1.907836
   64        1.997304
   65        2.165084
   66        2.390649
   67        2.467303
   68        2.573014
 
  0.0000000E+00  0.2500000E+00  0.0000000E+00  0.1923077E-01
    1      -15.358717
    2      -13.512937
    3      -13.237825
    4      -13.002303
    5      -12.605054
    6      -12.502824
    7      -11.982336
    8      -11.892401
    9      -11.506893
   10      -11.352669
   11      -11.027224
   12      -10.048078
   13       -9.288256
   14       -8.543523
   15       -7.434637
   16       -7.159753
   17       -7.126864
   18       -6.698772
   19       -6.628131
   20       -6.233289
   21       -5.775940
   22       -5.453461
   23       -4.861576
   24       -4.664344
   25       -4.197733
   26       -4.073740
   27       -3.968108
   28       -3.624908
   29       -3.502811
   30       -3.374317
   31       -3.319186
   32       -3.155073
   33       -2.831828
   34       -2.740922
   35       -2.735796
   36       -2.531926
   37       -2.431319
   38       -2.391083
   39       -2.353803
   40       -2.216409
   41       -2.130735
   42       -2.037896
   43       -1.985388
   44       -1.909093
   45       -1.702778
   46       -1.656142
   47       -1.525709
   48       -1.411998
   49       -1.390206
   50       -1.263057
   51       -1.113772
   52       -0.996307
   53       -0.094930
   54        0.048946
   55        1.037360
   56        1.136612
   57        1.173378
   58        1.301842
   59        1.350048
   60        1.452642
   61        1.697702
   62        1.817020
   63        1.924780
   64        2.106503
   65        2.242825
   66        2.437681
   67        2.566819
   68        2.622473
 
  0.7692308E-01  0.2500000E+00  0.0000000E+00  0.1923077E-01
    1      -15.305521
    2      -13.436107
    3      -13.188738
    4      -12.983222
    5      -12.529354
    6      -12.444494
    7      -11.954823
    8      -11.795786
    9      -11.465563
   10      -11.279505
   11      -10.982932
   12      -10.017603
   13       -9.299741
   14       -8.602042
   15       -7.393741
   16       -7.183674
   17       -7.085541
   18       -6.707541
   19       -6.557444
   20       -6.227759
   21       -5.727414
   22       -5.523652
   23       -5.155498
   24       -4.713951
   25       -4.476999
   26       -4.133127
   27       -3.966115
   28       -3.687508
   29       -3.601747
   30       -3.482150
   31       -3.412168
   32       -3.149933
   33       -3.051669
   34       -3.009222
   35       -2.937594
   36       -2.760753
   37       -2.666884
   38       -2.549961
   39       -2.479715
   40       -2.311417
   41       -2.196419
   42       -2.123011
   43       -2.076385
   44       -2.014993
   45       -1.866112
   46       -1.787876
   47       -1.755924
   48       -1.552105
   49       -1.395631
   50       -1.213437
   51       -1.074440
   52       -0.939088
   53       -0.083896
   54        0.067480
   55        0.919703
   56        1.198389
   57        1.350816
   58        1.554790
   59        1.588808
   60        1.760578
   61        1.935164
   62        2.001125
   63        2.200988
   64        2.423265
   65        2.499222
   66        2.566537
   67        2.642369
   68        2.906486
 
  0.1538462E+00  0.2500000E+00  0.0000000E+00  0.1923077E-01
    1      -15.149228
    2      -13.239606
    3      -13.027033
    4      -12.846751
    5      -12.346694
    6      -12.276644
    7      -11.824343
    8      -11.598766
    9      -11.326151
   10      -11.110913
   11      -10.841735
   12       -9.959811
   13       -9.290600
   14       -8.667660
   15       -7.436634
   16       -7.304782
   17       -7.022581
   18       -6.685258
   19       -6.526799
   20       -6.361510
   21       -5.873323
   22       -5.678491
   23       -5.409916
   24       -4.871941
   25       -4.708446
   26       -4.409388
   27       -4.321679
   28       -4.131958
   29       -3.999654
   30       -3.920496
   31       -3.711131
   32       -3.659650
   33       -3.441551
   34       -3.282973
   35       -3.103105
   36       -3.057711
   37       -2.990861
   38       -2.855972
   39       -2.802610
   40       -2.648680
   41       -2.624481
   42       -2.420631
   43       -2.347581
   44       -2.162278
   45       -1.978531
   46       -1.909828
   47       -1.619392
   48       -1.515604
   49       -1.303349
   50       -1.139761
   51       -0.987828
   52       -0.847048
   53       -0.232315
   54       -0.047198
   55        0.525618
   56        0.980715
   57        1.219111
   58        1.622975
   59        1.794290
   60        2.091475
   61        2.318936
   62        2.351641
   63        2.599411
   64        2.734104
   65        2.754917
   66        2.907879
   67        3.044260
   68        3.090107
 
  0.2307692E+00  0.2500000E+00  0.0000000E+00  0.1923077E-01
    1      -14.900000
    2      -12.928353
    3      -12.759799
    4      -12.595440
    5      -12.068359
    6      -12.007978
    7      -11.597977
    8      -11.322445
    9      -11.104417
   10      -10.865313
   11      -10.624501
   12       -9.942579
   13       -9.297660
   14       -8.798845
   15       -7.916403
   16       -7.418491
   17       -7.074099
   18       -6.724478
   19       -6.671651
   20       -6.600524
   21       -6.034045
   22       -5.850486
   23       -5.574798
   24       -5.251984
   25       -5.215861
   26       -5.053495
   27       -4.704633
   28       -4.638004
   29       -4.577874
   30       -4.279289
   31       -4.051554
   32       -3.910560
   33       -3.768289
   34       -3.659985
   35       -3.297909
   36       -3.233105
   37       -3.144345
   38       -3.112140
   39       -2.944821
   40       -2.780698
   41       -2.667326
   42       -2.557404
   43       -2.462133
   44       -2.263383
   45       -2.020092
   46       -1.925716
   47       -1.802406
   48       -1.645483
   49       -1.431596
   50       -1.251525
   51       -1.041704
   52       -0.703427
   53       -0.567221
   54       -0.304216
   55        0.254362
   56        0.946642
   57        1.114064
   58        1.423301
   59        1.565376
   60        1.714349
   61        2.174283
   62        2.208687
   63        2.410740
   64        2.594125
   65        2.682143
   66        2.850632
   67        3.007258
   68        3.062350
 
  0.3076923E+00  0.2500000E+00  0.0000000E+00  0.1923077E-01
    1      -14.581132
    2      -12.512234
    3      -12.406437
    4      -12.236494
    5      -11.720027
    6      -11.658862
    7      -11.299534
    8      -11.008994
    9      -10.840786
   10      -10.595540
   11      -10.419131
   12      -10.089454
   13       -9.326135
   14       -8.997936
   15       -8.480165
   16       -7.733242
   17       -7.376398
   18       -7.139687
   19       -6.988893
   20       -6.830159
   21       -6.286308
   22       -6.219934
   23       -5.948008
   24       -5.857084
   25       -5.630185
   26       -5.408181
   27       -5.010477
   28       -4.964552
   29       -4.461254
   30       -4.404693
   31       -4.347227
   32       -4.044549
   33       -3.969825
   34       -3.712067
   35       -3.422356
   36       -3.367339
   37       -3.094104
   38       -3.026394
   39       -2.903081
   40       -2.864595
   41       -2.768824
   42       -2.595965
   43       -2.494324
   44       -2.410329
   45       -2.323583
   46       -1.993047
   47       -1.913509
   48       -1.778192
   49       -1.707485
   50       -1.427734
   51       -1.262728
   52       -1.046105
   53       -0.838900
   54       -0.577878
   55        0.027689
   56        0.771729
   57        1.193618
   58        1.231779
   59        1.384145
   60        1.600341
   61        1.803610
   62        2.132804
   63        2.154911
   64        2.370200
   65        2.486247
   66        2.589325
   67        2.669190
   68        2.934768
 
  0.3846154E+00  0.2500000E+00  0.0000000E+00  0.1923077E-01
    1      -14.244709
    2      -12.037281
    3      -12.000358
    4      -11.786598
    5      -11.373597
    6      -11.269501
    7      -10.997308
    8      -10.751658
    9      -10.630027
   10      -10.503494
   11      -10.494610
   12      -10.211141
   13       -9.415613
   14       -8.988244
   15       -8.930573
   16       -8.137873
   17       -7.806905
   18       -7.726569
   19       -7.384463
   20       -7.073296
   21       -6.864549
   22       -6.722654
   23       -6.686713
   24       -6.254608
   25       -5.464461
   26       -5.371922
   27       -4.972180
   28       -4.810219
   29       -4.503241
   30       -4.389319
   31       -4.144482
   32       -4.026772
   33       -3.890672
   34       -3.659630
   35       -3.445238
   36       -3.380252
   37       -3.310387
   38       -3.165576
   39       -3.142294
   40       -2.987729
   41       -2.881801
   42       -2.736463
   43       -2.604833
   44       -2.514764
   45       -2.330950
   46       -2.193580
   47       -2.101735
   48       -1.891411
   49       -1.726849
   50       -1.561469
   51       -1.466863
   52       -1.341621
   53       -0.986736
   54       -0.743957
   55       -0.164696
   56        0.568405
   57        1.162920
   58        1.273094
   59        1.321617
   60        1.570225
   61        1.670037
   62        1.806731
   63        1.973383
   64        2.063090
   65        2.305933
   66        2.466413
   67        2.599359
   68        2.645766
 
  0.4615385E+00  0.2500000E+00  0.0000000E+00  0.1923077E-01
    1      -14.001948
    2      -11.808314
    3      -11.456630
    4      -11.291433
    5      -11.119305
    6      -10.984545
    7      -10.891953
    8      -10.848011
    9      -10.726775
   10      -10.608842
   11      -10.530193
   12      -10.104143
   13       -9.707512
   14       -9.102475
   15       -8.582142
   16       -8.426725
   17       -8.354423
   18       -7.838763
   19       -7.543183
   20       -7.477707
   21       -7.342462
   22       -7.178609
   23       -7.156399
   24       -6.379398
   25       -5.221572
   26       -5.049740
   27       -4.931033
   28       -4.500957
   29       -4.411005
   30       -4.211642
   31       -4.169681
   32       -4.008368
   33       -3.947780
   34       -3.750288
   35       -3.686661
   36       -3.516857
   37       -3.425078
   38       -3.288960
   39       -3.250216
   40       -3.088756
   41       -3.000913
   42       -2.749930
   43       -2.648737
   44       -2.609245
   45       -2.582587
   46       -2.198883
   47       -2.150878
   48       -1.882152
   49       -1.748334
   50       -1.609256
   51       -1.524461
   52       -1.419759
   53       -1.028678
   54       -0.824511
   55       -0.256516
   56        0.465294
   57        1.243108
   58        1.385195
   59        1.455064
   60        1.527696
   61        1.559427
   62        1.647099
   63        1.805112
   64        2.008876
   65        2.267558
   66        2.379691
   67        2.418813
   68        2.475733
 
 -0.4615385E+00  0.2500000E+00  0.0000000E+00  0.1923077E-01
    1      -14.002201
    2      -11.807957
    3      -11.561600
    4      -11.107146
    5      -11.097442
    6      -10.957575
    7      -10.853539
    8      -10.836746
    9      -10.782639
   10      -10.732183
   11      -10.534491
   12      -10.113949
   13       -9.706953
   14       -9.109372
   15       -8.784176
   16       -8.459840
   17       -7.970978
   18       -7.788910
   19       -7.630826
   20       -7.552654
   21       -7.307551
   22       -7.248430
   23       -7.117956
   24       -6.368795
   25       -5.232011
   26       -4.924197
   27       -4.758293
   28       -4.607421
   29       -4.402419
   30       -4.278594
   31       -4.093839
   32       -4.032009
   33       -3.990117
   34       -3.910380
   35       -3.834323
   36       -3.691346
   37       -3.564869
   38       -3.373517
   39       -3.099084
   40       -2.959368
   41       -2.845558
   42       -2.801931
   43       -2.708214
   44       -2.634578
   45       -2.408015
   46       -2.200746
   47       -2.162077
   48       -1.941708
   49       -1.763462
   50       -1.558268
   51       -1.456899
   52       -1.396899
   53       -1.011964
   54       -0.842086
   55       -0.233375
   56        0.510951
   57        1.279884
   58        1.364494
   59        1.499114
   60        1.626538
   61        1.666888
   62        1.744055
   63        1.880261
   64        2.078535
   65        2.278693
   66        2.342458
   67        2.491459
   68        2.577467
 
 -0.3846154E+00  0.2500000E+00  0.0000000E+00  0.1923077E-01
    1      -14.245492
    2      -12.129954
    3      -12.006579
    4      -11.512529
    5      -11.441532
    6      -11.268878
    7      -10.958895
    8      -10.896228
    9      -10.658338
   10      -10.561035
   11      -10.478290
   12      -10.219084
   13       -9.415045
   14       -8.949712
   15       -8.768996
   16       -8.517194
   17       -7.622907
   18       -7.467181
   19       -7.356802
   20       -7.200701
   21       -6.837271
   22       -6.812076
   23       -6.691183
   24       -6.217947
   25       -5.422660
   26       -5.107830
   27       -4.965186
   28       -4.846404
   29       -4.433027
   30       -4.350126
   31       -4.271976
   32       -4.139167
   33       -4.107591
   34       -3.821511
   35       -3.749611
   36       -3.437781
   37       -3.333182
   38       -3.223877
   39       -3.165996
   40       -3.023334
   41       -2.766139
   42       -2.719663
   43       -2.535683
   44       -2.459539
   45       -2.271830
   46       -2.157013
   47       -1.973849
   48       -1.867097
   49       -1.770734
   50       -1.534306
   51       -1.401759
   52       -1.305294
   53       -0.899226
   54       -0.828487
   55       -0.073098
   56        0.663153
   57        1.272958
   58        1.388705
   59        1.616919
   60        1.737823
   61        1.837436
   62        1.928170
   63        2.059474
   64        2.229962
   65        2.294642
   66        2.404412
   67        2.567491
   68        2.699874
 
 -0.3076923E+00  0.2500000E+00  0.0000000E+00  0.1923077E-01
    1      -14.582253
    2      -12.623493
    3      -12.368289
    4      -11.974668
    5      -11.828067
    6      -11.667696
    7      -11.269975
    8      -11.126776
    9      -10.801857
   10      -10.746293
   11      -10.448554
   12      -10.063140
   13       -9.279616
   14       -8.582187
   15       -8.506122
   16       -8.213702
   17       -7.321297
   18       -7.027793
   19       -6.897375
   20       -6.829469
   21       -6.380352
   22       -6.183626
   23       -6.000241
   24       -5.816645
   25       -5.572547
   26       -5.179959
   27       -4.984567
   28       -4.872345
   29       -4.669643
   30       -4.520338
   31       -4.335945
   32       -4.265769
   33       -3.903550
   34       -3.756355
   35       -3.492794
   36       -3.435151
   37       -3.191789
   38       -3.106787
   39       -2.984888
   40       -2.877036
   41       -2.795134
   42       -2.641001
   43       -2.528906
   44       -2.309666
   45       -2.049636
   46       -1.915876
   47       -1.894322
   48       -1.750079
   49       -1.694635
   50       -1.441073
   51       -1.247456
   52       -1.091097
   53       -0.773434
   54       -0.644719
   55        0.161914
   56        0.840299
   57        1.342652
   58        1.568661
   59        1.697463
   60        1.848478
   61        1.962704
   62        2.065500
   63        2.215187
   64        2.306616
   65        2.449221
   66        2.647807
   67        2.699762
   68        2.814034
 
 -0.2307692E+00  0.2500000E+00  0.0000000E+00  0.1923077E-01
    1      -14.901148
    2      -13.018691
    3      -12.721498
    4      -12.379106
    5      -12.169201
    6      -12.019452
    7      -11.566397
    8      -11.437876
    9      -11.058052
   10      -10.993307
   11      -10.626801
   12       -9.955518
   13       -9.196527
   14       -8.426267
   15       -7.937021
   16       -7.807711
   17       -7.147938
   18       -6.719496
   19       -6.665017
   20       -6.451812
   21       -6.146907
   22       -5.768373
   23       -5.568814
   24       -5.362559
   25       -5.238967
   26       -4.859219
   27       -4.641823
   28       -4.588186
   29       -4.519060
   30       -4.387405
   31       -4.199703
   32       -3.869152
   33       -3.803341
   34       -3.636573
   35       -3.479405
   36       -3.365465
   37       -3.118114
   38       -3.035635
   39       -3.006745
   40       -2.705006
   41       -2.647594
   42       -2.500483
   43       -2.452878
   44       -2.274692
   45       -1.927460
   46       -1.864819
   47       -1.777393
   48       -1.695935
   49       -1.491161
   50       -1.266319
   51       -1.081929
   52       -0.669042
   53       -0.508440
   54       -0.411499
   55        0.376886
   56        0.923475
   57        1.261537
   58        1.749050
   59        1.796634
   60        1.970024
   61        2.051687
   62        2.233606
   63        2.377252
   64        2.448028
   65        2.686546
   66        2.881577
   67        2.925507
   68        2.977927
 
 -0.1538462E+00  0.2500000E+00  0.0000000E+00  0.1923077E-01
    1      -15.150139
    2      -13.302469
    3      -12.997739
    4      -12.694275
    5      -12.421844
    6      -12.285559
    7      -11.786009
    8      -11.702424
    9      -11.290410
   10      -11.200122
   11      -10.829246
   12       -9.984199
   13       -9.193064
   14       -8.406317
   15       -7.571250
   16       -7.397408
   17       -7.117049
   18       -6.694174
   19       -6.581044
   20       -6.214521
   21       -6.033897
   22       -5.719378
   23       -5.356141
   24       -4.874484
   25       -4.760066
   26       -4.317355
   27       -4.189836
   28       -4.154569
   29       -4.000537
   30       -3.930930
   31       -3.738100
   32       -3.661239
   33       -3.410418
   34       -3.270738
   35       -3.161927
   36       -3.085460
   37       -2.947783
   38       -2.921856
   39       -2.805922
   40       -2.578838
   41       -2.519920
   42       -2.424460
   43       -2.335765
   44       -2.195490
   45       -1.958822
   46       -1.814991
   47       -1.667492
   48       -1.616002
   49       -1.310647
   50       -1.160652
   51       -1.001323
   52       -0.851724
   53       -0.230148
   54        0.015665
   55        0.525094
   56        0.933046
   57        1.311123
   58        1.706769
   59        1.775676
   60        2.178115
   61        2.257878
   62        2.403689
   63        2.459548
   64        2.677484
   65        2.758550
   66        2.915877
   67        3.004228
   68        3.116860
 
 -0.7692308E-01  0.2500000E+00  0.0000000E+00  0.1923077E-01
    1      -15.306017
    2      -13.468234
    3      -13.173075
    4      -12.904714
    5      -12.569145