 running on    8 total cores
 distrk:  each k-point on    8 cores,    1 groups
 distr:  one band on    2 cores,    4 groups
 using from now: INCAR     
 vasp.5.3.5 31Mar14 (build Oct 29 2014 16:16:03) complex                        
  
 POSCAR found type information on POSCAR  P  Si
 POSCAR found :  2 types and      24 ions
 scaLAPACK will be used

 ----------------------------------------------------------------------------- 
|                                                                             |
|  ADVICE TO THIS USER RUNNING 'VASP/VAMP'   (HEAR YOUR MASTER'S VOICE ...):  |
|                                                                             |
|      You have switched on vdW-DFT.                                          |
|      This routine was written and supplied by Jiri Klimes.                  |
|      We recommed that you carefully read and cite the following             |
|      publication                                                            |
|      J. Klimes, D.R. Bowler, A. Michelides                                  |
|        J. Phys.: Cond Matt. 22 022201 (2010)                                |
|      J. Klimes, D.R. Bowler, A. Michelides                                  |
|        Phys. Rev. B. 83, 195131 (2011)                                      |
|      and references therein.                                                |
|                                                                             |
 ----------------------------------------------------------------------------- 


 ----------------------------------------------------------------------------- 
|                                                                             |
|  ADVICE TO THIS USER RUNNING 'VASP/VAMP'   (HEAR YOUR MASTER'S VOICE ...):  |
|                                                                             |
|      You enforced a specific xc-type in the INCAR file,                     |
|      a different type was found on the POTCAR file                          |
|          I HOPE YOU KNOW, WHAT YOU ARE  DOING                               |
|                                                                             |
 ----------------------------------------------------------------------------- 

 LDA part: xc-table for Pade appr. of Perdew


 VERY BAD NEWS! internal error in subroutine IBZKPT:
 Reciprocal lattice and k-lattice belong to different class of lattices. Often results are still useful...      96


 VERY BAD NEWS! internal error in subroutine IBZKPT:
 Reciprocal lattice and k-lattice belong to different class of lattices. Often results are still useful...      96


 VERY BAD NEWS! internal error in subroutine IBZKPT:
 Reciprocal lattice and k-lattice belong to different class of lattices. Often results are still useful...      96


 VERY BAD NEWS! internal error in subroutine IBZKPT:
 Reciprocal lattice and k-lattice belong to different class of lattices. Often results are still useful...      96


 VERY BAD NEWS! internal error in subroutine IBZKPT:
 Reciprocal lattice and k-lattice belong to different class of lattices. Often results are still useful...      96


 VERY BAD NEWS! internal error in subroutine IBZKPT:
 Reciprocal lattice and k-lattice belong to different class of lattices. Often results are still useful...      96


 VERY BAD NEWS! internal error in subroutine IBZKPT:
 Reciprocal lattice and k-lattice belong to different class of lattices. Often results are still useful...      96


 VERY BAD NEWS! internal error in subroutine IBZKPT:
 Reciprocal lattice and k-lattice belong to different class of lattices. Often results are still useful...      96
 POSCAR, INCAR and KPOINTS ok, starting setup
 WARNING: small aliasing (wrap around) errors must be expected
 FFT: planning ...
 WAVECAR not read
 entering main loop
       N       E                     dE             d eps       ncg     rms          rms(c)
Total vdW correction in eV:     15.9831852
DAV:   1     0.515952542634E+03    0.51595E+03   -0.28792E+04  7376   0.790E+02
DAV:   2    -0.538465474703E+02   -0.56980E+03   -0.55420E+03  9736   0.191E+02
DAV:   3    -0.112913881875E+03   -0.59067E+02   -0.58135E+02  8924   0.636E+01
DAV:   4    -0.115745510161E+03   -0.28316E+01   -0.28099E+01 11480   0.149E+01
DAV:   5    -0.115797773107E+03   -0.52263E-01   -0.52180E-01  9824   0.200E+00    0.132E+01
Total vdW correction in eV:     16.3909636
DAV:   6    -0.109944512290E+03    0.58533E+01   -0.18033E+01  8860   0.123E+01    0.645E+00
Total vdW correction in eV:     16.8091592
DAV:   7    -0.110195291651E+03   -0.25078E+00   -0.13080E+01  8472   0.872E+00    0.299E+00
Total vdW correction in eV:     16.9495173
DAV:   8    -0.110103337710E+03    0.91954E-01   -0.16124E+00  8668   0.390E+00    0.181E+00
Total vdW correction in eV:     17.0705015
DAV:   9    -0.110130055937E+03   -0.26718E-01   -0.79226E-01  9056   0.213E+00    0.919E-01
Total vdW correction in eV:     17.1483645
DAV:  10    -0.110126249594E+03    0.38063E-02   -0.26105E-01  9168   0.124E+00    0.380E-01
Total vdW correction in eV:     17.1803023
DAV:  11    -0.110121569455E+03    0.46801E-02   -0.34742E-02  8824   0.603E-01    0.163E-01
Total vdW correction in eV:     17.1902446
DAV:  12    -0.110112109952E+03    0.94595E-02   -0.13018E-02  9016   0.335E-01    0.104E-01
Total vdW correction in eV:     17.1945495
DAV:  13    -0.110105075100E+03    0.70349E-02   -0.24961E-03  8880   0.158E-01    0.439E-02
Total vdW correction in eV:     17.1992715
DAV:  14    -0.110102511324E+03    0.25638E-02   -0.78125E-04  9016   0.821E-02    0.231E-02
Total vdW correction in eV:     17.2037800
DAV:  15    -0.110100966685E+03    0.15446E-02   -0.25614E-04  8872   0.475E-02    0.124E-02
Total vdW correction in eV:     17.2061368
DAV:  16    -0.110100158005E+03    0.80868E-03   -0.46635E-05  8808   0.204E-02    0.836E-03
Total vdW correction in eV:     17.2090064
DAV:  17    -0.110100459120E+03   -0.30111E-03   -0.95205E-05  8056   0.253E-02    0.592E-03
Total vdW correction in eV:     17.2098906
DAV:  18    -0.110100794749E+03   -0.33563E-03   -0.99022E-05  8472   0.219E-02    0.378E-03
Total vdW correction in eV:     17.2099128
DAV:  19    -0.110101030032E+03   -0.23528E-03   -0.72933E-05  8600   0.158E-02    0.189E-03
Total vdW correction in eV:     17.2098247
DAV:  20    -0.110101084998E+03   -0.54966E-04   -0.13105E-05  7264   0.876E-03    0.110E-03
Total vdW correction in eV:     17.2095887
DAV:  21    -0.110101117670E+03   -0.32671E-04   -0.24506E-05  6864   0.980E-03    0.792E-04
Total vdW correction in eV:     17.2094361
DAV:  22    -0.110101121729E+03   -0.40596E-05   -0.90314E-06  6368   0.792E-03    0.520E-04
Total vdW correction in eV:     17.2092978
DAV:  23    -0.110101015858E+03    0.10587E-03   -0.16462E-05  7216   0.816E-03    0.278E-04
Total vdW correction in eV:     17.2092791
DAV:  24    -0.110100991137E+03    0.24721E-04   -0.42819E-06  6104   0.689E-03    0.173E-04
Total vdW correction in eV:     17.2092854
DAV:  25    -0.110100963967E+03    0.27170E-04   -0.61995E-06  6676   0.766E-03    0.979E-05
Total vdW correction in eV:     17.2092876
DAV:  26    -0.110100964988E+03   -0.10214E-05   -0.22365E-06  6096   0.572E-03    0.431E-05
Total vdW correction in eV:     17.2092887
DAV:  27    -0.110100961085E+03    0.39030E-05   -0.46435E-06  6468   0.676E-03    0.334E-05
Total vdW correction in eV:     17.2092882
DAV:  28    -0.110100961985E+03   -0.89953E-06   -0.11176E-06  5168   0.431E-03
Total vdW correction in eV:     17.2092886
Total vdW correction in eV:     17.2092891
   1 F= -.11010096E+03 E0= -.11008659E+03  d E =-.287508E-01
