 vasp.5.3.5 31Mar14 (build Oct 29 2014 16:16:03) complex                        
  
 executed on          Linux-UFHPC date 2016.02.09  18:03:35
 running on    8 total cores
 distrk:  each k-point on    8 cores,    1 groups
 distr:  one band on NCORES_PER_BAND=   2 cores,    4 groups


--------------------------------------------------------------------------------------------------------


 INCAR:
 POTCAR:    PAW_PBE P 17Jan2003                   
 POTCAR:   PAW_PBE Si 05Jan2001                   

 ----------------------------------------------------------------------------- 
|                                                                             |
|  ADVICE TO THIS USER RUNNING 'VASP/VAMP'   (HEAR YOUR MASTER'S VOICE ...):  |
|                                                                             |
|      You have switched on vdW-DFT.                                          |
|      This routine was written and supplied by Jiri Klimes.                  |
|      We recommed that you carefully read and cite the following             |
|      publication                                                            |
|      J. Klimes, D.R. Bowler, A. Michelides                                  |
|        J. Phys.: Cond Matt. 22 022201 (2010)                                |
|      J. Klimes, D.R. Bowler, A. Michelides                                  |
|        Phys. Rev. B. 83, 195131 (2011)                                      |
|      and references therein.                                                |
|                                                                             |
 ----------------------------------------------------------------------------- 

 POTCAR:    PAW_PBE P 17Jan2003                   
   VRHFIN =P : s2p3                                                             
   LEXCH  = PE                                                                  
   EATOM  =   176.0430 eV,   12.9388 Ry                                         
                                                                                
   TITEL  = PAW_PBE P 17Jan2003                                                 
   LULTRA =        F    use ultrasoft PP ?                                      
   IUNSCR =        1    unscreen: 0-lin 1-nonlin 2-no                           
   RPACOR =    1.500    partial core radius                                     
   POMASS =   30.974; ZVAL   =    5.000    mass and valenz                      
   RCORE  =    1.900    outmost cutoff radius                                   
   RWIGS  =    2.330; RWIGS  =    1.233    wigner-seitz radius (au A)           
   ENMAX  =  270.000; ENMIN  =  191.280 eV                                      
   ICORE  =        2    local potential                                         
   LCOR   =        T    correct aug charges                                     
   LPAW   =        T    paw PP                                                  
   EAUG   =  342.924                                                            
   DEXC   =    -.002                                                            
   RMAX   =    2.887    core radius for proj-oper                               
   RAUG   =    1.300    factor for augmentation sphere                          
   RDEP   =    1.931    radius for radial grids                                 
   QCUT   =   -4.330; QGAM   =    8.659    optimization parameters              
                                                                                
   Description                                                                  
     l     E      TYP  RCUT    TYP  RCUT                                        
     0   .000     23  1.900                                                     
     0   .000     23  1.900                                                     
     1   .000     23  1.900                                                     
     1   .000     23  1.900                                                     
     2   .000     23  1.900                                                     
  local pseudopotential read in
  partial core-charges read in
  atomic valenz-charges read in
  non local Contribution for L=           0  read in
    real space projection operators read in
  non local Contribution for L=           0  read in
    real space projection operators read in
  non local Contribution for L=           1  read in
    real space projection operators read in
  non local Contribution for L=           1  read in
    real space projection operators read in
    PAW grid and wavefunctions read in
 
   number of l-projection  operators is LMAX  =           4
   number of lm-projection operators is LMMAX =           8
 
 POTCAR:   PAW_PBE Si 05Jan2001                   
   VRHFIN =Si: s2p2                                                             
   LEXCH  = PE                                                                  
   EATOM  =   103.0669 eV,    7.5752 Ry                                         
                                                                                
   TITEL  = PAW_PBE Si 05Jan2001                                                
   LULTRA =        F    use ultrasoft PP ?                                      
   IUNSCR =        1    unscreen: 0-lin 1-nonlin 2-no                           
   RPACOR =    1.500    partial core radius                                     
   POMASS =   28.085; ZVAL   =    4.000    mass and valenz                      
   RCORE  =    1.900    outmost cutoff radius                                   
   RWIGS  =    2.480; RWIGS  =    1.312    wigner-seitz radius (au A)           
   ENMAX  =  245.345; ENMIN  =  184.009 eV                                      
   ICORE  =        2    local potential                                         
   LCOR   =        T    correct aug charges                                     
   LPAW   =        T    paw PP                                                  
   EAUG   =  322.069                                                            
   DEXC   =    -.007                                                            
   RMAX   =    2.944    core radius for proj-oper                               
   RAUG   =    1.300    factor for augmentation sphere                          
   RDEP   =    1.993    radius for radial grids                                 
   QCUT   =   -4.246; QGAM   =    8.493    optimization parameters              
                                                                                
   Description                                                                  
     l     E      TYP  RCUT    TYP  RCUT                                        
     0   .000     23  1.900                                                     
     0   .000     23  1.900                                                     
     1   .000     23  1.900                                                     
     1   .000     23  1.900                                                     
     2   .000      7  1.900                                                     
  local pseudopotential read in
  partial core-charges read in
  atomic valenz-charges read in
  non local Contribution for L=           0  read in
    real space projection operators read in
  non local Contribution for L=           0  read in
    real space projection operators read in
  non local Contribution for L=           1  read in
    real space projection operators read in
  non local Contribution for L=           1  read in
    real space projection operators read in
    PAW grid and wavefunctions read in
 
   number of l-projection  operators is LMAX  =           4
   number of lm-projection operators is LMMAX =           8
 
 Optimization of the real space projectors (new method)

 maximal supplied QI-value         = 19.84
 optimisation between [QCUT,QGAM] = [  8.73, 17.66] = [ 21.34, 87.33] Ry 
 Optimized for a Real-space Cutoff    1.50 Angstroem

   l    n(q)    QCUT    max X(q) W(low)/X(q) W(high)/X(q)  e(spline) 
   0      8     8.731     6.651    0.16E-04    0.15E-04    0.77E-08
   0      8     8.731    90.285    0.16E-03    0.90E-04    0.16E-06
   1      7     8.731     4.328    0.47E-04    0.36E-04    0.45E-07
   1      7     8.731    54.583    0.13E-03    0.39E-03    0.20E-06
 Optimization of the real space projectors (new method)

 maximal supplied QI-value         = 19.84
 optimisation between [QCUT,QGAM] = [  8.73, 17.66] = [ 21.34, 87.33] Ry 
 Optimized for a Real-space Cutoff    1.46 Angstroem

   l    n(q)    QCUT    max X(q) W(low)/X(q) W(high)/X(q)  e(spline) 
   0      8     8.731     8.708    0.16E-04    0.11E-04    0.68E-08
   0      8     8.731   106.241    0.24E-03    0.77E-04    0.13E-06
   1      7     8.731     5.901    0.34E-04    0.38E-04    0.36E-07
   1      7     8.731    73.241    0.12E-03    0.39E-03    0.15E-06

 ----------------------------------------------------------------------------- 
|                                                                             |
|  ADVICE TO THIS USER RUNNING 'VASP/VAMP'   (HEAR YOUR MASTER'S VOICE ...):  |
|                                                                             |
|      You enforced a specific xc-type in the INCAR file,                     |
|      a different type was found on the POTCAR file                          |
|          I HOPE YOU KNOW, WHAT YOU ARE  DOING                               |
|                                                                             |
 ----------------------------------------------------------------------------- 

  PAW_PBE P 17Jan2003                   :
 energy of atom  1       EATOM= -176.0430
 kinetic energy error for atom=    0.0040 (will be added to EATOM!!)
 PAW_PBE Si 05Jan2001                   :
 energy of atom  2       EATOM= -103.0669
 kinetic energy error for atom=    0.0021 (will be added to EATOM!!)
 
 
 POSCAR: Si12                                    
  positions in direct lattice
  No initial velocities read in
 exchange correlation table for  LEXCH =       42
   RHO(1)=    0.500       N(1)  =     2000
   RHO(2)=  100.500       N(2)  =     4000
 


--------------------------------------------------------------------------------------------------------


 ion  position               nearest neighbor table
   1  0.114  0.228  0.233-  15 2.28  21 2.29  21 2.29
   2  0.514  0.628  0.515-  16 2.28  22 2.29  22 2.29
   3  0.458  0.916  0.209-  21 2.28  13 2.30  13 2.30
   4  0.858  0.316  0.491-  22 2.28  14 2.30  14 2.30
   5  0.311  0.622  0.084-  17 2.28  23 2.30  23 2.30
   6  0.311  0.622  0.366-  18 2.28
   7  0.999  0.998  0.086-  19 2.29  19 2.29  13 2.32
   8  0.999  0.998  0.368-  24 1.65  20 2.29  20 2.29
   9  0.655  0.310  0.060-  19 2.28  17 2.29  17 2.29
  10  0.655  0.310  0.342-  20 2.28  18 2.29  18 2.29  14 2.90
  11  0.770  0.539  0.207-  15 2.29  15 2.29  23 2.32
  12  0.170  0.939  0.489-  16 2.29  16 2.29  24 2.32
  13  0.940  0.879  0.158-   3 2.30   3 2.30   7 2.32  23 2.35
  14  0.340  0.279  0.440-  18 2.17   4 2.30   4 2.30  20 2.34  24 2.35  10 2.90
  15  0.205  0.410  0.186-   1 2.28  11 2.29  11 2.29  17 2.37
  16  0.605  0.810  0.468-   2 2.28  12 2.29  12 2.29
  17  0.202  0.404  0.100-   5 2.28   9 2.29   9 2.29  15 2.37
  18  0.202  0.404  0.382-  14 2.17   6 2.28  10 2.29  10 2.29  22 3.11
  19  0.564  0.128  0.108-   9 2.28   7 2.29   7 2.29  21 2.37
  20  0.564  0.128  0.390-  24 1.49  10 2.28   8 2.29   8 2.29  14 2.34  24 2.69
  21  0.567  0.134  0.194-   3 2.28   1 2.29   1 2.29  19 2.37
  22  0.967  0.534  0.476-   4 2.28   2 2.29   2 2.29  18 3.11
  23  0.829  0.658  0.136-   5 2.30   5 2.30  11 2.32  13 2.35
  24  0.229  0.058  0.418-  20 1.49   8 1.65  12 2.32  14 2.35  20 2.69
 
  LATTYP: Found a base centered orthorhombic cell.
 ALAT       =     3.5404000000
 B/A-ratio  =     5.8153587165
 C/A-ratio  =     7.7678875268
  
  Lattice vectors:
  
 A1 = (   1.7702000000,  10.2943480000,   0.0000000000)
 A2 = (   1.7702000000, -10.2943480000,   0.0000000000)
 A3 = (   0.0000000000,   0.0000000000, -27.5014290000)


Analysis of symmetry for initial positions (statically):
=====================================================================
 Subroutine PRICEL returns:
 Original cell was already a primitive cell.
 

 Routine SETGRP: Setting up the symmetry group for a 
 base centered orthorhombic supercell.


 Subroutine GETGRP returns: Found  1 space group operations
 (whereof  1 operations were pure point group operations)
 out of a pool of  8 trial point group operations.


The static configuration has the point symmetry C_1 .


Analysis of symmetry for dynamics (positions and initial velocities):
=====================================================================
 Subroutine PRICEL returns:
 Original cell was already a primitive cell.
 

 Routine SETGRP: Setting up the symmetry group for a 
 base centered orthorhombic supercell.


 Subroutine GETGRP returns: Found  1 space group operations
 (whereof  1 operations were pure point group operations)
 out of a pool of  8 trial point group operations.


The dynamic configuration has the point symmetry C_1 .
 
 
 KPOINTS: pymatgen generated KPOINTS with grid den

Automatic generation of k-mesh.
Space group operators:
 irot       det(A)        alpha          n_x          n_y          n_z        tau_x        tau_y        tau_z
    1     1.000000     0.000000     1.000000     0.000000     0.000000     0.000000     0.000000     0.000000
 
 Subroutine IBZKPT returns following result:
 ===========================================
 
 Found     54 irreducible k-points:
 
 Following reciprocal coordinates:
            Coordinates               Weight
  0.000000  0.000000  0.000000      1.000000
  0.076923 -0.000000  0.000000      2.000000
  0.153846 -0.000000  0.000000      2.000000
  0.230769 -0.000000  0.000000      2.000000
  0.307692 -0.000000  0.000000      2.000000
  0.384615 -0.000000  0.000000      2.000000
  0.461538 -0.000000  0.000000      2.000000
  0.000000  0.250000  0.000000      2.000000
  0.076923  0.250000  0.000000      2.000000
  0.153846  0.250000  0.000000      2.000000
  0.230769  0.250000  0.000000      2.000000
  0.307692  0.250000  0.000000      2.000000
  0.384615  0.250000  0.000000      2.000000
  0.461538  0.250000  0.000000      2.000000
 -0.461538  0.250000  0.000000      2.000000
 -0.384615  0.250000  0.000000      2.000000
 -0.307692  0.250000  0.000000      2.000000
 -0.230769  0.250000  0.000000      2.000000
 -0.153846  0.250000  0.000000      2.000000
 -0.076923  0.250000  0.000000      2.000000
  0.000000  0.500000  0.000000      1.000000
  0.076923  0.500000  0.000000      2.000000
  0.153846  0.500000  0.000000      2.000000
  0.230769  0.500000  0.000000      2.000000
  0.307692  0.500000  0.000000      2.000000
  0.384615  0.500000  0.000000      2.000000
  0.461538  0.500000  0.000000      2.000000
  0.000000  0.000000  0.500000      1.000000
  0.076923 -0.000000  0.500000      2.000000
  0.153846 -0.000000  0.500000      2.000000
  0.230769 -0.000000  0.500000      2.000000
  0.307692 -0.000000  0.500000      2.000000
  0.384615 -0.000000  0.500000      2.000000
  0.461538 -0.000000  0.500000      2.000000
  0.000000  0.250000  0.500000      2.000000
  0.076923  0.250000  0.500000      2.000000
  0.153846  0.250000  0.500000      2.000000
  0.230769  0.250000  0.500000      2.000000
  0.307692  0.250000  0.500000      2.000000
  0.384615  0.250000  0.500000      2.000000
  0.461538  0.250000  0.500000      2.000000
 -0.461538  0.250000  0.500000      2.000000
 -0.384615  0.250000  0.500000      2.000000
 -0.307692  0.250000  0.500000      2.000000
 -0.230769  0.250000  0.500000      2.000000
 -0.153846  0.250000  0.500000      2.000000
 -0.076923  0.250000  0.500000      2.000000
  0.000000  0.500000  0.500000      1.000000
  0.076923  0.500000  0.500000      2.000000
  0.153846  0.500000  0.500000      2.000000
  0.230769  0.500000  0.500000      2.000000
  0.307692  0.500000  0.500000      2.000000
  0.384615  0.500000  0.500000      2.000000
  0.461538  0.500000  0.500000      2.000000
 
 Following cartesian coordinates:
            Coordinates               Weight
  0.000000  0.000000  0.000000      1.000000
  0.021727  0.003736  0.000000      2.000000
  0.043454  0.007472  0.000000      2.000000
  0.065182  0.011209  0.000000      2.000000
  0.086909  0.014945  0.000000      2.000000
  0.108636  0.018681  0.000000      2.000000
  0.130363  0.022417  0.000000      2.000000
  0.000000  0.024285  0.000000      2.000000
  0.021727  0.028021  0.000000      2.000000
  0.043454  0.031758  0.000000      2.000000
  0.065182  0.035494  0.000000      2.000000
  0.086909  0.039230  0.000000      2.000000
  0.108636  0.042966  0.000000      2.000000
  0.130363  0.046702  0.000000      2.000000
 -0.130363  0.001868  0.000000      2.000000
 -0.108636  0.005604  0.000000      2.000000
 -0.086909  0.009340  0.000000      2.000000
 -0.065182  0.013077  0.000000      2.000000
 -0.043454  0.016813  0.000000      2.000000
 -0.021727  0.020549  0.000000      2.000000
  0.000000  0.048570  0.000000      1.000000
  0.021727  0.052307  0.000000      2.000000
  0.043454  0.056043  0.000000      2.000000
  0.065182  0.059779  0.000000      2.000000
  0.086909  0.063515  0.000000      2.000000
  0.108636  0.067251  0.000000      2.000000
  0.130363  0.070987  0.000000      2.000000
  0.000000  0.000000  0.018181      1.000000
  0.021727  0.003736  0.018181      2.000000
  0.043454  0.007472  0.018181      2.000000
  0.065182  0.011209  0.018181      2.000000
  0.086909  0.014945  0.018181      2.000000
  0.108636  0.018681  0.018181      2.000000
  0.130363  0.022417  0.018181      2.000000
  0.000000  0.024285  0.018181      2.000000
  0.021727  0.028021  0.018181      2.000000
  0.043454  0.031758  0.018181      2.000000
  0.065182  0.035494  0.018181      2.000000
  0.086909  0.039230  0.018181      2.000000
  0.108636  0.042966  0.018181      2.000000
  0.130363  0.046702  0.018181      2.000000
 -0.130363  0.001868  0.018181      2.000000
 -0.108636  0.005604  0.018181      2.000000
 -0.086909  0.009340  0.018181      2.000000
 -0.065182  0.013077  0.018181      2.000000
 -0.043454  0.016813  0.018181      2.000000
 -0.021727  0.020549  0.018181      2.000000
  0.000000  0.048570  0.018181      1.000000
  0.021727  0.052307  0.018181      2.000000
  0.043454  0.056043  0.018181      2.000000
  0.065182  0.059779  0.018181      2.000000
  0.086909  0.063515  0.018181      2.000000
  0.108636  0.067251  0.018181      2.000000
  0.130363  0.070987  0.018181      2.000000
 


--------------------------------------------------------------------------------------------------------




 Dimension of arrays:
   k-points           NKPTS =     54   k-points in BZ     NKDIM =     54   number of bands    NBANDS=     68
   number of dos      NEDOS =    301   number of ions     NIONS =     24
   non local maximal  LDIM  =      4   non local SUM 2l+1 LMDIM =      8
   total plane-waves  NPLWV = 192000
   max r-space proj   IRMAX =   2772   max aug-charges    IRDMAX=   6603
   dimension x,y,z NGX =    20 NGY =   60 NGZ =  160
   dimension x,y,z NGXF=    40 NGYF=  120 NGZF=  320
   support grid    NGXF=    40 NGYF=  120 NGZF=  320
   ions per type =              12  12
 NGX,Y,Z   is equivalent  to a cutoff of   9.39,  9.55,  9.67 a.u.
 NGXF,Y,Z  is equivalent  to a cutoff of  18.78, 19.10, 19.34 a.u.


 I would recommend the setting:
   dimension x,y,z NGX =    20 NGY =   59 NGZ =  155
 SYSTEM =  unknown system                          
 POSCAR =  Si12                                    

 Startparameter for this run:
   NWRITE =      2    write-flag & timer
   PREC   = accura    normal or accurate (medium, high low for compatibility)
   ISTART =      0    job   : 0-new  1-cont  2-samecut
   ICHARG =      2    charge: 1-file 2-atom 10-const
   ISPIN  =      1    spin polarized calculation?
   LNONCOLLINEAR =      F non collinear calculations
   LSORBIT =      F    spin-orbit coupling
   INIWAV =      1    electr: 0-lowe 1-rand  2-diag
   LASPH  =      F    aspherical Exc in radial PAW
   METAGGA=      F    non-selfconsistent MetaGGA calc.

 Electronic Relaxation 1
   ENCUT  =  300.0 eV  22.05 Ry    4.70 a.u.   5.00 14.75 38.84*2*pi/ulx,y,z
   ENINI  =  300.0     initial cutoff
   ENAUG  =  342.9 eV  augmentation charge cutoff
   NELM   =     60;   NELMIN=  2; NELMDL= -5     # of ELM steps 
   EDIFF  = 0.1E-05   stopping-criterion for ELM
   LREAL  =      T    real-space projection
   NLSPLINE    = F    spline interpolate recip. space projectors
   LCOMPAT=      F    compatible to vasp.4.4
   GGA_COMPAT  = T    GGA compatible to vasp.4.4-vasp.4.6
   LMAXPAW     = -100 max onsite density
   LMAXMIX     =    2 max onsite mixed and CHGCAR
   VOSKOWN=      0    Vosko Wilk Nusair interpolation
   ROPT   =   -0.00025  -0.00025
 Ionic relaxation
   EDIFFG = 0.1E-04   stopping-criterion for IOM
   NSW    =      0    number of steps for IOM
   NBLOCK =      1;   KBLOCK =      1    inner block; outer block 
   IBRION =     -1    ionic relax: 0-MD 1-quasi-New 2-CG
   NFREE  =      1    steps in history (QN), initial steepest desc. (CG)
   ISIF   =      3    stress and relaxation
   IWAVPR =     10    prediction:  0-non 1-charg 2-wave 3-comb
   ISYM   =      2    0-nonsym 1-usesym 2-fastsym
   LCORR  =      T    Harris-Foulkes like correction to forces

   POTIM  = 0.5000    time-step for ionic-motion
   TEIN   =    0.0    initial temperature
   TEBEG  =    0.0;   TEEND  =   0.0 temperature during run
   SMASS  =  -3.00    Nose mass-parameter (am)
   estimated Nose-frequenzy (Omega)   =  0.10E-29 period in steps =****** mass=  -0.286E-27a.u.
   SCALEE = 1.0000    scale energy and forces
   NPACO  =    256;   APACO  = 16.0  distance and # of slots for P.C.
   PSTRESS=    0.0 pullay stress

  Mass of Ions in am
   POMASS =  30.97 28.09
  Ionic Valenz
   ZVAL   =   5.00  4.00
  Atomic Wigner-Seitz radii
   RWIGS  =  -1.00 -1.00
  virtual crystal weights 
   VCA    =   1.00  1.00
   NELECT =     108.0000    total number of electrons
   NUPDOWN=      -1.0000    fix difference up-down

 DOS related values:
   EMIN   =  10.00;   EMAX   =-10.00  energy-range for DOS
   EFERMI =   0.00
   ISMEAR =     0;   SIGMA  =   0.10  broadening in eV -4-tet -1-fermi 0-gaus

 Electronic relaxation 2 (details)
   IALGO  =     38    algorithm
   LDIAG  =      T    sub-space diagonalisation (order eigenvalues)
   LSUBROT=      F    optimize rotation matrix (better conditioning)
   TURBO    =      0    0=normal 1=particle mesh
   IRESTART =      0    0=no restart 2=restart with 2 vectors
   NREBOOT  =      0    no. of reboots
   NMIN     =      0    reboot dimension
   EREF     =   0.00    reference energy to select bands
   IMIX   =      4    mixing-type and parameters
     AMIX     =   0.40;   BMIX     =  1.00
     AMIX_MAG =   1.60;   BMIX_MAG =  1.00
     AMIN     =   0.10
     WC   =   100.;   INIMIX=   1;  MIXPRE=   1;  MAXMIX= -45

 Intra band minimization:
   WEIMIN = 0.0000     energy-eigenvalue tresh-hold
   EBREAK =  0.37E-08  absolut break condition
   DEPER  =   0.30     relativ break condition  

   TIME   =   0.40     timestep for ELM

  volume/ion in A,a.u.               =      41.76       281.83
  Fermi-wavevector in a.u.,A,eV,Ry     =   0.779018  1.472130  8.256946  0.606868
  Thomas-Fermi vector in A             =   1.882034
 
 Write flags
   LWAVE  =      F    write WAVECAR
   LCHARG =      F    write CHGCAR
   LVTOT  =      F    write LOCPOT, total local potential
   LVHAR  =      F    write LOCPOT, Hartree potential only
   LELF   =      F    write electronic localiz. function (ELF)
   LORBIT =      0    0 simple, 1 ext, 2 COOP (PROOUT)


 Dipole corrections
   LMONO  =      F    monopole corrections only (constant potential shift)
   LDIPOL =      F    correct potential (dipole corrections)
   IDIPOL =      0    1-x, 2-y, 3-z, 4-all directions 
   EPSILON=  1.0000000 bulk dielectric constant

 Exchange correlation treatment:
   GGA     =    BO    GGA type
   LEXCH   =    42    internal setting for exchange type
   VOSKOWN=      0    Vosko Wilk Nusair interpolation
   LHFCALC =     F    Hartree Fock is set to
   LHFONE  =     F    Hartree Fock one center treatment
   AEXX    =    0.0000 exact exchange contribution

 vdW DFT:
   LUSE_VDW   =     T    switch on vdW DFT
   Zab_VDW    =-.8491    correlation parameter
   PARAM1     =0.1833
   PARAM2     =0.2200
   PARAM3     =0.0000

 Linear response parameters
   LEPSILON=     F    determine dielectric tensor
   LRPA    =     F    only Hartree local field effects (RPA)
   LNABLA  =     F    use nabla operator in PAW spheres
   LVEL    =     F    velocity operator in full k-point grid
   LINTERFAST=   F  fast interpolation
   KINTER  =     0    interpolate to denser k-point grid
   CSHIFT  =0.1000    complex shift for real part using Kramers Kronig
   OMEGAMAX=  -1.0    maximum frequency
   DEG_THRESHOLD= 0.2000000E-02 threshold for treating states as degnerate
   RTIME   =    0.100 relaxation time in fs

 Orbital magnetization related:
   ORBITALMAG=     F  switch on orbital magnetization
   LCHIMAG   =     F  perturbation theory with respect to B field
   DQ        =  0.001000  dq finite difference perturbation B field



--------------------------------------------------------------------------------------------------------


 Static calculation
 charge density and potential will be updated during run
 non-spin polarized calculation
 Variant of blocked Davidson
 Davidson routine will perform the subspace rotation
 perform sub-space diagonalisation
    after iterative eigenvector-optimisation
 modified Broyden-mixing scheme, WC =      100.0
 initial mixing is a Kerker type mixing with AMIX =  0.4000 and BMIX =      1.0000
 Hartree-type preconditioning will be used
 using additional bands           14
 real space projection scheme for non local part
 use partial core corrections
 calculate Harris-corrections to forces 
   (improved forces if not selfconsistent)
 use gradient corrections 
 use of overlap-Matrix (Vanderbilt PP)
 Gauss-broadening in eV      SIGMA  =   0.10


--------------------------------------------------------------------------------------------------------


  energy-cutoff  :      300.00
  volume of cell :     1002.32
      direct lattice vectors                 reciprocal lattice vectors
     3.540400000  0.000000000  0.000000000     0.282453960  0.048570342  0.000000000
    -1.770200000 10.294348000  0.000000000     0.000000000  0.097140683  0.000000000
     0.000000000  0.000000000 27.501429000     0.000000000  0.000000000  0.036361747

  length of vectors
     3.540400000 10.445439617 27.501429000     0.286599577  0.097140683  0.036361747


 
 k-points in units of 2pi/SCALE and weight: pymatgen generated KPOINTS with grid den
   0.00000000  0.00000000  0.00000000       0.010
   0.02172723  0.00373618  0.00000000       0.019
   0.04345446  0.00747236  0.00000000       0.019
   0.06518168  0.01120854  0.00000000       0.019
   0.08690891  0.01494472  0.00000000       0.019
   0.10863614  0.01868090  0.00000000       0.019
   0.13036337  0.02241708  0.00000000       0.019
   0.00000000  0.02428517  0.00000000       0.019
   0.02172723  0.02802135  0.00000000       0.019
   0.04345446  0.03175753  0.00000000       0.019
   0.06518168  0.03549371  0.00000000       0.019
   0.08690891  0.03922989  0.00000000       0.019
   0.10863614  0.04296607  0.00000000       0.019
   0.13036337  0.04670225  0.00000000       0.019
  -0.13036337  0.00186809  0.00000000       0.019
  -0.10863614  0.00560427  0.00000000       0.019
  -0.08690891  0.00934045  0.00000000       0.019
  -0.06518168  0.01307663  0.00000000       0.019
  -0.04345446  0.01681281  0.00000000       0.019
  -0.02172723  0.02054899  0.00000000       0.019
   0.00000000  0.04857034  0.00000000       0.010
   0.02172723  0.05230652  0.00000000       0.019
   0.04345446  0.05604270  0.00000000       0.019
   0.06518168  0.05977888  0.00000000       0.019
   0.08690891  0.06351506  0.00000000       0.019
   0.10863614  0.06725124  0.00000000       0.019
   0.13036337  0.07098742  0.00000000       0.019
   0.00000000  0.00000000  0.01818087       0.010
   0.02172723  0.00373618  0.01818087       0.019
   0.04345446  0.00747236  0.01818087       0.019
   0.06518168  0.01120854  0.01818087       0.019
   0.08690891  0.01494472  0.01818087       0.019
   0.10863614  0.01868090  0.01818087       0.019
   0.13036337  0.02241708  0.01818087       0.019
   0.00000000  0.02428517  0.01818087       0.019
   0.02172723  0.02802135  0.01818087       0.019
   0.04345446  0.03175753  0.01818087       0.019
   0.06518168  0.03549371  0.01818087       0.019
   0.08690891  0.03922989  0.01818087       0.019
   0.10863614  0.04296607  0.01818087       0.019
   0.13036337  0.04670225  0.01818087       0.019
  -0.13036337  0.00186809  0.01818087       0.019
  -0.10863614  0.00560427  0.01818087       0.019
  -0.08690891  0.00934045  0.01818087       0.019
  -0.06518168  0.01307663  0.01818087       0.019
  -0.04345446  0.01681281  0.01818087       0.019
  -0.02172723  0.02054899  0.01818087       0.019
   0.00000000  0.04857034  0.01818087       0.010
   0.02172723  0.05230652  0.01818087       0.019
   0.04345446  0.05604270  0.01818087       0.019
   0.06518168  0.05977888  0.01818087       0.019
   0.08690891  0.06351506  0.01818087       0.019
   0.10863614  0.06725124  0.01818087       0.019
   0.13036337  0.07098742  0.01818087       0.019
 
 k-points in reciprocal lattice and weights: pymatgen generated KPOINTS with grid den
   0.00000000  0.00000000  0.00000000       0.010
   0.07692308 -0.00000000  0.00000000       0.019
   0.15384615 -0.00000000  0.00000000       0.019
   0.23076923 -0.00000000  0.00000000       0.019
   0.30769231 -0.00000000  0.00000000       0.019
   0.38461538 -0.00000000  0.00000000       0.019
   0.46153846 -0.00000000  0.00000000       0.019
   0.00000000  0.25000000  0.00000000       0.019
   0.07692308  0.25000000  0.00000000       0.019
   0.15384615  0.25000000  0.00000000       0.019
   0.23076923  0.25000000  0.00000000       0.019
   0.30769231  0.25000000  0.00000000       0.019
   0.38461538  0.25000000  0.00000000       0.019
   0.46153846  0.25000000  0.00000000       0.019
  -0.46153846  0.25000000  0.00000000       0.019
  -0.38461538  0.25000000  0.00000000       0.019
  -0.30769231  0.25000000  0.00000000       0.019
  -0.23076923  0.25000000  0.00000000       0.019
  -0.15384615  0.25000000  0.00000000       0.019
  -0.07692308  0.25000000  0.00000000       0.019
   0.00000000  0.50000000  0.00000000       0.010
   0.07692308  0.50000000  0.00000000       0.019
   0.15384615  0.50000000  0.00000000       0.019
   0.23076923  0.50000000  0.00000000       0.019
   0.30769231  0.50000000  0.00000000       0.019
   0.38461538  0.50000000  0.00000000       0.019
   0.46153846  0.50000000  0.00000000       0.019
   0.00000000  0.00000000  0.50000000       0.010
   0.07692308 -0.00000000  0.50000000       0.019
   0.15384615 -0.00000000  0.50000000       0.019
   0.23076923 -0.00000000  0.50000000       0.019
   0.30769231 -0.00000000  0.50000000       0.019
   0.38461538 -0.00000000  0.50000000       0.019
   0.46153846 -0.00000000  0.50000000       0.019
   0.00000000  0.25000000  0.50000000       0.019
   0.07692308  0.25000000  0.50000000       0.019
   0.15384615  0.25000000  0.50000000       0.019
   0.23076923  0.25000000  0.50000000       0.019
   0.30769231  0.25000000  0.50000000       0.019
   0.38461538  0.25000000  0.50000000       0.019
   0.46153846  0.25000000  0.50000000       0.019
  -0.46153846  0.25000000  0.50000000       0.019
  -0.38461538  0.25000000  0.50000000       0.019
  -0.30769231  0.25000000  0.50000000       0.019
  -0.23076923  0.25000000  0.50000000       0.019
  -0.15384615  0.25000000  0.50000000       0.019
  -0.07692308  0.25000000  0.50000000       0.019
   0.00000000  0.50000000  0.50000000       0.010
   0.07692308  0.50000000  0.50000000       0.019
   0.15384615  0.50000000  0.50000000       0.019
   0.23076923  0.50000000  0.50000000       0.019
   0.30769231  0.50000000  0.50000000       0.019
   0.38461538  0.50000000  0.50000000       0.019
   0.46153846  0.50000000  0.50000000       0.019
 
 position of ions in fractional coordinates (direct lattice) 
   0.11402300  0.22804500  0.23316207
   0.51402300  0.62804500  0.51499159
   0.45808900  0.91617900  0.20939482
   0.85808900  0.31617900  0.49122434
   0.31085400  0.62170900  0.08414979
   0.31085400  0.62170900  0.36597930
   0.99923000  0.99846000  0.08631254
   0.99923000  0.99846000  0.36814206
   0.65492700  0.30985400  0.06041748
   0.65492700  0.30985400  0.34224700
   0.76973800  0.53947500  0.20725292
   0.16973800  0.93947500  0.48908244
   0.93971600  0.87943300  0.15783749
   0.33971600  0.27943300  0.43966701
   0.20515200  0.41030300  0.18578822
   0.60515200  0.81030300  0.46761774
   0.20184900  0.40369900  0.09969156
   0.20184900  0.40369900  0.38152107
   0.56380500  0.12761000  0.10779021
   0.56380500  0.12761000  0.38961973
   0.56710600  0.13421200  0.19387616
   0.96710600  0.53421200  0.47570568
   0.82923400  0.65846800  0.13571444
   0.22923400  0.05846800  0.41754396
 
 position of ions in cartesian coordinates  (Angst):
   0.00000177  2.34757459  6.41229012
   0.70808177  6.46531379 14.16300462
  -0.00000177  9.43146546  5.75865686
   2.47827823  3.25485666 13.50937136
  -0.00000177  6.40008880  2.31423934
  -0.00000177  6.40008880 10.06495384
   1.77020000 10.27849470  2.37371832
   1.77020000 10.27849470 10.12443282
   1.77020000  3.18974491  1.66156717
   1.77020000  3.18974491  9.41228167
   1.77020177  5.55354339  5.69975143
  -1.06211823  9.67128259 13.45046593
   1.77019823  9.05318934  4.34075665
   0.70807823  2.87658054 12.09147115
   0.00000177  4.22380187  5.10944151
   0.70808177  8.34154107 12.86015601
  -0.00000177  4.15581799  2.74166024
  -0.00000177  4.15581799 10.49237474
   1.77020000  1.31366175  2.96438477
   1.77020000  1.31366175 10.71509927
   1.77020000  1.38162503  5.33187152
   2.47828000  5.49936423 13.08258602
   1.77020000  6.77849874  3.73234107
   0.70808000  0.60188994 11.48305557
 


--------------------------------------------------------------------------------------------------------


 k-point  1 :   0.0000 0.0000 0.0000  plane waves:   11717
 k-point  2 :   0.0769-0.0000 0.0000  plane waves:   11762
 k-point  3 :   0.1538-0.0000 0.0000  plane waves:   11805
 k-point  4 :   0.2308-0.0000 0.0000  plane waves:   11824
 k-point  5 :   0.3077-0.0000 0.0000  plane waves:   11875
 k-point  6 :   0.3846-0.0000 0.0000  plane waves:   11864
 k-point  7 :   0.4615-0.0000 0.0000  plane waves:   11883
 k-point  8 :   0.0000 0.2500 0.0000  plane waves:   11683
 k-point  9 :   0.0769 0.2500 0.0000  plane waves:   11756
 k-point 10 :   0.1538 0.2500 0.0000  plane waves:   11807
 k-point 11 :   0.2308 0.2500 0.0000  plane waves:   11853
 k-point 12 :   0.3077 0.2500 0.0000  plane waves:   11866
 k-point 13 :   0.3846 0.2500 0.0000  plane waves:   11889
 k-point 14 :   0.4615 0.2500 0.0000  plane waves:   11885
 k-point 15 :  -0.4615 0.2500 0.0000  plane waves:   11886
 k-point 16 :  -0.3846 0.2500 0.0000  plane waves:   11867
 k-point 17 :  -0.3077 0.2500 0.0000  plane waves:   11849
 k-point 18 :  -0.2308 0.2500 0.0000  plane waves:   11827
 k-point 19 :  -0.1538 0.2500 0.0000  plane waves:   11801
 k-point 20 :  -0.0769 0.2500 0.0000  plane waves:   11757
 k-point 21 :   0.0000 0.5000 0.0000  plane waves:   11710
 k-point 22 :   0.0769 0.5000 0.0000  plane waves:   11762
 k-point 23 :   0.1538 0.5000 0.0000  plane waves:   11782
 k-point 24 :   0.2308 0.5000 0.0000  plane waves:   11841
 k-point 25 :   0.3077 0.5000 0.0000  plane waves:   11876
 k-point 26 :   0.3846 0.5000 0.0000  plane waves:   11889
 k-point 27 :   0.4615 0.5000 0.0000  plane waves:   11881
 k-point 28 :   0.0000 0.0000 0.5000  plane waves:   11698
 k-point 29 :   0.0769-0.0000 0.5000  plane waves:   11752
 k-point 30 :   0.1538-0.0000 0.5000  plane waves:   11800
 k-point 31 :   0.2308-0.0000 0.5000  plane waves:   11834
 k-point 32 :   0.3077-0.0000 0.5000  plane waves:   11850
 k-point 33 :   0.3846-0.0000 0.5000  plane waves:   11888
 k-point 34 :   0.4615-0.0000 0.5000  plane waves:   11896
 k-point 35 :   0.0000 0.2500 0.5000  plane waves:   11714
 k-point 36 :   0.0769 0.2500 0.5000  plane waves:   11754
 k-point 37 :   0.1538 0.2500 0.5000  plane waves:   11802
 k-point 38 :   0.2308 0.2500 0.5000  plane waves:   11840
 k-point 39 :   0.3077 0.2500 0.5000  plane waves:   11858
 k-point 40 :   0.3846 0.2500 0.5000  plane waves:   11896
 k-point 41 :   0.4615 0.2500 0.5000  plane waves:   11886
 k-point 42 :  -0.4615 0.2500 0.5000  plane waves:   11852
 k-point 43 :  -0.3846 0.2500 0.5000  plane waves:   11838
 k-point 44 :  -0.3077 0.2500 0.5000  plane waves:   11842
 k-point 45 :  -0.2308 0.2500 0.5000  plane waves:   11840
 k-point 46 :  -0.1538 0.2500 0.5000  plane waves:   11804
 k-point 47 :  -0.0769 0.2500 0.5000  plane waves:   11748
 k-point 48 :   0.0000 0.5000 0.5000  plane waves:   11724
 k-point 49 :   0.0769 0.5000 0.5000  plane waves:   11748
 k-point 50 :   0.1538 0.5000 0.5000  plane waves:   11814
 k-point 51 :   0.2308 0.5000 0.5000  plane waves:   11832
 k-point 52 :   0.3077 0.5000 0.5000  plane waves:   11868
 k-point 53 :   0.3846 0.5000 0.5000  plane waves:   11892
 k-point 54 :   0.4615 0.5000 0.5000  plane waves:   11878

 maximum and minimum number of plane-waves per node :      5964     5832

 maximum number of plane-waves:     11896
 maximum index in each direction: 
   IXMAX=    5   IYMAX=   14   IZMAX=   38
   IXMIN=   -5   IYMIN=  -15   IZMIN=  -39

 WARNING: aliasing errors must be expected set NGX to  22 to avoid them
 NGY is ok and might be reduce to  60
 NGZ is ok and might be reduce to 156
 aliasing errors are usually negligible using standard VASP settings
 and one can safely disregard these warnings

 real space projection operators:
  total allocation   :       3793.25 KBytes
  max/ min on nodes  :       1899.38       1893.88


 parallel 3D FFT for wavefunctions:
    minimum data exchange during FFTs selected (reduces bandwidth)
 parallel 3D FFT for charge:
    minimum data exchange during FFTs selected (reduces bandwidth)


 total amount of memory used by VASP on root node   146493. kBytes
========================================================================

   base      :      30000. kBytes
   nonlr-proj:       3452. kBytes
   fftplans  :       9347. kBytes
   grid      :      14649. kBytes
   one-center:         36. kBytes
   wavefun   :      89009. kBytes
 
     INWAV:  cpu time    0.00: real time    0.00
 Broyden mixing: mesh for mixing (old mesh)
   NGX =  9   NGY = 29   NGZ = 77
  (NGX  = 40   NGY  =120   NGZ  =320)
  gives a total of  20097 points

 initial charge density was supplied:
 charge density of overlapping atoms calculated
 number of electron     108.0000000 magnetization 
 keeping initial charge density in first step


--------------------------------------------------------------------------------------------------------


 Maximum index for non-local projection operator         1333
 Maximum index for augmentation-charges          822 (set IRDMAX)


--------------------------------------------------------------------------------------------------------


 First call to EWALD:  gamma=   0.177
 Maximum number of real-space cells 7x 3x 1
 Maximum number of reciprocal cells 1x 3x 7

 FEWALD executed in parallel
    FEWALD:  cpu time    0.00: real time    0.01


----------------------------------------- Iteration    1(   1)  ---------------------------------------


vdW kernel read from vdw_kernel.bindat
  0.0000  0.2424  0.5071  0.7962  1.1119  1.4567  1.8333  2.2446  2.6937  3.1842
  3.7199  4.3049  4.9438  5.6415  6.4036  7.2358  8.1446  9.1372 10.2212 11.4050
 12.6979 14.1099 15.6519 17.3360 19.1751 21.1837 23.3773 25.7729 28.3892 31.2465
 34.3669 37.7748 41.4965 45.5611 50.0000
 
    POTLOK:  cpu time   13.32: real time   13.37
    SETDIJ:  cpu time    0.01: real time    0.01
     EDDAV:  cpu time   56.09: real time   56.14
       DOS:  cpu time    0.01: real time    0.01
    --------------------------------------------
      LOOP:  cpu time   69.44: real time   69.54

 eigenvalue-minimisations  :  7376
 total energy-change (2. order) : 0.5159525E+03  (-0.2879194E+04)
 number of electron     108.0000000 magnetization 
 augmentation part      108.0000000 magnetization 

 Free energy of the ion-electron system (eV)
  ---------------------------------------------------
  alpha Z        PSCENC =        36.80884744
  Ewald energy   TEWEN  =     12036.16786099
  -Hartree energ DENC   =    -15047.70679839
  -exchange      EXHF   =         0.00000000
  -V(xc)+E(xc)   XCENC  =       -86.91541141
  PAW double counting   =      1056.43050070     -732.41190547
  entropy T*S    EENTRO =        -0.04217045
  eigenvalues    EBANDS =      -100.41964122
  atomic energy  EATOM  =      3354.04126044
  ---------------------------------------------------
  free energy    TOTEN  =       515.95254263 eV

  energy without entropy =      515.99471309  energy(sigma->0) =      515.97362786


--------------------------------------------------------------------------------------------------------




----------------------------------------- Iteration    1(   2)  ---------------------------------------


     EDDAV:  cpu time   69.63: real time   69.67
       DOS:  cpu time    0.01: real time    0.01
    --------------------------------------------
      LOOP:  cpu time   69.65: real time   69.69

 eigenvalue-minimisations  :  9736
 total energy-change (2. order) :-0.5697991E+03  (-0.5542006E+03)
 number of electron     108.0000000 magnetization 
 augmentation part      108.0000000 magnetization 

 Free energy of the ion-electron system (eV)
  ---------------------------------------------------
  alpha Z        PSCENC =        36.80884744
  Ewald energy   TEWEN  =     12036.16786099
  -Hartree energ DENC   =    -15047.70679839
  -exchange      EXHF   =         0.00000000
  -V(xc)+E(xc)   XCENC  =       -86.91541141
  PAW double counting   =      1056.43050070     -732.41190547
  entropy T*S    EENTRO =        -0.01862110
  eigenvalues    EBANDS =      -670.24228068
  atomic energy  EATOM  =      3354.04126044
  ---------------------------------------------------
  free energy    TOTEN  =       -53.84654747 eV

  energy without entropy =      -53.82792637  energy(sigma->0) =      -53.83723692


--------------------------------------------------------------------------------------------------------




----------------------------------------- Iteration    1(   3)  ---------------------------------------


     EDDAV:  cpu time   64.64: real time   64.68
       DOS:  cpu time    0.01: real time    0.01
    --------------------------------------------
      LOOP:  cpu time   64.66: real time   64.69

 eigenvalue-minimisations  :  8924
 total energy-change (2. order) :-0.5906733E+02  (-0.5813468E+02)
 number of electron     108.0000000 magnetization 
 augmentation part      108.0000000 magnetization 

 Free energy of the ion-electron system (eV)
  ---------------------------------------------------
  alpha Z        PSCENC =        36.80884744
  Ewald energy   TEWEN  =     12036.16786099
  -Hartree energ DENC   =    -15047.70679839
  -exchange      EXHF   =         0.00000000
  -V(xc)+E(xc)   XCENC  =       -86.91541141
  PAW double counting   =      1056.43050070     -732.41190547
  entropy T*S    EENTRO =        -0.02436382
  eigenvalues    EBANDS =      -729.30387237
  atomic energy  EATOM  =      3354.04126044
  ---------------------------------------------------
  free energy    TOTEN  =      -112.91388187 eV

  energy without entropy =     -112.88951806  energy(sigma->0) =     -112.90169997


--------------------------------------------------------------------------------------------------------




----------------------------------------- Iteration    1(   4)  ---------------------------------------


     EDDAV:  cpu time   78.73: real time   78.78
       DOS:  cpu time    0.01: real time    0.01
    --------------------------------------------
      LOOP:  cpu time   78.74: real time   78.79

 eigenvalue-minimisations  : 11480
 total energy-change (2. order) :-0.2831628E+01  (-0.2809878E+01)
 number of electron     108.0000000 magnetization 
 augmentation part      108.0000000 magnetization 

 Free energy of the ion-electron system (eV)
  ---------------------------------------------------
  alpha Z        PSCENC =        36.80884744
  Ewald energy   TEWEN  =     12036.16786099
  -Hartree energ DENC   =    -15047.70679839
  -exchange      EXHF   =         0.00000000
  -V(xc)+E(xc)   XCENC  =       -86.91541141
  PAW double counting   =      1056.43050070     -732.41190547
  entropy T*S    EENTRO =        -0.02579948
  eigenvalues    EBANDS =      -732.13406499
  atomic energy  EATOM  =      3354.04126044
  ---------------------------------------------------
  free energy    TOTEN  =      -115.74551016 eV

  energy without entropy =     -115.71971068  energy(sigma->0) =     -115.73261042


--------------------------------------------------------------------------------------------------------




----------------------------------------- Iteration    1(   5)  ---------------------------------------


     EDDAV:  cpu time   69.34: real time   69.39
       DOS:  cpu time    0.01: real time    0.01
    CHARGE:  cpu time    3.60: real time    3.60
    MIXING:  cpu time    0.01: real time    0.01
    --------------------------------------------
      LOOP:  cpu time   72.96: real time   73.04

 eigenvalue-minimisations  :  9824
 total energy-change (2. order) :-0.5226295E-01  (-0.5218010E-01)
 number of electron     107.9999996 magnetization 
 augmentation part       -9.7428526 magnetization 

 Broyden mixing:
  rms(total) = 0.13228E+01    rms(broyden)= 0.13225E+01
  rms(prec ) = 0.14422E+01
  weight for this iteration     100.00

 Free energy of the ion-electron system (eV)
  ---------------------------------------------------
  alpha Z        PSCENC =        36.80884744
  Ewald energy   TEWEN  =     12036.16786099
  -Hartree energ DENC   =    -15047.70679839
  -exchange      EXHF   =         0.00000000
  -V(xc)+E(xc)   XCENC  =       -86.91541141
  PAW double counting   =      1056.43050070     -732.41190547
  entropy T*S    EENTRO =        -0.02574258
  eigenvalues    EBANDS =      -732.18638483
  atomic energy  EATOM  =      3354.04126044
  ---------------------------------------------------
  free energy    TOTEN  =      -115.79777311 eV

  energy without entropy =     -115.77203052  energy(sigma->0) =     -115.78490181


--------------------------------------------------------------------------------------------------------




----------------------------------------- Iteration    1(   6)  ---------------------------------------


    POTLOK:  cpu time   11.76: real time   11.76
    SETDIJ:  cpu time    0.01: real time    0.01
     EDDAV:  cpu time   63.54: real time   63.57
       DOS:  cpu time    0.01: real time    0.01
    CHARGE:  cpu time    3.59: real time    3.59
    MIXING:  cpu time    0.01: real time    0.01
    --------------------------------------------
      LOOP:  cpu time   78.91: real time   78.96

 eigenvalue-minimisations  :  8860
 total energy-change (2. order) : 0.5853261E+01  (-0.1803336E+01)
 number of electron     107.9999995 magnetization 
 augmentation part       -9.5537216 magnetization 

 Broyden mixing:
  rms(total) = 0.64503E+00    rms(broyden)= 0.64501E+00
  rms(prec ) = 0.68597E+00
  weight for this iteration     100.00

 eigenvalues of (default mixing * dielectric matrix)
  average eigenvalue GAMMA=   1.6005
  1.6005

 Free energy of the ion-electron system (eV)
  ---------------------------------------------------
  alpha Z        PSCENC =        36.80884744
  Ewald energy   TEWEN  =     12036.16786099
  -Hartree energ DENC   =    -15106.96173574
  -exchange      EXHF   =         0.00000000
  -V(xc)+E(xc)   XCENC  =       -83.44892885
  PAW double counting   =      1132.49845344     -810.76613947
  entropy T*S    EENTRO =        -0.03315230
  eigenvalues    EBANDS =      -668.25097825
  atomic energy  EATOM  =      3354.04126044
  ---------------------------------------------------
  free energy    TOTEN  =      -109.94451229 eV

  energy without entropy =     -109.91135999  energy(sigma->0) =     -109.92793614


--------------------------------------------------------------------------------------------------------




----------------------------------------- Iteration    1(   7)  ---------------------------------------


    POTLOK:  cpu time   11.77: real time   11.77
    SETDIJ:  cpu time    0.01: real time    0.01
     EDDAV:  cpu time   61.65: real time   61.68
       DOS:  cpu time    0.01: real time    0.01
    CHARGE:  cpu time    3.58: real time    3.58
    MIXING:  cpu time    0.01: real time    0.01
    --------------------------------------------
      LOOP:  cpu time   77.03: real time   77.07

 eigenvalue-minimisations  :  8472
 total energy-change (2. order) :-0.2507794E+00  (-0.1307985E+01)
 number of electron     107.9999995 magnetization 
 augmentation part       -9.4570201 magnetization 

 Broyden mixing:
  rms(total) = 0.29915E+00    rms(broyden)= 0.29908E+00
  rms(prec ) = 0.32676E+00
  weight for this iteration     100.00

 eigenvalues of (default mixing * dielectric matrix)
  average eigenvalue GAMMA=   1.2433
  0.9340  1.5527

 Free energy of the ion-electron system (eV)
  ---------------------------------------------------
  alpha Z        PSCENC =        36.80884744
  Ewald energy   TEWEN  =     12036.16786099
  -Hartree energ DENC   =    -15127.31766564
  -exchange      EXHF   =         0.00000000
  -V(xc)+E(xc)   XCENC  =       -80.59409588
  PAW double counting   =      1185.30315427     -865.11042526
  entropy T*S    EENTRO =        -0.02168296
  eigenvalues    EBANDS =      -649.47254505
  atomic energy  EATOM  =      3354.04126044
  ---------------------------------------------------
  free energy    TOTEN  =      -110.19529165 eV

  energy without entropy =     -110.17360869  energy(sigma->0) =     -110.18445017


--------------------------------------------------------------------------------------------------------




----------------------------------------- Iteration    1(   8)  ---------------------------------------


    POTLOK:  cpu time   11.76: real time   11.77
    SETDIJ:  cpu time    0.01: real time    0.01
     EDDAV:  cpu time   62.66: real time   62.70
       DOS:  cpu time    0.01: real time    0.01
    CHARGE:  cpu time    3.59: real time    3.59
    MIXING:  cpu time    0.01: real time    0.01
    --------------------------------------------
      LOOP:  cpu time   78.05: real time   78.09

 eigenvalue-minimisations  :  8668
 total energy-change (2. order) : 0.9195394E-01  (-0.1612395E+00)
 number of electron     107.9999995 magnetization 
 augmentation part       -9.4530326 magnetization 

 Broyden mixing:
  rms(total) = 0.18061E+00    rms(broyden)= 0.18060E+00
  rms(prec ) = 0.19311E+00
  weight for this iteration     100.00

 eigenvalues of (default mixing * dielectric matrix)
  average eigenvalue GAMMA=   1.3428
  1.8484  1.3409  0.8392

 Free energy of the ion-electron system (eV)
  ---------------------------------------------------
  alpha Z        PSCENC =        36.80884744
  Ewald energy   TEWEN  =     12036.16786099
  -Hartree energ DENC   =    -15138.61744687
  -exchange      EXHF   =         0.00000000
  -V(xc)+E(xc)   XCENC  =       -79.77122202
  PAW double counting   =      1195.13549267     -875.21522908
  entropy T*S    EENTRO =        -0.02718243
  eigenvalues    EBANDS =      -638.62571884
  atomic energy  EATOM  =      3354.04126044
  ---------------------------------------------------
  free energy    TOTEN  =      -110.10333771 eV

  energy without entropy =     -110.07615528  energy(sigma->0) =     -110.08974650


--------------------------------------------------------------------------------------------------------




----------------------------------------- Iteration    1(   9)  ---------------------------------------


    POTLOK:  cpu time   11.76: real time   11.77
    SETDIJ:  cpu time    0.01: real time    0.01
     EDDAV:  cpu time   64.90: real time   64.94
       DOS:  cpu time    0.01: real time    0.01
    CHARGE:  cpu time    3.60: real time    3.60
    MIXING:  cpu time    0.01: real time    0.01
    --------------------------------------------
      LOOP:  cpu time   80.29: real time   80.34

 eigenvalue-minimisations  :  9056
 total energy-change (2. order) :-0.2671823E-01  (-0.7922558E-01)
 number of electron     107.9999995 magnetization 
 augmentation part       -9.4494263 magnetization 

 Broyden mixing:
  rms(total) = 0.91859E-01    rms(broyden)= 0.91850E-01
  rms(prec ) = 0.10972E+00
  weight for this iteration     100.00

 eigenvalues of (default mixing * dielectric matrix)
  average eigenvalue GAMMA=   1.2705
  2.3302  1.1469  0.9575  0.6473

 Free energy of the ion-electron system (eV)
  ---------------------------------------------------
  alpha Z        PSCENC =        36.80884744
  Ewald energy   TEWEN  =     12036.16786099
  -Hartree energ DENC   =    -15142.03629240
  -exchange      EXHF   =         0.00000000
  -V(xc)+E(xc)   XCENC  =       -79.11450312
  PAW double counting   =      1201.32917596     -881.60390322
  entropy T*S    EENTRO =        -0.03078689
  eigenvalues    EBANDS =      -635.69171514
  atomic energy  EATOM  =      3354.04126044
  ---------------------------------------------------
  free energy    TOTEN  =      -110.13005594 eV

  energy without entropy =     -110.09926904  energy(sigma->0) =     -110.11466249


--------------------------------------------------------------------------------------------------------




----------------------------------------- Iteration    1(  10)  ---------------------------------------


    POTLOK:  cpu time   11.75: real time   11.75
    SETDIJ:  cpu time    0.01: real time    0.01
     EDDAV:  cpu time   65.27: real time   65.31
       DOS:  cpu time    0.01: real time    0.01
    CHARGE:  cpu time    3.59: real time    3.59
    MIXING:  cpu time    0.01: real time    0.01
    --------------------------------------------
      LOOP:  cpu time   80.64: real time   80.69

 eigenvalue-minimisations  :  9168
 total energy-change (2. order) : 0.3806343E-02  (-0.2610538E-01)
 number of electron     107.9999995 magnetization 
 augmentation part       -9.4453275 magnetization 

 Broyden mixing:
  rms(total) = 0.38003E-01    rms(broyden)= 0.37996E-01
  rms(prec ) = 0.43073E-01
  weight for this iteration     100.00

 eigenvalues of (default mixing * dielectric matrix)
  average eigenvalue GAMMA=   1.2749
  2.5389  1.1895  1.1895  0.9128  0.5440

 Free energy of the ion-electron system (eV)
  ---------------------------------------------------
  alpha Z        PSCENC =        36.80884744
  Ewald energy   TEWEN  =     12036.16786099
  -Hartree energ DENC   =    -15148.54441465
  -exchange      EXHF   =         0.00000000
  -V(xc)+E(xc)   XCENC  =       -78.71569356
  PAW double counting   =      1204.72030832     -885.10008893
  entropy T*S    EENTRO =        -0.02924994
  eigenvalues    EBANDS =      -629.47507971
  atomic energy  EATOM  =      3354.04126044
  ---------------------------------------------------
  free energy    TOTEN  =      -110.12624959 eV

  energy without entropy =     -110.09699966  energy(sigma->0) =     -110.11162463


--------------------------------------------------------------------------------------------------------




----------------------------------------- Iteration    1(  11)  ---------------------------------------


    POTLOK:  cpu time   11.76: real time   11.77
    SETDIJ:  cpu time    0.01: real time    0.01
     EDDAV:  cpu time   63.52: real time   63.55
       DOS:  cpu time    0.01: real time    0.01
    CHARGE:  cpu time    3.66: real time    3.66
    MIXING:  cpu time    0.01: real time    0.01
    --------------------------------------------
      LOOP:  cpu time   78.98: real time   79.03

 eigenvalue-minimisations  :  8824
 total energy-change (2. order) : 0.4680139E-02  (-0.3474173E-02)
 number of electron     107.9999995 magnetization 
 augmentation part       -9.4416706 magnetization 

 Broyden mixing:
  rms(total) = 0.16250E-01    rms(broyden)= 0.16248E-01
  rms(prec ) = 0.18847E-01
  weight for this iteration     100.00

 eigenvalues of (default mixing * dielectric matrix)
  average eigenvalue GAMMA=   1.2962
  2.5938  1.3141  1.3141  1.0054  1.0054  0.5446

 Free energy of the ion-electron system (eV)
  ---------------------------------------------------
  alpha Z        PSCENC =        36.80884744
  Ewald energy   TEWEN  =     12036.16786099
  -Hartree energ DENC   =    -15150.42040765
  -exchange      EXHF   =         0.00000000
  -V(xc)+E(xc)   XCENC  =       -78.56222449
  PAW double counting   =      1204.87582198     -885.26839480
  entropy T*S    EENTRO =        -0.02733527
  eigenvalues    EBANDS =      -627.73699809
  atomic energy  EATOM  =      3354.04126044
  ---------------------------------------------------
  free energy    TOTEN  =      -110.12156946 eV

  energy without entropy =     -110.09423418  energy(sigma->0) =     -110.10790182


--------------------------------------------------------------------------------------------------------




----------------------------------------- Iteration    1(  12)  ---------------------------------------


    POTLOK:  cpu time   11.73: real time   11.74
    SETDIJ:  cpu time    0.01: real time    0.01
     EDDAV:  cpu time   64.67: real time   64.69
       DOS:  cpu time    0.01: real time    0.01
    CHARGE:  cpu time    3.62: real time    3.63
    MIXING:  cpu time    0.02: real time    0.02
    --------------------------------------------
      LOOP:  cpu time   80.06: real time   80.10

 eigenvalue-minimisations  :  9016
 total energy-change (2. order) : 0.9459503E-02  (-0.1301775E-02)
 number of electron     107.9999995 magnetization 
 augmentation part       -9.4423862 magnetization 

 Broyden mixing:
  rms(total) = 0.10384E-01    rms(broyden)= 0.10382E-01
  rms(prec ) = 0.12600E-01
  weight for this iteration     100.00

 eigenvalues of (default mixing * dielectric matrix)
  average eigenvalue GAMMA=   1.2927
  2.5810  2.0104  1.1350  1.1350  0.8222  0.8222  0.5432

 Free energy of the ion-electron system (eV)
  ---------------------------------------------------
  alpha Z        PSCENC =        36.80884744
  Ewald energy   TEWEN  =     12036.16786099
  -Hartree energ DENC   =    -15151.72900319
  -exchange      EXHF   =         0.00000000
  -V(xc)+E(xc)   XCENC  =       -78.54306949
  PAW double counting   =      1203.31068458     -883.66161133
  entropy T*S    EENTRO =        -0.02979616
  eigenvalues    EBANDS =      -626.47728323
  atomic energy  EATOM  =      3354.04126044
  ---------------------------------------------------
  free energy    TOTEN  =      -110.11210995 eV

  energy without entropy =     -110.08231379  energy(sigma->0) =     -110.09721187


--------------------------------------------------------------------------------------------------------




----------------------------------------- Iteration    1(  13)  ---------------------------------------


    POTLOK:  cpu time   11.81: real time   11.99
    SETDIJ:  cpu time    0.01: real time    0.01
     EDDAV:  cpu time   63.74: real time   63.78
       DOS:  cpu time    0.01: real time    0.01
    CHARGE:  cpu time    3.60: real time    3.61
    MIXING:  cpu time    0.01: real time    0.01
    --------------------------------------------
      LOOP:  cpu time   79.19: real time   79.41

 eigenvalue-minimisations  :  8880
 total energy-change (2. order) : 0.7034852E-02  (-0.2496138E-03)
 number of electron     107.9999995 magnetization 
 augmentation part       -9.4443960 magnetization 

 Broyden mixing:
  rms(total) = 0.43903E-02    rms(broyden)= 0.43895E-02
  rms(prec ) = 0.56267E-02
  weight for this iteration     100.00

 eigenvalues of (default mixing * dielectric matrix)
  average eigenvalue GAMMA=   1.2895
  2.6904  2.0381  1.2026  1.2026  1.0446  0.5391  0.7993  0.7993

 Free energy of the ion-electron system (eV)
  ---------------------------------------------------
  alpha Z        PSCENC =        36.80884744
  Ewald energy   TEWEN  =     12036.16786099
  -Hartree energ DENC   =    -15152.14113984
  -exchange      EXHF   =         0.00000000
  -V(xc)+E(xc)   XCENC  =       -78.54876004
  PAW double counting   =      1202.12759934     -882.44648952
  entropy T*S    EENTRO =        -0.02861883
  eigenvalues    EBANDS =      -626.08563508
  atomic energy  EATOM  =      3354.04126044
  ---------------------------------------------------
  free energy    TOTEN  =      -110.10507510 eV

  energy without entropy =     -110.07645627  energy(sigma->0) =     -110.09076569


--------------------------------------------------------------------------------------------------------




----------------------------------------- Iteration    1(  14)  ---------------------------------------


    POTLOK:  cpu time   11.82: real time   11.83
    SETDIJ:  cpu time    0.01: real time    0.01
     EDDAV:  cpu time   65.34: real time   65.39
       DOS:  cpu time    0.01: real time    0.01
    CHARGE:  cpu time    3.62: real time    3.62
    MIXING:  cpu time    0.02: real time    0.02
    --------------------------------------------
      LOOP:  cpu time   80.83: real time   80.88

 eigenvalue-minimisations  :  9016
 total energy-change (2. order) : 0.2563777E-02  (-0.7812531E-04)
 number of electron     107.9999995 magnetization 
 augmentation part       -9.4446457 magnetization 

 Broyden mixing:
  rms(total) = 0.23086E-02    rms(broyden)= 0.23083E-02
  rms(prec ) = 0.33411E-02
  weight for this iteration     100.00

 eigenvalues of (default mixing * dielectric matrix)
  average eigenvalue GAMMA=   1.3434
  2.7347  1.9905  1.9905  1.1674  1.1674  0.9092  0.7962  0.7962  0.5387

 Free energy of the ion-electron system (eV)
  ---------------------------------------------------
  alpha Z        PSCENC =        36.80884744
  Ewald energy   TEWEN  =     12036.16786099
  -Hartree energ DENC   =    -15152.90572245
  -exchange      EXHF   =         0.00000000
  -V(xc)+E(xc)   XCENC  =       -78.54159499
  PAW double counting   =      1201.78735999     -882.09742749
  entropy T*S    EENTRO =        -0.02879436
  eigenvalues    EBANDS =      -625.33430089
  atomic energy  EATOM  =      3354.04126044
  ---------------------------------------------------
  free energy    TOTEN  =      -110.10251132 eV

  energy without entropy =     -110.07371696  energy(sigma->0) =     -110.08811414


--------------------------------------------------------------------------------------------------------




----------------------------------------- Iteration    1(  15)  ---------------------------------------


    POTLOK:  cpu time   11.93: real time   11.94
    SETDIJ:  cpu time    0.01: real time    0.01
     EDDAV:  cpu time   65.70: real time   65.74
       DOS:  cpu time    0.01: real time    0.01
    CHARGE:  cpu time    3.60: real time    3.60
    MIXING:  cpu time    0.01: real time    0.01
    --------------------------------------------
      LOOP:  cpu time   81.27: real time   81.32

 eigenvalue-minimisations  :  8872
 total energy-change (2. order) : 0.1544639E-02  (-0.2561448E-04)
 number of electron     107.9999995 magnetization 
 augmentation part       -9.4441355 magnetization 

 Broyden mixing:
  rms(total) = 0.12426E-02    rms(broyden)= 0.12424E-02
  rms(prec ) = 0.20168E-02
  weight for this iteration     100.00

 eigenvalues of (default mixing * dielectric matrix)
  average eigenvalue GAMMA=   1.3541
  2.8831  2.4921  1.5199  1.1622  1.1622  1.2560  0.5389  0.9510  0.7880  0.7880

 Free energy of the ion-electron system (eV)
  ---------------------------------------------------
  alpha Z        PSCENC =        36.80884744
  Ewald energy   TEWEN  =     12036.16786099
  -Hartree energ DENC   =    -15153.83015761
  -exchange      EXHF   =         0.00000000
  -V(xc)+E(xc)   XCENC  =       -78.53518988
  PAW double counting   =      1201.59858962     -881.90450079
  entropy T*S    EENTRO =        -0.02876690
  eigenvalues    EBANDS =      -624.41891000
  atomic energy  EATOM  =      3354.04126044
  ---------------------------------------------------
  free energy    TOTEN  =      -110.10096668 eV

  energy without entropy =     -110.07219978  energy(sigma->0) =     -110.08658323


--------------------------------------------------------------------------------------------------------




----------------------------------------- Iteration    1(  16)  ---------------------------------------


    POTLOK:  cpu time   11.95: real time   11.96
    SETDIJ:  cpu time    0.01: real time    0.01
     EDDAV:  cpu time   64.55: real time   64.62
       DOS:  cpu time    0.01: real time    0.01
    CHARGE:  cpu time    3.58: real time    3.58
    MIXING:  cpu time    0.01: real time    0.01
    --------------------------------------------
      LOOP:  cpu time   80.11: real time   80.20

 eigenvalue-minimisations  :  8808
 total energy-change (2. order) : 0.8086795E-03  (-0.4663517E-05)
 number of electron     107.9999995 magnetization 
 augmentation part       -9.4441649 magnetization 

 Broyden mixing:
  rms(total) = 0.83617E-03    rms(broyden)= 0.83613E-03
  rms(prec ) = 0.14287E-02
  weight for this iteration     100.00

 eigenvalues of (default mixing * dielectric matrix)
  average eigenvalue GAMMA=   1.4406
  3.1539  2.5417  1.8251  1.8251  1.1797  1.1797  0.5388  1.0103  1.0103  0.7909
  0.7909

 Free energy of the ion-electron system (eV)
  ---------------------------------------------------
  alpha Z        PSCENC =        36.80884744
  Ewald energy   TEWEN  =     12036.16786099
  -Hartree energ DENC   =    -15154.37799648
  -exchange      EXHF   =         0.00000000
  -V(xc)+E(xc)   XCENC  =       -78.53289271
  PAW double counting   =      1201.46220441     -881.76474944
  entropy T*S    EENTRO =        -0.02878528
  eigenvalues    EBANDS =      -623.87590739
  atomic energy  EATOM  =      3354.04126044
  ---------------------------------------------------
  free energy    TOTEN  =      -110.10015801 eV

  energy without entropy =     -110.07137273  energy(sigma->0) =     -110.08576537


--------------------------------------------------------------------------------------------------------




----------------------------------------- Iteration    1(  17)  ---------------------------------------


    POTLOK:  cpu time   11.82: real time   11.83
    SETDIJ:  cpu time    0.01: real time    0.01
     EDDAV:  cpu time   59.02: real time   59.05
       DOS:  cpu time    0.01: real time    0.01
    CHARGE:  cpu time    3.58: real time    3.58
    MIXING:  cpu time    0.01: real time    0.01
    --------------------------------------------
      LOOP:  cpu time   74.45: real time   74.50

 eigenvalue-minimisations  :  8056
 total energy-change (2. order) :-0.3011146E-03  (-0.9520518E-05)
 number of electron     107.9999995 magnetization 
 augmentation part       -9.4440039 magnetization 

 Broyden mixing:
  rms(total) = 0.59179E-03    rms(broyden)= 0.59173E-03
  rms(prec ) = 0.88219E-03
  weight for this iteration     100.00

 eigenvalues of (default mixing * dielectric matrix)
  average eigenvalue GAMMA=   1.4988
  4.0227  2.7212  2.1357  1.1918  1.1918  1.2699  1.1937  1.1937  0.5388  0.7977
  0.7977  0.9315

 Free energy of the ion-electron system (eV)
  ---------------------------------------------------
  alpha Z        PSCENC =        36.80884744
  Ewald energy   TEWEN  =     12036.16786099
  -Hartree energ DENC   =    -15155.17431907
  -exchange      EXHF   =         0.00000000
  -V(xc)+E(xc)   XCENC  =       -78.52818524
  PAW double counting   =      1201.45768839     -881.76045429
  entropy T*S    EENTRO =        -0.02871044
  eigenvalues    EBANDS =      -623.08444734
  atomic energy  EATOM  =      3354.04126044
  ---------------------------------------------------
  free energy    TOTEN  =      -110.10045912 eV

  energy without entropy =     -110.07174868  energy(sigma->0) =     -110.08610390


--------------------------------------------------------------------------------------------------------




----------------------------------------- Iteration    1(  18)  ---------------------------------------


    POTLOK:  cpu time   11.77: real time   11.78
    SETDIJ:  cpu time    0.01: real time    0.01
     EDDAV:  cpu time   60.97: real time   61.00
       DOS:  cpu time    0.01: real time    0.01
    CHARGE:  cpu time    3.56: real time    3.56
    MIXING:  cpu time    0.01: real time    0.01
    --------------------------------------------
      LOOP:  cpu time   76.33: real time   76.37

 eigenvalue-minimisations  :  8472
 total energy-change (2. order) :-0.3356290E-03  (-0.9902203E-05)
 number of electron     107.9999995 magnetization 
 augmentation part       -9.4439237 magnetization 

 Broyden mixing:
  rms(total) = 0.37751E-03    rms(broyden)= 0.37748E-03
  rms(prec ) = 0.53569E-03
  weight for this iteration     100.00

 eigenvalues of (default mixing * dielectric matrix)
  average eigenvalue GAMMA=   1.5752
  4.6320  2.7255  2.2489  1.5913  1.2143  1.2143  1.3845  1.3845  0.5388  0.7973
  0.7973  0.9921  0.9568

 Free energy of the ion-electron system (eV)
  ---------------------------------------------------
  alpha Z        PSCENC =        36.80884744
  Ewald energy   TEWEN  =     12036.16786099
  -Hartree energ DENC   =    -15155.55728834
  -exchange      EXHF   =         0.00000000
  -V(xc)+E(xc)   XCENC  =       -78.52665969
  PAW double counting   =      1201.46484775     -881.76782909
  entropy T*S    EENTRO =        -0.02875668
  eigenvalues    EBANDS =      -622.70307758
  atomic energy  EATOM  =      3354.04126044
  ---------------------------------------------------
  free energy    TOTEN  =      -110.10079475 eV

  energy without entropy =     -110.07203807  energy(sigma->0) =     -110.08641641


--------------------------------------------------------------------------------------------------------




----------------------------------------- Iteration    1(  19)  ---------------------------------------


    POTLOK:  cpu time   11.78: real time   11.79
    SETDIJ:  cpu time    0.01: real time    0.01
     EDDAV:  cpu time   61.62: real time   61.64
       DOS:  cpu time    0.01: real time    0.01
    CHARGE:  cpu time    3.57: real time    3.58
    MIXING:  cpu time    0.01: real time    0.01
    --------------------------------------------
      LOOP:  cpu time   77.00: real time   77.05

 eigenvalue-minimisations  :  8600
 total energy-change (2. order) :-0.2352838E-03  (-0.7293288E-05)
 number of electron     107.9999995 magnetization 
 augmentation part       -9.4439467 magnetization 

 Broyden mixing:
  rms(total) = 0.18881E-03    rms(broyden)= 0.18878E-03
  rms(prec ) = 0.30502E-03
  weight for this iteration     100.00

 eigenvalues of (default mixing * dielectric matrix)
  average eigenvalue GAMMA=   1.6510
  5.7670  2.8298  2.3976  1.8953  1.2897  1.2897  1.1992  1.1992  0.5388  1.1004
  1.1004  0.7978  0.7978  0.9120

 Free energy of the ion-electron system (eV)
  ---------------------------------------------------
  alpha Z        PSCENC =        36.80884744
  Ewald energy   TEWEN  =     12036.16786099
  -Hartree energ DENC   =    -15155.79606511
  -exchange      EXHF   =         0.00000000
  -V(xc)+E(xc)   XCENC  =       -78.52554117
  PAW double counting   =      1201.48118599     -881.78441225
  entropy T*S    EENTRO =        -0.02874832
  eigenvalues    EBANDS =      -622.46541804
  atomic energy  EATOM  =      3354.04126044
  ---------------------------------------------------
  free energy    TOTEN  =      -110.10103003 eV

  energy without entropy =     -110.07228171  energy(sigma->0) =     -110.08665587


--------------------------------------------------------------------------------------------------------




----------------------------------------- Iteration    1(  20)  ---------------------------------------


    POTLOK:  cpu time   11.77: real time   11.79
    SETDIJ:  cpu time    0.01: real time    0.01
     EDDAV:  cpu time   53.87: real time   53.90
       DOS:  cpu time    0.01: real time    0.01
    CHARGE:  cpu time    3.57: real time    3.57
    MIXING:  cpu time    0.01: real time    0.01
    --------------------------------------------
      LOOP:  cpu time   69.24: real time   69.30

 eigenvalue-minimisations  :  7264
 total energy-change (2. order) :-0.5496600E-04  (-0.1310467E-05)
 number of electron     107.9999995 magnetization 
 augmentation part       -9.4439363 magnetization 

 Broyden mixing:
  rms(total) = 0.11031E-03    rms(broyden)= 0.11030E-03
  rms(prec ) = 0.20327E-03
  weight for this iteration     100.00

 eigenvalues of (default mixing * dielectric matrix)
  average eigenvalue GAMMA=   1.7221
  6.4402  2.9391  2.6462  2.0310  1.6591  1.3121  1.3121  1.1845  1.1845  0.5388
  0.7978  0.7978  1.0389  1.0389  0.9109

 Free energy of the ion-electron system (eV)
  ---------------------------------------------------
  alpha Z        PSCENC =        36.80884744
  Ewald energy   TEWEN  =     12036.16786099
  -Hartree energ DENC   =    -15155.91136115
  -exchange      EXHF   =         0.00000000
  -V(xc)+E(xc)   XCENC  =       -78.52504744
  PAW double counting   =      1201.48825261     -881.79159008
  entropy T*S    EENTRO =        -0.02875331
  eigenvalues    EBANDS =      -622.35055451
  atomic energy  EATOM  =      3354.04126044
  ---------------------------------------------------
  free energy    TOTEN  =      -110.10108500 eV

  energy without entropy =     -110.07233169  energy(sigma->0) =     -110.08670834


--------------------------------------------------------------------------------------------------------




----------------------------------------- Iteration    1(  21)  ---------------------------------------


    POTLOK:  cpu time   11.77: real time   11.78
    SETDIJ:  cpu time    0.01: real time    0.01
     EDDAV:  cpu time   52.67: real time   52.70
       DOS:  cpu time    0.01: real time    0.01
    CHARGE:  cpu time    3.59: real time    3.59
    MIXING:  cpu time    0.01: real time    0.01
    --------------------------------------------
      LOOP:  cpu time   68.07: real time   68.11

 eigenvalue-minimisations  :  6864
 total energy-change (2. order) :-0.3267110E-04  (-0.2450624E-05)
 number of electron     107.9999995 magnetization 
 augmentation part       -9.4439269 magnetization 

 Broyden mixing:
  rms(total) = 0.79245E-04    rms(broyden)= 0.79241E-04
  rms(prec ) = 0.13095E-03
  weight for this iteration     100.00

 eigenvalues of (default mixing * dielectric matrix)
  average eigenvalue GAMMA=   1.7231
  6.7209  3.0659  2.6458  2.0874  1.7438  1.3247  1.3247  1.1776  1.1776  0.5388
  1.1506  1.1506  0.7978  0.7978  0.9326  0.9326

 Free energy of the ion-electron system (eV)
  ---------------------------------------------------
  alpha Z        PSCENC =        36.80884744
  Ewald energy   TEWEN  =     12036.16786099
  -Hartree energ DENC   =    -15156.01590477
  -exchange      EXHF   =         0.00000000
  -V(xc)+E(xc)   XCENC  =       -78.52459016
  PAW double counting   =      1201.49230026     -881.79566687
  entropy T*S    EENTRO =        -0.02875090
  eigenvalues    EBANDS =      -622.24647410
  atomic energy  EATOM  =      3354.04126044
  ---------------------------------------------------
  free energy    TOTEN  =      -110.10111767 eV

  energy without entropy =     -110.07236677  energy(sigma->0) =     -110.08674222


--------------------------------------------------------------------------------------------------------




----------------------------------------- Iteration    1(  22)  ---------------------------------------


    POTLOK:  cpu time   11.80: real time   11.81
    SETDIJ:  cpu time    0.01: real time    0.02
     EDDAV:  cpu time   49.73: real time   49.75
       DOS:  cpu time    0.01: real time    0.02
    CHARGE:  cpu time    3.61: real time    3.61
    MIXING:  cpu time    0.01: real time    0.01
    --------------------------------------------
      LOOP:  cpu time   65.19: real time   65.23

 eigenvalue-minimisations  :  6368
 total energy-change (2. order) :-0.4059573E-05  (-0.9031373E-06)
 number of electron     107.9999995 magnetization 
 augmentation part       -9.4439292 magnetization 

 Broyden mixing:
  rms(total) = 0.52026E-04    rms(broyden)= 0.52024E-04
  rms(prec ) = 0.86613E-04
  weight for this iteration     100.00

 eigenvalues of (default mixing * dielectric matrix)
  average eigenvalue GAMMA=   1.8485
  7.1499  4.0125  2.7711  2.6221  1.8977  1.7955  1.3164  1.3164  1.1792  1.1792
  0.5388  0.7979  0.7979  1.0924  1.0924  0.9321  0.9321

 Free energy of the ion-electron system (eV)
  ---------------------------------------------------
  alpha Z        PSCENC =        36.80884744
  Ewald energy   TEWEN  =     12036.16786099
  -Hartree energ DENC   =    -15156.02610861
  -exchange      EXHF   =         0.00000000
  -V(xc)+E(xc)   XCENC  =       -78.52478951
  PAW double counting   =      1201.48983825     -881.79315047
  entropy T*S    EENTRO =        -0.02875017
  eigenvalues    EBANDS =      -622.23613010
  atomic energy  EATOM  =      3354.04126044
  ---------------------------------------------------
  free energy    TOTEN  =      -110.10112173 eV

  energy without entropy =     -110.07237156  energy(sigma->0) =     -110.08674664


--------------------------------------------------------------------------------------------------------




----------------------------------------- Iteration    1(  23)  ---------------------------------------


    POTLOK:  cpu time   11.77: real time   11.78
    SETDIJ:  cpu time    0.01: real time    0.01
     EDDAV:  cpu time   54.71: real time   54.73
       DOS:  cpu time    0.01: real time    0.01
    CHARGE:  cpu time    3.59: real time    3.59
    MIXING:  cpu time    0.02: real time    0.02
    --------------------------------------------
      LOOP:  cpu time   70.11: real time   70.14

 eigenvalue-minimisations  :  7216
 total energy-change (2. order) : 0.1058713E-03  (-0.1646202E-05)
 number of electron     107.9999995 magnetization 
 augmentation part       -9.4439301 magnetization 

 Broyden mixing:
  rms(total) = 0.27800E-04    rms(broyden)= 0.27798E-04
  rms(prec ) = 0.36399E-04
  weight for this iteration     100.00

 eigenvalues of (default mixing * dielectric matrix)
  average eigenvalue GAMMA=   1.9187
  7.4189  5.4504  2.8744  2.5576  1.9414  1.3306  1.3306  1.5486  1.5486  1.1837
  1.1837  0.5388  0.7979  0.7979  1.1196  1.0507  0.9316  0.9316

 Free energy of the ion-electron system (eV)
  ---------------------------------------------------
  alpha Z        PSCENC =        36.80884744
  Ewald energy   TEWEN  =     12036.16786099
  -Hartree energ DENC   =    -15156.06716652
  -exchange      EXHF   =         0.00000000
  -V(xc)+E(xc)   XCENC  =       -78.52485061
  PAW double counting   =      1201.48396944     -881.78716428
  entropy T*S    EENTRO =        -0.02875077
  eigenvalues    EBANDS =      -622.19502199
  atomic energy  EATOM  =      3354.04126044
  ---------------------------------------------------
  free energy    TOTEN  =      -110.10101586 eV

  energy without entropy =     -110.07226508  energy(sigma->0) =     -110.08664047


[...]
     31      -4.0270      2.00000
     32      -3.8530      2.00000
     33      -3.7684      2.00000
     34      -3.6111      2.00000
     35      -3.3231      2.00000
     36      -3.2605      2.00000
     37      -3.1389      2.00000
     38      -3.0890      2.00000
     39      -2.8487      2.00000
     40      -2.7165      2.00000
     41      -2.6460      2.00000
     42      -2.6093      2.00000
     43      -2.5629      2.00000
     44      -2.3334      2.00000
     45      -2.0311      2.00000
     46      -1.9270      2.00000
     47      -1.8023      2.00000
     48      -1.6341      2.00000
     49      -1.4239      2.00000
     50      -1.2534      2.00000
     51      -1.0517      2.00000
     52      -0.6972      2.00000
     53      -0.5811      2.00000
     54      -0.3281      1.99999
     55       0.2199      0.00064
     56       0.9484      0.00000
     57       1.2069      0.00000
     58       1.4038      0.00000
     59       1.5477      0.00000
     60       1.6921      0.00000
     61       2.0549      0.00000
     62       2.2192      0.00000
     63       2.4502      0.00000
     64       2.5709      0.00000
     65       2.6915      0.00000
     66       2.8576      0.00000
     67       3.0186      0.00000
     68       3.1198      0.00000

 k-point    52 :       0.3077    0.5000    0.5000
  band No.  band energies     occupation 
      1     -14.5813      2.00000
      2     -12.5375      2.00000
      3     -12.3989      2.00000
      4     -12.1919      2.00000
      5     -11.7400      2.00000
      6     -11.6623      2.00000
      7     -11.2782      2.00000
      8     -11.0429      2.00000
      9     -10.8382      2.00000
     10     -10.6224      2.00000
     11     -10.4221      2.00000
     12     -10.0764      2.00000
     13      -9.2974      2.00000
     14      -8.9498      2.00000
     15      -8.4951      2.00000
     16      -7.8015      2.00000
     17      -7.4268      2.00000
     18      -7.0926      2.00000
     19      -6.9940      2.00000
     20      -6.7666      2.00000
     21      -6.3291      2.00000
     22      -6.2143      2.00000
     23      -5.9549      2.00000
     24      -5.8449      2.00000
     25      -5.6146      2.00000
     26      -5.3848      2.00000
     27      -4.9926      2.00000
     28      -4.9235      2.00000
     29      -4.5154      2.00000
     30      -4.4838      2.00000
     31      -4.3406      2.00000
     32      -4.1087      2.00000
     33      -3.9356      2.00000
     34      -3.6161      2.00000
     35      -3.4724      2.00000
     36      -3.2785      2.00000
     37      -3.1262      2.00000
     38      -3.0733      2.00000
     39      -2.9410      2.00000
     40      -2.8550      2.00000
     41      -2.7604      2.00000
     42      -2.6113      2.00000
     43      -2.5412      2.00000
     44      -2.3953      2.00000
     45      -2.2477      2.00000
     46      -1.9849      2.00000
     47      -1.9100      2.00000
     48      -1.7740      2.00000
     49      -1.7265      2.00000
     50      -1.4390      2.00000
     51      -1.2529      2.00000
     52      -1.0807      2.00000
     53      -0.8220      2.00000
     54      -0.6387      2.00000
     55       0.0552      0.27818
     56       0.7853      0.00000
     57       1.2470      0.00000
     58       1.3070      0.00000
     59       1.3656      0.00000
     60       1.6438      0.00000
     61       1.8794      0.00000
     62       2.1100      0.00000
     63       2.2380      0.00000
     64       2.3295      0.00000
     65       2.4365      0.00000
     66       2.5309      0.00000
     67       2.6836      0.00000
     68       2.9464      0.00000

 k-point    53 :       0.3846    0.5000    0.5000
  band No.  band energies     occupation 
      1     -14.2450      2.00000
      2     -12.0637      2.00000
      3     -12.0161      2.00000
      4     -11.6950      2.00000
      5     -11.4072      2.00000
      6     -11.2710      2.00000
      7     -10.9597      2.00000
      8     -10.7993      2.00000
      9     -10.6471      2.00000
     10     -10.5318      2.00000
     11     -10.4889      2.00000
     12     -10.2004      2.00000
     13      -9.4083      2.00000
     14      -8.9359      2.00000
     15      -8.9308      2.00000
     16      -8.2768      2.00000
     17      -7.7194      2.00000
     18      -7.6423      2.00000
     19      -7.4111      2.00000
     20      -7.1099      2.00000
     21      -6.8675      2.00000
     22      -6.7470      2.00000
     23      -6.6856      2.00000
     24      -6.2071      2.00000
     25      -5.4608      2.00000
     26      -5.3269      2.00000
     27      -4.9876      2.00000
     28      -4.7031      2.00000
     29      -4.5398      2.00000
     30      -4.3774      2.00000
     31      -4.1598      2.00000
     32      -4.0682      2.00000
     33      -4.0394      2.00000
     34      -3.6814      2.00000
     35      -3.5598      2.00000
     36      -3.4579      2.00000
     37      -3.2258      2.00000
     38      -3.1715      2.00000
     39      -3.1477      2.00000
     40      -2.9077      2.00000
     41      -2.8777      2.00000
     42      -2.7400      2.00000
     43      -2.5489      2.00000
     44      -2.4452      2.00000
     45      -2.3410      2.00000
     46      -2.1826      2.00000
     47      -2.0951      2.00000
     48      -1.8998      2.00000
     49      -1.7864      2.00000
     50      -1.5664      2.00000
     51      -1.4303      2.00000
     52      -1.3610      2.00000
     53      -1.0131      2.00000
     54      -0.7855      2.00000
     55      -0.1015      1.74222
     56       0.6330      0.00000
     57       1.2260      0.00000
     58       1.3035      0.00000
     59       1.4835      0.00000
     60       1.5704      0.00000
     61       1.7162      0.00000
     62       1.8854      0.00000
     63       2.0388      0.00000
     64       2.0717      0.00000
     65       2.2369      0.00000
     66       2.3272      0.00000
     67       2.5208      0.00000
     68       2.7100      0.00000

 k-point    54 :       0.4615    0.5000    0.5000
  band No.  band energies     occupation 
      1     -14.0021      2.00000
      2     -11.8054      2.00000
      3     -11.5164      2.00000
      4     -11.1965      2.00000
      5     -11.1259      2.00000
      6     -10.9745      2.00000
      7     -10.8772      2.00000
      8     -10.8369      2.00000
      9     -10.7493      2.00000
     10     -10.6499      2.00000
     11     -10.5438      2.00000
     12     -10.1005      2.00000
     13      -9.7134      2.00000
     14      -9.0841      2.00000
     15      -8.6928      2.00000
     16      -8.4666      2.00000
     17      -8.1460      2.00000
     18      -7.8347      2.00000
     19      -7.5871      2.00000
     20      -7.5329      2.00000
     21      -7.3175      2.00000
     22      -7.1997      2.00000
     23      -7.1344      2.00000
     24      -6.3527      2.00000
     25      -5.2837      2.00000
     26      -4.9773      2.00000
     27      -4.8984      2.00000
     28      -4.5098      2.00000
     29      -4.3446      2.00000
     30      -4.2355      2.00000
     31      -4.1140      2.00000
     32      -4.0420      2.00000
     33      -3.9689      2.00000
     34      -3.7982      2.00000
     35      -3.7383      2.00000
     36      -3.6420      2.00000
     37      -3.5420      2.00000
     38      -3.2850      2.00000
     39      -3.1527      2.00000
     40      -3.0413      2.00000
     41      -3.0107      2.00000
     42      -2.7757      2.00000
     43      -2.7045      2.00000
     44      -2.5329      2.00000
     45      -2.3988      2.00000
     46      -2.2320      2.00000
     47      -2.1327      2.00000
     48      -1.9559      2.00000
     49      -1.7732      2.00000
     50      -1.5733      2.00000
     51      -1.5327      2.00000
     52      -1.4252      2.00000
     53      -1.0905      2.00000
     54      -0.8402      2.00000
     55      -0.2099      1.99230
     56       0.5599      0.00000
     57       1.2695      0.00000
     58       1.3208      0.00000
     59       1.4484      0.00000
     60       1.5454      0.00000
     61       1.5938      0.00000
     62       1.7912      0.00000
     63       1.8667      0.00000
     64       2.0137      0.00000
     65       2.1129      0.00000
     66       2.3462      0.00000
     67       2.4547      0.00000
     68       2.6183      0.00000


--------------------------------------------------------------------------------------------------------


 soft charge-density along one line, spin component           1
         0         1         2         3         4         5         6         7         8         9
 total charge-density along one line
 
 pseudopotential strength for first ion, spin component:           1
 29.780   0.008  -0.001  -0.023  -0.000  -0.000  -0.001  -0.000
  0.008   0.009  -0.000  -0.000   0.000   0.000   0.000  -0.000
 -0.001  -0.000   6.549  -0.001  -0.000  -0.003   0.000   0.000
 -0.023  -0.000  -0.001   6.544  -0.000   0.000  -0.002   0.000
 -0.000   0.000  -0.000  -0.000   6.550   0.000   0.000  -0.003
 -0.000   0.000  -0.003   0.000   0.000   0.015  -0.000   0.000
 -0.001   0.000   0.000  -0.002   0.000  -0.000   0.015   0.000
 -0.000  -0.000   0.000   0.000  -0.003   0.000   0.000   0.015
 total augmentation occupancy for first ion, spin component:           1
  1.817  -0.351   0.006   0.257   0.000   0.003   0.114  -0.001
 -0.351   1.302   0.022   0.864   0.000   0.004  -0.434  -0.000
  0.006   0.022   1.141   0.012   0.000  -0.504   0.014  -0.000
  0.257   0.864   0.012   1.291   0.001   0.014  -0.419  -0.001
  0.000   0.000   0.000   0.001   1.144  -0.000  -0.001  -0.527
  0.003   0.004  -0.504   0.014  -0.000   0.292  -0.015   0.000
  0.114  -0.434   0.014  -0.419  -0.001  -0.015   0.227   0.000
 -0.001  -0.000  -0.000  -0.001  -0.527   0.000   0.000   0.326


------------------------ aborting loop because EDIFF is reached ----------------------------------------


    CHARGE:  cpu time    3.59: real time    3.59
    FORLOC:  cpu time    0.04: real time    0.04
    FORNL :  cpu time   16.39: real time   16.42
    STRESS:  cpu time   49.26: real time   49.28
    FORCOR:  cpu time   11.84: real time   11.85
    FORHAR:  cpu time    0.14: real time    0.14
    MIXING:  cpu time    0.01: real time    0.01
    OFIELD:  cpu time    0.00: real time    0.00

  FORCE on cell =-STRESS in cart. coord.  units (eV):
  Direction    XX          YY          ZZ          XY          YZ          ZX
  --------------------------------------------------------------------------------------
  Alpha Z    36.80885    36.80885    36.80885
  Ewald   14510.24041 13926.55956-16400.63960    41.38758   -34.04887    -6.02675
  Hartree 14990.15657 14575.50639-14409.59713     3.55004   -17.26126    -0.31295
  E(xc)    -360.37544  -360.06136  -359.20680    -0.50599     0.21567     0.03835
  Local  -31050.17940-30073.05631 29214.51731   -28.01882    47.78696    -4.23217
  n-local  1178.62664  1177.03917  1177.24361    11.08193    -4.17782     1.16420
  augment  -203.50466  -204.60578  -207.15550     0.58657    -0.21025    -0.44988
  Kinetic   941.86266   941.85971   996.00641    -4.02347     3.29056    -5.21840
  Fock        0.00000     0.00000     0.00000     0.00000     0.00000     0.00000
  -------------------------------------------------------------------------------------
  Total      43.63563    20.05023    47.97714    24.05784    -4.40501   -15.03760
  in kB      69.75018    32.04967    76.68996    38.45571    -7.04128   -24.03714
  external pressure =       59.50 kB  Pullay stress =        0.00 kB


 VOLUME and BASIS-vectors are now :
 -----------------------------------------------------------------------------
  energy-cutoff  :      300.00
  volume of cell :     1002.32
      direct lattice vectors                 reciprocal lattice vectors
     3.540400000  0.000000000  0.000000000     0.282453960  0.048570342  0.000000000
    -1.770200000 10.294348000  0.000000000     0.000000000  0.097140683  0.000000000
     0.000000000  0.000000000 27.501429000     0.000000000  0.000000000  0.036361747

  length of vectors
     3.540400000 10.445439617 27.501429000     0.286599577  0.097140683  0.036361747


 FORCES acting on ions
    electron-ion (+dipol)            ewald-force                    non-local-force                 convergence-correction
 -----------------------------------------------------------------------------------------------
   0.106E+00 0.545E+01 0.333E+02   -.239E-01 -.528E+01 -.286E+02   -.523E-01 -.208E+00 -.470E+01   -.720E-07 0.578E-05 -.390E-05
   -.223E+00 -.131E+02 -.549E+03   0.306E+00 0.132E+02 0.553E+03   -.916E-01 -.151E+00 -.401E+01   0.532E-06 -.478E-06 0.248E-04
   0.841E-03 0.671E+02 0.492E+02   0.596E-02 -.686E+02 -.449E+02   -.510E-02 0.154E+01 -.416E+01   -.345E-08 -.421E-06 -.694E-05
   0.849E+00 0.259E+02 -.556E+03   -.333E+00 -.270E+02 0.559E+03   -.115E+01 0.115E+01 -.276E+01   -.159E-06 -.132E-04 -.537E-05
   -.766E-03 -.573E+02 0.526E+03   0.895E-04 0.589E+02 -.530E+03   -.138E-03 -.154E+01 0.428E+01   -.288E-09 -.673E-05 -.959E-06
   -.718E+00 -.838E+02 -.893E+02   0.197E+00 0.863E+02 0.865E+02   0.189E+00 -.294E+01 0.409E+01   0.362E-06 -.727E-05 -.581E-05
   0.437E-02 0.543E+02 0.526E+03   -.888E-06 -.562E+02 -.531E+03   0.722E-03 0.191E+01 0.417E+01   0.411E-07 0.443E-05 -.624E-06
   0.306E+02 0.147E+03 -.576E+01   -.310E+02 -.149E+03 0.666E+01   -.840E+01 -.620E+01 -.205E+02   -.125E-04 0.363E-05 -.157E-04
   -.852E-03 0.152E+01 0.572E+03   -.815E-04 -.172E+01 -.577E+03   0.193E-02 0.206E+00 0.477E+01   0.354E-07 0.307E-05 -.156E-04
   -.300E+01 -.393E+02 -.511E+00   0.301E+01 0.390E+02 -.305E+01   0.889E+00 0.213E-01 0.284E+01   -.507E-06 -.154E-05 0.744E-05
   -.417E-02 -.665E+02 0.562E+02   0.731E-03 0.684E+02 -.521E+02   0.201E-02 -.191E+01 -.403E+01   0.379E-08 -.408E-05 -.781E-05
   0.125E+00 -.869E+01 -.525E+03   0.590E-01 0.942E+01 0.528E+03   -.161E+00 -.996E+00 -.248E+01   0.154E-05 0.117E-04 0.265E-04
   -.512E-02 0.322E+02 0.209E+03   -.339E-03 -.343E+02 -.209E+03   0.835E-02 0.211E+01 0.341E+00   -.177E-08 -.246E-05 0.350E-06
   -.219E+01 -.126E+02 -.311E+03   -.982E+00 0.146E+02 0.308E+03   0.240E+01 -.133E+01 0.595E+01   0.752E-06 -.250E-05 0.512E-05
   0.377E-02 -.143E+02 0.139E+03   -.712E-03 0.146E+02 -.141E+03   -.320E-02 -.255E+00 0.254E+01   -.135E-07 -.116E-05 -.260E-05
   -.298E-01 0.177E+02 -.286E+03   0.171E+00 -.168E+02 0.285E+03   -.244E+00 -.692E+00 0.471E+00   -.738E-06 0.745E-05 0.202E-04
   -.292E-02 -.567E+01 0.346E+03   0.590E-04 0.614E+01 -.343E+03   0.131E-02 -.469E+00 -.254E+01   -.963E-08 -.121E-05 -.123E-05
   0.715E+01 -.707E+02 -.119E+03   -.563E+01 0.699E+02 0.121E+03   -.176E+01 0.298E+01 -.447E+01   0.185E-05 -.134E-04 0.345E-05
   0.756E-02 0.984E+01 0.336E+03   0.398E-04 -.101E+02 -.333E+03   -.418E-02 0.238E+00 -.255E+01   -.290E-09 0.539E-05 -.614E-07
   -.537E+02 -.135E+01 -.106E+03   0.567E+02 0.525E+00 0.108E+03   0.283E+02 0.205E+02 -.265E+02   0.698E-05 0.437E-04 0.139E-04
   -.680E-01 0.114E+02 0.129E+03   0.347E-02 -.118E+02 -.132E+03   0.607E-01 0.373E+00 0.253E+01   0.980E-08 0.534E-05 -.170E-05
   0.237E+01 -.263E+02 -.314E+03   -.224E+01 0.261E+02 0.315E+03   0.431E-01 0.472E+00 -.107E+01   -.310E-06 -.110E-04 0.783E-05
   0.744E-03 -.313E+02 0.253E+03   -.101E-03 0.334E+02 -.253E+03   0.110E-02 -.213E+01 -.358E+00   0.439E-10 -.276E-05 0.258E-05
   0.180E+02 0.547E+02 -.310E+03   -.203E+02 -.601E+02 0.307E+03   -.193E+02 -.843E+01 0.454E+02   0.588E-05 0.308E-04 0.429E-04
 -----------------------------------------------------------------------------------------------
   -.772E+00 -.422E+01 0.266E+01   -.107E-13 0.284E-13 -.171E-12   0.779E+00 0.422E+01 -.265E+01   0.365E-05 0.531E-04 0.868E-04
 
 
 POSITION                                       TOTAL-FORCE (eV/Angst)
 -----------------------------------------------------------------------------------
      0.00000      2.34757      6.41229         0.029767     -0.034558     -0.004435
      0.70808      6.46531     14.16300        -0.009767     -0.063542      0.106356
     -0.00000      9.43147      5.75866         0.001423     -0.015603      0.079514
      2.47828      3.25486     13.50937        -0.629827      0.045733      0.541475
     -0.00000      6.40009      2.31424        -0.001101     -0.004641      0.009985
     -0.00000      6.40009     10.06495        -0.331457     -0.443572      1.209777
      1.77020     10.27849      2.37372         0.004807      0.001391      0.000823
      1.77020     10.27849     10.12443        -8.804920     -8.004516    -19.577567
      1.77020      3.18974      1.66157         0.000710      0.000630      0.012364
      1.77020      3.18974      9.41228         0.898314     -0.260111     -0.723682
      1.77020      5.55354      5.69975        -0.001718      0.003841      0.090296
     -1.06212      9.67128     13.45047         0.022508     -0.271759      0.246190
      1.77020      9.05319      4.34076         0.002603      0.001388      0.009530
      0.70808      2.87658     12.09147        -0.766680      0.652447      3.192740
      0.00000      4.22380      5.10944        -0.000431      0.001789      0.045072
      0.70808      8.34154     12.86016        -0.103046      0.136014     -0.224593
     -0.00000      4.15582      2.74166        -0.001842      0.002387     -0.021620
     -0.00000      4.15582     10.49237        -0.235638      2.162616     -2.075950
      1.77020      1.31366      2.96438         0.003133     -0.016738     -0.017414
      1.77020      1.31366     10.71510        31.307979     19.655655    -24.616307
      1.77020      1.38163      5.33187        -0.004073     -0.012899      0.006258
      2.47828      5.49936     13.08259         0.174252      0.299978     -0.333726
      1.77020      6.77850      3.73234         0.001456      0.014933     -0.004034
      0.70808      0.60189     11.48306       -21.556452    -13.850864     42.048946
 -----------------------------------------------------------------------------------
    total drift:                                0.006909      0.000657      0.005436


--------------------------------------------------------------------------------------------------------



  FREE ENERGIE OF THE ION-ELECTRON SYSTEM (eV)
  ---------------------------------------------------
  free  energy   TOTEN  =      -110.10096198 eV

  energy  without entropy=     -110.07221120  energy(sigma->0) =     -110.08658659
 


--------------------------------------------------------------------------------------------------------


    POTLOK:  cpu time   11.77: real time   11.78


--------------------------------------------------------------------------------------------------------


     LOOP+:  cpu time 2142.63: real time 2144.24
    4ORBIT:  cpu time    0.00: real time    0.00

 total amount of memory used by VASP on root node   146493. kBytes
========================================================================

   base      :      30000. kBytes
   nonlr-proj:       3452. kBytes
   fftplans  :       9347. kBytes
   grid      :      14649. kBytes
   one-center:         36. kBytes
   wavefun   :      89009. kBytes
 
  
  
 General timing and accounting informations for this job:
 ========================================================
  
                  Total CPU time used (sec):     2157.953
                            User time (sec):     2121.006
                          System time (sec):       36.947
                         Elapsed time (sec):     2160.653
  
                   Maximum memory used (kb):      335360.
                   Average memory used (kb):           0.
  
                          Minor page faults:      8216319
                          Major page faults:            5
                 Voluntary context switches:         1469
