<?xml version="1.0" encoding="ISO-8859-1"?>
<modeling>
 <generator>
  <i name="program" type="string">vasp </i>
  <i name="version" type="string">5.4.1  </i>
  <i name="subversion" type="string">24Jun15 (build May 10 2016 14:18:23) complex                          parallel </i>
  <i name="platform" type="string">IFC91_ompi </i>
  <i name="date" type="string">2016 12 09 </i>
  <i name="time" type="string">15:00:39 </i>
 </generator>
 <incar>
  <i type="string" name="PREC">accurate</i>
  <i type="string" name="ALGO"> Fast</i>
  <i type="int" name="ISPIN">     2</i>
  <i type="int" name="IBRION">     2</i>
  <i name="EDIFF">      0.00010000</i>
  <i type="int" name="NSW">     0</i>
  <i type="int" name="ISIF">     3</i>
  <i name="ENCUT">    500.00000000</i>
  <v name="MAGMOM">      6.00000000      0.50000000      0.50000000      6.00000000      0.50000000      0.50000000</v>
  <i type="string" name="LREAL"> Auto</i>
  <i type="int" name="ISMEAR">     1</i>
  <i name="SIGMA">      0.10000000</i>
  <i type="logical" name="LWAVE"> F  </i>
  <i type="logical" name="LCHARG"> F  </i>
  <i type="logical" name="LVTOT"> T  </i>
  <i type="logical" name="LVHAR"> T  </i>
  <i type="logical" name="LAECHG"> F  </i>
  <v type="int" name="KPOINT_BSE">    -1     0     0     0</v>
  <i type="string" name="GGA"> Bo</i>
  <i name="PARAM1">      0.18333333</i>
  <i name="PARAM2">      0.22000000</i>
  <i type="logical" name="LUSE_VDW"> T  </i>
  <i name="AGGAC">      0.00000000</i>
 </incar>
 <kpoints>
  <generation param="Gamma">
   <v type="int" name="divisions">      13       13        1 </v>
   <v name="usershift">      0.00000000       0.00000000       0.00000000 </v>
   <v name="genvec1">      0.07692308       0.00000000       0.00000000 </v>
   <v name="genvec2">      0.00000000       0.07692308       0.00000000 </v>
   <v name="genvec3">      0.00000000       0.00000000       1.00000000 </v>
   <v name="shift">      0.00000000       0.00000000       0.00000000 </v>
  </generation>
  <varray name="kpointlist" >
   <v>       0.00000000       0.00000000       0.00000000 </v>
   <v>       0.07692308      -0.00000000       0.00000000 </v>
   <v>       0.15384615       0.00000000       0.00000000 </v>
   <v>       0.23076923       0.00000000       0.00000000 </v>
   <v>       0.30769231      -0.00000000       0.00000000 </v>
   <v>       0.38461538       0.00000000       0.00000000 </v>
   <v>       0.46153846       0.00000000       0.00000000 </v>
   <v>       0.00000000       0.07692308       0.00000000 </v>
   <v>       0.07692308       0.07692308       0.00000000 </v>
   <v>       0.15384615       0.07692308       0.00000000 </v>
   <v>       0.23076923       0.07692308       0.00000000 </v>
   <v>       0.30769231       0.07692308       0.00000000 </v>
   <v>       0.38461538       0.07692308       0.00000000 </v>
   <v>       0.46153846       0.07692308       0.00000000 </v>
   <v>      -0.46153846       0.07692308       0.00000000 </v>
   <v>      -0.38461538       0.07692308       0.00000000 </v>
   <v>      -0.30769231       0.07692308       0.00000000 </v>
   <v>      -0.23076923       0.07692308       0.00000000 </v>
   <v>      -0.15384615       0.07692308       0.00000000 </v>
   <v>      -0.07692308       0.07692308       0.00000000 </v>
   <v>       0.00000000       0.15384615       0.00000000 </v>
   <v>       0.07692308       0.15384615       0.00000000 </v>
   <v>       0.15384615       0.15384615       0.00000000 </v>
   <v>       0.23076923       0.15384615       0.00000000 </v>
   <v>       0.30769231       0.15384615       0.00000000 </v>
   <v>       0.38461538       0.15384615       0.00000000 </v>
   <v>       0.46153846       0.15384615       0.00000000 </v>
   <v>      -0.46153846       0.15384615       0.00000000 </v>
   <v>      -0.38461538       0.15384615       0.00000000 </v>
   <v>      -0.30769231       0.15384615       0.00000000 </v>
   <v>      -0.23076923       0.15384615       0.00000000 </v>
   <v>      -0.15384615       0.15384615       0.00000000 </v>
   <v>      -0.07692308       0.15384615       0.00000000 </v>
   <v>       0.00000000       0.23076923       0.00000000 </v>
   <v>       0.07692308       0.23076923       0.00000000 </v>
   <v>       0.15384615       0.23076923       0.00000000 </v>
   <v>       0.23076923       0.23076923       0.00000000 </v>
   <v>       0.30769231       0.23076923       0.00000000 </v>
   <v>       0.38461538       0.23076923       0.00000000 </v>
   <v>       0.46153846       0.23076923       0.00000000 </v>
   <v>      -0.46153846       0.23076923       0.00000000 </v>
   <v>      -0.38461538       0.23076923       0.00000000 </v>
   <v>      -0.30769231       0.23076923       0.00000000 </v>
   <v>      -0.23076923       0.23076923       0.00000000 </v>
   <v>      -0.15384615       0.23076923       0.00000000 </v>
   <v>      -0.07692308       0.23076923       0.00000000 </v>
   <v>       0.00000000       0.30769231       0.00000000 </v>
   <v>       0.07692308       0.30769231       0.00000000 </v>
   <v>       0.15384615       0.30769231       0.00000000 </v>
   <v>       0.23076923       0.30769231       0.00000000 </v>
   <v>       0.30769231       0.30769231       0.00000000 </v>
   <v>       0.38461538       0.30769231       0.00000000 </v>
   <v>       0.46153846       0.30769231       0.00000000 </v>
   <v>      -0.46153846       0.30769231       0.00000000 </v>
   <v>      -0.38461538       0.30769231       0.00000000 </v>
   <v>      -0.30769231       0.30769231       0.00000000 </v>
   <v>      -0.23076923       0.30769231       0.00000000 </v>
   <v>      -0.15384615       0.30769231       0.00000000 </v>
   <v>      -0.07692308       0.30769231       0.00000000 </v>
   <v>       0.00000000       0.38461538       0.00000000 </v>
   <v>       0.07692308       0.38461538       0.00000000 </v>
   <v>       0.15384615       0.38461538       0.00000000 </v>
   <v>       0.23076923       0.38461538       0.00000000 </v>
   <v>       0.30769231       0.38461538       0.00000000 </v>
   <v>       0.38461538       0.38461538       0.00000000 </v>
   <v>       0.46153846       0.38461538       0.00000000 </v>
   <v>      -0.46153846       0.38461538       0.00000000 </v>
   <v>      -0.38461538       0.38461538       0.00000000 </v>
   <v>      -0.30769231       0.38461538       0.00000000 </v>
   <v>      -0.23076923       0.38461538       0.00000000 </v>
   <v>      -0.15384615       0.38461538       0.00000000 </v>
   <v>      -0.07692308       0.38461538       0.00000000 </v>
   <v>       0.00000000       0.46153846       0.00000000 </v>
   <v>       0.07692308       0.46153846       0.00000000 </v>
   <v>       0.15384615       0.46153846       0.00000000 </v>
   <v>       0.23076923       0.46153846       0.00000000 </v>
   <v>       0.30769231       0.46153846       0.00000000 </v>
   <v>       0.38461538       0.46153846       0.00000000 </v>
   <v>       0.46153846       0.46153846       0.00000000 </v>
   <v>      -0.46153846       0.46153846       0.00000000 </v>
   <v>      -0.38461538       0.46153846       0.00000000 </v>
   <v>      -0.30769231       0.46153846       0.00000000 </v>
   <v>      -0.23076923       0.46153846       0.00000000 </v>
   <v>      -0.15384615       0.46153846       0.00000000 </v>
   <v>      -0.07692308       0.46153846       0.00000000 </v>
  </varray>
  <varray name="weights" >
   <v>       0.00591716 </v>
   <v>       0.01183432 </v>
   <v>       0.01183432 </v>
   <v>       0.01183432 </v>
   <v>       0.01183432 </v>
   <v>       0.01183432 </v>
   <v>       0.01183432 </v>
   <v>       0.01183432 </v>
   <v>       0.01183432 </v>
   <v>       0.01183432 </v>
   <v>       0.01183432 </v>
   <v>       0.01183432 </v>
   <v>       0.01183432 </v>
   <v>       0.01183432 </v>
   <v>       0.01183432 </v>
   <v>       0.01183432 </v>
   <v>       0.01183432 </v>
   <v>       0.01183432 </v>
   <v>       0.01183432 </v>
   <v>       0.01183432 </v>
   <v>       0.01183432 </v>
   <v>       0.01183432 </v>
   <v>       0.01183432 </v>
   <v>       0.01183432 </v>
   <v>       0.01183432 </v>
   <v>       0.01183432 </v>
   <v>       0.01183432 </v>
   <v>       0.01183432 </v>
   <v>       0.01183432 </v>
   <v>       0.01183432 </v>
   <v>       0.01183432 </v>
   <v>       0.01183432 </v>
   <v>       0.01183432 </v>
   <v>       0.01183432 </v>
   <v>       0.01183432 </v>
   <v>       0.01183432 </v>
   <v>       0.01183432 </v>
   <v>       0.01183432 </v>
   <v>       0.01183432 </v>
   <v>       0.01183432 </v>
   <v>       0.01183432 </v>
   <v>       0.01183432 </v>
   <v>       0.01183432 </v>
   <v>       0.01183432 </v>
   <v>       0.01183432 </v>
   <v>       0.01183432 </v>
   <v>       0.01183432 </v>
   <v>       0.01183432 </v>
   <v>       0.01183432 </v>
   <v>       0.01183432 </v>
   <v>       0.01183432 </v>
   <v>       0.01183432 </v>
   <v>       0.01183432 </v>
   <v>       0.01183432 </v>
   <v>       0.01183432 </v>
   <v>       0.01183432 </v>
   <v>       0.01183432 </v>
   <v>       0.01183432 </v>
   <v>       0.01183432 </v>
   <v>       0.01183432 </v>
   <v>       0.01183432 </v>
   <v>       0.01183432 </v>
   <v>       0.01183432 </v>
   <v>       0.01183432 </v>
   <v>       0.01183432 </v>
   <v>       0.01183432 </v>
   <v>       0.01183432 </v>
   <v>       0.01183432 </v>
   <v>       0.01183432 </v>
   <v>       0.01183432 </v>
   <v>       0.01183432 </v>
   <v>       0.01183432 </v>
   <v>       0.01183432 </v>
   <v>       0.01183432 </v>
   <v>       0.01183432 </v>
   <v>       0.01183432 </v>
   <v>       0.01183432 </v>
   <v>       0.01183432 </v>
   <v>       0.01183432 </v>
   <v>       0.01183432 </v>
   <v>       0.01183432 </v>
   <v>       0.01183432 </v>
   <v>       0.01183432 </v>
   <v>       0.01183432 </v>
   <v>       0.01183432 </v>
  </varray>
 </kpoints>
 <parameters>
  <separator name="general" >
   <i type="string" name="SYSTEM">unknown system</i>
   <i type="logical" name="LCOMPAT"> F  </i>
  </separator>
  <separator name="electronic" >
   <i type="string" name="PREC">accura</i>
   <i name="ENMAX">    500.00000000</i>
   <i name="ENAUG">    392.42700000</i>
   <i name="EDIFF">      0.00010000</i>
   <i type="int" name="IALGO">    68</i>
   <i type="int" name="IWAVPR">    10</i>
   <i type="int" name="NBANDS">    36</i>
   <i name="NELECT">     48.00000000</i>
   <i type="int" name="TURBO">     0</i>
   <i type="int" name="IRESTART">     0</i>
   <i type="int" name="NREBOOT">     0</i>
   <i type="int" name="NMIN">     0</i>
   <i name="EREF">      0.00000000</i>
   <separator name="electronic smearing" >
    <i type="int" name="ISMEAR">     1</i>
    <i name="SIGMA">      0.10000000</i>
    <i name="KSPACING">      0.50000000</i>
    <i type="logical" name="KGAMMA"> T  </i>
   </separator>
   <separator name="electronic projectors" >
    <i type="logical" name="LREAL"> T  </i>
    <v name="ROPT">     -0.00025000     -0.00025000     -0.00025000     -0.00025000</v>
    <i type="int" name="LMAXPAW">  -100</i>
    <i type="int" name="LMAXMIX">     2</i>
    <i type="logical" name="NLSPLINE"> F  </i>
   </separator>
   <separator name="electronic startup" >
    <i type="int" name="ISTART">     0</i>
    <i type="int" name="ICHARG">     2</i>
    <i type="int" name="INIWAV">     1</i>
   </separator>
   <separator name="electronic spin" >
    <i type="int" name="ISPIN">     2</i>
    <i type="logical" name="LNONCOLLINEAR"> F  </i>
    <v name="MAGMOM">      6.00000000      0.50000000      0.50000000      6.00000000      0.50000000      0.50000000</v>
    <i name="NUPDOWN">     -1.00000000</i>
    <i type="logical" name="LSORBIT"> F  </i>
    <v name="SAXIS">      0.00000000      0.00000000      1.00000000</v>
    <i type="logical" name="LSPIRAL"> F  </i>
    <v name="QSPIRAL">      0.00000000      0.00000000      0.00000000</v>
    <i type="logical" name="LZEROZ"> F  </i>
   </separator>
   <separator name="electronic exchange-correlation" >
    <i type="logical" name="LASPH"> F  </i>
    <i type="logical" name="LMETAGGA"> F  </i>
   </separator>
   <separator name="electronic convergence" >
    <i type="int" name="NELM">    60</i>
    <i type="int" name="NELMDL">     0</i>
    <i type="int" name="NELMIN">     2</i>
    <i name="ENINI">    500.00000000</i>
    <separator name="electronic convergence detail" >
     <i type="logical" name="LDIAG"> T  </i>
     <i type="logical" name="LSUBROT"> F  </i>
     <i name="WEIMIN">      0.00000000</i>
     <i name="EBREAK">      0.00000069</i>
     <i name="DEPER">      0.30000000</i>
     <i type="int" name="NRMM">     4</i>
     <i name="TIME">      0.40000000</i>
    </separator>
   </separator>
   <separator name="electronic mixer" >
    <i name="AMIX">      0.40000000</i>
    <i name="BMIX">      1.00000000</i>
    <i name="AMIN">      0.10000000</i>
    <i name="AMIX_MAG">      1.60000000</i>
    <i name="BMIX_MAG">      1.00000000</i>
    <separator name="electronic mixer details" >
     <i type="int" name="IMIX">     4</i>
     <i type="logical" name="MIXFIRST"> F  </i>
     <i type="int" name="MAXMIX">   -45</i>
     <i name="WC">    100.00000000</i>
     <i type="int" name="INIMIX">     1</i>
     <i type="int" name="MIXPRE">     1</i>
     <i type="int" name="MREMOVE">     5</i>
    </separator>
   </separator>
   <separator name="electronic dipolcorrection" >
    <i type="logical" name="LDIPOL"> F  </i>
    <i type="logical" name="LMONO"> F  </i>
    <i type="int" name="IDIPOL">     0</i>
    <i name="EPSILON">      1.00000000</i>
    <v name="DIPOL">   -100.00000000   -100.00000000   -100.00000000</v>
    <i name="EFIELD">      0.00000000</i>
   </separator>
  </separator>
  <separator name="grids" >
   <i type="int" name="NGX">    24</i>
   <i type="int" name="NGY">    24</i>
   <i type="int" name="NGZ">   180</i>
   <i type="int" name="NGXF">    48</i>
   <i type="int" name="NGYF">    48</i>
   <i type="int" name="NGZF">   360</i>
   <i type="logical" name="ADDGRID"> F  </i>
  </separator>
  <separator name="ionic" >
   <i type="int" name="NSW">     0</i>
   <i type="int" name="IBRION">    -1</i>
   <i type="int" name="ISIF">     3</i>
   <i name="PSTRESS">      0.00000000</i>
   <i name="EDIFFG">      0.00100000</i>
   <i type="int" name="NFREE">     1</i>
   <i name="POTIM">      0.50000000</i>
   <i name="SMASS">     -3.00000000</i>
   <i name="SCALEE">      1.00000000</i>
  </separator>
  <separator name="ionic md" >
   <i name="TEBEG">      0.00010000</i>
   <i name="TEEND">      0.00010000</i>
   <i type="int" name="NBLOCK">     1</i>
   <i type="int" name="KBLOCK">     1</i>
   <i type="int" name="NPACO">   256</i>
   <i name="APACO">     16.00000000</i>
  </separator>
  <separator name="symmetry" >
   <i type="int" name="ISYM">     2</i>
   <i name="SYMPREC">      0.00001000</i>
  </separator>
  <separator name="dos" >
   <i type="logical" name="LORBIT"> F  </i>
   <v name="RWIGS">     -1.00000000     -1.00000000     -1.00000000     -1.00000000</v>
   <i type="int" name="NEDOS">   301</i>
   <i name="EMIN">     10.00000000</i>
   <i name="EMAX">    -10.00000000</i>
   <i name="EFERMI">      0.00000000</i>
  </separator>
  <separator name="writing" >
   <i type="int" name="NWRITE">     2</i>
   <i type="logical" name="LWAVE"> F  </i>
   <i type="logical" name="LCHARG"> F  </i>
   <i type="logical" name="LPARD"> F  </i>
   <i type="logical" name="LVTOT"> F  </i>
   <i type="logical" name="LVHAR"> T  </i>
   <i type="logical" name="LELF"> F  </i>
   <i type="logical" name="LOPTICS"> F  </i>
   <v name="STM">      0.00000000      0.00000000      0.00000000      0.00000000      0.00000000      0.00000000      0.00000000</v>
  </separator>
  <separator name="performance" >
   <i type="int" name="NPAR">     4</i>
   <i type="int" name="NSIM">     4</i>
   <i type="int" name="NBLK">    -1</i>
   <i type="logical" name="LPLANE"> T  </i>
   <i type="logical" name="LSCALAPACK"> T  </i>
   <i type="logical" name="LSCAAWARE"> F  </i>
   <i type="logical" name="LSCALU"> F  </i>
   <i type="logical" name="LASYNC"> F  </i>
   <i type="logical" name="LORBITALREAL"> F  </i>
  </separator>
  <separator name="miscellaneous" >
   <i type="int" name="IDIOT">     3</i>
   <i type="logical" name="LMUSIC"> F  </i>
   <v name="POMASS">     95.94000000     32.06600000     95.94000000     32.06600000</v>
   <v name="DARWINR">      0.00000000      0.00000000      0.00000000      0.00000000</v>
   <v name="DARWINV">      1.00000000      1.00000000      1.00000000      1.00000000</v>
   <i type="logical" name="LCORR"> T  </i>
  </separator>
  <i type="logical" name="GGA_COMPAT"> T  </i>
  <i type="logical" name="LBERRY"> F  </i>
  <i type="int" name="ICORELEVEL">     0</i>
  <i type="logical" name="LDAU"> F  </i>
  <i type="int" name="I_CONSTRAINED_M">     0</i>
  <separator name="electronic exchange-correlation" >
   <i type="string" name="GGA">BO</i>
   <i type="int" name="VOSKOWN">     0</i>
   <i type="logical" name="LHFCALC"> F  </i>
   <i type="string" name="PRECFOCK"></i>
   <i type="logical" name="LSYMGRAD"> F  </i>
   <i type="logical" name="LHFONE"> F  </i>
   <i type="logical" name="LRHFCALC"> F  </i>
   <i type="logical" name="LTHOMAS"> F  </i>
   <i type="logical" name="LMODELHF"> F  </i>
   <i name="ENCUT4O">     -1.00000000</i>
   <i type="int" name="EXXOEP">     0</i>
   <i type="int" name="FOURORBIT">     0</i>
   <i name="AEXX">      0.00000000</i>
   <i name="HFALPHA">      0.00000000</i>
   <i name="MCALPHA">      0.00000000</i>
   <i name="ALDAX">      1.00000000</i>
   <i name="AGGAX">      1.00000000</i>
   <i name="ALDAC">      1.00000000</i>
   <i name="AGGAC">      0.00000000</i>
   <i type="int" name="NKREDX">     1</i>
   <i type="int" name="NKREDY">     1</i>
   <i type="int" name="NKREDZ">     1</i>
   <i type="logical" name="SHIFTRED"> F  </i>
   <i type="logical" name="ODDONLY"> F  </i>
   <i type="logical" name="EVENONLY"> F  </i>
   <i type="int" name="LMAXFOCK">     0</i>
   <i type="int" name="NMAXFOCKAE">     0</i>
   <i type="logical" name="LFOCKAEDFT"> F  </i>
   <i name="HFSCREEN">      0.00000000</i>
   <i name="HFSCREENC">      0.00000000</i>
   <i type="int" name="NBANDSGWLOW">     0</i>
  </separator>
  <separator name="vdW DFT" >
   <i type="logical" name="LUSE_VDW"> T  </i>
   <i name="Zab_VDW">     -0.84910000</i>
   <i name="PARAM1">      0.18333333</i>
   <i name="PARAM2">      0.22000000</i>
   <i name="PARAM3">      0.00000000</i>
  </separator>
  <separator name="model GW" >
   <i type="int" name="MODEL_GW">     0</i>
   <i name="MODEL_EPS0">     20.39722663</i>
   <i name="MODEL_ALPHA">      1.00000000</i>
  </separator>
  <separator name="linear response parameters" >
   <i type="logical" name="LEPSILON"> F  </i>
   <i type="logical" name="LRPA"> F  </i>
   <i type="logical" name="LNABLA"> F  </i>
   <i type="logical" name="LVEL"> F  </i>
   <i type="int" name="KINTER">     0</i>
   <i name="CSHIFT">      0.10000000</i>
   <i name="OMEGAMAX">     -1.00000000</i>
   <i name="DEG_THRESHOLD">      0.00200000</i>
  </separator>
  <separator name="orbital magnetization" >
   <i type="logical" name="NUCIND"> F  </i>
   <v name="MAGPOS">      0.00000000      0.00000000      0.00000000</v>
   <i type="logical" name="LNICSALL"> T  </i>
   <i type="logical" name="ORBITALMAG"> F  </i>
   <i type="logical" name="LMAGBLOCH"> F  </i>
   <i type="logical" name="LCHIMAG"> F  </i>
   <i type="logical" name="LGAUGE"> T  </i>
   <i type="int" name="MAGATOM">     0</i>
   <v name="MAGDIPOL">      0.00000000      0.00000000      0.00000000</v>
   <v name="AVECCONST">      0.00000000      0.00000000      0.00000000</v>
  </separator>
  <separator name="response functions" >
   <i type="logical" name="LADDER"> F  </i>
   <i type="logical" name="LFXC"> F  </i>
   <i type="logical" name="LHARTREE"> T  </i>
   <i type="int" name="IBSE">     0</i>
   <v type="int" name="KPOINT">    -1     0     0     0</v>
   <i type="logical" name="LTCTE"> F  </i>
   <i type="logical" name="LTETE"> F  </i>
   <i type="logical" name="LTRIPLET"> F  </i>
   <i type="logical" name="LFXCEPS"> F  </i>
   <i type="logical" name="LFXHEG"> F  </i>
   <i type="int" name="NATURALO">     0</i>
   <i type="logical" name="L2ORDER"> F  </i>
   <i type="logical" name="LUSEW"> F  </i>
   <i name="ENCUTGW">     -2.00000000</i>
   <i name="ENCUTGWSOFT">     -2.00000000</i>
   <i name="ENCUTLF">     -1.00000000</i>
   <i type="int" name="LMAXMP2">    -1</i>
   <i name="SCISSOR">      0.00000000</i>
   <i type="int" name="NOMEGA">     0</i>
   <i type="int" name="NOMEGAR">     0</i>
   <i type="int" name="NBANDSGW">    -1</i>
   <i type="int" name="NBANDSO">    -1</i>
   <i type="int" name="NBANDSV">    -1</i>
   <i type="int" name="NELM">     1</i>
   <i type="int" name="NELMHF">     1</i>
   <i type="int" name="DIM">     3</i>
   <i type="int" name="ANTIRES">     0</i>
   <i name="OMEGAMAX">    -30.00000000</i>
   <i name="OMEGAMIN">    -30.00000000</i>
   <i name="OMEGATL">   -200.00000000</i>
   <i type="int" name="OMEGAGRID">     0</i>
   <i name="CSHIFT">     -0.10000000</i>
   <i type="logical" name="SELFENERGY"> F  </i>
   <i type="logical" name="LSPECTRAL"> F  </i>
   <i type="logical" name="LSPECTRALGW"> F  </i>
   <i type="logical" name="LSINGLES"> F  </i>
   <i type="logical" name="LFERMIGW"> F  </i>
   <i type="logical" name="ODDONLYGW"> F  </i>
   <i type="logical" name="EVENONLYGW"> F  </i>
   <i type="int" name="NKREDLFX">     1</i>
   <i type="int" name="NKREDLFY">     1</i>
   <i type="int" name="NKREDLFZ">     1</i>
   <i type="int" name="MAXMEM">  1800</i>
   <i type="int" name="TELESCOPE">     0</i>
   <i type="int" name="TAUPAR">     1</i>
   <i type="int" name="OMEGAPAR">    -1</i>
   <i name="LAMBDA">      1.00000000</i>
  </separator>
  <separator name="External order field" >
   <i name="OFIELD_KAPPA">      0.00000000</i>
   <v name="OFIELD_K">      0.00000000      0.00000000      0.00000000</v>
   <i name="OFIELD_Q6_NEAR">      0.00000000</i>
   <i name="OFIELD_Q6_FAR">      0.00000000</i>
   <i name="OFIELD_A">      0.00000000</i>
  </separator>
 </parameters>
 <atominfo>
  <atoms>       6 </atoms>
  <types>       4 </types>
  <array name="atoms" >
   <dimension dim="1">ion</dimension>
   <field type="string">element</field>
   <field type="int">atomtype</field>
   <set>
    <rc><c>Mo</c><c>   1</c></rc>
    <rc><c>S </c><c>   2</c></rc>
    <rc><c>S </c><c>   2</c></rc>
    <rc><c>Mo</c><c>   3</c></rc>
    <rc><c>S </c><c>   4</c></rc>
    <rc><c>S </c><c>   4</c></rc>
   </set>
  </array>
  <array name="atomtypes" >
   <dimension dim="1">type</dimension>
   <field type="int">atomspertype</field>
   <field type="string">element</field>
   <field>mass</field>
   <field>valence</field>
   <field type="string">pseudopotential</field>
   <set>
    <rc><c>   1</c><c>Mo</c><c>     95.94000000</c><c>     12.00000000</c><c> PAW_PBE Mo_pv 08Apr2002                </c></rc>
    <rc><c>   2</c><c>S </c><c>     32.06600000</c><c>      6.00000000</c><c>  PAW_PBE S 17Jan2003                   </c></rc>
    <rc><c>   1</c><c>Mo</c><c>     95.94000000</c><c>     12.00000000</c><c> PAW_PBE Mo_pv 08Apr2002                </c></rc>
    <rc><c>   2</c><c>S </c><c>     32.06600000</c><c>      6.00000000</c><c>  PAW_PBE S 17Jan2003                   </c></rc>
   </set>
  </array>
 </atominfo>
 <structure name="initialpos" >
  <crystal>
   <varray name="basis" >
    <v>       3.19031700       0.00000000       0.00000000 </v>
    <v>      -1.59515800       2.76289700       0.00000000 </v>
    <v>       0.00000000       0.00000000      23.14049200 </v>
   </varray>
   <i name="volume">    203.97226633 </i>
   <varray name="rec_basis" >
    <v>       0.31344848       0.18096941       0.00000000 </v>
    <v>       0.00000000       0.36193894       0.00000000 </v>
    <v>       0.00000000       0.00000000       0.04321429 </v>
   </varray>
  </crystal>
  <varray name="positions" >
   <v>       0.66666700       0.33333300       0.06785900 </v>
   <v>       0.33333300       0.66666700       0.00000000 </v>
   <v>       0.33333300       0.66666700       0.13571500 </v>
   <v>       0.38095271       0.33333300       0.35482300 </v>
   <v>       0.04761871       0.66666700       0.28696500 </v>
   <v>       0.04761871       0.66666700       0.42267900 </v>
  </varray>
 </structure>
 <calculation>
  <scstep>
   <time name="dav">   56.81   56.86</time>
   <time name="total">   67.03   67.10</time>
   <energy>
    <i name="alphaZ">    104.15310261 </i>
    <i name="ewald">   7699.15925170 </i>
    <i name="hartreedc"> -11109.20445279 </i>
    <i name="XCdc">    128.46668655 </i>
    <i name="pawpsdc">   2252.92270536 </i>
    <i name="pawaedc">  -2205.68654582 </i>
    <i name="eentropy">      0.00065756 </i>
    <i name="bandstr">   -159.01036355 </i>
    <i name="atom">   3688.31848598 </i>
    <i name="e_fr_energy">    399.11952759 </i>
    <i name="e_wo_entrp">    399.11887003 </i>
    <i name="e_0_energy">    399.11930840 </i>
   </energy>
  </scstep>
  <scstep>
   <time name="dav">   61.57   61.62</time>
   <time name="total">   61.58   61.62</time>
   <energy>
    <i name="e_fr_energy">     -1.56274226 </i>
    <i name="e_wo_entrp">     -1.56195631 </i>
    <i name="e_0_energy">     -1.56248027 </i>
   </energy>
  </scstep>
  <scstep>
   <time name="dav">   62.32   62.37</time>
   <time name="total">   62.33   62.38</time>
   <energy>
    <i name="e_fr_energy">    -32.95087099 </i>
    <i name="e_wo_entrp">    -32.95135258 </i>
    <i name="e_0_energy">    -32.95103152 </i>
   </energy>
  </scstep>
  <scstep>
   <time name="dav">   57.67   57.71</time>
   <time name="total">   57.68   57.72</time>
   <energy>
    <i name="e_fr_energy">    -33.83794198 </i>
    <i name="e_wo_entrp">    -33.83889129 </i>
    <i name="e_0_energy">    -33.83825842 </i>
   </energy>
  </scstep>
  <scstep>
   <time name="dav">   61.87   61.91</time>
   <time name="total">   67.15   67.20</time>
   <energy>
    <i name="e_fr_energy">    -33.86537216 </i>
    <i name="e_wo_entrp">    -33.86634800 </i>
    <i name="e_0_energy">    -33.86569744 </i>
   </energy>
  </scstep>
  <scstep>
   <time name="diag">   11.48   11.49</time>
   <time name="diis">   41.49   41.52</time>
   <time name="orth">    0.39    0.39</time>
   <time name="total">   68.26   68.31</time>
   <energy>
    <i name="e_fr_energy">    -30.13493678 </i>
    <i name="e_wo_entrp">    -30.13469602 </i>
    <i name="e_0_energy">    -30.13485653 </i>
   </energy>
  </scstep>
  <scstep>
   <time name="diag">   11.50   11.51</time>
   <time name="diis">   41.66   41.69</time>
   <time name="orth">    0.39    0.39</time>
   <time name="total">   68.64   68.69</time>
   <energy>
    <i name="e_fr_energy">    -33.02347447 </i>
    <i name="e_wo_entrp">    -33.02407588 </i>
    <i name="e_0_energy">    -33.02367494 </i>
   </energy>
  </scstep>
  <scstep>
   <time name="diag">   11.53   11.54</time>
   <time name="diis">   43.58   43.61</time>
   <time name="orth">    0.39    0.39</time>
   <time name="total">   70.36   70.42</time>
   <energy>
    <i name="e_fr_energy">    -34.39192318 </i>
    <i name="e_wo_entrp">    -34.39208774 </i>
    <i name="e_0_energy">    -34.39197804 </i>
   </energy>
  </scstep>
  <scstep>
   <time name="diag">   11.53   11.53</time>
   <time name="diis">   41.48   41.51</time>
   <time name="orth">    0.39    0.39</time>
   <time name="total">   68.31   68.36</time>
   <energy>
    <i name="e_fr_energy">    -36.98888323 </i>
    <i name="e_wo_entrp">    -36.98904986 </i>
    <i name="e_0_energy">    -36.98893877 </i>
   </energy>
  </scstep>
  <scstep>
   <time name="diag">   11.54   11.55</time>
   <time name="diis">   38.25   38.28</time>
   <time name="orth">    0.39    0.39</time>
   <time name="total">   65.08   65.13</time>
   <energy>
    <i name="e_fr_energy">    -39.10664245 </i>
    <i name="e_wo_entrp">    -39.10680871 </i>
    <i name="e_0_energy">    -39.10669787 </i>
   </energy>
  </scstep>
  <scstep>
   <time name="diag">   11.55   11.56</time>
   <time name="diis">   38.99   39.02</time>
   <time name="orth">    0.39    0.39</time>
   <time name="total">   65.69   65.74</time>
   <energy>
    <i name="e_fr_energy">    -39.39580660 </i>
    <i name="e_wo_entrp">    -39.39613541 </i>
    <i name="e_0_energy">    -39.39591620 </i>
   </energy>
  </scstep>
  <scstep>
   <time name="diag">   11.51   11.52</time>
   <time name="diis">   37.66   37.68</time>
   <time name="orth">    0.39    0.39</time>
   <time name="total">   64.31   64.45</time>
   <energy>
    <i name="e_fr_energy">    -39.39350393 </i>
    <i name="e_wo_entrp">    -39.39383505 </i>
    <i name="e_0_energy">    -39.39361431 </i>
   </energy>
  </scstep>
  <scstep>
   <time name="diag">   11.47   11.48</time>
   <time name="diis">   44.59   44.62</time>
   <time name="orth">    0.39    0.39</time>
   <time name="total">   71.33   71.39</time>
   <energy>
    <i name="e_fr_energy">    -39.40549457 </i>
    <i name="e_wo_entrp">    -39.40582578 </i>
    <i name="e_0_energy">    -39.40560497 </i>
   </energy>
  </scstep>
  <scstep>
   <time name="diag">   11.42   11.42</time>
   <time name="diis">   42.01   42.04</time>
   <time name="orth">    0.39    0.39</time>
   <time name="total">   68.61   68.66</time>
   <energy>
    <i name="e_fr_energy">    -39.40924630 </i>
    <i name="e_wo_entrp">    -39.40957831 </i>
    <i name="e_0_energy">    -39.40935697 </i>
   </energy>
  </scstep>
  <scstep>
   <time name="diag">   11.35   11.36</time>
   <time name="diis">   38.86   38.89</time>
   <time name="orth">    0.39    0.39</time>
   <time name="total">   60.26   60.31</time>
   <energy>
    <i name="alphaZ">    104.15310261 </i>
    <i name="ewald">   7699.15925170 </i>
    <i name="hartreedc"> -11093.80540119 </i>
    <i name="XCdc">    122.67521343 </i>
    <i name="pawpsdc">   2398.38477120 </i>
    <i name="pawaedc">  -2360.54681751 </i>
    <i name="eentropy">      0.00033199 </i>
    <i name="bandstr">   -597.74811265 </i>
    <i name="atom">   3688.31848598 </i>
    <i name="e_fr_energy">    -39.40917445 </i>
    <i name="e_wo_entrp">    -39.40950644 </i>
    <i name="e_0_energy">    -39.40928511 </i>
   </energy>
  </scstep>
  <structure>
   <crystal>
    <varray name="basis" >
     <v>       3.19031700       0.00000000       0.00000000 </v>
     <v>      -1.59515800       2.76289700       0.00000000 </v>
     <v>       0.00000000       0.00000000      23.14049200 </v>
    </varray>
    <i name="volume">    203.97226633 </i>
    <varray name="rec_basis" >
     <v>       0.31344848       0.18096941       0.00000000 </v>
     <v>       0.00000000       0.36193894       0.00000000 </v>
     <v>       0.00000000       0.00000000       0.04321429 </v>
    </varray>
   </crystal>
   <varray name="positions" >
    <v>       0.66666700       0.33333300       0.06785900 </v>
    <v>       0.33333300       0.66666700       0.00000000 </v>
    <v>       0.33333300       0.66666700       0.13571500 </v>
    <v>       0.38095271       0.33333300       0.35482300 </v>
    <v>       0.04761871       0.66666700       0.28696500 </v>
    <v>       0.04761871       0.66666700       0.42267900 </v>
   </varray>
  </structure>
  <varray name="forces" >
   <v>       0.00649038       0.00060807      -0.00791108 </v>
   <v>       0.00028707      -0.00086750      -0.05941614 </v>
   <v>       0.03595630      -0.00016597       0.08150872 </v>
   <v>      -0.00761053       0.00037877       0.00936275 </v>
   <v>      -0.03077301       0.00048880      -0.08516216 </v>
   <v>      -0.00435022      -0.00044216       0.06161792 </v>
  </varray>
  <varray name="stress" >
   <v>       3.91554698       0.00154522      -1.25593321 </v>
   <v>       0.00154534       3.48412686       0.00227077 </v>
   <v>      -1.25593323       0.00227081       1.53895440 </v>
  </varray>
  <energy>
   <i name="e_fr_energy">    -39.40917445 </i>
   <i name="e_wo_entrp">    -39.40928511 </i>
   <i name="e_0_energy">      0.00033199 </i>
  </energy>
  <time name="totalsc"> 1088.05 1089.40</time>
  <eigenvalues>
   <array>
    <dimension dim="1">band</dimension>
    <dimension dim="2">kpoint</dimension>
    <dimension dim="3">spin</dimension>
    <field>eigene</field>
    <field>occ</field>
    <set>
     <set comment="spin 1">
      <set comment="kpoint 1">
       <r>  -34.9749    1.0000 </r>
       <r>  -34.9725    1.0000 </r>
       <r>  -34.7835    1.0000 </r>
       <r>  -34.7833    1.0000 </r>
       <r>  -34.7810    1.0000 </r>
       <r>  -34.7809    1.0000 </r>
       <r>  -13.9549    1.0000 </r>
       <r>  -13.8976    1.0000 </r>
       <r>  -12.6895    1.0000 </r>
       <r>  -12.5937    1.0000 </r>
       <r>   -5.6721    1.0000 </r>
       <r>   -5.3760    1.0000 </r>
       <r>   -2.6018    1.0000 </r>
       <r>   -2.6010    1.0000 </r>
       <r>   -2.5991    1.0000 </r>
       <r>   -2.5983    1.0000 </r>
       <r>   -2.1671    1.0000 </r>
       <r>   -1.5094    1.0000 </r>
       <r>   -1.5076    1.0000 </r>
       <r>   -1.5058    1.0000 </r>
       <r>   -1.5031    1.0000 </r>
       <r>   -1.4465    1.0000 </r>
       <r>   -0.2082    1.0000 </r>
       <r>    0.2439    0.7989 </r>
       <r>    2.7128   -0.0000 </r>
       <r>    2.7206   -0.0000 </r>
       <r>    2.7294   -0.0000 </r>
       <r>    2.7357   -0.0000 </r>
       <r>    2.8939   -0.0000 </r>
       <r>    2.9022   -0.0000 </r>
       <r>    2.9136   -0.0000 </r>
       <r>    2.9233   -0.0000 </r>
       <r>    5.3188    0.0000 </r>
       <r>    5.7147    0.0000 </r>
       <r>    6.2513    0.0000 </r>
       <r>    6.5917    0.0000 </r>
      </set>
      <set comment="kpoint 2">
       <r>  -34.9708    1.0000 </r>
       <r>  -34.9684    1.0000 </r>
       <r>  -34.8048    1.0000 </r>
       <r>  -34.8022    1.0000 </r>
       <r>  -34.7882    1.0000 </r>
       <r>  -34.7858    1.0000 </r>
       <r>  -13.8682    1.0000 </r>
       <r>  -13.8110    1.0000 </r>
       <r>  -12.6528    1.0000 </r>
       <r>  -12.5594    1.0000 </r>
       <r>   -5.5729    1.0000 </r>
       <r>   -5.2772    1.0000 </r>
       <r>   -2.7896    1.0000 </r>
       <r>   -2.7844    1.0000 </r>
       <r>   -2.5108    1.0000 </r>
       <r>   -2.5079    1.0000 </r>
       <r>   -2.4488    1.0000 </r>
       <r>   -2.0499    1.0000 </r>
       <r>   -1.6462    1.0000 </r>
       <r>   -1.6412    1.0000 </r>
       <r>   -1.3456    1.0000 </r>
       <r>   -1.0455    1.0000 </r>
       <r>   -0.2291    1.0000 </r>
       <r>    0.1686    1.0341 </r>
       <r>    2.6004   -0.0000 </r>
       <r>    2.6266   -0.0000 </r>
       <r>    2.6593   -0.0000 </r>
       <r>    2.7315   -0.0000 </r>
       <r>    2.8012   -0.0000 </r>
       <r>    2.8246   -0.0000 </r>
       <r>    2.8666   -0.0000 </r>
       <r>    2.8816   -0.0000 </r>
       <r>    5.4476    0.0000 </r>
       <r>    5.8601    0.0000 </r>
       <r>    6.5821    0.0000 </r>
       <r>    6.9642    0.0000 </r>
      </set>
      <set comment="kpoint 3">
       <r>  -34.9594    1.0000 </r>
       <r>  -34.9570    1.0000 </r>
       <r>  -34.8633    1.0000 </r>
       <r>  -34.8607    1.0000 </r>
       <r>  -34.8016    1.0000 </r>
       <r>  -34.7992    1.0000 </r>
       <r>  -13.6196    1.0000 </r>
       <r>  -13.5633    1.0000 </r>
       <r>  -12.5476    1.0000 </r>
       <r>  -12.4611    1.0000 </r>
       <r>   -5.3127    1.0000 </r>
       <r>   -5.0232    1.0000 </r>
       <r>   -3.2440    1.0000 </r>
       <r>   -3.2283    1.0000 </r>
       <r>   -2.9452    1.0000 </r>
       <r>   -2.6666    1.0000 </r>
       <r>   -2.2557    1.0000 </r>
       <r>   -2.2515    1.0000 </r>
       <r>   -1.9819    1.0000 </r>
       <r>   -1.9756    1.0000 </r>
       <r>   -1.2636    1.0000 </r>
       <r>   -0.9148    1.0000 </r>
       <r>   -0.3592    1.0000 </r>
       <r>   -0.1091    1.0000 </r>
       <r>    2.1910   -0.0000 </r>
       <r>    2.3818   -0.0000 </r>
       <r>    2.5109   -0.0000 </r>
       <r>    2.5714   -0.0000 </r>
       <r>    2.5981   -0.0000 </r>
       <r>    2.6427   -0.0000 </r>
       <r>    3.2106    0.0000 </r>
       <r>    3.2320    0.0000 </r>
       <r>    5.8021    0.0000 </r>
       <r>    6.2107    0.0000 </r>
       <r>    6.9814    0.0000 </r>
       <r>    7.8420    0.0000 </r>
      </set>
      <set comment="kpoint 4">
       <r>  -34.9448    1.0000 </r>
       <r>  -34.9432    1.0000 </r>
       <r>  -34.9425    1.0000 </r>
       <r>  -34.9406    1.0000 </r>
       <r>  -34.8204    1.0000 </r>
       <r>  -34.8181    1.0000 </r>
       <r>  -13.2443    1.0000 </r>
       <r>  -13.1900    1.0000 </r>
       <r>  -12.3897    1.0000 </r>
       <r>  -12.3139    1.0000 </r>
       <r>   -5.0480    1.0000 </r>
       <r>   -4.8071    1.0000 </r>
       <r>   -3.7141    1.0000 </r>
       <r>   -3.6526    1.0000 </r>
       <r>   -3.4727    1.0000 </r>
       <r>   -3.2860    1.0000 </r>
       <r>   -2.3775    1.0000 </r>
       <r>   -2.3700    1.0000 </r>
       <r>   -1.8874    1.0000 </r>
       <r>   -1.8806    1.0000 </r>
       <r>   -1.4375    1.0000 </r>
       <r>   -1.1033    1.0000 </r>
       <r>   -0.6772    1.0000 </r>
       <r>   -0.5588    1.0000 </r>
       <r>    1.9600   -0.0000 </r>
       <r>    2.2576   -0.0000 </r>
       <r>    2.3219   -0.0000 </r>
       <r>    2.3481   -0.0000 </r>
       <r>    2.7078   -0.0000 </r>
       <r>    2.9225   -0.0000 </r>
       <r>    3.5895    0.0000 </r>
       <r>    3.6202    0.0000 </r>
       <r>    6.3454    0.0000 </r>
       <r>    6.7031    0.0000 </r>
       <r>    7.3813    0.0000 </r>
       <r>    8.4346    0.0000 </r>
      </set>
      <set comment="kpoint 5">
       <r>  -35.0300    1.0000 </r>
       <r>  -35.0274    1.0000 </r>
       <r>  -34.9262    1.0000 </r>
       <r>  -34.9238    1.0000 </r>
       <r>  -34.8403    1.0000 </r>
       <r>  -34.8380    1.0000 </r>
       <r>  -12.8037    1.0000 </r>
       <r>  -12.7538    1.0000 </r>
       <r>  -12.2070    1.0000 </r>
       <r>  -12.1448    1.0000 </r>
       <r>   -5.0991    1.0000 </r>
       <r>   -4.9781    1.0000 </r>
       <r>   -4.0463    1.0000 </r>
       <r>   -3.9138    1.0000 </r>
       <r>   -3.8498    1.0000 </r>
       <r>   -3.7210    1.0000 </r>
       <r>   -2.7331    1.0000 </r>
       <r>   -2.7248    1.0000 </r>
       <r>   -1.7108    1.0000 </r>
       <r>   -1.4944    1.0000 </r>
       <r>   -1.4814    1.0000 </r>
       <r>   -1.4004    1.0000 </r>
       <r>   -0.9694    1.0000 </r>
       <r>   -0.8830    1.0000 </r>
       <r>    2.0531   -0.0000 </r>
       <r>    2.1543   -0.0000 </r>
       <r>    2.1768   -0.0000 </r>
       <r>    2.3388   -0.0000 </r>
       <r>    3.1162    0.0000 </r>
       <r>    3.3687    0.0000 </r>
       <r>    3.8890    0.0000 </r>
       <r>    3.9308    0.0000 </r>
       <r>    7.0317    0.0000 </r>
       <r>    7.2640    0.0000 </r>
       <r>    7.8296    0.0000 </r>
       <r>    8.0073    0.0000 </r>
      </set>
      <set comment="kpoint 6">
       <r>  -35.0997    1.0000 </r>
       <r>  -35.0971    1.0000 </r>
       <r>  -34.9120    1.0000 </r>
       <r>  -34.9096    1.0000 </r>
       <r>  -34.8568    1.0000 </r>
       <r>  -34.8544    1.0000 </r>
       <r>  -12.3919    1.0000 </r>
       <r>  -12.3491    1.0000 </r>
       <r>  -12.0404    1.0000 </r>
       <r>  -11.9926    1.0000 </r>
       <r>   -5.4125    1.0000 </r>
       <r>   -5.3519    1.0000 </r>
       <r>   -4.4597    1.0000 </r>
       <r>   -4.3695    1.0000 </r>
       <r>   -3.9443    1.0000 </r>
       <r>   -3.7968    1.0000 </r>
       <r>   -2.9932    1.0000 </r>
       <r>   -2.9844    1.0000 </r>
       <r>   -1.9204    1.0000 </r>
       <r>   -1.6337    1.0000 </r>
       <r>   -1.1782    1.0000 </r>
       <r>   -1.1603    1.0000 </r>
       <r>   -0.9295    1.0000 </r>
       <r>   -0.8161    1.0000 </r>
       <r>    2.1123   -0.0000 </r>
       <r>    2.1264   -0.0000 </r>
       <r>    2.3187   -0.0000 </r>
       <r>    2.5117   -0.0000 </r>
       <r>    3.5121    0.0000 </r>
       <r>    3.7494    0.0000 </r>
       <r>    4.0747    0.0000 </r>
       <r>    4.1264    0.0000 </r>
       <r>    6.8335    0.0000 </r>
       <r>    7.2016    0.0000 </r>
       <r>    7.6796    0.0000 </r>
       <r>    7.9253    0.0000 </r>
      </set>
      <set comment="kpoint 7">
       <r>  -35.1387    1.0000 </r>
       <r>  -35.1362    1.0000 </r>
       <r>  -34.9039    1.0000 </r>
       <r>  -34.9015    1.0000 </r>
       <r>  -34.8660    1.0000 </r>
       <r>  -34.8637    1.0000 </r>
       <r>  -12.1331    1.0000 </r>
       <r>  -12.0974    1.0000 </r>
       <r>  -11.9384    1.0000 </r>
       <r>  -11.9014    1.0000 </r>
       <r>   -5.6503    1.0000 </r>
       <r>   -5.6063    1.0000 </r>
       <r>   -4.7080    1.0000 </r>
       <r>   -4.6380    1.0000 </r>
       <r>   -4.0458    1.0000 </r>
       <r>   -3.9103    1.0000 </r>
       <r>   -3.1292    1.0000 </r>
       <r>   -3.1202    1.0000 </r>
       <r>   -2.0215    1.0000 </r>
       <r>   -1.7497    1.0000 </r>
       <r>   -1.0128    1.0000 </r>
       <r>   -0.9901    1.0000 </r>
       <r>   -0.7139    1.0000 </r>
       <r>   -0.5837    1.0000 </r>
       <r>    2.1407   -0.0000 </r>
       <r>    2.1482   -0.0000 </r>
       <r>    2.5753   -0.0000 </r>
       <r>    2.6557   -0.0000 </r>
       <r>    3.7306    0.0000 </r>
       <r>    3.9392    0.0000 </r>
       <r>    4.1584    0.0000 </r>
       <r>    4.2159    0.0000 </r>
       <r>    6.0669    0.0000 </r>
       <r>    6.5020    0.0000 </r>
       <r>    7.9208    0.0000 </r>
       <r>    8.2328    0.0000 </r>
      </set>
      <set comment="kpoint 8">
       <r>  -34.9708    1.0000 </r>
       <r>  -34.9684    1.0000 </r>
       <r>  -34.8047    1.0000 </r>
       <r>  -34.8023    1.0000 </r>
       <r>  -34.7883    1.0000 </r>
       <r>  -34.7858    1.0000 </r>
       <r>  -13.8683    1.0000 </r>
       <r>  -13.8110    1.0000 </r>
       <r>  -12.6529    1.0000 </r>
       <r>  -12.5592    1.0000 </r>
       <r>   -5.5732    1.0000 </r>
       <r>   -5.2770    1.0000 </r>
       <r>   -2.7899    1.0000 </r>
       <r>   -2.7841    1.0000 </r>
       <r>   -2.5107    1.0000 </r>
       <r>   -2.5084    1.0000 </r>
       <r>   -2.4477    1.0000 </r>
       <r>   -2.0500    1.0000 </r>
       <r>   -1.6451    1.0000 </r>
       <r>   -1.6423    1.0000 </r>
       <r>   -1.3529    1.0000 </r>
       <r>   -1.0397    1.0000 </r>
       <r>   -0.2301    1.0000 </r>
       <r>    0.1738    1.0318 </r>
       <r>    2.5807   -0.0000 </r>
       <r>    2.6293   -0.0000 </r>
       <r>    2.6532   -0.0000 </r>
       <r>    2.7526   -0.0000 </r>
       <r>    2.8072   -0.0000 </r>
       <r>    2.8196   -0.0000 </r>
       <r>    2.8685   -0.0000 </r>
       <r>    2.8768   -0.0000 </r>
       <r>    5.4471    0.0000 </r>
       <r>    5.8603    0.0000 </r>
       <r>    6.5901    0.0000 </r>
       <r>    6.9630    0.0000 </r>
      </set>
      <set comment="kpoint 9">
       <r>  -34.9631    1.0000 </r>
       <r>  -34.9607    1.0000 </r>
       <r>  -34.8437    1.0000 </r>
       <r>  -34.8412    1.0000 </r>
       <r>  -34.7983    1.0000 </r>
       <r>  -34.7958    1.0000 </r>
       <r>  -13.7007    1.0000 </r>
       <r>  -13.6437    1.0000 </r>
       <r>  -12.5820    1.0000 </r>
       <r>  -12.4927    1.0000 </r>
       <r>   -5.3917    1.0000 </r>
       <r>   -5.0979    1.0000 </r>
       <r>   -3.1057    1.0000 </r>
       <r>   -3.0951    1.0000 </r>
       <r>   -2.7836    1.0000 </r>
       <r>   -2.4649    1.0000 </r>
       <r>   -2.3422    1.0000 </r>
       <r>   -2.3398    1.0000 </r>
       <r>   -1.9610    1.0000 </r>
       <r>   -1.9525    1.0000 </r>
       <r>   -1.1988    1.0000 </r>
       <r>   -0.8556    1.0000 </r>
       <r>   -0.3055    1.0000 </r>
       <r>    0.0010    1.0003 </r>
       <r>    2.2927   -0.0000 </r>
       <r>    2.4405   -0.0000 </r>
       <r>    2.4702   -0.0000 </r>
       <r>    2.5788   -0.0000 </r>
       <r>    2.6392   -0.0000 </r>
       <r>    2.6608   -0.0000 </r>
       <r>    3.1459    0.0000 </r>
       <r>    3.1593    0.0000 </r>
       <r>    5.6880    0.0000 </r>
       <r>    6.1046    0.0000 </r>
       <r>    6.9444    0.0000 </r>
       <r>    7.6145    0.0000 </r>
      </set>
      <set comment="kpoint 10">
       <r>  -34.9493    1.0000 </r>
       <r>  -34.9470    1.0000 </r>
       <r>  -34.9113    1.0000 </r>
       <r>  -34.9087    1.0000 </r>
       <r>  -34.8167    1.0000 </r>
       <r>  -34.8144    1.0000 </r>
       <r>  -13.3883    1.0000 </r>
       <r>  -13.3325    1.0000 </r>
       <r>  -12.4500    1.0000 </r>
       <r>  -12.3692    1.0000 </r>
       <r>   -5.1121    1.0000 </r>
       <r>   -4.8398    1.0000 </r>
       <r>   -3.5545    1.0000 </r>
       <r>   -3.5203    1.0000 </r>
       <r>   -3.2164    1.0000 </r>
       <r>   -2.9861    1.0000 </r>
       <r>   -2.4533    1.0000 </r>
       <r>   -2.4197    1.0000 </r>
       <r>   -2.0593    1.0000 </r>
       <r>   -2.0539    1.0000 </r>
       <r>   -1.1801    1.0000 </r>
       <r>   -0.8617    1.0000 </r>
       <r>   -0.5363    1.0000 </r>
       <r>   -0.3724    1.0000 </r>
       <r>    1.9630   -0.0000 </r>
       <r>    2.2062   -0.0000 </r>
       <r>    2.4017   -0.0000 </r>
       <r>    2.4505   -0.0000 </r>
       <r>    2.4732   -0.0000 </r>
       <r>    2.6518   -0.0000 </r>
       <r>    3.5423    0.0000 </r>
       <r>    3.5843    0.0000 </r>
       <r>    6.1394    0.0000 </r>
       <r>    6.5286    0.0000 </r>
       <r>    7.2132    0.0000 </r>
       <r>    8.3036    0.0000 </r>
      </set>
      <set comment="kpoint 11">
       <r>  -34.9916    1.0000 </r>
       <r>  -34.9890    1.0000 </r>
       <r>  -34.9327    1.0000 </r>
       <r>  -34.9303    1.0000 </r>
       <r>  -34.8391    1.0000 </r>
       <r>  -34.8368    1.0000 </r>
       <r>  -12.9783    1.0000 </r>
       <r>  -12.9255    1.0000 </r>
       <r>  -12.2779    1.0000 </r>
       <r>  -12.2089    1.0000 </r>
       <r>   -4.9854    1.0000 </r>
       <r>   -4.8112    1.0000 </r>
       <r>   -3.8687    1.0000 </r>
       <r>   -3.7475    1.0000 </r>
       <r>   -3.7009    1.0000 </r>
       <r>   -3.5758    1.0000 </r>
       <r>   -2.8495    1.0000 </r>
       <r>   -2.7819    1.0000 </r>
       <r>   -1.7801    1.0000 </r>
       <r>   -1.7669    1.0000 </r>
       <r>   -1.3896    1.0000 </r>
       <r>   -1.1090    1.0000 </r>
       <r>   -0.8391    1.0000 </r>
       <r>   -0.7580    1.0000 </r>
       <r>    1.8577   -0.0000 </r>
       <r>    2.0874   -0.0000 </r>
       <r>    2.2868   -0.0000 </r>
       <r>    2.3953   -0.0000 </r>
       <r>    2.7510   -0.0000 </r>
       <r>    2.9790   -0.0000 </r>
       <r>    3.8860    0.0000 </r>
       <r>    3.9551    0.0000 </r>
       <r>    6.7701    0.0000 </r>
       <r>    7.0778    0.0000 </r>
       <r>    7.7284    0.0000 </r>
       <r>    8.3175    0.0000 </r>
      </set>
      <set comment="kpoint 12">
       <r>  -35.0662    1.0000 </r>
       <r>  -35.0636    1.0000 </r>
       <r>  -34.9170    1.0000 </r>
       <r>  -34.9146    1.0000 </r>
       <r>  -34.8601    1.0000 </r>
       <r>  -34.8578    1.0000 </r>
       <r>  -12.5472    1.0000 </r>
       <r>  -12.5000    1.0000 </r>
       <r>  -12.0996    1.0000 </r>
       <r>  -12.0446    1.0000 </r>
       <r>   -5.2040    1.0000 </r>
       <r>   -5.1220    1.0000 </r>
       <r>   -4.2784    1.0000 </r>
       <r>   -4.1894    1.0000 </r>
       <r>   -3.8677    1.0000 </r>
       <r>   -3.7114    1.0000 </r>
       <r>   -3.0629    1.0000 </r>
       <r>   -2.9961    1.0000 </r>
       <r>   -1.7145    1.0000 </r>
       <r>   -1.6099    1.0000 </r>
       <r>   -1.5925    1.0000 </r>
       <r>   -1.4110    1.0000 </r>
       <r>   -0.8616    1.0000 </r>
       <r>   -0.7998    1.0000 </r>
       <r>    1.9651   -0.0000 </r>
       <r>    2.1182   -0.0000 </r>
       <r>    2.3310   -0.0000 </r>
       <r>    2.4550   -0.0000 </r>
       <r>    3.1716    0.0000 </r>
       <r>    3.4082    0.0000 </r>
       <r>    4.0800    0.0000 </r>
       <r>    4.1743    0.0000 </r>
       <r>    7.3629    0.0000 </r>
       <r>    7.5677    0.0000 </r>
       <r>    7.6354    0.0000 </r>
       <r>    8.1571    0.0000 </r>
      </set>
      <set comment="kpoint 13">
       <r>  -35.1186    1.0000 </r>
       <r>  -35.1160    1.0000 </r>
       <r>  -34.9059    1.0000 </r>
       <r>  -34.9035    1.0000 </r>
       <r>  -34.8750    1.0000 </r>
       <r>  -34.8726    1.0000 </r>
       <r>  -12.2038    1.0000 </r>
       <r>  -12.1644    1.0000 </r>
       <r>  -11.9606    1.0000 </r>
       <r>  -11.9188    1.0000 </r>
       <r>   -5.4825    1.0000 </r>
       <r>   -5.4326    1.0000 </r>
       <r>   -4.6614    1.0000 </r>
       <r>   -4.5976    1.0000 </r>
       <r>   -3.9684    1.0000 </r>
       <r>   -3.8246    1.0000 </r>
       <r>   -3.1484    1.0000 </r>
       <r>   -3.1040    1.0000 </r>
       <r>   -1.9291    1.0000 </r>
       <r>   -1.6743    1.0000 </r>
       <r>   -1.4940    1.0000 </r>
       <r>   -1.4158    1.0000 </r>
       <r>   -0.6482    1.0000 </r>
       <r>   -0.5745    1.0000 </r>
       <r>    2.1165   -0.0000 </r>
       <r>    2.1788   -0.0000 </r>
       <r>    2.5085   -0.0000 </r>
       <r>    2.6094   -0.0000 </r>
       <r>    3.5684    0.0000 </r>
       <r>    3.7759    0.0000 </r>
       <r>    4.0810    0.0000 </r>
       <r>    4.2047    0.0000 </r>
       <r>    6.4747    0.0000 </r>
       <r>    6.9117    0.0000 </r>
       <r>    8.1093    0.0000 </r>
       <r>    8.2278    0.0000 </r>
      </set>
      <set comment="kpoint 14">
       <r>  -35.1373    1.0000 </r>
       <r>  -35.1348    1.0000 </r>
       <r>  -34.9019    1.0000 </r>
       <r>  -34.8995    1.0000 </r>
       <r>  -34.8803    1.0000 </r>
       <r>  -34.8780    1.0000 </r>
       <r>  -12.0695    1.0000 </r>
       <r>  -12.0349    1.0000 </r>
       <r>  -11.9068    1.0000 </r>
       <r>  -11.8718    1.0000 </r>
       <r>   -5.5983    1.0000 </r>
       <r>   -5.5561    1.0000 </r>
       <r>   -4.8024    1.0000 </r>
       <r>   -4.7460    1.0000 </r>
       <r>   -4.0364    1.0000 </r>
       <r>   -3.9007    1.0000 </r>
       <r>   -3.1668    1.0000 </r>
       <r>   -3.1363    1.0000 </r>
       <r>   -2.0138    1.0000 </r>
       <r>   -1.7567    1.0000 </r>
       <r>   -1.4269    1.0000 </r>
       <r>   -1.3551    1.0000 </r>
       <r>   -0.5164    1.0000 </r>
       <r>   -0.4308    1.0000 </r>
       <r>    2.1548   -0.0000 </r>
       <r>    2.1779   -0.0000 </r>
       <r>    2.6633   -0.0000 </r>
       <r>    2.7163   -0.0000 </r>
       <r>    3.8476    0.0000 </r>
       <r>    3.9091    0.0000 </r>
       <r>    3.9989    0.0000 </r>
       <r>    4.1197    0.0000 </r>
       <r>    6.0508    0.0000 </r>
       <r>    6.5059    0.0000 </r>
       <r>    8.3248    0.0000 </r>
       <r>    8.4094    0.0000 </r>
      </set>
      <set comment="kpoint 15">
       <r>  -35.1185    1.0000 </r>
       <r>  -35.1160    1.0000 </r>
       <r>  -34.9059    1.0000 </r>
       <r>  -34.9035    1.0000 </r>
       <r>  -34.8750    1.0000 </r>
       <r>  -34.8726    1.0000 </r>
       <r>  -12.2031    1.0000 </r>
       <r>  -12.1650    1.0000 </r>
       <r>  -11.9600    1.0000 </r>
       <r>  -11.9197    1.0000 </r>
       <r>   -5.4823    1.0000 </r>
       <r>   -5.4329    1.0000 </r>
       <r>   -4.6603    1.0000 </r>
       <r>   -4.5986    1.0000 </r>
       <r>   -3.9682    1.0000 </r>
       <r>   -3.8253    1.0000 </r>
       <r>   -3.1491    1.0000 </r>
       <r>   -3.1025    1.0000 </r>
       <r>   -1.9242    1.0000 </r>
       <r>   -1.6737    1.0000 </r>
       <r>   -1.4874    1.0000 </r>
       <r>   -1.4302    1.0000 </r>
       <r>   -0.6493    1.0000 </r>
       <r>   -0.5733    1.0000 </r>
       <r>    2.1135   -0.0000 </r>
       <r>    2.1831   -0.0000 </r>
       <r>    2.5102   -0.0000 </r>
       <r>    2.6075   -0.0000 </r>
       <r>    3.5865    0.0000 </r>
       <r>    3.7583    0.0000 </r>
       <r>    4.0740    0.0000 </r>
       <r>    4.2091    0.0000 </r>
       <r>    6.4748    0.0000 </r>
       <r>    6.9115    0.0000 </r>
       <r>    8.1068    0.0000 </r>
       <r>    8.2630    0.0000 </r>
      </set>
      <set comment="kpoint 16">
       <r>  -35.0662    1.0000 </r>
       <r>  -35.0636    1.0000 </r>
       <r>  -34.9170    1.0000 </r>
       <r>  -34.9146    1.0000 </r>
       <r>  -34.8601    1.0000 </r>
       <r>  -34.8578    1.0000 </r>
       <r>  -12.5463    1.0000 </r>
       <r>  -12.5006    1.0000 </r>
       <r>  -12.0987    1.0000 </r>
       <r>  -12.0456    1.0000 </r>
       <r>   -5.2040    1.0000 </r>
       <r>   -5.1223    1.0000 </r>
       <r>   -4.2767    1.0000 </r>
       <r>   -4.1906    1.0000 </r>
       <r>   -3.8662    1.0000 </r>
       <r>   -3.7138    1.0000 </r>
       <r>   -3.0619    1.0000 </r>
       <r>   -2.9954    1.0000 </r>
       <r>   -1.6998    1.0000 </r>
       <r>   -1.6109    1.0000 </r>
       <r>   -1.5963    1.0000 </r>
       <r>   -1.4240    1.0000 </r>
       <r>   -0.8609    1.0000 </r>
       <r>   -0.8011    1.0000 </r>
       <r>    1.9673   -0.0000 </r>
       <r>    2.1186   -0.0000 </r>
       <r>    2.3316   -0.0000 </r>
       <r>    2.4530   -0.0000 </r>
       <r>    3.1874    0.0000 </r>
       <r>    3.3905    0.0000 </r>
       <r>    4.0791    0.0000 </r>
       <r>    4.1764    0.0000 </r>
       <r>    7.3616    0.0000 </r>
       <r>    7.5422    0.0000 </r>
       <r>    7.6481    0.0000 </r>
       <r>    8.1572    0.0000 </r>
      </set>
      <set comment="kpoint 17">
       <r>  -34.9916    1.0000 </r>
       <r>  -34.9890    1.0000 </r>
       <r>  -34.9327    1.0000 </r>
       <r>  -34.9303    1.0000 </r>
       <r>  -34.8391    1.0000 </r>
       <r>  -34.8368    1.0000 </r>
       <r>  -12.9777    1.0000 </r>
       <r>  -12.9260    1.0000 </r>
       <r>  -12.2771    1.0000 </r>
       <r>  -12.2098    1.0000 </r>
       <r>   -4.9854    1.0000 </r>
       <r>   -4.8111    1.0000 </r>
       <r>   -3.8654    1.0000 </r>
       <r>   -3.7505    1.0000 </r>
       <r>   -3.7000    1.0000 </r>
       <r>   -3.5776    1.0000 </r>
       <r>   -2.8473    1.0000 </r>
       <r>   -2.7827    1.0000 </r>
       <r>   -1.7804    1.0000 </r>
       <r>   -1.7651    1.0000 </r>
       <r>   -1.3832    1.0000 </r>
       <r>   -1.1171    1.0000 </r>
       <r>   -0.8384    1.0000 </r>
       <r>   -0.7632    1.0000 </r>
       <r>    1.8624   -0.0000 </r>
       <r>    2.0842   -0.0000 </r>
       <r>    2.2878   -0.0000 </r>
       <r>    2.3933   -0.0000 </r>
       <r>    2.7626   -0.0000 </r>
       <r>    2.9680   -0.0000 </r>
       <r>    3.8845    0.0000 </r>
       <r>    3.9587    0.0000 </r>
       <r>    6.7710    0.0000 </r>
       <r>    7.0780    0.0000 </r>
       <r>    7.7837    0.0000 </r>
       <r>    8.3577    0.0000 </r>
      </set>
      <set comment="kpoint 18">
       <r>  -34.9493    1.0000 </r>
       <r>  -34.9470    1.0000 </r>
       <r>  -34.9112    1.0000 </r>
       <r>  -34.9087    1.0000 </r>
       <r>  -34.8168    1.0000 </r>
       <r>  -34.8144    1.0000 </r>
       <r>  -13.3878    1.0000 </r>
       <r>  -13.3328    1.0000 </r>
       <r>  -12.4494    1.0000 </r>
       <r>  -12.3698    1.0000 </r>
       <r>   -5.1114    1.0000 </r>
       <r>   -4.8402    1.0000 </r>
       <r>   -3.5538    1.0000 </r>
       <r>   -3.5208    1.0000 </r>
       <r>   -3.2177    1.0000 </r>
       <r>   -2.9850    1.0000 </r>
       <r>   -2.4516    1.0000 </r>
       <r>   -2.4210    1.0000 </r>
       <r>   -2.0602    1.0000 </r>
       <r>   -2.0529    1.0000 </r>
       <r>   -1.1702    1.0000 </r>
       <r>   -0.8692    1.0000 </r>
       <r>   -0.5336    1.0000 </r>
       <r>   -0.3846    1.0000 </r>
       <r>    1.9691   -0.0000 </r>
       <r>    2.2074   -0.0000 </r>
       <r>    2.3999   -0.0000 </r>
       <r>    2.4439   -0.0000 </r>
       <r>    2.4845   -0.0000 </r>
       <r>    2.6467   -0.0000 </r>
       <r>    3.5370    0.0000 </r>
       <r>    3.5911    0.0000 </r>
       <r>    6.1367    0.0000 </r>
       <r>    6.5283    0.0000 </r>
       <r>    7.2120    0.0000 </r>
       <r>    8.4401    0.0000 </r>
      </set>
      <set comment="kpoint 19">
       <r>  -34.9631    1.0000 </r>
       <r>  -34.9607    1.0000 </r>
       <r>  -34.8436    1.0000 </r>
       <r>  -34.8411    1.0000 </r>
       <r>  -34.7983    1.0000 </r>
       <r>  -34.7959    1.0000 </r>
       <r>  -13.7004    1.0000 </r>
       <r>  -13.6439    1.0000 </r>
       <r>  -12.5816    1.0000 </r>
       <r>  -12.4931    1.0000 </r>
       <r>   -5.3911    1.0000 </r>
       <r>   -5.0984    1.0000 </r>
       <r>   -3.1063    1.0000 </r>
       <r>   -3.0943    1.0000 </r>
       <r>   -2.7851    1.0000 </r>
       <r>   -2.4635    1.0000 </r>
       <r>   -2.3435    1.0000 </r>
       <r>   -2.3387    1.0000 </r>
       <r>   -1.9624    1.0000 </r>
       <r>   -1.9509    1.0000 </r>
       <r>   -1.1885    1.0000 </r>
       <r>   -0.8637    1.0000 </r>
       <r>   -0.3029    1.0000 </r>
       <r>   -0.0117    1.0001 </r>
       <r>    2.3110   -0.0000 </r>
       <r>    2.4418   -0.0000 </r>
       <r>    2.4753   -0.0000 </r>
       <r>    2.5668   -0.0000 </r>
       <r>    2.6291   -0.0000 </r>
       <r>    2.6659   -0.0000 </r>
       <r>    3.1356    0.0000 </r>
       <r>    3.1705    0.0000 </r>
       <r>    5.6885    0.0000 </r>
       <r>    6.1041    0.0000 </r>
       <r>    6.9126    0.0000 </r>
       <r>    7.6135    0.0000 </r>
      </set>
      <set comment="kpoint 20">
       <r>  -34.9708    1.0000 </r>
       <r>  -34.9684    1.0000 </r>
       <r>  -34.8046    1.0000 </r>
       <r>  -34.8022    1.0000 </r>
       <r>  -34.7884    1.0000 </r>
       <r>  -34.7858    1.0000 </r>
       <r>  -13.8682    1.0000 </r>
       <r>  -13.8111    1.0000 </r>
       <r>  -12.6528    1.0000 </r>
       <r>  -12.5594    1.0000 </r>
       <r>   -5.5729    1.0000 </r>
       <r>   -5.2772    1.0000 </r>
       <r>   -2.7896    1.0000 </r>
       <r>   -2.7843    1.0000 </r>
       <r>   -2.5108    1.0000 </r>
       <r>   -2.5080    1.0000 </r>
       <r>   -2.4488    1.0000 </r>
       <r>   -2.0499    1.0000 </r>
       <r>   -1.6463    1.0000 </r>
       <r>   -1.6412    1.0000 </r>
       <r>   -1.3456    1.0000 </r>
       <r>   -1.0455    1.0000 </r>
       <r>   -0.2291    1.0000 </r>
       <r>    0.1686    1.0341 </r>
       <r>    2.6004   -0.0000 </r>
       <r>    2.6266   -0.0000 </r>
       <r>    2.6593   -0.0000 </r>
       <r>    2.7316   -0.0000 </r>
       <r>    2.8010   -0.0000 </r>
       <r>    2.8247   -0.0000 </r>
       <r>    2.8665   -0.0000 </r>
       <r>    2.8817   -0.0000 </r>
       <r>    5.4475    0.0000 </r>
       <r>    5.8601    0.0000 </r>
       <r>    6.5788    0.0000 </r>
       <r>    6.9638    0.0000 </r>
      </set>
      <set comment="kpoint 21">
       <r>  -34.9594    1.0000 </r>
       <r>  -34.9570    1.0000 </r>
       <r>  -34.8631    1.0000 </r>
       <r>  -34.8607    1.0000 </r>
       <r>  -34.8017    1.0000 </r>
       <r>  -34.7992    1.0000 </r>
       <r>  -13.6200    1.0000 </r>
       <r>  -13.5630    1.0000 </r>
       <r>  -12.5482    1.0000 </r>
       <r>  -12.4605    1.0000 </r>
       <r>   -5.3135    1.0000 </r>
       <r>   -5.0225    1.0000 </r>
       <r>   -3.2458    1.0000 </r>
       <r>   -3.2267    1.0000 </r>
       <r>   -2.9444    1.0000 </r>
       <r>   -2.6663    1.0000 </r>
       <r>   -2.2547    1.0000 </r>
       <r>   -2.2524    1.0000 </r>
       <r>   -1.9803    1.0000 </r>
       <r>   -1.9773    1.0000 </r>
       <r>   -1.2825    1.0000 </r>
       <r>   -0.9004    1.0000 </r>
       <r>   -0.3633    1.0000 </r>
       <r>   -0.0903    1.0000 </r>
       <r>    2.1681   -0.0000 </r>
       <r>    2.3842   -0.0000 </r>
       <r>    2.5046   -0.0000 </r>
       <r>    2.5803   -0.0000 </r>
       <r>    2.5899   -0.0000 </r>
       <r>    2.6569   -0.0000 </r>
       <r>    3.2158    0.0000 </r>
       <r>    3.2263    0.0000 </r>
       <r>    5.8020    0.0000 </r>
       <r>    6.2120    0.0000 </r>
       <r>    6.9432    0.0000 </r>
       <r>    7.8321    0.0000 </r>
      </set>
      <set comment="kpoint 22">
       <r>  -34.9493    1.0000 </r>
       <r>  -34.9469    1.0000 </r>
       <r>  -34.9112    1.0000 </r>
       <r>  -34.9087    1.0000 </r>
       <r>  -34.8168    1.0000 </r>
       <r>  -34.8143    1.0000 </r>
       <r>  -13.3886    1.0000 </r>
       <r>  -13.3322    1.0000 </r>
       <r>  -12.4505    1.0000 </r>
       <r>  -12.3687    1.0000 </r>
       <r>   -5.1125    1.0000 </r>
       <r>   -4.8395    1.0000 </r>
       <r>   -3.5575    1.0000 </r>
       <r>   -3.5171    1.0000 </r>
       <r>   -3.2168    1.0000 </r>
       <r>   -2.9851    1.0000 </r>
       <r>   -2.4522    1.0000 </r>
       <r>   -2.4216    1.0000 </r>
       <r>   -2.0583    1.0000 </r>
       <r>   -2.0549    1.0000 </r>
       <r>   -1.1928    1.0000 </r>
       <r>   -0.8527    1.0000 </r>
       <r>   -0.5391    1.0000 </r>
       <r>   -0.3590    1.0000 </r>
       <r>    1.9548   -0.0000 </r>
       <r>    2.2060   -0.0000 </r>
       <r>    2.4053   -0.0000 </r>
       <r>    2.4378   -0.0000 </r>
       <r>    2.4798   -0.0000 </r>
       <r>    2.6546   -0.0000 </r>
       <r>    3.5493    0.0000 </r>
       <r>    3.5782    0.0000 </r>
       <r>    6.1391    0.0000 </r>
       <r>    6.5301    0.0000 </r>
       <r>    7.2017    0.0000 </r>
       <r>    8.2563    0.0000 </r>
      </set>
      <set comment="kpoint 23">
       <r>  -34.9734    1.0000 </r>
       <r>  -34.9708    1.0000 </r>
       <r>  -34.9351    1.0000 </r>
       <r>  -34.9327    1.0000 </r>
       <r>  -34.8431    1.0000 </r>
       <r>  -34.8407    1.0000 </r>
       <r>  -13.0401    1.0000 </r>
       <r>  -12.9857    1.0000 </r>
       <r>  -12.3028    1.0000 </r>
       <r>  -12.2305    1.0000 </r>
       <r>   -4.9373    1.0000 </r>
       <r>   -4.7357    1.0000 </r>
       <r>   -3.8116    1.0000 </r>
       <r>   -3.7023    1.0000 </r>
       <r>   -3.5077    1.0000 </r>
       <r>   -3.3802    1.0000 </r>
       <r>   -3.0859    1.0000 </r>
       <r>   -2.9714    1.0000 </r>
       <r>   -1.9303    1.0000 </r>
       <r>   -1.9198    1.0000 </r>
       <r>   -1.1674    1.0000 </r>
       <r>   -0.8950    1.0000 </r>
       <r>   -0.7732    1.0000 </r>
       <r>   -0.6805    1.0000 </r>
       <r>    1.7659   -0.0000 </r>
       <r>    2.0101   -0.0000 </r>
       <r>    2.3291   -0.0000 </r>
       <r>    2.4273   -0.0000 </r>
       <r>    2.5258   -0.0000 </r>
       <r>    2.7323   -0.0000 </r>
       <r>    3.9297    0.0000 </r>
       <r>    4.0125    0.0000 </r>
       <r>    6.6817    0.0000 </r>
       <r>    7.0229    0.0000 </r>
       <r>    7.7013    0.0000 </r>
       <r>    8.5527    0.0000 </r>
      </set>
      <set comment="kpoint 24">
       <r>  -35.0362    1.0000 </r>
       <r>  -35.0336    1.0000 </r>
       <r>  -34.9199    1.0000 </r>
       <r>  -34.9175    1.0000 </r>
       <r>  -34.8734    1.0000 </r>
       <r>  -34.8710    1.0000 </r>
       <r>  -12.6341    1.0000 </r>
       <r>  -12.5838    1.0000 </r>
       <r>  -12.1306    1.0000 </r>
       <r>  -12.0704    1.0000 </r>
       <r>   -5.0105    1.0000 </r>
       <r>   -4.9043    1.0000 </r>
       <r>   -4.0873    1.0000 </r>
       <r>   -4.0341    1.0000 </r>
       <r>   -3.7915    1.0000 </r>
       <r>   -3.6180    1.0000 </r>
       <r>   -3.3026    1.0000 </r>
       <r>   -3.1428    1.0000 </r>
       <r>   -2.0621    1.0000 </r>
       <r>   -2.0364    1.0000 </r>
       <r>   -1.3732    1.0000 </r>
       <r>   -1.1361    1.0000 </r>
       <r>   -0.8280    1.0000 </r>
       <r>   -0.7893    1.0000 </r>
       <r>    1.7946   -0.0000 </r>
       <r>    2.0622   -0.0000 </r>
       <r>    2.4003   -0.0000 </r>
       <r>    2.4696   -0.0000 </r>
       <r>    2.7785   -0.0000 </r>
       <r>    2.9989   -0.0000 </r>
       <r>    4.1773    0.0000 </r>
       <r>    4.3000    0.0000 </r>
       <r>    7.3780    0.0000 </r>
       <r>    7.6092    0.0000 </r>
       <r>    8.1215    0.0000 </r>
       <r>    8.4945    0.0000 </r>
      </set>
      <set comment="kpoint 25">
       <r>  -35.0868    1.0000 </r>
       <r>  -35.0842    1.0000 </r>
       <r>  -34.9073    1.0000 </r>
       <r>  -34.9049    1.0000 </r>
       <r>  -34.8993    1.0000 </r>
       <r>  -34.8970    1.0000 </r>
       <r>  -12.2595    1.0000 </r>
       <r>  -12.2159    1.0000 </r>
       <r>  -11.9723    1.0000 </r>
       <r>  -11.9251    1.0000 </r>
       <r>   -5.2083    1.0000 </r>
       <r>   -5.1445    1.0000 </r>
       <r>   -4.6268    1.0000 </r>
       <r>   -4.5874    1.0000 </r>
       <r>   -3.8095    1.0000 </r>
       <r>   -3.6465    1.0000 </r>
       <r>   -3.2718    1.0000 </r>
       <r>   -3.1442    1.0000 </r>
       <r>   -2.2168    1.0000 </r>
       <r>   -2.1417    1.0000 </r>
       <r>   -1.7009    1.0000 </r>
       <r>   -1.4775    1.0000 </r>
       <r>   -0.6548    1.0000 </r>
       <r>   -0.6181    1.0000 </r>
       <r>    2.0212   -0.0000 </r>
       <r>    2.2294   -0.0000 </r>
       <r>    2.5216   -0.0000 </r>
       <r>    2.5715   -0.0000 </r>
       <r>    3.1188    0.0000 </r>
       <r>    3.3301    0.0000 </r>
       <r>    4.2501    0.0000 </r>
       <r>    4.4008    0.0000 </r>
       <r>    7.1074    0.0000 </r>
       <r>    7.5230    0.0000 </r>
       <r>    8.2436    0.0000 </r>
       <r>    8.4512    0.0000 </r>
      </set>
      <set comment="kpoint 26">
       <r>  -35.1149    1.0000 </r>
       <r>  -35.1124    1.0000 </r>
       <r>  -34.9143    1.0000 </r>
       <r>  -34.9119    1.0000 </r>
       <r>  -34.9001    1.0000 </r>
       <r>  -34.8978    1.0000 </r>
       <r>  -12.0274    1.0000 </r>
       <r>  -11.9907    1.0000 </r>
       <r>  -11.8741    1.0000 </r>
       <r>  -11.8375    1.0000 </r>
       <r>   -5.3357    1.0000 </r>
       <r>   -5.2914    1.0000 </r>
       <r>   -4.9335    1.0000 </r>
       <r>   -4.8969    1.0000 </r>
       <r>   -3.9412    1.0000 </r>
       <r>   -3.8007    1.0000 </r>
       <r>   -3.1747    1.0000 </r>
       <r>   -3.0972    1.0000 </r>
       <r>   -2.2315    1.0000 </r>
       <r>   -2.1287    1.0000 </r>
       <r>   -1.9523    1.0000 </r>
       <r>   -1.7230    1.0000 </r>
       <r>   -0.4267    1.0000 </r>
       <r>   -0.3776    1.0000 </r>
       <r>    2.0752   -0.0000 </r>
       <r>    2.1252   -0.0000 </r>
       <r>    2.7761   -0.0000 </r>
       <r>    2.8704   -0.0000 </r>
       <r>    3.3789    0.0000 </r>
       <r>    3.5465    0.0000 </r>
       <r>    4.2051    0.0000 </r>
       <r>    4.3809    0.0000 </r>
       <r>    6.4001    0.0000 </r>
       <r>    6.8774    0.0000 </r>
       <r>    8.7687    0.0000 </r>
       <r>    8.8793    0.0000 </r>
      </set>
      <set comment="kpoint 27">
       <r>  -35.1149    1.0000 </r>
       <r>  -35.1124    1.0000 </r>
       <r>  -34.9143    1.0000 </r>
       <r>  -34.9119    1.0000 </r>
       <r>  -34.9001    1.0000 </r>
       <r>  -34.8978    1.0000 </r>
       <r>  -12.0263    1.0000 </r>
       <r>  -11.9914    1.0000 </r>
       <r>  -11.8734    1.0000 </r>
       <r>  -11.8386    1.0000 </r>
       <r>   -5.3356    1.0000 </r>
       <r>   -5.2919    1.0000 </r>
       <r>   -4.9330    1.0000 </r>
       <r>   -4.8973    1.0000 </r>
       <r>   -3.9410    1.0000 </r>
       <r>   -3.8008    1.0000 </r>
       <r>   -3.1754    1.0000 </r>
       <r>   -3.0956    1.0000 </r>
       <r>   -2.2211    1.0000 </r>
       <r>   -2.1338    1.0000 </r>
       <r>   -1.9566    1.0000 </r>
       <r>   -1.7262    1.0000 </r>
       <r>   -0.4264    1.0000 </r>
       <r>   -0.3774    1.0000 </r>
       <r>    2.0731   -0.0000 </r>
       <r>    2.1273   -0.0000 </r>
       <r>    2.7756   -0.0000 </r>
       <r>    2.8713   -0.0000 </r>
       <r>    3.4004    0.0000 </r>
       <r>    3.5227    0.0000 </r>
       <r>    4.2045    0.0000 </r>
       <r>    4.3815    0.0000 </r>
       <r>    6.4011    0.0000 </r>
       <r>    6.8780    0.0000 </r>
       <r>    8.7736    0.0000 </r>
       <r>    8.8801    0.0000 </r>
      </set>
      <set comment="kpoint 28">
       <r>  -35.0868    1.0000 </r>
       <r>  -35.0842    1.0000 </r>
       <r>  -34.9073    1.0000 </r>
       <r>  -34.9049    1.0000 </r>
       <r>  -34.8994    1.0000 </r>
       <r>  -34.8970    1.0000 </r>
       <r>  -12.2575    1.0000 </r>
       <r>  -12.2173    1.0000 </r>
       <r>  -11.9707    1.0000 </r>
       <r>  -11.9272    1.0000 </r>
       <r>   -5.2083    1.0000 </r>
       <r>   -5.1451    1.0000 </r>
       <r>   -4.6253    1.0000 </r>
       <r>   -4.5890    1.0000 </r>
       <r>   -3.8067    1.0000 </r>
       <r>   -3.6485    1.0000 </r>
       <r>   -3.2702    1.0000 </r>
       <r>   -3.1437    1.0000 </r>
       <r>   -2.2037    1.0000 </r>
       <r>   -2.1508    1.0000 </r>
       <r>   -1.7031    1.0000 </r>
       <r>   -1.4855    1.0000 </r>
       <r>   -0.6545    1.0000 </r>
       <r>   -0.6172    1.0000 </r>
       <r>    2.0181   -0.0000 </r>
       <r>    2.2349   -0.0000 </r>
       <r>    2.5233   -0.0000 </r>
       <r>    2.5681   -0.0000 </r>
       <r>    3.1440    0.0000 </r>
       <r>    3.3008    0.0000 </r>
       <r>    4.2507    0.0000 </r>
       <r>    4.4018    0.0000 </r>
       <r>    7.1051    0.0000 </r>
       <r>    7.5258    0.0000 </r>
       <r>    8.2384    0.0000 </r>
       <r>    8.4730    0.0000 </r>
      </set>
      <set comment="kpoint 29">
       <r>  -35.0361    1.0000 </r>
       <r>  -35.0336    1.0000 </r>
       <r>  -34.9199    1.0000 </r>
       <r>  -34.9175    1.0000 </r>
       <r>  -34.8734    1.0000 </r>
       <r>  -34.8711    1.0000 </r>
       <r>  -12.6323    1.0000 </r>
       <r>  -12.5852    1.0000 </r>
       <r>  -12.1289    1.0000 </r>
       <r>  -12.0725    1.0000 </r>
       <r>   -5.0112    1.0000 </r>
       <r>   -4.9041    1.0000 </r>
       <r>   -4.0854    1.0000 </r>
       <r>   -4.0386    1.0000 </r>
       <r>   -3.7805    1.0000 </r>
       <r>   -3.6248    1.0000 </r>
       <r>   -3.2997    1.0000 </r>
       <r>   -3.1447    1.0000 </r>
       <r>   -2.0642    1.0000 </r>
       <r>   -2.0332    1.0000 </r>
       <r>   -1.3656    1.0000 </r>
       <r>   -1.1509    1.0000 </r>
       <r>   -0.8312    1.0000 </r>
       <r>   -0.7872    1.0000 </r>
       <r>    1.7963   -0.0000 </r>
       <r>    2.0623   -0.0000 </r>
       <r>    2.4015   -0.0000 </r>
       <r>    2.4657   -0.0000 </r>
       <r>    2.7935   -0.0000 </r>
       <r>    2.9849   -0.0000 </r>
       <r>    4.1796    0.0000 </r>
       <r>    4.2997    0.0000 </r>
       <r>    7.3779    0.0000 </r>
       <r>    7.6081    0.0000 </r>
       <r>    8.0994    0.0000 </r>
       <r>    8.6237    0.0000 </r>
      </set>
      <set comment="kpoint 30">
       <r>  -34.9733    1.0000 </r>
       <r>  -34.9708    1.0000 </r>
       <r>  -34.9351    1.0000 </r>
       <r>  -34.9327    1.0000 </r>
       <r>  -34.8432    1.0000 </r>
       <r>  -34.8407    1.0000 </r>
       <r>  -13.0389    1.0000 </r>
       <r>  -12.9867    1.0000 </r>
       <r>  -12.3013    1.0000 </r>
       <r>  -12.2322    1.0000 </r>
       <r>   -4.9375    1.0000 </r>
       <r>   -4.7351    1.0000 </r>
       <r>   -3.8043    1.0000 </r>
       <r>   -3.7116    1.0000 </r>
       <r>   -3.5062    1.0000 </r>
       <r>   -3.3797    1.0000 </r>
       <r>   -3.0813    1.0000 </r>
       <r>   -2.9751    1.0000 </r>
       <r>   -1.9335    1.0000 </r>
       <r>   -1.9161    1.0000 </r>
       <r>   -1.1486    1.0000 </r>
       <r>   -0.9081    1.0000 </r>
       <r>   -0.7727    1.0000 </r>
       <r>   -0.6972    1.0000 </r>
       <r>    1.7708   -0.0000 </r>
       <r>    2.0092   -0.0000 </r>
       <r>    2.3308   -0.0000 </r>
       <r>    2.4241   -0.0000 </r>
       <r>    2.5339   -0.0000 </r>
       <r>    2.7286   -0.0000 </r>
       <r>    3.9268    0.0000 </r>
       <r>    4.0165    0.0000 </r>
       <r>    6.6821    0.0000 </r>
       <r>    7.0208    0.0000 </r>
       <r>    7.7031    0.0000 </r>
       <r>    8.5623    0.0000 </r>
      </set>
      <set comment="kpoint 31">
       <r>  -34.9493    1.0000 </r>
       <r>  -34.9469    1.0000 </r>
       <r>  -34.9111    1.0000 </r>
       <r>  -34.9087    1.0000 </r>
       <r>  -34.8169    1.0000 </r>
       <r>  -34.8144    1.0000 </r>
       <r>  -13.3878    1.0000 </r>
       <r>  -13.3328    1.0000 </r>
       <r>  -12.4494    1.0000 </r>
       <r>  -12.3698    1.0000 </r>
       <r>   -5.1114    1.0000 </r>
       <r>   -4.8403    1.0000 </r>
       <r>   -3.5538    1.0000 </r>
       <r>   -3.5208    1.0000 </r>
       <r>   -3.2177    1.0000 </r>
       <r>   -2.9850    1.0000 </r>
       <r>   -2.4516    1.0000 </r>
       <r>   -2.4210    1.0000 </r>
       <r>   -2.0602    1.0000 </r>
       <r>   -2.0529    1.0000 </r>
       <r>   -1.1702    1.0000 </r>
       <r>   -0.8692    1.0000 </r>
       <r>   -0.5335    1.0000 </r>
       <r>   -0.3845    1.0000 </r>
       <r>    1.9692   -0.0000 </r>
       <r>    2.2075   -0.0000 </r>
       <r>    2.3998   -0.0000 </r>
       <r>    2.4439   -0.0000 </r>
       <r>    2.4845   -0.0000 </r>
       <r>    2.6467   -0.0000 </r>
       <r>    3.5370    0.0000 </r>
       <r>    3.5911    0.0000 </r>
       <r>    6.1395    0.0000 </r>
       <r>    6.5282    0.0000 </r>
       <r>    7.2027    0.0000 </r>
       <r>    8.2105    0.0000 </r>
      </set>
      <set comment="kpoint 32">
       <r>  -34.9594    1.0000 </r>
       <r>  -34.9570    1.0000 </r>
       <r>  -34.8631    1.0000 </r>
       <r>  -34.8607    1.0000 </r>
       <r>  -34.8018    1.0000 </r>
       <r>  -34.7992    1.0000 </r>
       <r>  -13.6196    1.0000 </r>
       <r>  -13.5633    1.0000 </r>
       <r>  -12.5476    1.0000 </r>
       <r>  -12.4611    1.0000 </r>
       <r>   -5.3127    1.0000 </r>
       <r>   -5.0232    1.0000 </r>
       <r>   -3.2440    1.0000 </r>
       <r>   -3.2283    1.0000 </r>
       <r>   -2.9452    1.0000 </r>
       <r>   -2.6666    1.0000 </r>
       <r>   -2.2557    1.0000 </r>
       <r>   -2.2515    1.0000 </r>
       <r>   -1.9819    1.0000 </r>
       <r>   -1.9756    1.0000 </r>
       <r>   -1.2636    1.0000 </r>
       <r>   -0.9147    1.0000 </r>
       <r>   -0.3592    1.0000 </r>
       <r>   -0.1091    1.0000 </r>
       <r>    2.1910   -0.0000 </r>
       <r>    2.3819   -0.0000 </r>
       <r>    2.5109   -0.0000 </r>
       <r>    2.5714   -0.0000 </r>
       <r>    2.5980   -0.0000 </r>
       <r>    2.6427   -0.0000 </r>
       <r>    3.2105    0.0000 </r>
       <r>    3.2319    0.0000 </r>
       <r>    5.8024    0.0000 </r>
       <r>    6.2108    0.0000 </r>
       <r>    6.9442    0.0000 </r>
       <r>    7.8284    0.0000 </r>
      </set>
      <set comment="kpoint 33">
       <r>  -34.9631    1.0000 </r>
       <r>  -34.9607    1.0000 </r>
       <r>  -34.8435    1.0000 </r>
       <r>  -34.8412    1.0000 </r>
       <r>  -34.7984    1.0000 </r>
       <r>  -34.7958    1.0000 </r>
       <r>  -13.7007    1.0000 </r>
       <r>  -13.6437    1.0000 </r>
       <r>  -12.5820    1.0000 </r>
       <r>  -12.4927    1.0000 </r>
       <r>   -5.3918    1.0000 </r>
       <r>   -5.0979    1.0000 </r>
       <r>   -3.1057    1.0000 </r>
       <r>   -3.0950    1.0000 </r>
       <r>   -2.7836    1.0000 </r>
       <r>   -2.4649    1.0000 </r>
       <r>   -2.3420    1.0000 </r>
       <r>   -2.3401    1.0000 </r>
       <r>   -1.9612    1.0000 </r>
       <r>   -1.9525    1.0000 </r>
       <r>   -1.1987    1.0000 </r>
       <r>   -0.8556    1.0000 </r>
       <r>   -0.3055    1.0000 </r>
       <r>    0.0010    1.0003 </r>
       <r>    2.2928   -0.0000 </r>
       <r>    2.4404   -0.0000 </r>
       <r>    2.4702   -0.0000 </r>
       <r>    2.5789   -0.0000 </r>
       <r>    2.6391   -0.0000 </r>
       <r>    2.6608   -0.0000 </r>
       <r>    3.1461    0.0000 </r>
       <r>    3.1591    0.0000 </r>
       <r>    5.6873    0.0000 </r>
       <r>    6.1046    0.0000 </r>
       <r>    7.0367    0.0000 </r>
       <r>    7.6047    0.0000 </r>
      </set>
      <set comment="kpoint 34">
       <r>  -34.9447    1.0000 </r>
       <r>  -34.9433    1.0000 </r>
       <r>  -34.9423    1.0000 </r>
       <r>  -34.9409    1.0000 </r>
       <r>  -34.8205    1.0000 </r>
       <r>  -34.8180    1.0000 </r>
       <r>  -13.2453    1.0000 </r>
       <r>  -13.1892    1.0000 </r>
       <r>  -12.3910    1.0000 </r>
       <r>  -12.3124    1.0000 </r>
       <r>   -5.0486    1.0000 </r>
       <r>   -4.8068    1.0000 </r>
       <r>   -3.7242    1.0000 </r>
       <r>   -3.6426    1.0000 </r>
       <r>   -3.4745    1.0000 </r>
       <r>   -3.2828    1.0000 </r>
       <r>   -2.3753    1.0000 </r>
       <r>   -2.3721    1.0000 </r>
       <r>   -1.8857    1.0000 </r>
       <r>   -1.8825    1.0000 </r>
       <r>   -1.4700    1.0000 </r>
       <r>   -1.0776    1.0000 </r>
       <r>   -0.6843    1.0000 </r>
       <r>   -0.5323    1.0000 </r>
       <r>    1.9445   -0.0000 </r>
       <r>    2.2579   -0.0000 </r>
       <r>    2.3296   -0.0000 </r>
       <r>    2.3411   -0.0000 </r>
       <r>    2.7002   -0.0000 </r>
       <r>    2.9302   -0.0000 </r>
       <r>    3.5980    0.0000 </r>
       <r>    3.6114    0.0000 </r>
       <r>    6.3439    0.0000 </r>
       <r>    6.7076    0.0000 </r>
       <r>    7.3480    0.0000 </r>
       <r>    8.1591    0.0000 </r>
      </set>
      <set comment="kpoint 35">
       <r>  -34.9915    1.0000 </r>
       <r>  -34.9891    1.0000 </r>
       <r>  -34.9327    1.0000 </r>
       <r>  -34.9303    1.0000 </r>
       <r>  -34.8392    1.0000 </r>
       <r>  -34.8367    1.0000 </r>
       <r>  -12.9794    1.0000 </r>
       <r>  -12.9246    1.0000 </r>
       <r>  -12.2792    1.0000 </r>
       <r>  -12.2073    1.0000 </r>
       <r>   -4.9849    1.0000 </r>
       <r>   -4.8113    1.0000 </r>
       <r>   -3.8801    1.0000 </r>
       <r>   -3.7287    1.0000 </r>
       <r>   -3.7121    1.0000 </r>
       <r>   -3.5727    1.0000 </r>
       <r>   -2.8482    1.0000 </r>
       <r>   -2.7831    1.0000 </r>
       <r>   -1.7777    1.0000 </r>
       <r>   -1.7684    1.0000 </r>
       <r>   -1.4158    1.0000 </r>
       <r>   -1.0889    1.0000 </r>
       <r>   -0.8425    1.0000 </r>
       <r>   -0.7404    1.0000 </r>
       <r>    1.8576   -0.0000 </r>
       <r>    2.0811   -0.0000 </r>
       <r>    2.2893   -0.0000 </r>
       <r>    2.3891   -0.0000 </r>
       <r>    2.7567   -0.0000 </r>
       <r>    2.9717   -0.0000 </r>
       <r>    3.8967    0.0000 </r>
       <r>    3.9477    0.0000 </r>
       <r>    6.7688    0.0000 </r>
       <r>    7.0844    0.0000 </r>
       <r>    7.7510    0.0000 </r>
       <r>    8.3149    0.0000 </r>
      </set>
      <set comment="kpoint 36">
       <r>  -35.0361    1.0000 </r>
       <r>  -35.0336    1.0000 </r>
       <r>  -34.9199    1.0000 </r>
       <r>  -34.9175    1.0000 </r>
       <r>  -34.8734    1.0000 </r>
       <r>  -34.8710    1.0000 </r>
       <r>  -12.6350    1.0000 </r>
       <r>  -12.5831    1.0000 </r>
       <r>  -12.1316    1.0000 </r>
       <r>  -12.0692    1.0000 </r>
       <r>   -5.0103    1.0000 </r>
       <r>   -4.9038    1.0000 </r>
       <r>   -4.0868    1.0000 </r>
       <r>   -4.0273    1.0000 </r>
       <r>   -3.8125    1.0000 </r>
       <r>   -3.6105    1.0000 </r>
[...]
       <r>    -2.1731     1.7912    18.4800 </r>
       <r>    -2.0110     3.3876    19.0292 </r>
       <r>    -1.8489     3.7362    19.6348 </r>
       <r>    -1.6868     3.0184    20.1241 </r>
       <r>    -1.5247     2.8872    20.5921 </r>
       <r>    -1.3626     3.5160    21.1621 </r>
       <r>    -1.2005     1.4456    21.3964 </r>
       <r>    -1.0384     2.1461    21.7443 </r>
       <r>    -0.8763     1.8921    22.0510 </r>
       <r>    -0.7142     3.6753    22.6468 </r>
       <r>    -0.5521     2.8615    23.1106 </r>
       <r>    -0.3900     2.2119    23.4692 </r>
       <r>    -0.2279     1.8056    23.7619 </r>
       <r>    -0.0658     0.9444    23.9150 </r>
       <r>     0.0963     0.2827    23.9608 </r>
       <r>     0.2584     0.2299    23.9981 </r>
       <r>     0.4205     0.0128    24.0001 </r>
       <r>     0.5826    -0.0008    24.0000 </r>
       <r>     0.7447    -0.0000    24.0000 </r>
       <r>     0.9068    -0.0000    24.0000 </r>
       <r>     1.0689    -0.0000    24.0000 </r>
       <r>     1.2310    -0.0000    24.0000 </r>
       <r>     1.3931    -0.0000    24.0000 </r>
       <r>     1.5552    -0.0147    23.9976 </r>
       <r>     1.7173     0.2950    24.0454 </r>
       <r>     1.8794     1.3923    24.2711 </r>
       <r>     2.0415     3.0957    24.7729 </r>
       <r>     2.2036     5.2543    25.6247 </r>
       <r>     2.3657     3.5820    26.2053 </r>
       <r>     2.5278     5.0601    27.0256 </r>
       <r>     2.6899     4.6887    27.7856 </r>
       <r>     2.8520     3.3175    28.3234 </r>
       <r>     3.0141     2.7898    28.7756 </r>
       <r>     3.1762     2.7331    29.2187 </r>
       <r>     3.3383     2.2672    29.5862 </r>
       <r>     3.5005     1.6392    29.8519 </r>
       <r>     3.6626     2.0877    30.1903 </r>
       <r>     3.8247     0.9127    30.3383 </r>
       <r>     3.9868     2.0635    30.6728 </r>
       <r>     4.1489     2.3333    31.0510 </r>
       <r>     4.3110     2.6780    31.4851 </r>
       <r>     4.4731     1.5447    31.7355 </r>
       <r>     4.6352     0.9040    31.8821 </r>
       <r>     4.7973     0.6267    31.9836 </r>
       <r>     4.9594     0.1066    32.0009 </r>
       <r>     5.1215    -0.0060    31.9999 </r>
       <r>     5.2836     0.0037    32.0006 </r>
       <r>     5.4457     0.1404    32.0233 </r>
       <r>     5.6078     0.1154    32.0420 </r>
       <r>     5.7699     0.2944    32.0897 </r>
       <r>     5.9320     0.4457    32.1620 </r>
       <r>     6.0941     0.4769    32.2393 </r>
       <r>     6.2562     0.8481    32.3768 </r>
       <r>     6.4183     0.6748    32.4862 </r>
       <r>     6.5804     1.3035    32.6975 </r>
       <r>     6.7425     0.9659    32.8540 </r>
       <r>     6.9046     1.2732    33.0604 </r>
       <r>     7.0667     2.2176    33.4199 </r>
       <r>     7.2288     1.2378    33.6205 </r>
       <r>     7.3909     1.5167    33.8664 </r>
       <r>     7.5530     1.4430    34.1003 </r>
       <r>     7.7151     1.9612    34.4182 </r>
       <r>     7.8772     1.0641    34.5907 </r>
       <r>     8.0393     0.8444    34.7276 </r>
       <r>     8.2014     2.3092    35.1019 </r>
       <r>     8.3635     2.0703    35.4375 </r>
       <r>     8.5256     1.3505    35.6565 </r>
       <r>     8.6877     0.8489    35.7941 </r>
       <r>     8.8498     0.9364    35.9459 </r>
       <r>     9.0119     0.3411    36.0012 </r>
       <r>     9.1740    -0.0068    36.0001 </r>
       <r>     9.3361    -0.0003    36.0000 </r>
       <r>     9.4982    -0.0000    36.0000 </r>
       <r>     9.6603    -0.0000    36.0000 </r>
       <r>     9.8224     0.0000    36.0000 </r>
       <r>     9.9845     0.0000    36.0000 </r>
       <r>    10.1466     0.0000    36.0000 </r>
       <r>    10.3087     0.0000    36.0000 </r>
       <r>    10.4708     0.0000    36.0000 </r>
       <r>    10.6329     0.0000    36.0000 </r>
       <r>    10.7950     0.0000    36.0000 </r>
       <r>    10.9571     0.0000    36.0000 </r>
       <r>    11.1192     0.0000    36.0000 </r>
       <r>    11.2813     0.0000    36.0000 </r>
      </set>
      <set comment="spin 2">
       <r>   -37.3492     0.0000     0.0000 </r>
       <r>   -37.1871     0.0000     0.0000 </r>
       <r>   -37.0250     0.0000     0.0000 </r>
       <r>   -36.8629     0.0000     0.0000 </r>
       <r>   -36.7008     0.0000     0.0000 </r>
       <r>   -36.5387     0.0000     0.0000 </r>
       <r>   -36.3766     0.0000     0.0000 </r>
       <r>   -36.2145     0.0000     0.0000 </r>
       <r>   -36.0524    -0.0000    -0.0000 </r>
       <r>   -35.8903    -0.0000    -0.0000 </r>
       <r>   -35.7282    -0.0000    -0.0000 </r>
       <r>   -35.5661    -0.0000    -0.0000 </r>
       <r>   -35.4040    -0.0008    -0.0001 </r>
       <r>   -35.2419    -0.1900    -0.0309 </r>
       <r>   -35.0798     4.1827     0.6471 </r>
       <r>   -34.9177    15.3738     3.1392 </r>
       <r>   -34.7556    17.6756     6.0045 </r>
       <r>   -34.5935    -0.0019     6.0042 </r>
       <r>   -34.4314    -0.0256     6.0000 </r>
       <r>   -34.2693    -0.0000     6.0000 </r>
       <r>   -34.1072    -0.0000     6.0000 </r>
       <r>   -33.9451     0.0000     6.0000 </r>
       <r>   -33.7830     0.0000     6.0000 </r>
       <r>   -33.6209     0.0000     6.0000 </r>
       <r>   -33.4588     0.0000     6.0000 </r>
       <r>   -33.2967     0.0000     6.0000 </r>
       <r>   -33.1346     0.0000     6.0000 </r>
       <r>   -32.9725     0.0000     6.0000 </r>
       <r>   -32.8104     0.0000     6.0000 </r>
       <r>   -32.6483     0.0000     6.0000 </r>
       <r>   -32.4861     0.0000     6.0000 </r>
       <r>   -32.3240     0.0000     6.0000 </r>
       <r>   -32.1619     0.0000     6.0000 </r>
       <r>   -31.9998     0.0000     6.0000 </r>
       <r>   -31.8377     0.0000     6.0000 </r>
       <r>   -31.6756     0.0000     6.0000 </r>
       <r>   -31.5135     0.0000     6.0000 </r>
       <r>   -31.3514     0.0000     6.0000 </r>
       <r>   -31.1893     0.0000     6.0000 </r>
       <r>   -31.0272     0.0000     6.0000 </r>
       <r>   -30.8651     0.0000     6.0000 </r>
       <r>   -30.7030     0.0000     6.0000 </r>
       <r>   -30.5409     0.0000     6.0000 </r>
       <r>   -30.3788     0.0000     6.0000 </r>
       <r>   -30.2167     0.0000     6.0000 </r>
       <r>   -30.0546     0.0000     6.0000 </r>
       <r>   -29.8925     0.0000     6.0000 </r>
       <r>   -29.7304     0.0000     6.0000 </r>
       <r>   -29.5683     0.0000     6.0000 </r>
       <r>   -29.4062     0.0000     6.0000 </r>
       <r>   -29.2441     0.0000     6.0000 </r>
       <r>   -29.0820     0.0000     6.0000 </r>
       <r>   -28.9199     0.0000     6.0000 </r>
       <r>   -28.7578     0.0000     6.0000 </r>
       <r>   -28.5957     0.0000     6.0000 </r>
       <r>   -28.4336     0.0000     6.0000 </r>
       <r>   -28.2715     0.0000     6.0000 </r>
       <r>   -28.1094     0.0000     6.0000 </r>
       <r>   -27.9473     0.0000     6.0000 </r>
       <r>   -27.7852     0.0000     6.0000 </r>
       <r>   -27.6231     0.0000     6.0000 </r>
       <r>   -27.4610     0.0000     6.0000 </r>
       <r>   -27.2989     0.0000     6.0000 </r>
       <r>   -27.1368     0.0000     6.0000 </r>
       <r>   -26.9747     0.0000     6.0000 </r>
       <r>   -26.8126     0.0000     6.0000 </r>
       <r>   -26.6505     0.0000     6.0000 </r>
       <r>   -26.4884     0.0000     6.0000 </r>
       <r>   -26.3263     0.0000     6.0000 </r>
       <r>   -26.1642     0.0000     6.0000 </r>
       <r>   -26.0021     0.0000     6.0000 </r>
       <r>   -25.8400     0.0000     6.0000 </r>
       <r>   -25.6779     0.0000     6.0000 </r>
       <r>   -25.5158     0.0000     6.0000 </r>
       <r>   -25.3537     0.0000     6.0000 </r>
       <r>   -25.1916     0.0000     6.0000 </r>
       <r>   -25.0295     0.0000     6.0000 </r>
       <r>   -24.8674     0.0000     6.0000 </r>
       <r>   -24.7053     0.0000     6.0000 </r>
       <r>   -24.5432     0.0000     6.0000 </r>
       <r>   -24.3811     0.0000     6.0000 </r>
       <r>   -24.2190     0.0000     6.0000 </r>
       <r>   -24.0569     0.0000     6.0000 </r>
       <r>   -23.8948     0.0000     6.0000 </r>
       <r>   -23.7327     0.0000     6.0000 </r>
       <r>   -23.5705     0.0000     6.0000 </r>
       <r>   -23.4084     0.0000     6.0000 </r>
       <r>   -23.2463     0.0000     6.0000 </r>
       <r>   -23.0842     0.0000     6.0000 </r>
       <r>   -22.9221     0.0000     6.0000 </r>
       <r>   -22.7600     0.0000     6.0000 </r>
       <r>   -22.5979     0.0000     6.0000 </r>
       <r>   -22.4358     0.0000     6.0000 </r>
       <r>   -22.2737     0.0000     6.0000 </r>
       <r>   -22.1116     0.0000     6.0000 </r>
       <r>   -21.9495     0.0000     6.0000 </r>
       <r>   -21.7874     0.0000     6.0000 </r>
       <r>   -21.6253     0.0000     6.0000 </r>
       <r>   -21.4632     0.0000     6.0000 </r>
       <r>   -21.3011     0.0000     6.0000 </r>
       <r>   -21.1390     0.0000     6.0000 </r>
       <r>   -20.9769     0.0000     6.0000 </r>
       <r>   -20.8148     0.0000     6.0000 </r>
       <r>   -20.6527     0.0000     6.0000 </r>
       <r>   -20.4906     0.0000     6.0000 </r>
       <r>   -20.3285     0.0000     6.0000 </r>
       <r>   -20.1664     0.0000     6.0000 </r>
       <r>   -20.0043     0.0000     6.0000 </r>
       <r>   -19.8422     0.0000     6.0000 </r>
       <r>   -19.6801     0.0000     6.0000 </r>
       <r>   -19.5180     0.0000     6.0000 </r>
       <r>   -19.3559     0.0000     6.0000 </r>
       <r>   -19.1938     0.0000     6.0000 </r>
       <r>   -19.0317     0.0000     6.0000 </r>
       <r>   -18.8696     0.0000     6.0000 </r>
       <r>   -18.7075     0.0000     6.0000 </r>
       <r>   -18.5454     0.0000     6.0000 </r>
       <r>   -18.3833     0.0000     6.0000 </r>
       <r>   -18.2212     0.0000     6.0000 </r>
       <r>   -18.0591     0.0000     6.0000 </r>
       <r>   -17.8970     0.0000     6.0000 </r>
       <r>   -17.7349     0.0000     6.0000 </r>
       <r>   -17.5728     0.0000     6.0000 </r>
       <r>   -17.4107     0.0000     6.0000 </r>
       <r>   -17.2486     0.0000     6.0000 </r>
       <r>   -17.0865     0.0000     6.0000 </r>
       <r>   -16.9244     0.0000     6.0000 </r>
       <r>   -16.7623     0.0000     6.0000 </r>
       <r>   -16.6002     0.0000     6.0000 </r>
       <r>   -16.4381     0.0000     6.0000 </r>
       <r>   -16.2760     0.0000     6.0000 </r>
       <r>   -16.1139     0.0000     6.0000 </r>
       <r>   -15.9518     0.0000     6.0000 </r>
       <r>   -15.7897     0.0000     6.0000 </r>
       <r>   -15.6276     0.0000     6.0000 </r>
       <r>   -15.4655     0.0000     6.0000 </r>
       <r>   -15.3034     0.0000     6.0000 </r>
       <r>   -15.1413     0.0000     6.0000 </r>
       <r>   -14.9792     0.0000     6.0000 </r>
       <r>   -14.8171    -0.0000     6.0000 </r>
       <r>   -14.6550    -0.0000     6.0000 </r>
       <r>   -14.4928    -0.0000     6.0000 </r>
       <r>   -14.3307    -0.0000     6.0000 </r>
       <r>   -14.1686    -0.0002     6.0000 </r>
       <r>   -14.0065    -0.0056     5.9991 </r>
       <r>   -13.8444     0.2728     6.0433 </r>
       <r>   -13.6823     0.4510     6.1164 </r>
       <r>   -13.5202     0.6289     6.2183 </r>
       <r>   -13.3581     0.4877     6.2974 </r>
       <r>   -13.1960     0.7276     6.4153 </r>
       <r>   -13.0339     0.3305     6.4689 </r>
       <r>   -12.8718     1.1029     6.6477 </r>
       <r>   -12.7097     0.4233     6.7163 </r>
       <r>   -12.5476     1.8118     7.0100 </r>
       <r>   -12.3855     2.2046     7.3674 </r>
       <r>   -12.2234     2.9269     7.8418 </r>
       <r>   -12.0613     3.9262     8.4783 </r>
       <r>   -11.8992     5.6201     9.3893 </r>
       <r>   -11.7371     3.6616     9.9829 </r>
       <r>   -11.5750     0.1156    10.0016 </r>
       <r>   -11.4129    -0.0099    10.0000 </r>
       <r>   -11.2508    -0.0000    10.0000 </r>
       <r>   -11.0887    -0.0000    10.0000 </r>
       <r>   -10.9266     0.0000    10.0000 </r>
       <r>   -10.7645     0.0000    10.0000 </r>
       <r>   -10.6024     0.0000    10.0000 </r>
       <r>   -10.4403     0.0000    10.0000 </r>
       <r>   -10.2782     0.0000    10.0000 </r>
       <r>   -10.1161     0.0000    10.0000 </r>
       <r>    -9.9540     0.0000    10.0000 </r>
       <r>    -9.7919     0.0000    10.0000 </r>
       <r>    -9.6298     0.0000    10.0000 </r>
       <r>    -9.4677     0.0000    10.0000 </r>
       <r>    -9.3056     0.0000    10.0000 </r>
       <r>    -9.1435     0.0000    10.0000 </r>
       <r>    -8.9814     0.0000    10.0000 </r>
       <r>    -8.8193     0.0000    10.0000 </r>
       <r>    -8.6572     0.0000    10.0000 </r>
       <r>    -8.4951     0.0000    10.0000 </r>
       <r>    -8.3330     0.0000    10.0000 </r>
       <r>    -8.1709     0.0000    10.0000 </r>
       <r>    -8.0088     0.0000    10.0000 </r>
       <r>    -7.8467     0.0000    10.0000 </r>
       <r>    -7.6846     0.0000    10.0000 </r>
       <r>    -7.5225     0.0000    10.0000 </r>
       <r>    -7.3604     0.0000    10.0000 </r>
       <r>    -7.1983     0.0000    10.0000 </r>
       <r>    -7.0362     0.0000    10.0000 </r>
       <r>    -6.8741     0.0000    10.0000 </r>
       <r>    -6.7120     0.0000    10.0000 </r>
       <r>    -6.5499    -0.0000    10.0000 </r>
       <r>    -6.3878    -0.0000    10.0000 </r>
       <r>    -6.2257    -0.0000    10.0000 </r>
       <r>    -6.0636    -0.0000    10.0000 </r>
       <r>    -5.9015    -0.0004     9.9999 </r>
       <r>    -5.7394    -0.0199     9.9967 </r>
       <r>    -5.5772     0.7186    10.1132 </r>
       <r>    -5.4151     1.3007    10.3240 </r>
       <r>    -5.2530     2.2246    10.6846 </r>
       <r>    -5.0909     2.9713    11.1663 </r>
       <r>    -4.9288     4.8121    11.9464 </r>
       <r>    -4.7667     2.5062    12.3526 </r>
       <r>    -4.6046     2.4757    12.7539 </r>
       <r>    -4.4425     1.2346    12.9541 </r>
       <r>    -4.2804     0.4554    13.0279 </r>
       <r>    -4.1183     0.7748    13.1535 </r>
       <r>    -3.9562     2.0960    13.4932 </r>
       <r>    -3.7941     4.1131    14.1600 </r>
       <r>    -3.6320     4.4243    14.8772 </r>
       <r>    -3.4699     2.7840    15.3285 </r>
       <r>    -3.3078     1.1249    15.5108 </r>
       <r>    -3.1457     3.8103    16.1285 </r>
       <r>    -2.9836     5.2211    16.9748 </r>
       <r>    -2.8215     2.8918    17.4436 </r>
       <r>    -2.6594     1.6154    17.7054 </r>
       <r>    -2.4973     1.0486    17.8754 </r>
       <r>    -2.3352     1.9396    18.1898 </r>
       <r>    -2.1731     1.7983    18.4813 </r>
       <r>    -2.0110     3.3925    19.0313 </r>
       <r>    -1.8489     3.7270    19.6354 </r>
       <r>    -1.6868     3.0342    20.1273 </r>
       <r>    -1.5247     2.8767    20.5936 </r>
       <r>    -1.3626     3.5193    21.1641 </r>
       <r>    -1.2005     1.4376    21.3971 </r>
       <r>    -1.0384     2.1522    21.7460 </r>
       <r>    -0.8763     1.8996    22.0539 </r>
       <r>    -0.7142     3.6549    22.6464 </r>
       <r>    -0.5521     2.8657    23.1109 </r>
       <r>    -0.3900     2.2080    23.4688 </r>
       <r>    -0.2279     1.8097    23.7622 </r>
       <r>    -0.0658     0.9412    23.9148 </r>
       <r>     0.0963     0.2838    23.9608 </r>
       <r>     0.2584     0.2300    23.9981 </r>
       <r>     0.4205     0.0129    24.0001 </r>
       <r>     0.5826    -0.0008    24.0000 </r>
       <r>     0.7447    -0.0000    24.0000 </r>
       <r>     0.9068    -0.0000    24.0000 </r>
       <r>     1.0689    -0.0000    24.0000 </r>
       <r>     1.2310    -0.0000    24.0000 </r>
       <r>     1.3931    -0.0000    24.0000 </r>
       <r>     1.5552    -0.0146    23.9976 </r>
       <r>     1.7173     0.2918    24.0449 </r>
       <r>     1.8794     1.3895    24.2702 </r>
       <r>     2.0415     3.0978    24.7723 </r>
       <r>     2.2036     5.2614    25.6252 </r>
       <r>     2.3657     3.5856    26.2065 </r>
       <r>     2.5278     5.0543    27.0258 </r>
       <r>     2.6899     4.6903    27.7861 </r>
       <r>     2.8520     3.3139    28.3233 </r>
       <r>     3.0141     2.7945    28.7763 </r>
       <r>     3.1762     2.7366    29.2199 </r>
       <r>     3.3383     2.2630    29.5867 </r>
       <r>     3.5005     1.6400    29.8526 </r>
       <r>     3.6626     2.0854    30.1906 </r>
       <r>     3.8247     0.9139    30.3387 </r>
       <r>     3.9868     2.0664    30.6737 </r>
       <r>     4.1489     2.3350    31.0522 </r>
       <r>     4.3110     2.6748    31.4858 </r>
       <r>     4.4731     1.5441    31.7361 </r>
       <r>     4.6352     0.9037    31.8826 </r>
       <r>     4.7973     0.6240    31.9837 </r>
       <r>     4.9594     0.1059    32.0009 </r>
       <r>     5.1215    -0.0057    32.0000 </r>
       <r>     5.2836    -0.0015    31.9998 </r>
       <r>     5.4457     0.0283    32.0043 </r>
       <r>     5.6078     0.2154    32.0393 </r>
       <r>     5.7699     0.1192    32.0586 </r>
       <r>     5.9320     0.5714    32.1512 </r>
       <r>     6.0941     0.4079    32.2173 </r>
       <r>     6.2562     0.8247    32.3510 </r>
       <r>     6.4183     0.7464    32.4720 </r>
       <r>     6.5804     1.4465    32.7065 </r>
       <r>     6.7425     0.6464    32.8113 </r>
       <r>     6.9046     1.7913    33.1016 </r>
       <r>     7.0667     1.7880    33.3915 </r>
       <r>     7.2288     1.3547    33.6111 </r>
       <r>     7.3909     1.3241    33.8257 </r>
       <r>     7.5530     1.6842    34.0987 </r>
       <r>     7.7151     1.9442    34.4139 </r>
       <r>     7.8772     1.1983    34.6081 </r>
       <r>     8.0393     0.7220    34.7252 </r>
       <r>     8.2014     2.2368    35.0878 </r>
       <r>     8.3635     2.5631    35.5032 </r>
       <r>     8.5256     1.1794    35.6944 </r>
       <r>     8.6877     0.4501    35.7674 </r>
       <r>     8.8498     0.8910    35.9118 </r>
       <r>     9.0119     0.4719    35.9883 </r>
       <r>     9.1740     0.0751    36.0005 </r>
       <r>     9.3361    -0.0030    36.0000 </r>
       <r>     9.4982    -0.0000    36.0000 </r>
       <r>     9.6603    -0.0000    36.0000 </r>
       <r>     9.8224    -0.0000    36.0000 </r>
       <r>     9.9845     0.0000    36.0000 </r>
       <r>    10.1466     0.0000    36.0000 </r>
       <r>    10.3087     0.0000    36.0000 </r>
       <r>    10.4708     0.0000    36.0000 </r>
       <r>    10.6329     0.0000    36.0000 </r>
       <r>    10.7950     0.0000    36.0000 </r>
       <r>    10.9571     0.0000    36.0000 </r>
       <r>    11.1192     0.0000    36.0000 </r>
       <r>    11.2813     0.0000    36.0000 </r>
      </set>
     </set>
    </array>
   </total>
  </dos>
 </calculation>
 <structure name="finalpos" >
  <crystal>
   <varray name="basis" >
    <v>       3.19031700       0.00000000       0.00000000 </v>
    <v>      -1.59515800       2.76289700       0.00000000 </v>
    <v>       0.00000000       0.00000000      23.14049200 </v>
   </varray>
   <i name="volume">    203.97226633 </i>
   <varray name="rec_basis" >
    <v>       0.31344848       0.18096941       0.00000000 </v>
    <v>       0.00000000       0.36193894       0.00000000 </v>
    <v>       0.00000000       0.00000000       0.04321429 </v>
   </varray>
  </crystal>
  <varray name="positions" >
   <v>       0.66666700       0.33333300       0.06785900 </v>
   <v>       0.33333300       0.66666700       0.00000000 </v>
   <v>       0.33333300       0.66666700       0.13571500 </v>
   <v>       0.38095271       0.33333300       0.35482300 </v>
   <v>       0.04761871       0.66666700       0.28696500 </v>
   <v>       0.04761871       0.66666700       0.42267900 </v>
  </varray>
 </structure>
</modeling>
