  24  24   0   0
  0.4176334E+02  0.3540400E-09  0.1044544E-08  0.2750143E-08  0.5000000E-15
  1.000000000000000E-004
  CAR 
 unknown system                          
      4.20218624    -15.48695545  301     -0.08251831      1.00000000
    -15.487  0.0000E+00  0.0000E+00
    -15.421  0.0000E+00  0.0000E+00
    -15.356  0.0000E+00  0.0000E+00
    -15.290  0.0000E+00  0.0000E+00
    -15.224  0.0000E+00  0.0000E+00
    -15.159  0.0000E+00  0.0000E+00
    -15.093  0.0000E+00  0.0000E+00
    -15.028  0.1633E-13  0.1072E-14
    -14.962  0.1520E-10  0.9990E-12
    -14.896  0.6088E-08  0.4006E-09
    -14.831  0.1058E-05  0.6986E-07
    -14.765  0.8077E-04  0.5371E-05
    -14.699  0.2754E-02  0.1861E-03
    -14.634  0.4309E-01  0.3014E-02
    -14.568  0.3210E+00  0.2408E-01
    -14.502  0.1184E+01  0.1018E+00
    -14.437  0.2229E+01  0.2481E+00
    -14.371  0.2271E+01  0.3972E+00
    -14.306  0.1788E+01  0.5145E+00
    -14.240  0.1815E+01  0.6336E+00
    -14.174  0.1426E+01  0.7272E+00
    -14.109  0.6515E+00  0.7699E+00
    -14.043  0.6752E+00  0.8143E+00
    -13.977  0.1438E+01  0.9086E+00
    -13.912  0.1584E+01  0.1013E+01
    -13.846  0.7878E+00  0.1064E+01
    -13.781  0.1934E+00  0.1077E+01
    -13.715  0.2097E+00  0.1091E+01
    -13.649  0.9251E+00  0.1151E+01
    -13.584  0.2164E+01  0.1293E+01
    -13.518  0.2803E+01  0.1477E+01
    -13.452  0.2532E+01  0.1644E+01
    -13.387  0.2099E+01  0.1781E+01
    -13.321  0.1941E+01  0.1909E+01
    -13.256  0.2124E+01  0.2048E+01
    -13.190  0.2742E+01  0.2228E+01
    -13.124  0.3149E+01  0.2435E+01
    -13.059  0.2858E+01  0.2622E+01
    -12.993  0.2961E+01  0.2817E+01
    -12.927  0.3706E+01  0.3060E+01
    -12.862  0.4659E+01  0.3366E+01
    -12.796  0.5461E+01  0.3724E+01
    -12.730  0.5258E+01  0.4069E+01
    -12.665  0.4719E+01  0.4379E+01
    -12.599  0.4949E+01  0.4704E+01
    -12.534  0.4990E+01  0.5031E+01
    -12.468  0.4653E+01  0.5337E+01
    -12.402  0.4423E+01  0.5627E+01
    -12.337  0.4488E+01  0.5921E+01
    -12.271  0.4579E+01  0.6222E+01
    -12.205  0.4631E+01  0.6526E+01
    -12.140  0.5343E+01  0.6877E+01
    -12.074  0.6985E+01  0.7335E+01
    -12.009  0.8974E+01  0.7924E+01
    -11.943  0.8961E+01  0.8512E+01
    -11.877  0.6868E+01  0.8963E+01
    -11.812  0.5508E+01  0.9324E+01
    -11.746  0.5993E+01  0.9718E+01
    -11.680  0.7166E+01  0.1019E+02
    -11.615  0.7873E+01  0.1070E+02
    -11.549  0.8569E+01  0.1127E+02
    -11.483  0.9032E+01  0.1186E+02
    -11.418  0.8791E+01  0.1244E+02
    -11.352  0.8807E+01  0.1301E+02
    -11.287  0.9803E+01  0.1366E+02
    -11.221  0.1028E+02  0.1433E+02
    -11.155  0.9441E+01  0.1495E+02
    -11.090  0.9504E+01  0.1558E+02
    -11.024  0.1087E+02  0.1629E+02
    -10.958  0.1125E+02  0.1703E+02
    -10.893  0.1078E+02  0.1774E+02
    -10.827  0.1066E+02  0.1844E+02
    -10.762  0.1043E+02  0.1912E+02
    -10.696  0.1046E+02  0.1981E+02
    -10.630  0.1050E+02  0.2050E+02
    -10.565  0.8902E+01  0.2108E+02
    -10.499  0.6272E+01  0.2149E+02
    -10.433  0.4301E+01  0.2177E+02
    -10.368  0.2445E+01  0.2193E+02
    -10.302  0.8405E+00  0.2199E+02
    -10.237  0.1655E+00  0.2200E+02
    -10.171  0.1755E+00  0.2201E+02
    -10.105  0.8040E+00  0.2206E+02
    -10.040  0.2172E+01  0.2221E+02
     -9.974  0.3676E+01  0.2245E+02
     -9.908  0.5129E+01  0.2278E+02
     -9.843  0.6848E+01  0.2323E+02
     -9.777  0.6724E+01  0.2368E+02
     -9.711  0.4086E+01  0.2394E+02
     -9.646  0.2254E+01  0.2409E+02
     -9.580  0.1871E+01  0.2421E+02
     -9.515  0.1366E+01  0.2430E+02
     -9.449  0.1250E+01  0.2439E+02
     -9.383  0.1606E+01  0.2449E+02
     -9.318  0.1278E+01  0.2458E+02
     -9.252  0.5173E+00  0.2461E+02
     -9.186  0.2392E+00  0.2463E+02
     -9.121  0.7372E+00  0.2467E+02
     -9.055  0.1920E+01  0.2480E+02
     -8.990  0.2843E+01  0.2499E+02
     -8.924  0.2723E+01  0.2516E+02
     -8.858  0.2543E+01  0.2533E+02
     -8.793  0.3321E+01  0.2555E+02
     -8.727  0.4237E+01  0.2583E+02
     -8.661  0.4927E+01  0.2615E+02
     -8.596  0.6145E+01  0.2655E+02
     -8.530  0.7393E+01  0.2704E+02
     -8.464  0.7810E+01  0.2755E+02
     -8.399  0.6705E+01  0.2799E+02
     -8.333  0.4155E+01  0.2827E+02
     -8.268  0.2255E+01  0.2841E+02
     -8.202  0.2103E+01  0.2855E+02
     -8.136  0.2765E+01  0.2873E+02
     -8.071  0.3087E+01  0.2894E+02
     -8.005  0.3300E+01  0.2915E+02
     -7.939  0.4438E+01  0.2944E+02
     -7.874  0.6459E+01  0.2987E+02
     -7.808  0.8732E+01  0.3044E+02
     -7.743  0.9645E+01  0.3107E+02
     -7.677  0.8234E+01  0.3161E+02
     -7.611  0.6530E+01  0.3204E+02
     -7.546  0.5754E+01  0.3242E+02
     -7.480  0.6078E+01  0.3282E+02
     -7.414  0.7343E+01  0.3330E+02
     -7.349  0.8253E+01  0.3384E+02
     -7.283  0.8181E+01  0.3438E+02
     -7.218  0.6933E+01  0.3483E+02
     -7.152  0.5092E+01  0.3517E+02
     -7.086  0.4158E+01  0.3544E+02
     -7.021  0.5022E+01  0.3577E+02
     -6.955  0.6748E+01  0.3621E+02
     -6.889  0.7957E+01  0.3674E+02
     -6.824  0.9164E+01  0.3734E+02
     -6.758  0.1217E+02  0.3814E+02
     -6.692  0.1500E+02  0.3912E+02
     -6.627  0.1311E+02  0.3998E+02
     -6.561  0.8868E+01  0.4056E+02
     -6.496  0.6955E+01  0.4102E+02
     -6.430  0.6688E+01  0.4146E+02
     -6.364  0.6326E+01  0.4187E+02
     -6.299  0.5331E+01  0.4222E+02
     -6.233  0.4520E+01  0.4252E+02
     -6.167  0.4145E+01  0.4279E+02
     -6.102  0.3231E+01  0.4300E+02
     -6.036  0.2525E+01  0.4317E+02
     -5.971  0.2918E+01  0.4336E+02
     -5.905  0.3431E+01  0.4359E+02
     -5.839  0.4006E+01  0.4385E+02
     -5.774  0.4938E+01  0.4417E+02
     -5.708  0.5761E+01  0.4455E+02
     -5.642  0.6171E+01  0.4496E+02
     -5.577  0.5722E+01  0.4533E+02
     -5.511  0.4169E+01  0.4561E+02
     -5.445  0.3046E+01  0.4581E+02
     -5.380  0.3598E+01  0.4604E+02
     -5.314  0.4281E+01  0.4632E+02
     -5.249  0.4189E+01  0.4660E+02
     -5.183  0.3875E+01  0.4685E+02
     -5.117  0.4165E+01  0.4713E+02
     -5.052  0.6050E+01  0.4752E+02
     -4.986  0.8261E+01  0.4807E+02
     -4.920  0.9584E+01  0.4869E+02
     -4.855  0.1034E+02  0.4937E+02
     -4.789  0.1118E+02  0.5011E+02
     -4.724  0.1164E+02  0.5087E+02
     -4.658  0.1137E+02  0.5162E+02
     -4.592  0.1180E+02  0.5239E+02
     -4.527  0.1256E+02  0.5322E+02
     -4.461  0.1215E+02  0.5401E+02
     -4.395  0.1135E+02  0.5476E+02
     -4.330  0.1113E+02  0.5549E+02
     -4.264  0.1153E+02  0.5625E+02
     -4.199  0.1318E+02  0.5711E+02
     -4.133  0.1549E+02  0.5813E+02
     -4.067  0.1635E+02  0.5920E+02
     -4.002  0.1457E+02  0.6016E+02
     -3.936  0.1121E+02  0.6089E+02
     -3.870  0.9462E+01  0.6151E+02
     -3.805  0.1109E+02  0.6224E+02
     -3.739  0.1385E+02  0.6315E+02
     -3.673  0.1463E+02  0.6411E+02
     -3.608  0.1351E+02  0.6500E+02
     -3.542  0.1231E+02  0.6581E+02
     -3.477  0.1248E+02  0.6662E+02
     -3.411  0.1373E+02  0.6753E+02
     -3.345  0.1486E+02  0.6850E+02
     -3.280  0.1535E+02  0.6951E+02
     -3.214  0.1506E+02  0.7050E+02
     -3.148  0.1571E+02  0.7153E+02
     -3.083  0.1717E+02  0.7265E+02
     -3.017  0.1706E+02  0.7377E+02
     -2.952  0.1548E+02  0.7479E+02
     -2.886  0.1405E+02  0.7571E+02
     -2.820  0.1396E+02  0.7663E+02
     -2.755  0.1551E+02  0.7765E+02
     -2.689  0.1685E+02  0.7875E+02
     -2.623  0.1657E+02  0.7984E+02
     -2.558  0.1565E+02  0.8087E+02
     -2.492  0.1512E+02  0.8186E+02
     -2.426  0.1537E+02  0.8287E+02
     -2.361  0.1553E+02  0.8389E+02
     -2.295  0.1551E+02  0.8490E+02
     -2.230  0.1603E+02  0.8596E+02
     -2.164  0.1669E+02  0.8705E+02
     -2.098  0.1757E+02  0.8820E+02
     -2.033  0.1857E+02  0.8942E+02
     -1.967  0.1933E+02  0.9069E+02
     -1.901  0.1985E+02  0.9199E+02
     -1.836  0.1890E+02  0.9323E+02
     -1.770  0.1618E+02  0.9430E+02
     -1.705  0.1242E+02  0.9511E+02
     -1.639  0.9495E+01  0.9573E+02
     -1.573  0.9871E+01  0.9638E+02
     -1.508  0.1171E+02  0.9715E+02
     -1.442  0.1176E+02  0.9792E+02
     -1.376  0.1057E+02  0.9862E+02
     -1.311  0.8861E+01  0.9920E+02
     -1.245  0.7272E+01  0.9968E+02
     -1.180  0.7595E+01  0.1002E+03
     -1.114  0.8736E+01  0.1007E+03
     -1.048  0.8515E+01  0.1013E+03
     -0.983  0.8112E+01  0.1018E+03
     -0.917  0.8799E+01  0.1024E+03
     -0.851  0.8969E+01  0.1030E+03
     -0.786  0.7493E+01  0.1035E+03
     -0.720  0.5932E+01  0.1039E+03
     -0.654  0.5383E+01  0.1042E+03
     -0.589  0.5033E+01  0.1046E+03
     -0.523  0.5394E+01  0.1049E+03
     -0.458  0.7093E+01  0.1054E+03
     -0.392  0.7997E+01  0.1059E+03
     -0.326  0.7191E+01  0.1064E+03
     -0.261  0.6723E+01  0.1068E+03
     -0.195  0.7161E+01  0.1073E+03
     -0.129  0.6827E+01  0.1077E+03
     -0.064  0.5197E+01  0.1081E+03
      0.002  0.4162E+01  0.1084E+03
      0.067  0.4273E+01  0.1086E+03
      0.133  0.4093E+01  0.1089E+03
      0.199  0.2998E+01  0.1091E+03
      0.264  0.1761E+01  0.1092E+03
      0.330  0.1091E+01  0.1093E+03
      0.396  0.8839E+00  0.1094E+03
      0.461  0.8670E+00  0.1094E+03
      0.527  0.9204E+00  0.1095E+03
      0.593  0.1119E+01  0.1095E+03
      0.658  0.2032E+01  0.1097E+03
      0.724  0.3853E+01  0.1099E+03
      0.789  0.5414E+01  0.1103E+03
      0.855  0.6278E+01  0.1107E+03
      0.921  0.6914E+01  0.1111E+03
      0.986  0.6966E+01  0.1116E+03
      1.052  0.6831E+01  0.1121E+03
      1.118  0.7258E+01  0.1125E+03
      1.183  0.7672E+01  0.1130E+03
      1.249  0.7982E+01  0.1136E+03
      1.314  0.9624E+01  0.1142E+03
      1.380  0.1112E+02  0.1149E+03
      1.446  0.1036E+02  0.1156E+03
      1.511  0.9793E+01  0.1162E+03
      1.577  0.1071E+02  0.1169E+03
      1.643  0.1096E+02  0.1177E+03
      1.708  0.1048E+02  0.1184E+03
      1.774  0.1082E+02  0.1191E+03
      1.839  0.1167E+02  0.1198E+03
      1.905  0.1267E+02  0.1207E+03
      1.971  0.1389E+02  0.1216E+03
      2.036  0.1472E+02  0.1225E+03
      2.102  0.1471E+02  0.1235E+03
      2.168  0.1502E+02  0.1245E+03
      2.233  0.1570E+02  0.1255E+03
      2.299  0.1525E+02  0.1265E+03
      2.365  0.1463E+02  0.1275E+03
      2.430  0.1469E+02  0.1284E+03
      2.496  0.1456E+02  0.1294E+03
      2.561  0.1494E+02  0.1304E+03
      2.627  0.1552E+02  0.1314E+03
      2.693  0.1415E+02  0.1323E+03
      2.758  0.1152E+02  0.1331E+03
      2.824  0.9399E+01  0.1337E+03
      2.890  0.8402E+01  0.1343E+03
      2.955  0.7827E+01  0.1348E+03
      3.021  0.6917E+01  0.1352E+03
      3.086  0.5451E+01  0.1356E+03
      3.152  0.3611E+01  0.1358E+03
      3.218  0.1906E+01  0.1359E+03
      3.283  0.7307E+00  0.1360E+03
      3.349  0.1765E+00  0.1360E+03
      3.415  0.2325E-01  0.1360E+03
      3.480  0.1504E-02  0.1360E+03
      3.546  0.4500E-04  0.1360E+03
      3.612  0.6018E-06  0.1360E+03
      3.677  0.3532E-08  0.1360E+03
      3.743  0.8994E-11  0.1360E+03
      3.808  0.9890E-14  0.1360E+03
      3.874  0.0000E+00  0.1360E+03
      3.940  0.0000E+00  0.1360E+03
      4.005  0.0000E+00  0.1360E+03
      4.071  0.0000E+00  0.1360E+03
      4.137  0.0000E+00  0.1360E+03
      4.202  0.0000E+00  0.1360E+03
