   24   24    1    1
  0.4176334E+02  0.3540400E-09  0.1044544E-08  0.2750143E-08  0.5000000E-15
  1.000000000000000E-004
  CAR 
 unknown system                          
    108     54     68
 
  0.0000000E+00  0.0000000E+00  0.0000000E+00  0.9615385E-02
    1      -14.486955
    2      -13.572330
    3      -12.832998
    4      -12.804518
    5      -12.521186
    6      -12.209453
    7      -12.111951
    8      -12.085000
    9      -11.464704
   10      -11.228931
   11      -11.022656
   12      -10.081624
   13       -8.478779
   14       -8.064317
   15       -7.860923
   16       -7.502711
   17       -6.953765
   18       -6.862035
   19       -6.524730
   20       -6.497025
   21       -5.857659
   22       -5.663304
   23       -4.797585
   24       -4.572039
   25       -4.105578
   26       -3.828853
   27       -3.725929
   28       -3.628635
   29       -3.464964
   30       -3.088660
   31       -3.075140
   32       -2.876167
   33       -2.857960
   34       -2.727926
   35       -2.572870
   36       -2.485712
   37       -2.422003
   38       -2.411882
   39       -2.215592
   40       -2.045864
   41       -1.945470
   42       -1.887409
   43       -1.759762
   44       -1.751533
   45       -1.673488
   46       -1.609814
   47       -1.463541
   48       -1.384221
   49       -1.146677
   50       -1.105173
   51       -0.964451
   52       -0.420530
   53       -0.250744
   54        0.019050
   55        0.739814
   56        0.955095
   57        1.150414
   58        1.284922
   59        1.470584
   60        1.583956
   61        1.686230
   62        1.797657
   63        1.953304
   64        2.056120
   65        2.125299
   66        2.400141
   67        2.512622
   68        2.568957
 
  0.7692308E-01 -0.1387779E-16  0.0000000E+00  0.1923077E-01
    1      -14.428524
    2      -13.510975
    3      -12.780848
    4      -12.749061
    5      -12.465548
    6      -12.154429
    7      -12.054221
    8      -12.025448
    9      -11.415791
   10      -11.183486
   11      -10.974278
   12      -10.049889
   13       -8.458639
   14       -8.101213
   15       -7.823913
   16       -7.527254
   17       -6.935090
   18       -6.833900
   19       -6.518720
   20       -6.488695
   21       -5.823809
   22       -5.644469
   23       -4.803939
   24       -4.655284
   25       -4.131278
   26       -4.000373
   27       -3.759021
   28       -3.689924
   29       -3.591618
   30       -3.450677
   31       -3.316944
   32       -3.264277
   33       -3.064525
   34       -2.909377
   35       -2.769770
   36       -2.602593
   37       -2.524981
   38       -2.489931
   39       -2.270457
   40       -2.230516
   41       -2.163992
   42       -2.074980
   43       -1.997290
   44       -1.952663
   45       -1.850147
   46       -1.768556
   47       -1.542697
   48       -1.347412
   49       -1.165009
   50       -1.071657
   51       -0.925987
   52       -0.327049
   53       -0.229920
   54        0.022569
   55        0.753029
   56        0.924280
   57        1.465742
   58        1.531498
   59        1.724460
   60        1.754773
   61        2.075475
   62        2.114311
   63        2.198694
   64        2.250848
   65        2.358008
   66        2.498295
   67        2.583757
   68        2.735489
 
  0.1538462E+00 -0.2775558E-16  0.0000000E+00  0.1923077E-01
    1      -14.254921
    2      -13.327978
    3      -12.625114
    4      -12.584454
    5      -12.300646
    6      -11.992944
    7      -11.885345
    8      -11.849643
    9      -11.273881
   10      -11.053462
   11      -10.835468
   12       -9.963095
   13       -8.440027
   14       -8.197814
   15       -7.782058
   16       -7.626689
   17       -6.920582
   18       -6.764900
   19       -6.530263
   20       -6.479409
   21       -5.749106
   22       -5.639858
   23       -5.061402
   24       -4.897376
   25       -4.335799
   26       -4.235187
   27       -4.134996
   28       -4.094430
   29       -4.005348
   30       -3.809602
   31       -3.776702
   32       -3.684013
   33       -3.489499
   34       -3.345125
   35       -3.201568
   36       -3.077374
   37       -2.999510
   38       -2.935405
   39       -2.722523
   40       -2.581621
   41       -2.405316
   42       -2.323501
   43       -2.191679
   44       -2.069741
   45       -1.922746
   46       -1.791513
   47       -1.682280
   48       -1.415921
   49       -1.251689
   50       -1.063360
   51       -0.918406
   52       -0.402728
   53       -0.111630
   54        0.059446
   55        0.298750
   56        1.088412
   57        1.397642
   58        1.843969
   59        1.948735
   60        2.015192
   61        2.222862
   62        2.394405
   63        2.583245
   64        2.639922
   65        2.854122
   66        2.907371
   67        2.990371
   68        3.026604
 
  0.2307692E+00 -0.4163336E-16  0.0000000E+00  0.1923077E-01
    1      -13.972081
    2      -13.026914
    3      -12.368867
    4      -12.316981
    5      -12.033642
    6      -11.736088
    7      -11.622033
    8      -11.568782
    9      -11.057154
   10      -10.863062
   11      -10.632363
   12       -9.850770
   13       -8.618995
   14       -8.390021
   15       -7.855635
   16       -7.717589
   17       -7.030995
   18       -6.733281
   19       -6.664235
   20       -6.516702
   21       -5.886912
   22       -5.768518
   23       -5.370442
   24       -5.257489
   25       -4.852203
   26       -4.778255
   27       -4.637067
   28       -4.566056
   29       -4.529556
   30       -4.234980
   31       -4.188002
   32       -4.082529
   33       -3.818813
   34       -3.649858
   35       -3.497616
   36       -3.436590
   37       -3.212930
   38       -3.030964
   39       -2.794818
   40       -2.705948
   41       -2.612522
   42       -2.512061
   43       -2.430193
   44       -2.079426
   45       -1.939117
   46       -1.864184
   47       -1.768459
   48       -1.611744
   49       -1.497671
   50       -1.154848
   51       -1.073944
   52       -0.734851
   53       -0.395315
   54       -0.137942
   55        0.126500
   56        0.957251
   57        1.507930
   58        1.825331
   59        1.846312
   60        1.980150
   61        2.042709
   62        2.233199
   63        2.342073
   64        2.637869
   65        2.675775
   66        2.763734
   67        2.857106
   68        2.934896
 
  0.3076923E+00 -0.5551115E-16  0.0000000E+00  0.1923077E-01
    1      -13.594165
    2      -12.615083
    3      -12.020575
    4      -11.961916
    5      -11.681284
    6      -11.412935
    7      -11.301305
    8      -11.215775
    9      -10.813008
   10      -10.674659
   11      -10.446422
   12       -9.777380
   13       -9.075805
   14       -8.685392
   15       -8.116053
   16       -7.644213
   17       -7.357960
   18       -7.028149
   19       -6.931259
   20       -6.690143
   21       -6.422303
   22       -6.194251
   23       -5.994331
   24       -5.539866
   25       -5.243782
   26       -5.067491
   27       -4.912445
   28       -4.822941
   29       -4.730075
   30       -4.453161
   31       -4.340125
   32       -4.251121
   33       -4.176828
   34       -3.688651
   35       -3.446754
   36       -3.378352
   37       -3.136286
   38       -3.075562
   39       -3.025362
   40       -2.869744
   41       -2.675070
   42       -2.592340
   43       -2.493212
   44       -2.217296
   45       -2.089122
   46       -1.965352
   47       -1.908577
   48       -1.896235
   49       -1.737061
   50       -1.545855
   51       -1.320128
   52       -0.886575
   53       -0.627916
   54       -0.441645
   55       -0.118078
   56        0.876654
   57        1.378000
   58        1.548547
   59        1.635289
   60        1.772062
   61        1.935203
   62        1.998925
   63        2.198860
   64        2.327861
   65        2.413854
   66        2.627216
   67        2.696941
   68        2.806280
 
  0.3846154E+00 -0.8326673E-16  0.0000000E+00  0.1923077E-01
    1      -13.157884
    2      -12.106671
    3      -11.601500
    4      -11.564814
    5      -11.282688
    6      -11.158659
    7      -10.971203
    8      -10.877066
    9      -10.658499
   10      -10.592998
   11      -10.486493
   12       -9.815738
   13       -9.436102
   14       -8.861888
   15       -8.408555
   16       -7.761587
   17       -7.598332
   18       -7.489680
   19       -7.444161
   20       -7.076233
   21       -6.810360
   22       -6.790847
   23       -6.689602
   24       -6.198205
   25       -5.244080
   26       -4.961602
   27       -4.767454
   28       -4.663074
   29       -4.556577
   30       -4.329171
   31       -4.267103
   32       -4.193049
   33       -4.096949
   34       -3.820676
   35       -3.686952
   36       -3.447141
   37       -3.304506
   38       -3.238416
   39       -3.164426
   40       -2.827425
   41       -2.801840
   42       -2.620900
   43       -2.484925
   44       -2.378775
   45       -2.276935
   46       -2.141587
   47       -2.085210
   48       -2.048976
   49       -1.904974
   50       -1.836472
   51       -1.441897
   52       -1.169465
   53       -0.798707
   54       -0.601655
   55       -0.280818
   56        0.824011
   57        1.102149
   58        1.332873
   59        1.439881
   60        1.683890
   61        1.695876
   62        1.976713
   63        2.054245
   64        2.212815
   65        2.239352
   66        2.358735
   67        2.442438
   68        2.636224
 
  0.4615385E+00 -0.8326673E-16  0.0000000E+00  0.1923077E-01
    1      -12.783753
    2      -11.533206
    3      -11.400285
    4      -11.178820
    5      -11.030849
    6      -10.976804
    7      -10.875353
    8      -10.761733
    9      -10.744740
   10      -10.666283
   11      -10.570269
   12       -9.835178
   13       -9.619217
   14       -8.719817
   15       -8.471088
   16       -8.111202
   17       -7.947255
   18       -7.763797
   19       -7.601128
   20       -7.400143
   21       -7.314715
   22       -7.211939
   23       -6.884021
   24       -6.580616
   25       -4.949245
   26       -4.748500
   27       -4.588382
   28       -4.530988
   29       -4.377418
   30       -4.302477
   31       -4.103429
   32       -4.033301
   33       -3.965952
   34       -3.872415
   35       -3.846933
   36       -3.618864
   37       -3.553621
   38       -3.318232
   39       -3.281021
   40       -3.065855
   41       -2.991887
   42       -2.742484
   43       -2.702552
   44       -2.391454
   45       -2.274572
   46       -2.185758
   47       -2.138404
   48       -2.020054
   49       -1.992750
   50       -1.730372
   51       -1.562671
   52       -1.506479
   53       -0.838638
   54       -0.628787
   55       -0.405646
   56        0.808311
   57        0.904851
   58        1.197386
   59        1.351529
   60        1.562817
   61        1.629116
   62        1.835389
   63        1.998583
   64        2.035008
   65        2.152208
   66        2.327916
   67        2.402379
   68        2.504175
 
  0.0000000E+00  0.2500000E+00  0.0000000E+00  0.1923077E-01
    1      -14.482834
    2      -13.516897
    3      -13.006770
    4      -12.858277
    5      -12.519751
    6      -12.203144
    7      -12.001943
    8      -11.897462
    9      -11.509805
   10      -11.265750
   11      -11.031440
   12      -10.035997
   13       -8.577189
   14       -8.541110
   15       -7.722152
   16       -7.417104
   17       -6.761338
   18       -6.699642
   19       -6.623144
   20       -6.397342
   21       -5.780164
   22       -5.570753
   23       -4.694967
   24       -4.498895
   25       -4.074180
   26       -3.990484
   27       -3.800752
   28       -3.701454
   29       -3.465670
   30       -3.297209
   31       -3.159242
   32       -3.019721
   33       -2.838101
   34       -2.741006
   35       -2.551048
   36       -2.427540
   37       -2.420116
   38       -2.354415
   39       -2.244461
   40       -2.164896
   41       -2.026843
   42       -1.931548
   43       -1.899787
   44       -1.782227
   45       -1.659132
   46       -1.546920
   47       -1.394337
   48       -1.346740
   49       -1.163991
   50       -1.040141
   51       -0.946780
   52       -0.304463
   53       -0.183641
   54        0.105365
   55        0.798990
   56        1.040957
   57        1.172386
   58        1.341571
   59        1.428668
   60        1.637375
   61        1.735790
   62        1.773696
   63        1.859239
   64        2.133702
   65        2.222697
   66        2.483375
   67        2.533419
   68        2.625276
 
  0.7692308E-01  0.2500000E+00  0.0000000E+00  0.1923077E-01
    1      -14.423609
    2      -13.440016
    3      -12.987676
    4      -12.812740
    5      -12.462647
    6      -12.147227
    7      -11.929009
    8      -11.798518
    9      -11.468478
   10      -11.226775
   11      -10.987126
   12       -9.998881
   13       -8.609920
   14       -8.558565
   15       -7.758608
   16       -7.368081
   17       -6.737476
   18       -6.706373
   19       -6.559823
   20       -6.382027
   21       -5.731879
   22       -5.519951
   23       -4.730142
   24       -4.583544
   25       -4.161287
   26       -4.079751
   27       -3.919772
   28       -3.740106
   29       -3.655676
   30       -3.521373
   31       -3.418132
   32       -3.131534
   33       -3.052635
   34       -2.987951
   35       -2.767589
   36       -2.698995
   37       -2.588626
   38       -2.526987
   39       -2.361831
   40       -2.321876
   41       -2.221504
   42       -2.127636
   43       -2.036043
   44       -1.901451
   45       -1.847547
   46       -1.773947
   47       -1.513279
   48       -1.340743
   49       -1.113607
   50       -0.979790
   51       -0.876932
   52       -0.238457
   53       -0.131789
   54        0.118273
   55        0.746011
   56        1.002485
   57        1.332005
   58        1.559201
   59        1.751964
   60        1.877917
   61        1.920245
   62        2.146931
   63        2.218603
   64        2.438509
   65        2.481528
   66        2.528969
   67        2.623052
   68        2.884087
 
  0.1538462E+00  0.2500000E+00  0.0000000E+00  0.1923077E-01
    1      -14.249525
    2      -13.243420
    3      -12.851167
    4      -12.654158
    5      -12.296201
    6      -11.983633
    7      -11.756698
    8      -11.601090
    9      -11.329052
   10      -11.100783
   11      -10.845877
   12       -9.914830
   13       -8.672906
   14       -8.515330
   15       -7.857741
   16       -7.337069
   17       -6.743371
   18       -6.687210
   19       -6.536174
   20       -6.390036
   21       -5.686408
   22       -5.548619
   23       -4.898451
   24       -4.866593
   25       -4.483905
   26       -4.404946
   27       -4.328270
   28       -4.033683
   29       -4.012992
   30       -3.910701
   31       -3.734891
   32       -3.662099
   33       -3.471112
   34       -3.327947
   35       -3.139374
   36       -2.997442
   37       -2.931644
   38       -2.847378
   39       -2.812441
   40       -2.672730
   41       -2.614826
   42       -2.387263
   43       -2.319069
   44       -2.052794
   45       -1.943605
   46       -1.865471
   47       -1.564348
   48       -1.464486
   49       -1.168435
   50       -0.972627
   51       -0.864218
   52       -0.408195
   53       -0.177027
   54        0.131677
   55        0.390307
   56        1.008376
   57        1.287165
   58        1.636488
   59        1.973418
   60        2.064822
   61        2.211915
   62        2.323238
   63        2.706322
   64        2.728385
   65        2.830747
   66        2.936499
   67        3.021316
   68        3.088177
 
  0.2307692E+00  0.2500000E+00  0.0000000E+00  0.1923077E-01
    1      -13.966612
    2      -12.931964
    3      -12.599780
    4      -12.388737
    5      -12.028242
    6      -11.720622
    7      -11.501403
    8      -11.324871
    9      -11.107288
   10      -10.911449
   11      -10.628539
   12       -9.815460
   13       -8.803779
   14       -8.643635
   15       -7.915102
   16       -7.424473
   17       -6.924346
   18       -6.728113
   19       -6.678737
   20       -6.473392
   21       -5.865502
   22       -5.835170
   23       -5.241896
   24       -5.150182
   25       -5.058169
   26       -4.724513
   27       -4.693481
   28       -4.601495
   29       -4.567744
   30       -4.325486
   31       -4.187356
   32       -4.040076
   33       -3.773699
   34       -3.641450
   35       -3.341783
   36       -3.237767
   37       -3.171972
   38       -3.122765
   39       -2.763186
   40       -2.717372
   41       -2.652336
   42       -2.561120
   43       -2.470129
   44       -2.073838
   45       -1.998895
   46       -1.926663
   47       -1.802964
   48       -1.642313
   49       -1.419211
   50       -1.145609
   51       -1.071728
   52       -0.717540
   53       -0.423886
   54       -0.147406
   55       -0.054215
   56        0.901193
   57        1.328270
   58        1.470538
   59        1.574377
   60        1.878138
   61        2.063528
   62        2.241034
   63        2.471580
   64        2.593896
   65        2.681177
   66        2.886295
   67        3.017371
   68        3.197691
 
  0.3076923E+00  0.2500000E+00  0.0000000E+00  0.1923077E-01
    1      -13.589134
    2      -12.515177
    3      -12.240708
    4      -12.031737
    5      -11.676363
    6      -11.378714
    7      -11.209356
    8      -11.011978
    9      -10.843622
   10      -10.718470
   11      -10.422913
   12       -9.769886
   13       -9.066956
   14       -9.002323
   15       -7.760348
   16       -7.738270
   17       -7.314532
   18       -7.144573
   19       -6.993991
   20       -6.705552
   21       -6.378323
   22       -6.221597
   23       -5.949077
   24       -5.644771
   25       -5.412578
   26       -5.045787
   27       -4.971837
   28       -4.704511
   29       -4.536729
   30       -4.439186
   31       -4.376495
   32       -4.228050
   33       -4.041520
   34       -3.767370
   35       -3.373783
   36       -3.234156
   37       -3.079120
   38       -3.021123
   39       -2.939097
   40       -2.890848
   41       -2.615197
   42       -2.519265
   43       -2.457838
   44       -2.334295
   45       -2.213449
   46       -1.996319
   47       -1.959171
   48       -1.866954
   49       -1.774117
   50       -1.520366
   51       -1.328611
   52       -0.965090
   53       -0.704702
   54       -0.520827
   55       -0.339665
   56        0.744844
   57        1.158696
   58        1.220787
   59        1.309384
   60        1.602074
   61        1.969625
   62        2.150430
   63        2.247646
   64        2.429780
   65        2.539489
   66        2.588150
   67        2.683726
   68        2.945553
 
  0.3846154E+00  0.2500000E+00  0.0000000E+00  0.1923077E-01
    1      -13.154056
    2      -12.011609
    3      -11.790657
    4      -11.626058
    5      -11.280403
    6      -11.076841
    7      -10.970216
    8      -10.755801
    9      -10.633163
   10      -10.606473
   11      -10.499202
   12       -9.835882
   13       -9.400254
   14       -8.992442
   15       -8.143292
   16       -7.812154
   17       -7.761122
   18       -7.623013
   19       -7.388493
   20       -6.990172
   21       -6.898031
   22       -6.725004
   23       -6.690684
   24       -6.297424
   25       -5.375869
   26       -4.987233
   27       -4.818555
   28       -4.641546
   29       -4.497399
   30       -4.440608
   31       -4.152258
   32       -4.075160
   33       -3.891675
   34       -3.759816
   35       -3.385198
   36       -3.345167
   37       -3.296713
   38       -3.163801
   39       -3.136286
   40       -2.957309
   41       -2.917696
   42       -2.723992
   43       -2.545066
   44       -2.355936
   45       -2.285880
   46       -2.113728
   47       -2.104351
   48       -2.017433
   49       -1.875365
   50       -1.738980
   51       -1.499856
   52       -1.410090
   53       -0.872857
   54       -0.618225
   55       -0.469966
   56        0.677724
   57        0.954303
   58        1.173490
   59        1.269891
   60        1.361614
   61        1.789243
   62        1.957857
   63        1.998627
   64        2.145761
   65        2.292313
   66        2.558328
   67        2.607706
   68        2.721541
 
  0.4615385E+00  0.2500000E+00  0.0000000E+00  0.1923077E-01
    1      -12.782168
    2      -11.462941
    3      -11.405901
    4      -11.295525
    5      -11.044174
    6      -10.989574
    7      -10.895908
    8      -10.743262
    9      -10.730613
   10      -10.611668
   11      -10.551807
   12       -9.841483
   13       -9.609562
   14       -8.586325
   15       -8.431260
   16       -8.359667
   17       -7.936306
   18       -7.789350
   19       -7.546990
   20       -7.348003
   21       -7.270689
   22       -7.171563
   23       -6.964887
   24       -6.692919
   25       -5.051622
   26       -4.769023
   27       -4.575371
   28       -4.500271
   29       -4.383925
   30       -4.230951
   31       -4.172206
   32       -3.972330
   33       -3.918007
   34       -3.723129
   35       -3.691917
   36       -3.555719
   37       -3.522982
   38       -3.335036
   39       -3.285738
   40       -3.082464
   41       -3.010538
   42       -2.787539
   43       -2.655316
   44       -2.621515
   45       -2.267281
   46       -2.193782
   47       -2.152684
   48       -2.056711
   49       -1.891046
   50       -1.723620
   51       -1.582520
   52       -1.520342
   53       -0.872907
   54       -0.667157
   55       -0.517221
   56        0.691306
   57        0.852214
   58        1.147587
   59        1.391767
   60        1.485902
   61        1.543154
   62        1.735529
   63        1.915950
   64        2.083486
   65        2.294860
   66        2.398405
   67        2.455475
   68        2.597824
 
 -0.4615385E+00  0.2500000E+00  0.0000000E+00  0.1923077E-01
    1      -12.784634
    2      -11.566812
    3      -11.390520
    4      -11.102548
    5      -11.039004
    6      -10.963010
    7      -10.839725
    8      -10.788119
    9      -10.738070
   10      -10.730125
   11      -10.584553
   12       -9.843013
   13       -9.621497
   14       -8.788396
   15       -8.464916
   16       -7.977489
   17       -7.935649
   18       -7.667697
   19       -7.634562
   20       -7.449677
   21       -7.311002
   22       -7.249841
   23       -6.952038
   24       -6.590706
   25       -4.795912
   26       -4.761136
   27       -4.610278
   28       -4.548733
   29       -4.403655
   30       -4.259282
   31       -4.103338
   32       -4.038554
   33       -3.986586
   34       -3.916058
   35       -3.825827
   36       -3.685191
   37       -3.527175
   38       -3.399286
   39       -3.323038
   40       -2.986219
   41       -2.839558
   42       -2.780564
   43       -2.701034
   44       -2.420433
   45       -2.308366
   46       -2.278017
   47       -2.191232
   48       -2.093423
   49       -1.975383
   50       -1.713034
   51       -1.525438
   52       -1.350978
   53       -0.822984
   54       -0.647468
   55       -0.462625
   56        0.749767
   57        0.945362
   58        1.139202
   59        1.340774
   60        1.621220
   61        1.719789
   62        1.767603
   63        2.008223
   64        2.208546
   65        2.306764
   66        2.359638
   67        2.523304
   68        2.588950
 
 -0.3846154E+00  0.2500000E+00  0.0000000E+00  0.1923077E-01
    1      -13.159309
    2      -12.133238
    3      -11.530489
    4      -11.516723
    5      -11.284964
    6      -11.221399
    7      -10.970068
    8      -10.900740
    9      -10.661364
   10      -10.621945
   11      -10.482009
   12       -9.844985
   13       -9.402849
   14       -8.773734
   15       -8.522194
   16       -7.788786
   17       -7.482672
   18       -7.445140
   19       -7.360905
   20       -7.193022
   21       -6.842986
   22       -6.832774
   23       -6.693596
   24       -6.175554
   25       -5.090782
   26       -4.918417
   27       -4.880773
   28       -4.822237
   29       -4.452220
   30       -4.375174
   31       -4.275886
   32       -4.125341
   33       -4.058318
   34       -3.757191
   35       -3.735207
   36       -3.450849
   37       -3.413967
   38       -3.287231
   39       -3.195025
   40       -2.870967
   41       -2.781468
   42       -2.614976
   43       -2.517318
   44       -2.401092
   45       -2.257724
   46       -2.160727
   47       -2.088274
   48       -1.976024
   49       -1.904039
   50       -1.823384
   51       -1.426222
   52       -1.217414
   53       -0.767955
   54       -0.490904
   55       -0.315794
   56        0.865287
   57        1.112810
   58        1.280434
   59        1.373645
   60        1.759368
   61        1.870270
   62        2.047316
   63        2.126380
   64        2.248943
   65        2.361366
   66        2.403322
   67        2.582126
   68        2.606237
 
 -0.3076923E+00  0.2500000E+00  0.0000000E+00  0.1923077E-01
    1      -13.594882
    2      -12.627382
    3      -11.979078
    4      -11.948755
    5      -11.681068
    6      -11.441608
    7      -11.298570
    8      -11.249254
    9      -10.804734
   10      -10.675150
   11      -10.452505
   12       -9.801432
   13       -9.029810
   14       -8.586721
   15       -8.218486
   16       -7.723574
   17       -7.265526
   18       -7.032223
   19       -6.901405
   20       -6.660333
   21       -6.494145
   22       -6.187822
   23       -6.002979
   24       -5.595194
   25       -5.184734
   26       -5.016360
   27       -4.941824
   28       -4.915596
   29       -4.679249
   30       -4.453162
   31       -4.335694
   32       -4.262798
   33       -4.111751
   34       -3.580173
   35       -3.507422
   36       -3.446644
   37       -3.160671
   38       -3.103224
   39       -2.989899
   40       -2.866145
   41       -2.731430
   42       -2.602880
   43       -2.458446
   44       -2.240399
   45       -2.051282
   46       -1.953861
   47       -1.901411
   48       -1.861762
   49       -1.735488
   50       -1.551343
   51       -1.345315
   52       -1.048337
   53       -0.697767
   54       -0.353217
   55       -0.038243
   56        0.978864
   57        1.338658
   58        1.520756
   59        1.616619
   60        1.897282
   61        1.966885
   62        2.153039
   63        2.254272
   64        2.342598
   65        2.430947
   66        2.616490
   67        2.679570
   68        2.763673
 
 -0.2307692E+00  0.2500000E+00  0.0000000E+00  0.1923077E-01
    1      -13.971640
    2      -13.022665
    3      -12.383536
    4      -12.323141
    5      -12.033731
    6      -11.739486
    7      -11.605589
    8      -11.552386
    9      -11.060872
   10      -10.870142
   11      -10.630939
   12       -9.851740
   13       -8.566440
   14       -8.430547
   15       -7.862783
   16       -7.813350
   17       -6.935943
   18       -6.722293
   19       -6.667973
   20       -6.400450
   21       -6.011899
   22       -5.771012
   23       -5.371814
   24       -5.359825
   25       -4.868556
   26       -4.776000
   27       -4.632726
   28       -4.550633
   29       -4.484616
   30       -4.220687
   31       -4.175056
   32       -4.018402
   33       -3.801949
   34       -3.588321
   35       -3.479863
   36       -3.452441
   37       -3.237929
   38       -3.031673
   39       -2.889488
   40       -2.767215
   41       -2.613913
   42       -2.474553
   43       -2.291105
   44       -2.119279
   45       -1.932508
   46       -1.857561
   47       -1.783375
   48       -1.581614
   49       -1.492874
   50       -1.215983
   51       -1.140179
   52       -0.837575
   53       -0.432863
   54       -0.168629
   55        0.209806
   56        1.088388
   57        1.558409
   58        1.689808
   59        1.829490
   60        1.968276
   61        2.170404
   62        2.198578
   63        2.360492
   64        2.454442
   65        2.683700
   66        2.880878
   67        2.935379
   68        3.020905
 
 -0.1538462E+00  0.2500000E+00  0.0000000E+00  0.1923077E-01
    1      -14.253180
    2      -13.306463
    3      -12.698728
    4      -12.608659
    5      -12.300671
    6      -11.990241
    7      -11.835355
    8      -11.772084
    9      -11.293262
   10      -11.071471
   11      -10.833445
   12       -9.944894
   13       -8.431182
   14       -8.402591
   15       -7.823085
   16       -7.568905
   17       -6.798594
   18       -6.685034
   19       -6.583004
   20       -6.357169
   21       -5.741809
   22       -5.706364
   23       -5.079498
   24       -4.872153
   25       -4.421052
   26       -4.318277
   27       -4.186960
   28       -4.050698
   29       -3.958164
   30       -3.794865
   31       -3.751644
   32       -3.615077
   33       -3.410854
   34       -3.329130
   35       -3.202045
   36       -3.126171
   37       -2.988384
   38       -2.932581
   39       -2.743793
   40       -2.683414
   41       -2.537831
   42       -2.265461
   43       -2.181544
   44       -2.021485
   45       -1.921015
   46       -1.802257
   47       -1.642973
   48       -1.365688
   49       -1.267409
   50       -1.124095
   51       -0.932616
   52       -0.491126
   53       -0.179348
   54       -0.013175
   55        0.483720
   56        1.177932
   57        1.457904
   58        1.749398
   59        1.889785
   60        2.019688
   61        2.173714
   62        2.421518
   63        2.610266
   64        2.725309
   65        2.765678
   66        2.917854
   67        3.094265
   68        3.129206
 
 -0.7692308E-01  0.2500000E+00  0.0000000E+00  0.1923077E-01
    1      -14.425521
    2      -13.472221
    3      -12.909179
    4      -12.789429
    5      -12.465107