 running on    8 total cores
 distrk:  each k-point on    8 cores,    1 groups
 distr:  one band on    2 cores,    4 groups
 using from now: INCAR     
 vasp.5.3.5 31Mar14 (build Oct 29 2014 16:16:03) complex                        
  
 POSCAR found type information on POSCAR  P  Si
 POSCAR found :  2 types and      24 ions
 scaLAPACK will be used

 ----------------------------------------------------------------------------- 
|                                                                             |
|  ADVICE TO THIS USER RUNNING 'VASP/VAMP'   (HEAR YOUR MASTER'S VOICE ...):  |
|                                                                             |
|      You have switched on vdW-DFT.                                          |
|      This routine was written and supplied by Jiri Klimes.                  |
|      We recommed that you carefully read and cite the following             |
|      publication                                                            |
|      J. Klimes, D.R. Bowler, A. Michelides                                  |
|        J. Phys.: Cond Matt. 22 022201 (2010)                                |
|      J. Klimes, D.R. Bowler, A. Michelides                                  |
|        Phys. Rev. B. 83, 195131 (2011)                                      |
|      and references therein.                                                |
|                                                                             |
 ----------------------------------------------------------------------------- 


 ----------------------------------------------------------------------------- 
|                                                                             |
|  ADVICE TO THIS USER RUNNING 'VASP/VAMP'   (HEAR YOUR MASTER'S VOICE ...):  |
|                                                                             |
|      You enforced a specific xc-type in the INCAR file,                     |
|      a different type was found on the POTCAR file                          |
|          I HOPE YOU KNOW, WHAT YOU ARE  DOING                               |
|                                                                             |
 ----------------------------------------------------------------------------- 

 LDA part: xc-table for Pade appr. of Perdew


 VERY BAD NEWS! internal error in subroutine IBZKPT:
 Reciprocal lattice and k-lattice belong to different class of lattices. Often results are still useful...      96


 VERY BAD NEWS! internal error in subroutine IBZKPT:
 Reciprocal lattice and k-lattice belong to different class of lattices. Often results are still useful...      96


 VERY BAD NEWS! internal error in subroutine IBZKPT:
 Reciprocal lattice and k-lattice belong to different class of lattices. Often results are still useful...      96


 VERY BAD NEWS! internal error in subroutine IBZKPT:
 Reciprocal lattice and k-lattice belong to different class of lattices. Often results are still useful...      96


 VERY BAD NEWS! internal error in subroutine IBZKPT:
 Reciprocal lattice and k-lattice belong to different class of lattices. Often results are still useful...      96


 VERY BAD NEWS! internal error in subroutine IBZKPT:
 Reciprocal lattice and k-lattice belong to different class of lattices. Often results are still useful...      96


 VERY BAD NEWS! internal error in subroutine IBZKPT:
 Reciprocal lattice and k-lattice belong to different class of lattices. Often results are still useful...      96


 VERY BAD NEWS! internal error in subroutine IBZKPT:
 Reciprocal lattice and k-lattice belong to different class of lattices. Often results are still useful...      96
 POSCAR, INCAR and KPOINTS ok, starting setup
 WARNING: small aliasing (wrap around) errors must be expected
 FFT: planning ...
 WAVECAR not read
 entering main loop
       N       E                     dE             d eps       ncg     rms          rms(c)
Total vdW correction in eV:     15.9263888
DAV:   1     0.493989474449E+03    0.49399E+03   -0.28654E+04  7368   0.790E+02
DAV:   2    -0.642240973796E+02   -0.55821E+03   -0.54291E+03  9812   0.189E+02
DAV:   3    -0.120296983878E+03   -0.56073E+02   -0.55323E+02  8764   0.621E+01
DAV:   4    -0.122902259393E+03   -0.26053E+01   -0.25886E+01 11128   0.142E+01
DAV:   5    -0.122959503639E+03   -0.57244E-01   -0.57182E-01  9928   0.208E+00    0.111E+01
Total vdW correction in eV:     16.3274778
DAV:   6    -0.119607883408E+03    0.33516E+01   -0.94991E+00  8824   0.846E+00    0.586E+00
Total vdW correction in eV:     16.7647422
DAV:   7    -0.119546088755E+03    0.61795E-01   -0.59577E+00  8560   0.595E+00    0.243E+00
Total vdW correction in eV:     16.9268427
DAV:   8    -0.119546276355E+03   -0.18760E-03   -0.86954E-01  9320   0.261E+00    0.121E+00
Total vdW correction in eV:     17.0246502
DAV:   9    -0.119528136422E+03    0.18140E-01   -0.21376E-01  8864   0.135E+00    0.491E-01
Total vdW correction in eV:     17.0769899
DAV:  10    -0.119521600190E+03    0.65362E-02   -0.53964E-02  8840   0.690E-01    0.171E-01
Total vdW correction in eV:     17.0877364
DAV:  11    -0.119511825427E+03    0.97748E-02   -0.81270E-03  9328   0.270E-01    0.775E-02
Total vdW correction in eV:     17.0954763
DAV:  12    -0.119506324221E+03    0.55012E-02   -0.14164E-03  9144   0.111E-01    0.396E-02
Total vdW correction in eV:     17.1003074
DAV:  13    -0.119502277241E+03    0.40470E-02   -0.27471E-04  8936   0.513E-02    0.180E-02
Total vdW correction in eV:     17.1050181
DAV:  14    -0.119500589864E+03    0.16874E-02   -0.13379E-04  9552   0.295E-02    0.108E-02
Total vdW correction in eV:     17.1076103
DAV:  15    -0.119500354939E+03    0.23492E-03   -0.41534E-05  8520   0.190E-02    0.664E-03
Total vdW correction in eV:     17.1098205
DAV:  16    -0.119500752117E+03   -0.39718E-03   -0.77581E-05  8176   0.196E-02    0.445E-03
Total vdW correction in eV:     17.1105015
DAV:  17    -0.119501135127E+03   -0.38301E-03   -0.14936E-04  7960   0.223E-02    0.247E-03
Total vdW correction in eV:     17.1104302
DAV:  18    -0.119501295822E+03   -0.16070E-03   -0.58053E-05  7984   0.135E-02    0.146E-03
Total vdW correction in eV:     17.1101843
DAV:  19    -0.119501331783E+03   -0.35961E-04   -0.11257E-05  6256   0.839E-03    0.101E-03
Total vdW correction in eV:     17.1099554
DAV:  20    -0.119501352490E+03   -0.20706E-04   -0.33292E-05  7200   0.106E-02    0.649E-04
Total vdW correction in eV:     17.1098119
DAV:  21    -0.119501307675E+03    0.44814E-04   -0.18047E-05  6496   0.110E-02    0.405E-04
Total vdW correction in eV:     17.1097802
DAV:  22    -0.119501249399E+03    0.58276E-04   -0.21770E-05  7208   0.916E-03    0.215E-04
Total vdW correction in eV:     17.1097698
DAV:  23    -0.119501218230E+03    0.31170E-04   -0.14367E-05  6524   0.986E-03    0.102E-04
Total vdW correction in eV:     17.1097684
DAV:  24    -0.119501189784E+03    0.28445E-04   -0.81915E-06  6880   0.775E-03    0.594E-05
Total vdW correction in eV:     17.1097709
DAV:  25    -0.119501185638E+03    0.41463E-05   -0.24663E-06  5620   0.564E-03    0.321E-05
Total vdW correction in eV:     17.1097704
DAV:  26    -0.119501185382E+03    0.25584E-06   -0.16063E-06  5520   0.468E-03
Total vdW correction in eV:     17.1097703
Total vdW correction in eV:     17.1097712
   1 F= -.11950119E+03 E0= -.11948918E+03  d E =-.240134E-01
