 vasp.5.3.5 31Mar14 (build Oct 29 2014 16:16:03) complex                        
  
 executed on          Linux-UFHPC date 2016.02.09  17:51:27
 running on    8 total cores
 distrk:  each k-point on    8 cores,    1 groups
 distr:  one band on NCORES_PER_BAND=   2 cores,    4 groups


--------------------------------------------------------------------------------------------------------


 INCAR:
 POTCAR:    PAW_PBE P 17Jan2003                   
 POTCAR:   PAW_PBE Si 05Jan2001                   

 ----------------------------------------------------------------------------- 
|                                                                             |
|  ADVICE TO THIS USER RUNNING 'VASP/VAMP'   (HEAR YOUR MASTER'S VOICE ...):  |
|                                                                             |
|      You have switched on vdW-DFT.                                          |
|      This routine was written and supplied by Jiri Klimes.                  |
|      We recommed that you carefully read and cite the following             |
|      publication                                                            |
|      J. Klimes, D.R. Bowler, A. Michelides                                  |
|        J. Phys.: Cond Matt. 22 022201 (2010)                                |
|      J. Klimes, D.R. Bowler, A. Michelides                                  |
|        Phys. Rev. B. 83, 195131 (2011)                                      |
|      and references therein.                                                |
|                                                                             |
 ----------------------------------------------------------------------------- 

 POTCAR:    PAW_PBE P 17Jan2003                   
   VRHFIN =P : s2p3                                                             
   LEXCH  = PE                                                                  
   EATOM  =   176.0430 eV,   12.9388 Ry                                         
                                                                                
   TITEL  = PAW_PBE P 17Jan2003                                                 
   LULTRA =        F    use ultrasoft PP ?                                      
   IUNSCR =        1    unscreen: 0-lin 1-nonlin 2-no                           
   RPACOR =    1.500    partial core radius                                     
   POMASS =   30.974; ZVAL   =    5.000    mass and valenz                      
   RCORE  =    1.900    outmost cutoff radius                                   
   RWIGS  =    2.330; RWIGS  =    1.233    wigner-seitz radius (au A)           
   ENMAX  =  270.000; ENMIN  =  191.280 eV                                      
   ICORE  =        2    local potential                                         
   LCOR   =        T    correct aug charges                                     
   LPAW   =        T    paw PP                                                  
   EAUG   =  342.924                                                            
   DEXC   =    -.002                                                            
   RMAX   =    2.887    core radius for proj-oper                               
   RAUG   =    1.300    factor for augmentation sphere                          
   RDEP   =    1.931    radius for radial grids                                 
   QCUT   =   -4.330; QGAM   =    8.659    optimization parameters              
                                                                                
   Description                                                                  
     l     E      TYP  RCUT    TYP  RCUT                                        
     0   .000     23  1.900                                                     
     0   .000     23  1.900                                                     
     1   .000     23  1.900                                                     
     1   .000     23  1.900                                                     
     2   .000     23  1.900                                                     
  local pseudopotential read in
  partial core-charges read in
  atomic valenz-charges read in
  non local Contribution for L=           0  read in
    real space projection operators read in
  non local Contribution for L=           0  read in
    real space projection operators read in
  non local Contribution for L=           1  read in
    real space projection operators read in
  non local Contribution for L=           1  read in
    real space projection operators read in
    PAW grid and wavefunctions read in
 
   number of l-projection  operators is LMAX  =           4
   number of lm-projection operators is LMMAX =           8
 
 POTCAR:   PAW_PBE Si 05Jan2001                   
   VRHFIN =Si: s2p2                                                             
   LEXCH  = PE                                                                  
   EATOM  =   103.0669 eV,    7.5752 Ry                                         
                                                                                
   TITEL  = PAW_PBE Si 05Jan2001                                                
   LULTRA =        F    use ultrasoft PP ?                                      
   IUNSCR =        1    unscreen: 0-lin 1-nonlin 2-no                           
   RPACOR =    1.500    partial core radius                                     
   POMASS =   28.085; ZVAL   =    4.000    mass and valenz                      
   RCORE  =    1.900    outmost cutoff radius                                   
   RWIGS  =    2.480; RWIGS  =    1.312    wigner-seitz radius (au A)           
   ENMAX  =  245.345; ENMIN  =  184.009 eV                                      
   ICORE  =        2    local potential                                         
   LCOR   =        T    correct aug charges                                     
   LPAW   =        T    paw PP                                                  
   EAUG   =  322.069                                                            
   DEXC   =    -.007                                                            
   RMAX   =    2.944    core radius for proj-oper                               
   RAUG   =    1.300    factor for augmentation sphere                          
   RDEP   =    1.993    radius for radial grids                                 
   QCUT   =   -4.246; QGAM   =    8.493    optimization parameters              
                                                                                
   Description                                                                  
     l     E      TYP  RCUT    TYP  RCUT                                        
     0   .000     23  1.900                                                     
     0   .000     23  1.900                                                     
     1   .000     23  1.900                                                     
     1   .000     23  1.900                                                     
     2   .000      7  1.900                                                     
  local pseudopotential read in
  partial core-charges read in
  atomic valenz-charges read in
  non local Contribution for L=           0  read in
    real space projection operators read in
  non local Contribution for L=           0  read in
    real space projection operators read in
  non local Contribution for L=           1  read in
    real space projection operators read in
  non local Contribution for L=           1  read in
    real space projection operators read in
    PAW grid and wavefunctions read in
 
   number of l-projection  operators is LMAX  =           4
   number of lm-projection operators is LMMAX =           8
 
 Optimization of the real space projectors (new method)

 maximal supplied QI-value         = 19.84
 optimisation between [QCUT,QGAM] = [  8.73, 17.66] = [ 21.34, 87.33] Ry 
 Optimized for a Real-space Cutoff    1.50 Angstroem

   l    n(q)    QCUT    max X(q) W(low)/X(q) W(high)/X(q)  e(spline) 
   0      8     8.731     6.651    0.16E-04    0.15E-04    0.77E-08
   0      8     8.731    90.285    0.16E-03    0.90E-04    0.16E-06
   1      7     8.731     4.328    0.47E-04    0.36E-04    0.45E-07
   1      7     8.731    54.583    0.13E-03    0.39E-03    0.20E-06
 Optimization of the real space projectors (new method)

 maximal supplied QI-value         = 19.84
 optimisation between [QCUT,QGAM] = [  8.73, 17.66] = [ 21.34, 87.33] Ry 
 Optimized for a Real-space Cutoff    1.46 Angstroem

   l    n(q)    QCUT    max X(q) W(low)/X(q) W(high)/X(q)  e(spline) 
   0      8     8.731     8.708    0.16E-04    0.11E-04    0.68E-08
   0      8     8.731   106.241    0.24E-03    0.77E-04    0.13E-06
   1      7     8.731     5.901    0.34E-04    0.38E-04    0.36E-07
   1      7     8.731    73.241    0.12E-03    0.39E-03    0.15E-06

 ----------------------------------------------------------------------------- 
|                                                                             |
|  ADVICE TO THIS USER RUNNING 'VASP/VAMP'   (HEAR YOUR MASTER'S VOICE ...):  |
|                                                                             |
|      You enforced a specific xc-type in the INCAR file,                     |
|      a different type was found on the POTCAR file                          |
|          I HOPE YOU KNOW, WHAT YOU ARE  DOING                               |
|                                                                             |
 ----------------------------------------------------------------------------- 

  PAW_PBE P 17Jan2003                   :
 energy of atom  1       EATOM= -176.0430
 kinetic energy error for atom=    0.0040 (will be added to EATOM!!)
 PAW_PBE Si 05Jan2001                   :
 energy of atom  2       EATOM= -103.0669
 kinetic energy error for atom=    0.0021 (will be added to EATOM!!)
 
 
 POSCAR: Si12                                    
  positions in direct lattice
  No initial velocities read in
 exchange correlation table for  LEXCH =       42
   RHO(1)=    0.500       N(1)  =     2000
   RHO(2)=  100.500       N(2)  =     4000
 


--------------------------------------------------------------------------------------------------------


 ion  position               nearest neighbor table
   1  0.114  0.228  0.233-  15 2.28  21 2.29  21 2.29
   2  0.514  0.428  0.515-  16 2.28  22 2.29  22 2.29
   3  0.458  0.916  0.209-  21 2.28  13 2.30  13 2.30
   4  0.858  0.116  0.491-  22 2.28  14 2.30  14 2.30  20 2.99
   5  0.311  0.622  0.084-  17 2.28  23 2.30  23 2.30
   6  0.311  0.622  0.366-  18 2.28  24 2.91  16 2.99
   7  0.999  0.998  0.086-  19 2.29  19 2.29  13 2.32
   8  0.999  0.998  0.368-  24 2.25  20 2.29  20 2.29  14 2.39
   9  0.655  0.310  0.060-  19 2.28  17 2.29  17 2.29
  10  0.655  0.310  0.342-  20 2.28  18 2.29  18 2.29
  11  0.770  0.539  0.207-  15 2.29  15 2.29  23 2.32
  12  0.170  0.739  0.489-  16 2.29  16 2.29  24 2.32
  13  0.940  0.879  0.158-   3 2.30   3 2.30   7 2.32  23 2.35
  14  0.340  0.079  0.440-  20 1.63   4 2.30   4 2.30  24 2.35   8 2.39
  15  0.205  0.410  0.186-   1 2.28  11 2.29  11 2.29  17 2.37
  16  0.605  0.610  0.468-   2 2.28  12 2.29  12 2.29   6 2.99
  17  0.202  0.404  0.100-   5 2.28   9 2.29   9 2.29  15 2.37
  18  0.202  0.404  0.382-   6 2.28  10 2.29  10 2.29  22 2.78
  19  0.564  0.128  0.108-   9 2.28   7 2.29   7 2.29  21 2.37
  20  0.564  0.128  0.390-  14 1.63  10 2.28   8 2.29   8 2.29  24 2.96   4 2.99
  21  0.567  0.134  0.194-   3 2.28   1 2.29   1 2.29  19 2.37
  22  0.967  0.334  0.476-   4 2.28   2 2.29   2 2.29  18 2.78
  23  0.829  0.658  0.136-   5 2.30   5 2.30  11 2.32  13 2.35
  24  0.229  0.858  0.418-   8 2.25  12 2.32  14 2.35   6 2.91  20 2.96
 
  LATTYP: Found a base centered orthorhombic cell.
 ALAT       =     3.5404000000
 B/A-ratio  =     5.8153587165
 C/A-ratio  =     7.7678875268
  
  Lattice vectors:
  
 A1 = (   1.7702000000,  10.2943480000,   0.0000000000)
 A2 = (   1.7702000000, -10.2943480000,   0.0000000000)
 A3 = (   0.0000000000,   0.0000000000, -27.5014290000)


Analysis of symmetry for initial positions (statically):
=====================================================================
 Subroutine PRICEL returns:
 Original cell was already a primitive cell.
 

 Routine SETGRP: Setting up the symmetry group for a 
 base centered orthorhombic supercell.


 Subroutine GETGRP returns: Found  1 space group operations
 (whereof  1 operations were pure point group operations)
 out of a pool of  8 trial point group operations.


The static configuration has the point symmetry C_1 .


Analysis of symmetry for dynamics (positions and initial velocities):
=====================================================================
 Subroutine PRICEL returns:
 Original cell was already a primitive cell.
 

 Routine SETGRP: Setting up the symmetry group for a 
 base centered orthorhombic supercell.


 Subroutine GETGRP returns: Found  1 space group operations
 (whereof  1 operations were pure point group operations)
 out of a pool of  8 trial point group operations.


The dynamic configuration has the point symmetry C_1 .
 
 
 KPOINTS: pymatgen generated KPOINTS with grid den

Automatic generation of k-mesh.
Space group operators:
 irot       det(A)        alpha          n_x          n_y          n_z        tau_x        tau_y        tau_z
    1     1.000000     0.000000     1.000000     0.000000     0.000000     0.000000     0.000000     0.000000
 
 Subroutine IBZKPT returns following result:
 ===========================================
 
 Found     54 irreducible k-points:
 
 Following reciprocal coordinates:
            Coordinates               Weight
  0.000000  0.000000  0.000000      1.000000
  0.076923 -0.000000  0.000000      2.000000
  0.153846 -0.000000  0.000000      2.000000
  0.230769 -0.000000  0.000000      2.000000
  0.307692 -0.000000  0.000000      2.000000
  0.384615 -0.000000  0.000000      2.000000
  0.461538 -0.000000  0.000000      2.000000
  0.000000  0.250000  0.000000      2.000000
  0.076923  0.250000  0.000000      2.000000
  0.153846  0.250000  0.000000      2.000000
  0.230769  0.250000  0.000000      2.000000
  0.307692  0.250000  0.000000      2.000000
  0.384615  0.250000  0.000000      2.000000
  0.461538  0.250000  0.000000      2.000000
 -0.461538  0.250000  0.000000      2.000000
 -0.384615  0.250000  0.000000      2.000000
 -0.307692  0.250000  0.000000      2.000000
 -0.230769  0.250000  0.000000      2.000000
 -0.153846  0.250000  0.000000      2.000000
 -0.076923  0.250000  0.000000      2.000000
  0.000000  0.500000  0.000000      1.000000
  0.076923  0.500000  0.000000      2.000000
  0.153846  0.500000  0.000000      2.000000
  0.230769  0.500000  0.000000      2.000000
  0.307692  0.500000  0.000000      2.000000
  0.384615  0.500000  0.000000      2.000000
  0.461538  0.500000  0.000000      2.000000
  0.000000  0.000000  0.500000      1.000000
  0.076923 -0.000000  0.500000      2.000000
  0.153846 -0.000000  0.500000      2.000000
  0.230769 -0.000000  0.500000      2.000000
  0.307692 -0.000000  0.500000      2.000000
  0.384615 -0.000000  0.500000      2.000000
  0.461538 -0.000000  0.500000      2.000000
  0.000000  0.250000  0.500000      2.000000
  0.076923  0.250000  0.500000      2.000000
  0.153846  0.250000  0.500000      2.000000
  0.230769  0.250000  0.500000      2.000000
  0.307692  0.250000  0.500000      2.000000
  0.384615  0.250000  0.500000      2.000000
  0.461538  0.250000  0.500000      2.000000
 -0.461538  0.250000  0.500000      2.000000
 -0.384615  0.250000  0.500000      2.000000
 -0.307692  0.250000  0.500000      2.000000
 -0.230769  0.250000  0.500000      2.000000
 -0.153846  0.250000  0.500000      2.000000
 -0.076923  0.250000  0.500000      2.000000
  0.000000  0.500000  0.500000      1.000000
  0.076923  0.500000  0.500000      2.000000
  0.153846  0.500000  0.500000      2.000000
  0.230769  0.500000  0.500000      2.000000
  0.307692  0.500000  0.500000      2.000000
  0.384615  0.500000  0.500000      2.000000
  0.461538  0.500000  0.500000      2.000000
 
 Following cartesian coordinates:
            Coordinates               Weight
  0.000000  0.000000  0.000000      1.000000
  0.021727  0.003736  0.000000      2.000000
  0.043454  0.007472  0.000000      2.000000
  0.065182  0.011209  0.000000      2.000000
  0.086909  0.014945  0.000000      2.000000
  0.108636  0.018681  0.000000      2.000000
  0.130363  0.022417  0.000000      2.000000
  0.000000  0.024285  0.000000      2.000000
  0.021727  0.028021  0.000000      2.000000
  0.043454  0.031758  0.000000      2.000000
  0.065182  0.035494  0.000000      2.000000
  0.086909  0.039230  0.000000      2.000000
  0.108636  0.042966  0.000000      2.000000
  0.130363  0.046702  0.000000      2.000000
 -0.130363  0.001868  0.000000      2.000000
 -0.108636  0.005604  0.000000      2.000000
 -0.086909  0.009340  0.000000      2.000000
 -0.065182  0.013077  0.000000      2.000000
 -0.043454  0.016813  0.000000      2.000000
 -0.021727  0.020549  0.000000      2.000000
  0.000000  0.048570  0.000000      1.000000
  0.021727  0.052307  0.000000      2.000000
  0.043454  0.056043  0.000000      2.000000
  0.065182  0.059779  0.000000      2.000000
  0.086909  0.063515  0.000000      2.000000
  0.108636  0.067251  0.000000      2.000000
  0.130363  0.070987  0.000000      2.000000
  0.000000  0.000000  0.018181      1.000000
  0.021727  0.003736  0.018181      2.000000
  0.043454  0.007472  0.018181      2.000000
  0.065182  0.011209  0.018181      2.000000
  0.086909  0.014945  0.018181      2.000000
  0.108636  0.018681  0.018181      2.000000
  0.130363  0.022417  0.018181      2.000000
  0.000000  0.024285  0.018181      2.000000
  0.021727  0.028021  0.018181      2.000000
  0.043454  0.031758  0.018181      2.000000
  0.065182  0.035494  0.018181      2.000000
  0.086909  0.039230  0.018181      2.000000
  0.108636  0.042966  0.018181      2.000000
  0.130363  0.046702  0.018181      2.000000
 -0.130363  0.001868  0.018181      2.000000
 -0.108636  0.005604  0.018181      2.000000
 -0.086909  0.009340  0.018181      2.000000
 -0.065182  0.013077  0.018181      2.000000
 -0.043454  0.016813  0.018181      2.000000
 -0.021727  0.020549  0.018181      2.000000
  0.000000  0.048570  0.018181      1.000000
  0.021727  0.052307  0.018181      2.000000
  0.043454  0.056043  0.018181      2.000000
  0.065182  0.059779  0.018181      2.000000
  0.086909  0.063515  0.018181      2.000000
  0.108636  0.067251  0.018181      2.000000
  0.130363  0.070987  0.018181      2.000000
 


--------------------------------------------------------------------------------------------------------




 Dimension of arrays:
   k-points           NKPTS =     54   k-points in BZ     NKDIM =     54   number of bands    NBANDS=     68
   number of dos      NEDOS =    301   number of ions     NIONS =     24
   non local maximal  LDIM  =      4   non local SUM 2l+1 LMDIM =      8
   total plane-waves  NPLWV = 192000
   max r-space proj   IRMAX =   2772   max aug-charges    IRDMAX=   6603
   dimension x,y,z NGX =    20 NGY =   60 NGZ =  160
   dimension x,y,z NGXF=    40 NGYF=  120 NGZF=  320
   support grid    NGXF=    40 NGYF=  120 NGZF=  320
   ions per type =              12  12
 NGX,Y,Z   is equivalent  to a cutoff of   9.39,  9.55,  9.67 a.u.
 NGXF,Y,Z  is equivalent  to a cutoff of  18.78, 19.10, 19.34 a.u.


 I would recommend the setting:
   dimension x,y,z NGX =    20 NGY =   59 NGZ =  155
 SYSTEM =  unknown system                          
 POSCAR =  Si12                                    

 Startparameter for this run:
   NWRITE =      2    write-flag & timer
   PREC   = accura    normal or accurate (medium, high low for compatibility)
   ISTART =      0    job   : 0-new  1-cont  2-samecut
   ICHARG =      2    charge: 1-file 2-atom 10-const
   ISPIN  =      1    spin polarized calculation?
   LNONCOLLINEAR =      F non collinear calculations
   LSORBIT =      F    spin-orbit coupling
   INIWAV =      1    electr: 0-lowe 1-rand  2-diag
   LASPH  =      F    aspherical Exc in radial PAW
   METAGGA=      F    non-selfconsistent MetaGGA calc.

 Electronic Relaxation 1
   ENCUT  =  300.0 eV  22.05 Ry    4.70 a.u.   5.00 14.75 38.84*2*pi/ulx,y,z
   ENINI  =  300.0     initial cutoff
   ENAUG  =  342.9 eV  augmentation charge cutoff
   NELM   =     60;   NELMIN=  2; NELMDL= -5     # of ELM steps 
   EDIFF  = 0.1E-05   stopping-criterion for ELM
   LREAL  =      T    real-space projection
   NLSPLINE    = F    spline interpolate recip. space projectors
   LCOMPAT=      F    compatible to vasp.4.4
   GGA_COMPAT  = T    GGA compatible to vasp.4.4-vasp.4.6
   LMAXPAW     = -100 max onsite density
   LMAXMIX     =    2 max onsite mixed and CHGCAR
   VOSKOWN=      0    Vosko Wilk Nusair interpolation
   ROPT   =   -0.00025  -0.00025
 Ionic relaxation
   EDIFFG = 0.1E-04   stopping-criterion for IOM
   NSW    =      0    number of steps for IOM
   NBLOCK =      1;   KBLOCK =      1    inner block; outer block 
   IBRION =     -1    ionic relax: 0-MD 1-quasi-New 2-CG
   NFREE  =      1    steps in history (QN), initial steepest desc. (CG)
   ISIF   =      3    stress and relaxation
   IWAVPR =     10    prediction:  0-non 1-charg 2-wave 3-comb
   ISYM   =      2    0-nonsym 1-usesym 2-fastsym
   LCORR  =      T    Harris-Foulkes like correction to forces

   POTIM  = 0.5000    time-step for ionic-motion
   TEIN   =    0.0    initial temperature
   TEBEG  =    0.0;   TEEND  =   0.0 temperature during run
   SMASS  =  -3.00    Nose mass-parameter (am)
   estimated Nose-frequenzy (Omega)   =  0.10E-29 period in steps =****** mass=  -0.286E-27a.u.
   SCALEE = 1.0000    scale energy and forces
   NPACO  =    256;   APACO  = 16.0  distance and # of slots for P.C.
   PSTRESS=    0.0 pullay stress

  Mass of Ions in am
   POMASS =  30.97 28.09
  Ionic Valenz
   ZVAL   =   5.00  4.00
  Atomic Wigner-Seitz radii
   RWIGS  =  -1.00 -1.00
  virtual crystal weights 
   VCA    =   1.00  1.00
   NELECT =     108.0000    total number of electrons
   NUPDOWN=      -1.0000    fix difference up-down

 DOS related values:
   EMIN   =  10.00;   EMAX   =-10.00  energy-range for DOS
   EFERMI =   0.00
   ISMEAR =     0;   SIGMA  =   0.10  broadening in eV -4-tet -1-fermi 0-gaus

 Electronic relaxation 2 (details)
   IALGO  =     38    algorithm
   LDIAG  =      T    sub-space diagonalisation (order eigenvalues)
   LSUBROT=      F    optimize rotation matrix (better conditioning)
   TURBO    =      0    0=normal 1=particle mesh
   IRESTART =      0    0=no restart 2=restart with 2 vectors
   NREBOOT  =      0    no. of reboots
   NMIN     =      0    reboot dimension
   EREF     =   0.00    reference energy to select bands
   IMIX   =      4    mixing-type and parameters
     AMIX     =   0.40;   BMIX     =  1.00
     AMIX_MAG =   1.60;   BMIX_MAG =  1.00
     AMIN     =   0.10
     WC   =   100.;   INIMIX=   1;  MIXPRE=   1;  MAXMIX= -45

 Intra band minimization:
   WEIMIN = 0.0000     energy-eigenvalue tresh-hold
   EBREAK =  0.37E-08  absolut break condition
   DEPER  =   0.30     relativ break condition  

   TIME   =   0.40     timestep for ELM

  volume/ion in A,a.u.               =      41.76       281.83
  Fermi-wavevector in a.u.,A,eV,Ry     =   0.779018  1.472130  8.256946  0.606868
  Thomas-Fermi vector in A             =   1.882034
 
 Write flags
   LWAVE  =      F    write WAVECAR
   LCHARG =      F    write CHGCAR
   LVTOT  =      F    write LOCPOT, total local potential
   LVHAR  =      F    write LOCPOT, Hartree potential only
   LELF   =      F    write electronic localiz. function (ELF)
   LORBIT =      0    0 simple, 1 ext, 2 COOP (PROOUT)


 Dipole corrections
   LMONO  =      F    monopole corrections only (constant potential shift)
   LDIPOL =      F    correct potential (dipole corrections)
   IDIPOL =      0    1-x, 2-y, 3-z, 4-all directions 
   EPSILON=  1.0000000 bulk dielectric constant

 Exchange correlation treatment:
   GGA     =    BO    GGA type
   LEXCH   =    42    internal setting for exchange type
   VOSKOWN=      0    Vosko Wilk Nusair interpolation
   LHFCALC =     F    Hartree Fock is set to
   LHFONE  =     F    Hartree Fock one center treatment
   AEXX    =    0.0000 exact exchange contribution

 vdW DFT:
   LUSE_VDW   =     T    switch on vdW DFT
   Zab_VDW    =-.8491    correlation parameter
   PARAM1     =0.1833
   PARAM2     =0.2200
   PARAM3     =0.0000

 Linear response parameters
   LEPSILON=     F    determine dielectric tensor
   LRPA    =     F    only Hartree local field effects (RPA)
   LNABLA  =     F    use nabla operator in PAW spheres
   LVEL    =     F    velocity operator in full k-point grid
   LINTERFAST=   F  fast interpolation
   KINTER  =     0    interpolate to denser k-point grid
   CSHIFT  =0.1000    complex shift for real part using Kramers Kronig
   OMEGAMAX=  -1.0    maximum frequency
   DEG_THRESHOLD= 0.2000000E-02 threshold for treating states as degnerate
   RTIME   =    0.100 relaxation time in fs

 Orbital magnetization related:
   ORBITALMAG=     F  switch on orbital magnetization
   LCHIMAG   =     F  perturbation theory with respect to B field
   DQ        =  0.001000  dq finite difference perturbation B field



--------------------------------------------------------------------------------------------------------


 Static calculation
 charge density and potential will be updated during run
 non-spin polarized calculation
 Variant of blocked Davidson
 Davidson routine will perform the subspace rotation
 perform sub-space diagonalisation
    after iterative eigenvector-optimisation
 modified Broyden-mixing scheme, WC =      100.0
 initial mixing is a Kerker type mixing with AMIX =  0.4000 and BMIX =      1.0000
 Hartree-type preconditioning will be used
 using additional bands           14
 real space projection scheme for non local part
 use partial core corrections
 calculate Harris-corrections to forces 
   (improved forces if not selfconsistent)
 use gradient corrections 
 use of overlap-Matrix (Vanderbilt PP)
 Gauss-broadening in eV      SIGMA  =   0.10


--------------------------------------------------------------------------------------------------------


  energy-cutoff  :      300.00
  volume of cell :     1002.32
      direct lattice vectors                 reciprocal lattice vectors
     3.540400000  0.000000000  0.000000000     0.282453960  0.048570342  0.000000000
    -1.770200000 10.294348000  0.000000000     0.000000000  0.097140683  0.000000000
     0.000000000  0.000000000 27.501429000     0.000000000  0.000000000  0.036361747

  length of vectors
     3.540400000 10.445439617 27.501429000     0.286599577  0.097140683  0.036361747


 
 k-points in units of 2pi/SCALE and weight: pymatgen generated KPOINTS with grid den
   0.00000000  0.00000000  0.00000000       0.010
   0.02172723  0.00373618  0.00000000       0.019
   0.04345446  0.00747236  0.00000000       0.019
   0.06518168  0.01120854  0.00000000       0.019
   0.08690891  0.01494472  0.00000000       0.019
   0.10863614  0.01868090  0.00000000       0.019
   0.13036337  0.02241708  0.00000000       0.019
   0.00000000  0.02428517  0.00000000       0.019
   0.02172723  0.02802135  0.00000000       0.019
   0.04345446  0.03175753  0.00000000       0.019
   0.06518168  0.03549371  0.00000000       0.019
   0.08690891  0.03922989  0.00000000       0.019
   0.10863614  0.04296607  0.00000000       0.019
   0.13036337  0.04670225  0.00000000       0.019
  -0.13036337  0.00186809  0.00000000       0.019
  -0.10863614  0.00560427  0.00000000       0.019
  -0.08690891  0.00934045  0.00000000       0.019
  -0.06518168  0.01307663  0.00000000       0.019
  -0.04345446  0.01681281  0.00000000       0.019
  -0.02172723  0.02054899  0.00000000       0.019
   0.00000000  0.04857034  0.00000000       0.010
   0.02172723  0.05230652  0.00000000       0.019
   0.04345446  0.05604270  0.00000000       0.019
   0.06518168  0.05977888  0.00000000       0.019
   0.08690891  0.06351506  0.00000000       0.019
   0.10863614  0.06725124  0.00000000       0.019
   0.13036337  0.07098742  0.00000000       0.019
   0.00000000  0.00000000  0.01818087       0.010
   0.02172723  0.00373618  0.01818087       0.019
   0.04345446  0.00747236  0.01818087       0.019
   0.06518168  0.01120854  0.01818087       0.019
   0.08690891  0.01494472  0.01818087       0.019
   0.10863614  0.01868090  0.01818087       0.019
   0.13036337  0.02241708  0.01818087       0.019
   0.00000000  0.02428517  0.01818087       0.019
   0.02172723  0.02802135  0.01818087       0.019
   0.04345446  0.03175753  0.01818087       0.019
   0.06518168  0.03549371  0.01818087       0.019
   0.08690891  0.03922989  0.01818087       0.019
   0.10863614  0.04296607  0.01818087       0.019
   0.13036337  0.04670225  0.01818087       0.019
  -0.13036337  0.00186809  0.01818087       0.019
  -0.10863614  0.00560427  0.01818087       0.019
  -0.08690891  0.00934045  0.01818087       0.019
  -0.06518168  0.01307663  0.01818087       0.019
  -0.04345446  0.01681281  0.01818087       0.019
  -0.02172723  0.02054899  0.01818087       0.019
   0.00000000  0.04857034  0.01818087       0.010
   0.02172723  0.05230652  0.01818087       0.019
   0.04345446  0.05604270  0.01818087       0.019
   0.06518168  0.05977888  0.01818087       0.019
   0.08690891  0.06351506  0.01818087       0.019
   0.10863614  0.06725124  0.01818087       0.019
   0.13036337  0.07098742  0.01818087       0.019
 
 k-points in reciprocal lattice and weights: pymatgen generated KPOINTS with grid den
   0.00000000  0.00000000  0.00000000       0.010
   0.07692308 -0.00000000  0.00000000       0.019
   0.15384615 -0.00000000  0.00000000       0.019
   0.23076923 -0.00000000  0.00000000       0.019
   0.30769231 -0.00000000  0.00000000       0.019
   0.38461538 -0.00000000  0.00000000       0.019
   0.46153846 -0.00000000  0.00000000       0.019
   0.00000000  0.25000000  0.00000000       0.019
   0.07692308  0.25000000  0.00000000       0.019
   0.15384615  0.25000000  0.00000000       0.019
   0.23076923  0.25000000  0.00000000       0.019
   0.30769231  0.25000000  0.00000000       0.019
   0.38461538  0.25000000  0.00000000       0.019
   0.46153846  0.25000000  0.00000000       0.019
  -0.46153846  0.25000000  0.00000000       0.019
  -0.38461538  0.25000000  0.00000000       0.019
  -0.30769231  0.25000000  0.00000000       0.019
  -0.23076923  0.25000000  0.00000000       0.019
  -0.15384615  0.25000000  0.00000000       0.019
  -0.07692308  0.25000000  0.00000000       0.019
   0.00000000  0.50000000  0.00000000       0.010
   0.07692308  0.50000000  0.00000000       0.019
   0.15384615  0.50000000  0.00000000       0.019
   0.23076923  0.50000000  0.00000000       0.019
   0.30769231  0.50000000  0.00000000       0.019
   0.38461538  0.50000000  0.00000000       0.019
   0.46153846  0.50000000  0.00000000       0.019
   0.00000000  0.00000000  0.50000000       0.010
   0.07692308 -0.00000000  0.50000000       0.019
   0.15384615 -0.00000000  0.50000000       0.019
   0.23076923 -0.00000000  0.50000000       0.019
   0.30769231 -0.00000000  0.50000000       0.019
   0.38461538 -0.00000000  0.50000000       0.019
   0.46153846 -0.00000000  0.50000000       0.019
   0.00000000  0.25000000  0.50000000       0.019
   0.07692308  0.25000000  0.50000000       0.019
   0.15384615  0.25000000  0.50000000       0.019
   0.23076923  0.25000000  0.50000000       0.019
   0.30769231  0.25000000  0.50000000       0.019
   0.38461538  0.25000000  0.50000000       0.019
   0.46153846  0.25000000  0.50000000       0.019
  -0.46153846  0.25000000  0.50000000       0.019
  -0.38461538  0.25000000  0.50000000       0.019
  -0.30769231  0.25000000  0.50000000       0.019
  -0.23076923  0.25000000  0.50000000       0.019
  -0.15384615  0.25000000  0.50000000       0.019
  -0.07692308  0.25000000  0.50000000       0.019
   0.00000000  0.50000000  0.50000000       0.010
   0.07692308  0.50000000  0.50000000       0.019
   0.15384615  0.50000000  0.50000000       0.019
   0.23076923  0.50000000  0.50000000       0.019
   0.30769231  0.50000000  0.50000000       0.019
   0.38461538  0.50000000  0.50000000       0.019
   0.46153846  0.50000000  0.50000000       0.019
 
 position of ions in fractional coordinates (direct lattice) 
   0.11402300  0.22804500  0.23316207
   0.51402300  0.42804500  0.51499159
   0.45808900  0.91617900  0.20939482
   0.85808900  0.11617900  0.49122434
   0.31085400  0.62170900  0.08414979
   0.31085400  0.62170900  0.36597930
   0.99923000  0.99846000  0.08631254
   0.99923000  0.99846000  0.36814206
   0.65492700  0.30985400  0.06041748
   0.65492700  0.30985400  0.34224700
   0.76973800  0.53947500  0.20725292
   0.16973800  0.73947500  0.48908244
   0.93971600  0.87943300  0.15783749
   0.33971600  0.07943300  0.43966701
   0.20515200  0.41030300  0.18578822
   0.60515200  0.61030300  0.46761774
   0.20184900  0.40369900  0.09969156
   0.20184900  0.40369900  0.38152107
   0.56380500  0.12761000  0.10779021
   0.56380500  0.12761000  0.38961973
   0.56710600  0.13421200  0.19387616
   0.96710600  0.33421200  0.47570568
   0.82923400  0.65846800  0.13571444
   0.22923400  0.85846800  0.41754396
 
 position of ions in cartesian coordinates  (Angst):
   0.00000177  2.34757459  6.41229012
   1.06212177  4.40644419 14.16300462
  -0.00000177  9.43146546  5.75865686
   2.83231823  1.19598706 13.50937136
  -0.00000177  6.40008880  2.31423934
  -0.00000177  6.40008880 10.06495384
   1.77020000 10.27849470  2.37371832
   1.77020000 10.27849470 10.12443282
   1.77020000  3.18974491  1.66156717
   1.77020000  3.18974491  9.41228167
   1.77020177  5.55354339  5.69975143
  -0.70807823  7.61241299 13.45046593
   1.77019823  9.05318934  4.34075665
   1.06211823  0.81771094 12.09147115
   0.00000177  4.22380187  5.10944151
   1.06212177  6.28267147 12.86015601
  -0.00000177  4.15581799  2.74166024
  -0.00000177  4.15581799 10.49237474
   1.77020000  1.31366175  2.96438477
   1.77020000  1.31366175 10.71509927
   1.77020000  1.38162503  5.33187152
   2.83232000  3.44049463 13.08258602
   1.77020000  6.77849874  3.73234107
  -0.70808000  8.83736834 11.48305557
 


--------------------------------------------------------------------------------------------------------


 k-point  1 :   0.0000 0.0000 0.0000  plane waves:   11717
 k-point  2 :   0.0769-0.0000 0.0000  plane waves:   11762
 k-point  3 :   0.1538-0.0000 0.0000  plane waves:   11805
 k-point  4 :   0.2308-0.0000 0.0000  plane waves:   11824
 k-point  5 :   0.3077-0.0000 0.0000  plane waves:   11875
 k-point  6 :   0.3846-0.0000 0.0000  plane waves:   11864
 k-point  7 :   0.4615-0.0000 0.0000  plane waves:   11883
 k-point  8 :   0.0000 0.2500 0.0000  plane waves:   11683
 k-point  9 :   0.0769 0.2500 0.0000  plane waves:   11756
 k-point 10 :   0.1538 0.2500 0.0000  plane waves:   11807
 k-point 11 :   0.2308 0.2500 0.0000  plane waves:   11853
 k-point 12 :   0.3077 0.2500 0.0000  plane waves:   11866
 k-point 13 :   0.3846 0.2500 0.0000  plane waves:   11889
 k-point 14 :   0.4615 0.2500 0.0000  plane waves:   11885
 k-point 15 :  -0.4615 0.2500 0.0000  plane waves:   11886
 k-point 16 :  -0.3846 0.2500 0.0000  plane waves:   11867
 k-point 17 :  -0.3077 0.2500 0.0000  plane waves:   11849
 k-point 18 :  -0.2308 0.2500 0.0000  plane waves:   11827
 k-point 19 :  -0.1538 0.2500 0.0000  plane waves:   11801
 k-point 20 :  -0.0769 0.2500 0.0000  plane waves:   11757
 k-point 21 :   0.0000 0.5000 0.0000  plane waves:   11710
 k-point 22 :   0.0769 0.5000 0.0000  plane waves:   11762
 k-point 23 :   0.1538 0.5000 0.0000  plane waves:   11782
 k-point 24 :   0.2308 0.5000 0.0000  plane waves:   11841
 k-point 25 :   0.3077 0.5000 0.0000  plane waves:   11876
 k-point 26 :   0.3846 0.5000 0.0000  plane waves:   11889
 k-point 27 :   0.4615 0.5000 0.0000  plane waves:   11881
 k-point 28 :   0.0000 0.0000 0.5000  plane waves:   11698
 k-point 29 :   0.0769-0.0000 0.5000  plane waves:   11752
 k-point 30 :   0.1538-0.0000 0.5000  plane waves:   11800
 k-point 31 :   0.2308-0.0000 0.5000  plane waves:   11834
 k-point 32 :   0.3077-0.0000 0.5000  plane waves:   11850
 k-point 33 :   0.3846-0.0000 0.5000  plane waves:   11888
 k-point 34 :   0.4615-0.0000 0.5000  plane waves:   11896
 k-point 35 :   0.0000 0.2500 0.5000  plane waves:   11714
 k-point 36 :   0.0769 0.2500 0.5000  plane waves:   11754
 k-point 37 :   0.1538 0.2500 0.5000  plane waves:   11802
 k-point 38 :   0.2308 0.2500 0.5000  plane waves:   11840
 k-point 39 :   0.3077 0.2500 0.5000  plane waves:   11858
 k-point 40 :   0.3846 0.2500 0.5000  plane waves:   11896
 k-point 41 :   0.4615 0.2500 0.5000  plane waves:   11886
 k-point 42 :  -0.4615 0.2500 0.5000  plane waves:   11852
 k-point 43 :  -0.3846 0.2500 0.5000  plane waves:   11838
 k-point 44 :  -0.3077 0.2500 0.5000  plane waves:   11842
 k-point 45 :  -0.2308 0.2500 0.5000  plane waves:   11840
 k-point 46 :  -0.1538 0.2500 0.5000  plane waves:   11804
 k-point 47 :  -0.0769 0.2500 0.5000  plane waves:   11748
 k-point 48 :   0.0000 0.5000 0.5000  plane waves:   11724
 k-point 49 :   0.0769 0.5000 0.5000  plane waves:   11748
 k-point 50 :   0.1538 0.5000 0.5000  plane waves:   11814
 k-point 51 :   0.2308 0.5000 0.5000  plane waves:   11832
 k-point 52 :   0.3077 0.5000 0.5000  plane waves:   11868
 k-point 53 :   0.3846 0.5000 0.5000  plane waves:   11892
 k-point 54 :   0.4615 0.5000 0.5000  plane waves:   11878

 maximum and minimum number of plane-waves per node :      5964     5832

 maximum number of plane-waves:     11896
 maximum index in each direction: 
   IXMAX=    5   IYMAX=   14   IZMAX=   38
   IXMIN=   -5   IYMIN=  -15   IZMIN=  -39

 WARNING: aliasing errors must be expected set NGX to  22 to avoid them
 NGY is ok and might be reduce to  60
 NGZ is ok and might be reduce to 156
 aliasing errors are usually negligible using standard VASP settings
 and one can safely disregard these warnings

 real space projection operators:
  total allocation   :       3793.25 KBytes
  max/ min on nodes  :       1899.38       1893.88


 parallel 3D FFT for wavefunctions:
    minimum data exchange during FFTs selected (reduces bandwidth)
 parallel 3D FFT for charge:
    minimum data exchange during FFTs selected (reduces bandwidth)


 total amount of memory used by VASP on root node   146493. kBytes
========================================================================

   base      :      30000. kBytes
   nonlr-proj:       3452. kBytes
   fftplans  :       9347. kBytes
   grid      :      14649. kBytes
   one-center:         36. kBytes
   wavefun   :      89009. kBytes
 
     INWAV:  cpu time    0.00: real time    0.00
 Broyden mixing: mesh for mixing (old mesh)
   NGX =  9   NGY = 29   NGZ = 77
  (NGX  = 40   NGY  =120   NGZ  =320)
  gives a total of  20097 points

 initial charge density was supplied:
 charge density of overlapping atoms calculated
 number of electron     108.0000000 magnetization 
 keeping initial charge density in first step


--------------------------------------------------------------------------------------------------------


 Maximum index for non-local projection operator         1333
 Maximum index for augmentation-charges          822 (set IRDMAX)


--------------------------------------------------------------------------------------------------------


 First call to EWALD:  gamma=   0.177
 Maximum number of real-space cells 7x 3x 1
 Maximum number of reciprocal cells 1x 3x 7

 FEWALD executed in parallel
    FEWALD:  cpu time    0.00: real time    0.00


----------------------------------------- Iteration    1(   1)  ---------------------------------------


vdW kernel read from vdw_kernel.bindat
  0.0000  0.2424  0.5071  0.7962  1.1119  1.4567  1.8333  2.2446  2.6937  3.1842
  3.7199  4.3049  4.9438  5.6415  6.4036  7.2358  8.1446  9.1372 10.2212 11.4050
 12.6979 14.1099 15.6519 17.3360 19.1751 21.1837 23.3773 25.7729 28.3892 31.2465
 34.3669 37.7748 41.4965 45.5611 50.0000
 
    POTLOK:  cpu time   15.84: real time   15.96
    SETDIJ:  cpu time    0.01: real time    0.01
     EDDAV:  cpu time   60.16: real time   60.53
       DOS:  cpu time    0.01: real time    0.01
    --------------------------------------------
      LOOP:  cpu time   76.02: real time   76.52

 eigenvalue-minimisations  :  7368
 total energy-change (2. order) : 0.4939895E+03  (-0.2865394E+04)
 number of electron     108.0000000 magnetization 
 augmentation part      108.0000000 magnetization 

 Free energy of the ion-electron system (eV)
  ---------------------------------------------------
  alpha Z        PSCENC =        36.80884744
  Ewald energy   TEWEN  =     11930.55292070
  -Hartree energ DENC   =    -14973.93723363
  -exchange      EXHF   =         0.00000000
  -V(xc)+E(xc)   XCENC  =       -88.01187405
  PAW double counting   =      1056.43050070     -732.41190547
  entropy T*S    EENTRO =        -0.04474783
  eigenvalues    EBANDS =       -89.43829386
  atomic energy  EATOM  =      3354.04126044
  ---------------------------------------------------
  free energy    TOTEN  =       493.98947445 eV

  energy without entropy =      494.03422227  energy(sigma->0) =      494.01184836


--------------------------------------------------------------------------------------------------------




----------------------------------------- Iteration    1(   2)  ---------------------------------------


     EDDAV:  cpu time   81.70: real time   82.11
       DOS:  cpu time    0.01: real time    0.01
    --------------------------------------------
      LOOP:  cpu time   81.71: real time   82.13

 eigenvalue-minimisations  :  9812
 total energy-change (2. order) :-0.5582136E+03  (-0.5429128E+03)
 number of electron     108.0000000 magnetization 
 augmentation part      108.0000000 magnetization 

 Free energy of the ion-electron system (eV)
  ---------------------------------------------------
  alpha Z        PSCENC =        36.80884744
  Ewald energy   TEWEN  =     11930.55292070
  -Hartree energ DENC   =    -14973.93723363
  -exchange      EXHF   =         0.00000000
  -V(xc)+E(xc)   XCENC  =       -88.01187405
  PAW double counting   =      1056.43050070     -732.41190547
  entropy T*S    EENTRO =        -0.01866991
  eigenvalues    EBANDS =      -647.67794360
  atomic energy  EATOM  =      3354.04126044
  ---------------------------------------------------
  free energy    TOTEN  =       -64.22409738 eV

  energy without entropy =      -64.20542747  energy(sigma->0) =      -64.21476242


--------------------------------------------------------------------------------------------------------




----------------------------------------- Iteration    1(   3)  ---------------------------------------


     EDDAV:  cpu time   69.24: real time   69.48
       DOS:  cpu time    0.01: real time    0.01
    --------------------------------------------
      LOOP:  cpu time   69.26: real time   69.49

 eigenvalue-minimisations  :  8764
 total energy-change (2. order) :-0.5607289E+02  (-0.5532255E+02)
 number of electron     108.0000000 magnetization 
 augmentation part      108.0000000 magnetization 

 Free energy of the ion-electron system (eV)
  ---------------------------------------------------
  alpha Z        PSCENC =        36.80884744
  Ewald energy   TEWEN  =     11930.55292070
  -Hartree energ DENC   =    -14973.93723363
  -exchange      EXHF   =         0.00000000
  -V(xc)+E(xc)   XCENC  =       -88.01187405
  PAW double counting   =      1056.43050070     -732.41190547
  entropy T*S    EENTRO =        -0.02536202
  eigenvalues    EBANDS =      -703.74413799
  atomic energy  EATOM  =      3354.04126044
  ---------------------------------------------------
  free energy    TOTEN  =      -120.29698388 eV

  energy without entropy =     -120.27162186  energy(sigma->0) =     -120.28430287


--------------------------------------------------------------------------------------------------------




----------------------------------------- Iteration    1(   4)  ---------------------------------------


     EDDAV:  cpu time   84.55: real time   84.77
       DOS:  cpu time    0.01: real time    0.01
    --------------------------------------------
      LOOP:  cpu time   84.56: real time   84.79

 eigenvalue-minimisations  : 11128
 total energy-change (2. order) :-0.2605276E+01  (-0.2588593E+01)
 number of electron     108.0000000 magnetization 
 augmentation part      108.0000000 magnetization 

 Free energy of the ion-electron system (eV)
  ---------------------------------------------------
  alpha Z        PSCENC =        36.80884744
  Ewald energy   TEWEN  =     11930.55292070
  -Hartree energ DENC   =    -14973.93723363
  -exchange      EXHF   =         0.00000000
  -V(xc)+E(xc)   XCENC  =       -88.01187405
  PAW double counting   =      1056.43050070     -732.41190547
  entropy T*S    EENTRO =        -0.02602017
  eigenvalues    EBANDS =      -706.34875535
  atomic energy  EATOM  =      3354.04126044
  ---------------------------------------------------
  free energy    TOTEN  =      -122.90225939 eV

  energy without entropy =     -122.87623922  energy(sigma->0) =     -122.88924931


--------------------------------------------------------------------------------------------------------




----------------------------------------- Iteration    1(   5)  ---------------------------------------


     EDDAV:  cpu time   75.53: real time   75.83
       DOS:  cpu time    0.01: real time    0.01
    CHARGE:  cpu time    4.14: real time    4.15
    MIXING:  cpu time    0.01: real time    0.01
    --------------------------------------------
      LOOP:  cpu time   79.69: real time   80.01

 eigenvalue-minimisations  :  9928
 total energy-change (2. order) :-0.5724425E-01  (-0.5718214E-01)
 number of electron     107.9999995 magnetization 
 augmentation part       -9.6087130 magnetization 

 Broyden mixing:
  rms(total) = 0.11059E+01    rms(broyden)= 0.11057E+01
  rms(prec ) = 0.11930E+01
  weight for this iteration     100.00

 Free energy of the ion-electron system (eV)
  ---------------------------------------------------
  alpha Z        PSCENC =        36.80884744
  Ewald energy   TEWEN  =     11930.55292070
  -Hartree energ DENC   =    -14973.93723363
  -exchange      EXHF   =         0.00000000
  -V(xc)+E(xc)   XCENC  =       -88.01187405
  PAW double counting   =      1056.43050070     -732.41190547
  entropy T*S    EENTRO =        -0.02605288
  eigenvalues    EBANDS =      -706.40596689
  atomic energy  EATOM  =      3354.04126044
  ---------------------------------------------------
  free energy    TOTEN  =      -122.95950364 eV

  energy without entropy =     -122.93345076  energy(sigma->0) =     -122.94647720


--------------------------------------------------------------------------------------------------------




----------------------------------------- Iteration    1(   6)  ---------------------------------------


    POTLOK:  cpu time   14.42: real time   14.45
    SETDIJ:  cpu time    0.01: real time    0.04
     EDDAV:  cpu time   71.84: real time   72.06
       DOS:  cpu time    0.01: real time    0.01
    CHARGE:  cpu time    4.14: real time    4.14
    MIXING:  cpu time    0.01: real time    0.01
    --------------------------------------------
      LOOP:  cpu time   90.44: real time   90.71

 eigenvalue-minimisations  :  8824
 total energy-change (2. order) : 0.3351620E+01  (-0.9499098E+00)
 number of electron     107.9999995 magnetization 
 augmentation part       -9.4679746 magnetization 

 Broyden mixing:
  rms(total) = 0.58558E+00    rms(broyden)= 0.58556E+00
  rms(prec ) = 0.61765E+00
  weight for this iteration     100.00

 eigenvalues of (default mixing * dielectric matrix)
  average eigenvalue GAMMA=   1.7445
  1.7445

 Free energy of the ion-electron system (eV)
  ---------------------------------------------------
  alpha Z        PSCENC =        36.80884744
  Ewald energy   TEWEN  =     11930.55292070
  -Hartree energ DENC   =    -15014.97000967
  -exchange      EXHF   =         0.00000000
  -V(xc)+E(xc)   XCENC  =       -84.92511812
  PAW double counting   =      1118.15484525     -795.92294227
  entropy T*S    EENTRO =        -0.02376526
  eigenvalues    EBANDS =      -663.32392192
  atomic energy  EATOM  =      3354.04126044
  ---------------------------------------------------
  free energy    TOTEN  =      -119.60788341 eV

  energy without entropy =     -119.58411815  energy(sigma->0) =     -119.59600078


--------------------------------------------------------------------------------------------------------




----------------------------------------- Iteration    1(   7)  ---------------------------------------


    POTLOK:  cpu time   14.46: real time   14.49
    SETDIJ:  cpu time    0.02: real time    0.02
     EDDAV:  cpu time   68.13: real time   68.42
       DOS:  cpu time    0.01: real time    0.01
    CHARGE:  cpu time    4.16: real time    4.16
    MIXING:  cpu time    0.01: real time    0.01
    --------------------------------------------
      LOOP:  cpu time   86.80: real time   87.12

 eigenvalue-minimisations  :  8560
 total energy-change (2. order) : 0.6179465E-01  (-0.5957729E+00)
 number of electron     107.9999995 magnetization 
 augmentation part       -9.3687570 magnetization 

 Broyden mixing:
  rms(total) = 0.24328E+00    rms(broyden)= 0.24325E+00
  rms(prec ) = 0.26186E+00
  weight for this iteration     100.00

 eigenvalues of (default mixing * dielectric matrix)
  average eigenvalue GAMMA=   1.4422
  0.9575  1.9270

 Free energy of the ion-electron system (eV)
  ---------------------------------------------------
  alpha Z        PSCENC =        36.80884744
  Ewald energy   TEWEN  =     11930.55292070
  -Hartree energ DENC   =    -15045.74700898
  -exchange      EXHF   =         0.00000000
  -V(xc)+E(xc)   XCENC  =       -82.11907207
  PAW double counting   =      1162.71338265     -841.76940956
  entropy T*S    EENTRO =        -0.02132937
  eigenvalues    EBANDS =      -634.00568002
  atomic energy  EATOM  =      3354.04126044
  ---------------------------------------------------
  free energy    TOTEN  =      -119.54608875 eV

  energy without entropy =     -119.52475939  energy(sigma->0) =     -119.53542407


--------------------------------------------------------------------------------------------------------




----------------------------------------- Iteration    1(   8)  ---------------------------------------


    POTLOK:  cpu time   14.44: real time   14.45
    SETDIJ:  cpu time    0.01: real time    0.01
     EDDAV:  cpu time   72.73: real time   73.11
       DOS:  cpu time    0.01: real time    0.01
    CHARGE:  cpu time    4.13: real time    4.13
    MIXING:  cpu time    0.01: real time    0.01
    --------------------------------------------
      LOOP:  cpu time   91.33: real time   91.74

 eigenvalue-minimisations  :  9320
 total energy-change (2. order) :-0.1875996E-03  (-0.8695353E-01)
 number of electron     107.9999995 magnetization 
 augmentation part       -9.3618457 magnetization 

 Broyden mixing:
  rms(total) = 0.12063E+00    rms(broyden)= 0.12062E+00
  rms(prec ) = 0.13114E+00
  weight for this iteration     100.00

 eigenvalues of (default mixing * dielectric matrix)
  average eigenvalue GAMMA=   1.4452
  2.1992  1.3833  0.7529

 Free energy of the ion-electron system (eV)
  ---------------------------------------------------
  alpha Z        PSCENC =        36.80884744
  Ewald energy   TEWEN  =     11930.55292070
  -Hartree energ DENC   =    -15051.64635596
  -exchange      EXHF   =         0.00000000
  -V(xc)+E(xc)   XCENC  =       -81.15241224
  PAW double counting   =      1171.21827467     -850.53580150
  entropy T*S    EENTRO =        -0.02441486
  eigenvalues    EBANDS =      -628.80859505
  atomic energy  EATOM  =      3354.04126044
  ---------------------------------------------------
  free energy    TOTEN  =      -119.54627635 eV

  energy without entropy =     -119.52186149  energy(sigma->0) =     -119.53406892


--------------------------------------------------------------------------------------------------------




----------------------------------------- Iteration    1(   9)  ---------------------------------------


    POTLOK:  cpu time   14.43: real time   14.46
    SETDIJ:  cpu time    0.01: real time    0.01
     EDDAV:  cpu time   69.83: real time   70.23
       DOS:  cpu time    0.01: real time    0.01
    CHARGE:  cpu time    4.13: real time    4.14
    MIXING:  cpu time    0.01: real time    0.01
    --------------------------------------------
      LOOP:  cpu time   88.43: real time   88.86

 eigenvalue-minimisations  :  8864
 total energy-change (2. order) : 0.1813993E-01  (-0.2137581E-01)
 number of electron     107.9999995 magnetization 
 augmentation part       -9.3593119 magnetization 

 Broyden mixing:
  rms(total) = 0.49080E-01    rms(broyden)= 0.49077E-01
  rms(prec ) = 0.54395E-01
  weight for this iteration     100.00

 eigenvalues of (default mixing * dielectric matrix)
  average eigenvalue GAMMA=   1.4257
  2.5473  1.2474  1.2474  0.6606

 Free energy of the ion-electron system (eV)
  ---------------------------------------------------
  alpha Z        PSCENC =        36.80884744
  Ewald energy   TEWEN  =     11930.55292070
  -Hartree energ DENC   =    -15059.15233721
  -exchange      EXHF   =         0.00000000
  -V(xc)+E(xc)   XCENC  =       -80.66683361
  PAW double counting   =      1172.03250529     -851.38242818
  entropy T*S    EENTRO =        -0.02390408
  eigenvalues    EBANDS =      -621.73816722
  atomic energy  EATOM  =      3354.04126044
  ---------------------------------------------------
  free energy    TOTEN  =      -119.52813642 eV

  energy without entropy =     -119.50423234  energy(sigma->0) =     -119.51618438


--------------------------------------------------------------------------------------------------------




----------------------------------------- Iteration    1(  10)  ---------------------------------------


    POTLOK:  cpu time   14.43: real time   14.47
    SETDIJ:  cpu time    0.01: real time    0.01
     EDDAV:  cpu time   69.78: real time   70.15
       DOS:  cpu time    0.01: real time    0.01
    CHARGE:  cpu time    4.14: real time    4.15
    MIXING:  cpu time    0.01: real time    0.01
    --------------------------------------------
      LOOP:  cpu time   88.39: real time   88.82

 eigenvalue-minimisations  :  8840
 total energy-change (2. order) : 0.6536232E-02  (-0.5396350E-02)
 number of electron     107.9999995 magnetization 
 augmentation part       -9.3573000 magnetization 

 Broyden mixing:
  rms(total) = 0.17081E-01    rms(broyden)= 0.17079E-01
  rms(prec ) = 0.18911E-01
  weight for this iteration     100.00

 eigenvalues of (default mixing * dielectric matrix)
  average eigenvalue GAMMA=   1.4189
  2.5845  1.5506  1.1538  1.1538  0.6516

 Free energy of the ion-electron system (eV)
  ---------------------------------------------------
  alpha Z        PSCENC =        36.80884744
  Ewald energy   TEWEN  =     11930.55292070
  -Hartree energ DENC   =    -15061.77027476
  -exchange      EXHF   =         0.00000000
  -V(xc)+E(xc)   XCENC  =       -80.42372532
  PAW double counting   =      1171.42418885     -850.76462643
  entropy T*S    EENTRO =        -0.02417818
  eigenvalues    EBANDS =      -619.36601294
  atomic energy  EATOM  =      3354.04126044
  ---------------------------------------------------
  free energy    TOTEN  =      -119.52160019 eV

  energy without entropy =     -119.49742201  energy(sigma->0) =     -119.50951110


--------------------------------------------------------------------------------------------------------




----------------------------------------- Iteration    1(  11)  ---------------------------------------


    POTLOK:  cpu time   14.44: real time   14.46
    SETDIJ:  cpu time    0.01: real time    0.01
     EDDAV:  cpu time   72.88: real time   73.28
       DOS:  cpu time    0.01: real time    0.01
    CHARGE:  cpu time    4.13: real time    4.13
    MIXING:  cpu time    0.01: real time    0.01
    --------------------------------------------
      LOOP:  cpu time   91.48: real time   91.92

 eigenvalue-minimisations  :  9328
 total energy-change (2. order) : 0.9774763E-02  (-0.8127018E-03)
 number of electron     107.9999995 magnetization 
 augmentation part       -9.3595090 magnetization 

 Broyden mixing:
  rms(total) = 0.77529E-02    rms(broyden)= 0.77519E-02
  rms(prec ) = 0.90926E-02
  weight for this iteration     100.00

 eigenvalues of (default mixing * dielectric matrix)
  average eigenvalue GAMMA=   1.3954
  2.6468  1.6280  1.3613  1.0432  1.0432  0.6500

 Free energy of the ion-electron system (eV)
  ---------------------------------------------------
  alpha Z        PSCENC =        36.80884744
  Ewald energy   TEWEN  =     11930.55292070
  -Hartree energ DENC   =    -15062.76334881
  -exchange      EXHF   =         0.00000000
  -V(xc)+E(xc)   XCENC  =       -80.40578720
  PAW double counting   =      1169.68759348     -848.98200360
  entropy T*S    EENTRO =        -0.02408281
  eigenvalues    EBANDS =      -618.42722506
  atomic energy  EATOM  =      3354.04126044
  ---------------------------------------------------
  free energy    TOTEN  =      -119.51182543 eV

  energy without entropy =     -119.48774262  energy(sigma->0) =     -119.49978402


--------------------------------------------------------------------------------------------------------




----------------------------------------- Iteration    1(  12)  ---------------------------------------


    POTLOK:  cpu time   14.44: real time   14.46
    SETDIJ:  cpu time    0.01: real time    0.01
     EDDAV:  cpu time   70.92: real time   71.38
       DOS:  cpu time    0.01: real time    0.01
    CHARGE:  cpu time    4.12: real time    4.13
    MIXING:  cpu time    0.01: real time    0.01
    --------------------------------------------
      LOOP:  cpu time   89.53: real time   90.01

 eigenvalue-minimisations  :  9144
 total energy-change (2. order) : 0.5501206E-02  (-0.1416417E-03)
 number of electron     107.9999995 magnetization 
 augmentation part       -9.3596825 magnetization 

 Broyden mixing:
  rms(total) = 0.39573E-02    rms(broyden)= 0.39569E-02
  rms(prec ) = 0.51203E-02
  weight for this iteration     100.00

 eigenvalues of (default mixing * dielectric matrix)
  average eigenvalue GAMMA=   1.4293
  2.6633  2.0970  1.2968  1.2968  0.6540  0.9986  0.9986

 Free energy of the ion-electron system (eV)
  ---------------------------------------------------
  alpha Z        PSCENC =        36.80884744
  Ewald energy   TEWEN  =     11930.55292070
  -Hartree energ DENC   =    -15063.86045376
  -exchange      EXHF   =         0.00000000
  -V(xc)+E(xc)   XCENC  =       -80.39117181
  PAW double counting   =      1168.92136081     -848.19521818
  entropy T*S    EENTRO =        -0.02399696
  eigenvalues    EBANDS =      -617.35987291
  atomic energy  EATOM  =      3354.04126044
  ---------------------------------------------------
  free energy    TOTEN  =      -119.50632422 eV

  energy without entropy =     -119.48232726  energy(sigma->0) =     -119.49432574


--------------------------------------------------------------------------------------------------------




----------------------------------------- Iteration    1(  13)  ---------------------------------------


    POTLOK:  cpu time   14.44: real time   14.46
    SETDIJ:  cpu time    0.01: real time    0.01
     EDDAV:  cpu time   69.54: real time   69.96
       DOS:  cpu time    0.01: real time    0.01
    CHARGE:  cpu time    4.09: real time    4.13
    MIXING:  cpu time    0.01: real time    0.01
    --------------------------------------------
      LOOP:  cpu time   88.11: real time   88.58

 eigenvalue-minimisations  :  8936
 total energy-change (2. order) : 0.4046980E-02  (-0.2747059E-04)
 number of electron     107.9999995 magnetization 
 augmentation part       -9.3599052 magnetization 

 Broyden mixing:
  rms(total) = 0.17985E-02    rms(broyden)= 0.17984E-02
  rms(prec ) = 0.29495E-02
  weight for this iteration     100.00

 eigenvalues of (default mixing * dielectric matrix)
  average eigenvalue GAMMA=   1.4726
  2.7867  2.3581  1.4323  1.3051  1.3051  0.6543  0.9697  0.9697

 Free energy of the ion-electron system (eV)
  ---------------------------------------------------
  alpha Z        PSCENC =        36.80884744
  Ewald energy   TEWEN  =     11930.55292070
  -Hartree energ DENC   =    -15064.66557998
  -exchange      EXHF   =         0.00000000
  -V(xc)+E(xc)   XCENC  =       -80.38845423
  PAW double counting   =      1168.33446739     -847.59275733
  entropy T*S    EENTRO =        -0.02402748
  eigenvalues    EBANDS =      -616.56895419
  atomic energy  EATOM  =      3354.04126044
  ---------------------------------------------------
  free energy    TOTEN  =      -119.50227724 eV

  energy without entropy =     -119.47824976  energy(sigma->0) =     -119.49026350


--------------------------------------------------------------------------------------------------------




----------------------------------------- Iteration    1(  14)  ---------------------------------------


    POTLOK:  cpu time   14.43: real time   14.47
    SETDIJ:  cpu time    0.01: real time    0.01
     EDDAV:  cpu time   74.08: real time   74.46
       DOS:  cpu time    0.01: real time    0.01
    CHARGE:  cpu time    4.16: real time    4.16
    MIXING:  cpu time    0.01: real time    0.01
    --------------------------------------------
      LOOP:  cpu time   92.71: real time   93.14

 eigenvalue-minimisations  :  9552
 total energy-change (2. order) : 0.1687377E-02  (-0.1337943E-04)
 number of electron     107.9999995 magnetization 
 augmentation part       -9.3596011 magnetization 

 Broyden mixing:
  rms(total) = 0.10770E-02    rms(broyden)= 0.10769E-02
  rms(prec ) = 0.18766E-02
  weight for this iteration     100.00

 eigenvalues of (default mixing * dielectric matrix)
  average eigenvalue GAMMA=   1.4867
  2.9333  2.5398  1.6553  1.2592  1.2592  0.6544  1.1599  0.9594  0.9594

 Free energy of the ion-electron system (eV)
  ---------------------------------------------------
  alpha Z        PSCENC =        36.80884744
  Ewald energy   TEWEN  =     11930.55292070
  -Hartree energ DENC   =    -15065.64410327
  -exchange      EXHF   =         0.00000000
  -V(xc)+E(xc)   XCENC  =       -80.38176321
  PAW double counting   =      1168.11084544     -847.36371566
  entropy T*S    EENTRO =        -0.02399825
  eigenvalues    EBANDS =      -615.60088349
  atomic energy  EATOM  =      3354.04126044
  ---------------------------------------------------
  free energy    TOTEN  =      -119.50058986 eV

  energy without entropy =     -119.47659161  energy(sigma->0) =     -119.48859074


--------------------------------------------------------------------------------------------------------




----------------------------------------- Iteration    1(  15)  ---------------------------------------


    POTLOK:  cpu time   14.38: real time   14.47
    SETDIJ:  cpu time    0.01: real time    0.01
     EDDAV:  cpu time   67.01: real time   67.36
       DOS:  cpu time    0.01: real time    0.01
    CHARGE:  cpu time    4.14: real time    4.15
    MIXING:  cpu time    0.01: real time    0.01
    --------------------------------------------
      LOOP:  cpu time   85.57: real time   86.02

 eigenvalue-minimisations  :  8520
 total energy-change (2. order) : 0.2349249E-03  (-0.4153353E-05)
 number of electron     107.9999995 magnetization 
 augmentation part       -9.3594860 magnetization 

 Broyden mixing:
  rms(total) = 0.66434E-03    rms(broyden)= 0.66432E-03
  rms(prec ) = 0.12259E-02
  weight for this iteration     100.00

 eigenvalues of (default mixing * dielectric matrix)
  average eigenvalue GAMMA=   1.5554
  3.3589  2.6387  2.0327  1.3736  1.2656  1.2656  0.6541  1.0004  1.0004  0.9640

 Free energy of the ion-electron system (eV)
  ---------------------------------------------------
  alpha Z        PSCENC =        36.80884744
  Ewald energy   TEWEN  =     11930.55292070
  -Hartree energ DENC   =    -15066.32220590
  -exchange      EXHF   =         0.00000000
  -V(xc)+E(xc)   XCENC  =       -80.37843420
  PAW double counting   =      1168.05073561     -847.30240353
  entropy T*S    EENTRO =        -0.02400880
  eigenvalues    EBANDS =      -614.92706670
  atomic energy  EATOM  =      3354.04126044
  ---------------------------------------------------
  free energy    TOTEN  =      -119.50035494 eV

  energy without entropy =     -119.47634614  energy(sigma->0) =     -119.48835054


--------------------------------------------------------------------------------------------------------




----------------------------------------- Iteration    1(  16)  ---------------------------------------


    POTLOK:  cpu time   14.47: real time   14.47
    SETDIJ:  cpu time    0.01: real time    0.01
     EDDAV:  cpu time   65.43: real time   65.63
       DOS:  cpu time    0.01: real time    0.01
    CHARGE:  cpu time    4.16: real time    4.17
    MIXING:  cpu time    0.01: real time    0.01
    --------------------------------------------
      LOOP:  cpu time   84.10: real time   84.32

 eigenvalue-minimisations  :  8176
 total energy-change (2. order) :-0.3971787E-03  (-0.7758103E-05)
 number of electron     107.9999995 magnetization 
 augmentation part       -9.3593663 magnetization 

 Broyden mixing:
  rms(total) = 0.44530E-03    rms(broyden)= 0.44528E-03
  rms(prec ) = 0.73832E-03
  weight for this iteration     100.00

 eigenvalues of (default mixing * dielectric matrix)
  average eigenvalue GAMMA=   1.6526
  4.2841  2.7347  2.1809  1.7996  1.2752  1.2752  0.6541  1.0392  1.0392  0.9480
  0.9480

 Free energy of the ion-electron system (eV)
  ---------------------------------------------------
  alpha Z        PSCENC =        36.80884744
  Ewald energy   TEWEN  =     11930.55292070
  -Hartree energ DENC   =    -15066.99841521
  -exchange      EXHF   =         0.00000000
  -V(xc)+E(xc)   XCENC  =       -80.37452256
  PAW double counting   =      1168.06018897     -847.31229243
  entropy T*S    EENTRO =        -0.02401053
  eigenvalues    EBANDS =      -614.25472895
  atomic energy  EATOM  =      3354.04126044
  ---------------------------------------------------
  free energy    TOTEN  =      -119.50075212 eV

  energy without entropy =     -119.47674159  energy(sigma->0) =     -119.48874685


--------------------------------------------------------------------------------------------------------




----------------------------------------- Iteration    1(  17)  ---------------------------------------


    POTLOK:  cpu time   14.48: real time   14.49
    SETDIJ:  cpu time    0.01: real time    0.01
     EDDAV:  cpu time   63.95: real time   64.15
       DOS:  cpu time    0.01: real time    0.01
    CHARGE:  cpu time    4.07: real time    4.14
    MIXING:  cpu time    0.01: real time    0.01
    --------------------------------------------
      LOOP:  cpu time   82.54: real time   82.81

 eigenvalue-minimisations  :  7960
 total energy-change (2. order) :-0.3830094E-03  (-0.1493578E-04)
 number of electron     107.9999995 magnetization 
 augmentation part       -9.3593440 magnetization 

 Broyden mixing:
  rms(total) = 0.24691E-03    rms(broyden)= 0.24690E-03
  rms(prec ) = 0.41571E-03
  weight for this iteration     100.00

 eigenvalues of (default mixing * dielectric matrix)
  average eigenvalue GAMMA=   1.7542
  5.3588  2.7801  2.4374  1.9026  1.5285  1.2323  1.2323  0.6541  1.0124  1.0124
  0.9500  0.9500

 Free energy of the ion-electron system (eV)
  ---------------------------------------------------
  alpha Z        PSCENC =        36.80884744
  Ewald energy   TEWEN  =     11930.55292070
  -Hartree energ DENC   =    -15067.42837989
  -exchange      EXHF   =         0.00000000
  -V(xc)+E(xc)   XCENC  =       -80.37267414
  PAW double counting   =      1168.07380833     -847.32611854
  entropy T*S    EENTRO =        -0.02400983
  eigenvalues    EBANDS =      -613.82678964
  atomic energy  EATOM  =      3354.04126044
  ---------------------------------------------------
  free energy    TOTEN  =      -119.50113513 eV

  energy without entropy =     -119.47712530  energy(sigma->0) =     -119.48913021


--------------------------------------------------------------------------------------------------------




----------------------------------------- Iteration    1(  18)  ---------------------------------------


    POTLOK:  cpu time   14.43: real time   14.48
    SETDIJ:  cpu time    0.01: real time    0.01
     EDDAV:  cpu time   63.99: real time   64.17
       DOS:  cpu time    0.01: real time    0.01
    CHARGE:  cpu time    4.12: real time    4.14
    MIXING:  cpu time    0.01: real time    0.02
    --------------------------------------------
      LOOP:  cpu time   82.58: real time   82.83

 eigenvalue-minimisations  :  7984
 total energy-change (2. order) :-0.1606953E-03  (-0.5805256E-05)
 number of electron     107.9999995 magnetization 
 augmentation part       -9.3593117 magnetization 

 Broyden mixing:
  rms(total) = 0.14563E-03    rms(broyden)= 0.14562E-03
  rms(prec ) = 0.25814E-03
  weight for this iteration     100.00

 eigenvalues of (default mixing * dielectric matrix)
  average eigenvalue GAMMA=   1.8229
  6.2591  2.8963  2.4831  1.9134  1.6627  1.2612  1.2612  1.3897  0.6541  1.0134
  1.0134  0.9447  0.9447

 Free energy of the ion-electron system (eV)
  ---------------------------------------------------
  alpha Z        PSCENC =        36.80884744
  Ewald energy   TEWEN  =     11930.55292070
  -Hartree energ DENC   =    -15067.65950791
  -exchange      EXHF   =         0.00000000
  -V(xc)+E(xc)   XCENC  =       -80.37146520
  PAW double counting   =      1168.09016828     -847.34278026
  entropy T*S    EENTRO =        -0.02401194
  eigenvalues    EBANDS =      -613.59672738
  atomic energy  EATOM  =      3354.04126044
  ---------------------------------------------------
  free energy    TOTEN  =      -119.50129582 eV

  energy without entropy =     -119.47728388  energy(sigma->0) =     -119.48928985


--------------------------------------------------------------------------------------------------------




----------------------------------------- Iteration    1(  19)  ---------------------------------------


    POTLOK:  cpu time   14.36: real time   14.47
    SETDIJ:  cpu time    0.01: real time    0.01
     EDDAV:  cpu time   52.59: real time   52.80
       DOS:  cpu time    0.01: real time    0.01
    CHARGE:  cpu time    4.03: real time    4.05
    MIXING:  cpu time    0.01: real time    0.02
    --------------------------------------------
      LOOP:  cpu time   71.02: real time   71.37

 eigenvalue-minimisations  :  6256
 total energy-change (2. order) :-0.3596125E-04  (-0.1125654E-05)
 number of electron     107.9999995 magnetization 
 augmentation part       -9.3593050 magnetization 

 Broyden mixing:
  rms(total) = 0.10070E-03    rms(broyden)= 0.10070E-03
  rms(prec ) = 0.17578E-03
  weight for this iteration     100.00

 eigenvalues of (default mixing * dielectric matrix)
  average eigenvalue GAMMA=   1.8679
  6.6662  3.0973  2.6984  2.0961  1.7091  1.7091  1.2369  1.2369  0.6541  1.1147
  1.0156  1.0156  0.9506  0.9506

 Free energy of the ion-electron system (eV)
  ---------------------------------------------------
  alpha Z        PSCENC =        36.80884744
  Ewald energy   TEWEN  =     11930.55292070
  -Hartree energ DENC   =    -15067.76977145
  -exchange      EXHF   =         0.00000000
  -V(xc)+E(xc)   XCENC  =       -80.37120884
  PAW double counting   =      1168.09100047     -847.34359223
  entropy T*S    EENTRO =        -0.02401211
  eigenvalues    EBANDS =      -613.48677621
  atomic energy  EATOM  =      3354.04126044
  ---------------------------------------------------
  free energy    TOTEN  =      -119.50133178 eV

  energy without entropy =     -119.47731967  energy(sigma->0) =     -119.48932573


--------------------------------------------------------------------------------------------------------




----------------------------------------- Iteration    1(  20)  ---------------------------------------


    POTLOK:  cpu time   14.28: real time   14.46
    SETDIJ:  cpu time    0.01: real time    0.01
     EDDAV:  cpu time   59.67: real time   59.86
       DOS:  cpu time    0.01: real time    0.01
    CHARGE:  cpu time    4.07: real time    4.07
    MIXING:  cpu time    0.01: real time    0.01
    --------------------------------------------
      LOOP:  cpu time   78.06: real time   78.43

 eigenvalue-minimisations  :  7200
 total energy-change (2. order) :-0.2070628E-04  (-0.3329196E-05)
 number of electron     107.9999995 magnetization 
 augmentation part       -9.3593064 magnetization 

 Broyden mixing:
  rms(total) = 0.64873E-04    rms(broyden)= 0.64869E-04
  rms(prec ) = 0.10557E-03
  weight for this iteration     100.00

 eigenvalues of (default mixing * dielectric matrix)
  average eigenvalue GAMMA=   1.9120
  6.9120  3.6667  2.7564  2.4188  1.6612  1.6612  1.2517  1.2517  1.4439  0.6541
  1.0101  1.0101  1.0170  1.0170  0.9482

 Free energy of the ion-electron system (eV)
  ---------------------------------------------------
  alpha Z        PSCENC =        36.80884744
  Ewald energy   TEWEN  =     11930.55292070
  -Hartree energ DENC   =    -15067.82984850
  -exchange      EXHF   =         0.00000000
  -V(xc)+E(xc)   XCENC  =       -80.37111465
  PAW double counting   =      1168.08933339     -847.34186027
  entropy T*S    EENTRO =        -0.02401249
  eigenvalues    EBANDS =      -613.42687857
  atomic energy  EATOM  =      3354.04126044
  ---------------------------------------------------
  free energy    TOTEN  =      -119.50135249 eV

  energy without entropy =     -119.47734000  energy(sigma->0) =     -119.48934625


--------------------------------------------------------------------------------------------------------




----------------------------------------- Iteration    1(  21)  ---------------------------------------


    POTLOK:  cpu time   14.44: real time   14.45
    SETDIJ:  cpu time    0.01: real time    0.01
     EDDAV:  cpu time   54.70: real time   54.86
       DOS:  cpu time    0.01: real time    0.01
    CHARGE:  cpu time    4.04: real time    4.05
    MIXING:  cpu time    0.02: real time    0.02
    --------------------------------------------
      LOOP:  cpu time   73.22: real time   73.41

 eigenvalue-minimisations  :  6496
 total energy-change (2. order) : 0.4481417E-04  (-0.1804652E-05)
 number of electron     107.9999995 magnetization 
 augmentation part       -9.3593124 magnetization 

 Broyden mixing:
  rms(total) = 0.40467E-04    rms(broyden)= 0.40464E-04
  rms(prec ) = 0.57009E-04
  weight for this iteration     100.00

 eigenvalues of (default mixing * dielectric matrix)
  average eigenvalue GAMMA=   2.0151
  7.2235  4.9840  2.8647  2.6476  1.9989  1.6718  1.6718  1.2405  1.2405  0.6541
  1.0594  1.0594  0.9964  0.9964  0.9845  0.9476

 Free energy of the ion-electron system (eV)
  ---------------------------------------------------
  alpha Z        PSCENC =        36.80884744
  Ewald energy   TEWEN  =     11930.55292070
  -Hartree energ DENC   =    -15067.84715970
  -exchange      EXHF   =         0.00000000
  -V(xc)+E(xc)   XCENC  =       -80.37129527
  PAW double counting   =      1168.08509234     -847.33751910
  entropy T*S    EENTRO =        -0.02401417
  eigenvalues    EBANDS =      -613.40944035
  atomic energy  EATOM  =      3354.04126044
  ---------------------------------------------------
  free energy    TOTEN  =      -119.50130768 eV

  energy without entropy =     -119.47729350  energy(sigma->0) =     -119.48930059


--------------------------------------------------------------------------------------------------------




----------------------------------------- Iteration    1(  22)  ---------------------------------------


    POTLOK:  cpu time   14.37: real time   14.45
    SETDIJ:  cpu time    0.01: real time    0.01
     EDDAV:  cpu time   58.09: real time   58.33
       DOS:  cpu time    0.01: real time    0.01
    CHARGE:  cpu time    4.08: real time    4.09
    MIXING:  cpu time    0.02: real time    0.02
    --------------------------------------------
      LOOP:  cpu time   76.58: real time   76.91

 eigenvalue-minimisations  :  7208
 total energy-change (2. order) : 0.5827611E-04  (-0.2176960E-05)
 number of electron     107.9999995 magnetization 
 augmentation part       -9.3593075 magnetization 

 Broyden mixing:
  rms(total) = 0.21461E-04    rms(broyden)= 0.21458E-04
  rms(prec ) = 0.27391E-04
  weight for this iteration     100.00

 eigenvalues of (default mixing * dielectric matrix)
  average eigenvalue GAMMA=   2.1017
  7.6554  6.2563  3.0104  2.6389  2.2816  1.6922  1.5158  1.5158  1.2533  1.2533
  0.6541  1.0272  1.0272  1.0669  0.9926  0.9926  0.8957

 Free energy of the ion-electron system (eV)
  ---------------------------------------------------
  alpha Z        PSCENC =        36.80884744
  Ewald energy   TEWEN  =     11930.55292070
  -Hartree energ DENC   =    -15067.86458610
  -exchange      EXHF   =         0.00000000
  -V(xc)+E(xc)   XCENC  =       -80.37129892
  PAW double counting   =      1168.08444150     -847.33687765
  entropy T*S    EENTRO =        -0.02401364
  eigenvalues    EBANDS =      -613.39194317
  atomic energy  EATOM  =      3354.04126044
  ---------------------------------------------------
  free energy    TOTEN  =      -119.50124940 eV

  energy without entropy =     -119.47723576  energy(sigma->0) =     -119.48924258


--------------------------------------------------------------------------------------------------------




----------------------------------------- Iteration    1(  23)  ---------------------------------------


    POTLOK:  cpu time   14.33: real time   14.45
    SETDIJ:  cpu time    0.01: real time    0.01
     EDDAV:  cpu time   54.01: real time   54.22
       DOS:  cpu time    0.01: real time    0.01
    CHARGE:  cpu time    4.03: real time    4.07
    MIXING:  cpu time    0.01: real time    0.01
    --------------------------------------------
      LOOP:  cpu time   72.42: real time   72.78

 eigenvalue-minimisations  :  6524
 total energy-change (2. order) : 0.3116961E-04  (-0.1436651E-05)
 number of electron     107.9999995 magnetization 
 augmentation part       -9.3593086 magnetization 

 Broyden mixing:
  rms(total) = 0.10246E-04    rms(broyden)= 0.10243E-04
  rms(prec ) = 0.12758E-04
  weight for this iteration     100.00

 eigenvalues of (default mixing * dielectric matrix)
  average eigenvalue GAMMA=   2.1620
  8.7322  6.6465  3.0865  2.7347  2.3791  1.7236  1.7236  1.7308  1.2466  1.2466
  0.6541  1.0994  1.0994  1.0006  1.0006  0.9800  0.9800  0.8509

 Free energy of the ion-electron system (eV)
  ---------------------------------------------------
  alpha Z        PSCENC =        36.80884744
  Ewald energy   TEWEN  =     11930.55292070
  -Hartree energ DENC   =    -15067.86030764
  -exchange      EXHF   =         0.00000000
  -V(xc)+E(xc)   XCENC  =       -80.37133935
  PAW double counting   =      1168.08474611     -847.33719893
  entropy T*S    EENTRO =        -0.02401368
  eigenvalues    EBANDS =      -613.39613333
  atomic energy  EATOM  =      3354.04126044
  ---------------------------------------------------
  free energy    TOTEN  =      -119.50121823 eV

  energy without entropy =     -119.47720455  energy(sigma->0) =     -119.48921139


[...]
     31      -4.1359      2.00000
     32      -4.0262      2.00000
     33      -3.7710      2.00000
     34      -3.5859      2.00000
     35      -3.3256      2.00000
     36      -3.2571      2.00000
     37      -3.1231      2.00000
     38      -3.0938      2.00000
     39      -2.9305      2.00000
     40      -2.7299      2.00000
     41      -2.6470      2.00000
     42      -2.5722      2.00000
     43      -2.4051      2.00000
     44      -2.0559      2.00000
     45      -2.0101      2.00000
     46      -1.9354      2.00000
     47      -1.8001      2.00000
     48      -1.5980      2.00000
     49      -1.4190      2.00000
     50      -1.2161      2.00000
     51      -1.1166      2.00000
     52      -0.8270      2.00000
     53      -0.4389      2.00000
     54      -0.2126      1.93420
     55       0.0391      0.08539
     56       1.0480      0.00000
     57       1.3582      0.00000
     58       1.4159      0.00000
     59       1.5534      0.00000
     60       1.8743      0.00000
     61       2.0885      0.00000
     62       2.2233      0.00000
     63       2.4578      0.00000
     64       2.5849      0.00000
     65       2.6808      0.00000
     66       2.9041      0.00000
     67       3.0195      0.00000
     68       3.1497      0.00000

 k-point    52 :       0.3077    0.5000    0.5000
  band No.  band energies     occupation 
      1     -13.5899      2.00000
      2     -12.5409      2.00000
      3     -12.1964      2.00000
      4     -12.0218      2.00000
      5     -11.6778      2.00000
      6     -11.3983      2.00000
      7     -11.1986      2.00000
      8     -11.0453      2.00000
      9     -10.8411      2.00000
     10     -10.7217      2.00000
     11     -10.4259      2.00000
     12      -9.7930      2.00000
     13      -9.0197      2.00000
     14      -8.9545      2.00000
     15      -7.8168      2.00000
     16      -7.8050      2.00000
     17      -7.2541      2.00000
     18      -7.0965      2.00000
     19      -6.9989      2.00000
     20      -6.6907      2.00000
     21      -6.4290      2.00000
     22      -6.2181      2.00000
     23      -5.9563      2.00000
     24      -5.6714      2.00000
     25      -5.3906      2.00000
     26      -5.0273      2.00000
     27      -4.9326      2.00000
     28      -4.7625      2.00000
     29      -4.5785      2.00000
     30      -4.4653      2.00000
     31      -4.3434      2.00000
     32      -4.1844      2.00000
     33      -4.1112      2.00000
     34      -3.5761      2.00000
     35      -3.3118      2.00000
     36      -3.2648      2.00000
     37      -3.1496      2.00000
     38      -3.0824      2.00000
     39      -2.9459      2.00000
     40      -2.9107      2.00000
     41      -2.6801      2.00000
     42      -2.5581      2.00000
     43      -2.3990      2.00000
     44      -2.2973      2.00000
     45      -2.2118      2.00000
     46      -1.9864      2.00000
     47      -1.9333      2.00000
     48      -1.8079      2.00000
     49      -1.7739      2.00000
     50      -1.5956      2.00000
     51      -1.3690      2.00000
     52      -1.1282      2.00000
     53      -0.7145      2.00000
     54      -0.4502      2.00000
     55      -0.2705      1.99216
     56       0.8892      0.00000
     57       1.1522      0.00000
     58       1.2644      0.00000
     59       1.3358      0.00000
     60       1.5784      0.00000
     61       2.0253      0.00000
     62       2.1347      0.00000
     63       2.2664      0.00000
     64       2.3974      0.00000
     65       2.4604      0.00000
     66       2.5486      0.00000
     67       2.8384      0.00000
     68       2.9772      0.00000

 k-point    53 :       0.3846    0.5000    0.5000
  band No.  band energies     occupation 
      1     -13.1555      2.00000
      2     -12.0646      2.00000
      3     -11.6995      2.00000
      4     -11.6024      2.00000
      5     -11.2825      2.00000
      6     -11.1485      2.00000
      7     -10.8914      2.00000
      8     -10.8007      2.00000
      9     -10.6500      2.00000
     10     -10.6426      2.00000
     11     -10.4928      2.00000
     12      -9.8633      2.00000
     13      -9.3687      2.00000
     14      -8.9387      2.00000
     15      -8.2816      2.00000
     16      -7.7975      2.00000
     17      -7.6472      2.00000
     18      -7.4660      2.00000
     19      -7.4160      2.00000
     20      -7.1849      2.00000
     21      -6.8511      2.00000
     22      -6.7507      2.00000
     23      -6.6874      2.00000
     24      -6.2795      2.00000
     25      -5.3322      2.00000
     26      -4.9506      2.00000
     27      -4.7282      2.00000
     28      -4.6954      2.00000
     29      -4.5901      2.00000
     30      -4.4013      2.00000
     31      -4.1645      2.00000
     32      -4.0720      2.00000
     33      -4.0006      2.00000
     34      -3.6547      2.00000
     35      -3.5633      2.00000
     36      -3.3358      2.00000
     37      -3.2205      2.00000
     38      -3.1685      2.00000
     39      -3.1075      2.00000
     40      -3.0644      2.00000
     41      -2.8976      2.00000
     42      -2.6589      2.00000
     43      -2.5064      2.00000
     44      -2.3908      2.00000
     45      -2.2957      2.00000
     46      -2.1387      2.00000
     47      -2.0928      2.00000
     48      -2.0621      2.00000
     49      -1.8800      2.00000
     50      -1.7699      2.00000
     51      -1.4969      2.00000
     52      -1.4309      2.00000
     53      -0.8056      2.00000
     54      -0.5884      2.00000
     55      -0.4322      2.00000
     56       0.7639      0.00000
     57       0.8832      0.00000
     58       1.2370      0.00000
     59       1.3182      0.00000
     60       1.5097      0.00000
     61       1.7878      0.00000
     62       2.0016      0.00000
     63       2.0742      0.00000
     64       2.1292      0.00000
     65       2.3071      0.00000
     66       2.3832      0.00000
     67       2.5933      0.00000
     68       2.8096      0.00000

 k-point    54 :       0.4615    0.5000    0.5000
  band No.  band energies     occupation 
      1     -12.7831      2.00000
      2     -11.5218      2.00000
      3     -11.3969      2.00000
      4     -11.2010      2.00000
      5     -11.0517      2.00000
      6     -10.9798      2.00000
      7     -10.8810      2.00000
      8     -10.7547      2.00000
      9     -10.7313      2.00000
     10     -10.6526      2.00000
     11     -10.5646      2.00000
     12      -9.8488      2.00000
     13      -9.6125      2.00000
     14      -8.6970      2.00000
     15      -8.4716      2.00000
     16      -8.1510      2.00000
     17      -7.9104      2.00000
     18      -7.7364      2.00000
     19      -7.5909      2.00000
     20      -7.3249      2.00000
     21      -7.2857      2.00000
     22      -7.2011      2.00000
     23      -7.0325      2.00000
     24      -6.7055      2.00000
     25      -4.9793      2.00000
     26      -4.7961      2.00000
     27      -4.5943      2.00000
     28      -4.5105      2.00000
     29      -4.3496      2.00000
     30      -4.2253      2.00000
     31      -4.0998      2.00000
     32      -3.9841      2.00000
     33      -3.8737      2.00000
     34      -3.8022      2.00000
     35      -3.6842      2.00000
     36      -3.5926      2.00000
     37      -3.5187      2.00000
     38      -3.3237      2.00000
     39      -3.2856      2.00000
     40      -3.1375      2.00000
     41      -3.0514      2.00000
     42      -2.8279      2.00000
     43      -2.7054      2.00000
     44      -2.4080      2.00000
     45      -2.3501      2.00000
     46      -2.2745      2.00000
     47      -2.1884      2.00000
     48      -2.0836      2.00000
     49      -1.8830      2.00000
     50      -1.7266      2.00000
     51      -1.5524      2.00000
     52      -1.3982      2.00000
     53      -0.8821      2.00000
     54      -0.6896      2.00000
     55      -0.4930      2.00000
     56       0.6772      0.00000
     57       0.7301      0.00000
     58       1.1822      0.00000
     59       1.3255      0.00000
     60       1.5520      0.00000
     61       1.6256      0.00000
     62       1.8209      0.00000
     63       1.9232      0.00000
     64       2.0271      0.00000
     65       2.3403      0.00000
     66       2.4225      0.00000
     67       2.5588      0.00000
     68       2.7114      0.00000


--------------------------------------------------------------------------------------------------------


 soft charge-density along one line, spin component           1
         0         1         2         3         4         5         6         7         8         9
 total charge-density along one line
 
 pseudopotential strength for first ion, spin component:           1
 29.782   0.008  -0.000  -0.023   0.000  -0.000  -0.001  -0.000
  0.008   0.009  -0.000  -0.000  -0.000   0.000   0.000   0.000
 -0.000  -0.000   6.549  -0.001  -0.000  -0.003   0.000   0.000
 -0.023  -0.000  -0.001   6.544   0.000   0.000  -0.002   0.000
  0.000  -0.000  -0.000   0.000   6.550   0.000   0.000  -0.003
 -0.000   0.000  -0.003   0.000   0.000   0.015  -0.000  -0.000
 -0.001   0.000   0.000  -0.002   0.000  -0.000   0.015  -0.000
 -0.000   0.000   0.000   0.000  -0.003  -0.000  -0.000   0.015
 total augmentation occupancy for first ion, spin component:           1
  1.816  -0.352   0.006   0.256   0.000   0.004   0.114   0.000
 -0.352   1.296   0.024   0.861   0.001   0.004  -0.433   0.000
  0.006   0.024   1.142   0.011  -0.000  -0.503   0.015   0.000
  0.256   0.861   0.011   1.290  -0.000   0.015  -0.418   0.000
  0.000   0.001  -0.000  -0.000   1.144   0.000   0.000  -0.527
  0.004   0.004  -0.503   0.015   0.000   0.292  -0.016  -0.000
  0.114  -0.433   0.015  -0.418   0.000  -0.016   0.227  -0.000
  0.000   0.000   0.000   0.000  -0.527  -0.000  -0.000   0.325


------------------------ aborting loop because EDIFF is reached ----------------------------------------


    CHARGE:  cpu time    3.97: real time    3.99
    FORLOC:  cpu time    0.05: real time    0.05
    FORNL :  cpu time   17.44: real time   17.50
    STRESS:  cpu time   52.84: real time   53.07
    FORCOR:  cpu time   14.41: real time   14.51
    FORHAR:  cpu time    0.13: real time    0.13
    MIXING:  cpu time    0.01: real time    0.02
    OFIELD:  cpu time    0.00: real time    0.00

  FORCE on cell =-STRESS in cart. coord.  units (eV):
  Direction    XX          YY          ZZ          XY          YZ          ZX
  --------------------------------------------------------------------------------------
  Alpha Z    36.80885    36.80885    36.80885
  Ewald   14380.23175 13966.43109-16416.11730     5.96633   -41.51548    -3.46529
  Hartree 14905.05066 14593.52896-14430.71476     0.47275    -3.08695     5.00309
  E(xc)    -357.35448  -356.99616  -356.20276    -0.14528     0.06471     0.57534
  Local  -30834.65689-30120.91326 29263.03185    -3.73658    34.82663    -4.90168
  n-local  1156.15831  1159.56958  1160.61183     1.73361    -8.22970   -11.45557
  augment  -202.05188  -203.28023  -205.75367    -0.10908    -0.38580     0.32899
  Kinetic   925.94665   927.79717   980.79670     4.30340    11.77632     0.39403
  Fock        0.00000     0.00000     0.00000     0.00000     0.00000     0.00000
  -------------------------------------------------------------------------------------
  Total      10.13297     2.94599    32.46073     8.48513    -6.55027   -13.52109
  in kB      16.19724     4.70908    51.88747    13.56322   -10.47041   -21.61304
  external pressure =       24.26 kB  Pullay stress =        0.00 kB


 VOLUME and BASIS-vectors are now :
 -----------------------------------------------------------------------------
  energy-cutoff  :      300.00
  volume of cell :     1002.32
      direct lattice vectors                 reciprocal lattice vectors
     3.540400000  0.000000000  0.000000000     0.282453960  0.048570342  0.000000000
    -1.770200000 10.294348000  0.000000000     0.000000000  0.097140683  0.000000000
     0.000000000  0.000000000 27.501429000     0.000000000  0.000000000  0.036361747

  length of vectors
     3.540400000 10.445439617 27.501429000     0.286599577  0.097140683  0.036361747


 FORCES acting on ions
    electron-ion (+dipol)            ewald-force                    non-local-force                 convergence-correction
 -----------------------------------------------------------------------------------------------
   -.286E-01 0.448E+01 0.289E+02   -.734E-02 -.434E+01 -.243E+02   0.128E-01 -.188E+00 -.463E+01   -.898E-07 0.239E-05 -.798E-05
   -.493E+00 -.143E+02 -.566E+03   0.372E+00 0.147E+02 0.569E+03   0.140E+00 -.121E+00 -.366E+01   -.175E-06 0.102E-04 0.317E-04
   -.154E-01 0.646E+02 0.510E+02   0.938E-02 -.661E+02 -.468E+02   0.516E-02 0.152E+01 -.414E+01   -.301E-07 0.348E-06 -.182E-05
   -.247E+01 0.483E+02 -.556E+03   0.148E+01 -.495E+02 0.560E+03   0.191E+01 0.174E+01 -.281E+01   -.171E-05 0.513E-05 0.156E-04
   0.455E-04 -.570E+02 0.526E+03   0.944E-04 0.586E+02 -.530E+03   -.554E-03 -.154E+01 0.428E+01   -.114E-07 -.107E-04 -.444E-05
   0.676E+00 -.538E+02 -.770E+02   0.566E+00 0.553E+02 0.736E+02   -.306E+00 -.191E+01 0.444E+01   -.324E-06 -.768E-05 -.102E-04
   -.313E-02 0.539E+02 0.526E+03   -.266E-05 -.558E+02 -.531E+03   -.533E-04 0.191E+01 0.416E+01   0.617E-07 0.726E-05 0.171E-05
   0.177E+02 0.809E+02 -.387E+02   -.174E+02 -.810E+02 0.352E+02   -.165E+01 -.731E+00 0.150E+01   0.334E-05 -.383E-05 -.642E-05
   0.105E-02 0.158E+01 0.572E+03   -.849E-04 -.179E+01 -.577E+03   0.620E-03 0.206E+00 0.477E+01   0.534E-07 0.494E-05 -.107E-04
   -.167E+00 -.313E+02 -.233E+02   0.119E+00 0.314E+02 0.193E+02   -.110E+00 -.295E+00 0.375E+01   -.332E-06 0.134E-04 -.126E-04
   0.641E-02 -.637E+02 0.566E+02   -.117E-02 0.656E+02 -.525E+02   -.355E-02 -.192E+01 -.404E+01   -.490E-07 -.141E-05 -.814E-06
   -.237E+00 -.361E+02 -.507E+03   -.518E+00 0.380E+02 0.511E+03   -.777E-01 -.158E+01 -.422E+01   -.660E-06 -.125E-04 0.125E-04
   0.507E-02 0.315E+02 0.209E+03   -.583E-03 -.336E+02 -.210E+03   -.201E-02 0.213E+01 0.348E+00   0.480E-08 0.249E-05 0.730E-05
   0.218E+02 0.320E+02 -.337E+03   -.185E+02 -.313E+02 0.334E+03   -.152E+02 -.875E+01 0.281E+02   0.181E-06 -.131E-05 -.188E-05
   -.456E-02 -.131E+02 0.138E+03   -.169E-04 0.133E+02 -.140E+03   0.136E-02 -.265E+00 0.254E+01   0.278E-07 -.431E-06 -.302E-08
   -.271E+01 -.133E+02 -.299E+03   0.278E+01 0.137E+02 0.300E+03   -.325E+00 -.157E-01 -.218E+01   0.113E-06 -.803E-05 0.928E-05
   0.215E-02 -.539E+01 0.345E+03   0.722E-04 0.586E+01 -.343E+03   -.973E-03 -.469E+00 -.251E+01   0.680E-08 -.266E-05 -.572E-05
   -.152E+01 -.374E+02 -.141E+03   0.869E+00 0.389E+02 0.141E+03   -.203E+00 -.133E+01 0.147E+01   0.503E-06 0.107E-04 -.965E-05
   -.301E-02 0.951E+01 0.335E+03   0.218E-04 -.976E+01 -.333E+03   -.233E-02 0.231E+00 -.253E+01   -.259E-07 0.623E-05 -.892E-06
   -.272E+02 -.159E+02 -.913E+02   0.246E+02 0.153E+02 0.963E+02   0.146E+02 0.939E+01 -.295E+02   -.119E-05 0.303E-06 -.586E-05
   0.385E-01 0.101E+02 0.128E+03   0.182E-02 -.104E+02 -.130E+03   -.344E-01 0.361E+00 0.251E+01   -.633E-09 0.684E-06 0.486E-06
   0.202E+01 -.150E+02 -.335E+03   -.113E+01 0.144E+02 0.334E+03   -.127E+00 0.675E+00 -.793E-01   0.940E-07 0.111E-04 0.158E-04
   0.401E-03 -.309E+02 0.254E+03   -.184E-03 0.330E+02 -.253E+03   0.139E-02 -.213E+01 -.369E+00   -.180E-07 -.494E-05 0.369E-05
   -.309E+01 0.571E+02 -.197E+03   0.675E+01 -.545E+02 0.196E+03   -.282E+01 -.363E+01 0.754E+00   -.104E-05 -.328E-05 -.513E-05
 -----------------------------------------------------------------------------------------------
   0.423E+01 0.671E+01 0.201E+01   -.213E-13 0.355E-13 0.313E-12   -.422E+01 -.671E+01 -.201E+01   -.126E-05 0.184E-04 0.139E-04
 
 
 POSITION                                       TOTAL-FORCE (eV/Angst)
 -----------------------------------------------------------------------------------
      0.00000      2.34757      6.41229        -0.023339     -0.055655      0.005439
      1.06212      4.40644     14.16300         0.018149      0.325053     -0.105688
     -0.00000      9.43147      5.75866        -0.001089     -0.011960      0.083815
      2.83232      1.19599     13.50937         0.924011      0.518022      1.210726
     -0.00000      6.40009      2.31424        -0.000639     -0.004806      0.006430
     -0.00000      6.40009     10.06495         0.936629     -0.408439      1.028548
      1.77020     10.27849      2.37372        -0.003414     -0.001051     -0.001176
      1.77020     10.27849     10.12443        -1.307060     -0.846479     -1.998899
      1.77020      3.18974      1.66157         0.001365      0.000027      0.017663
      1.77020      3.18974      9.41228        -0.157947     -0.134317     -0.229995
      1.77020      5.55354      5.69975         0.001457      0.007732      0.092504
     -0.70808      7.61241     13.45047        -0.832642      0.233065      0.404869
      1.77020      9.05319      4.34076         0.002260     -0.000517      0.006690
      1.06212      0.81771     12.09147       -11.949363     -8.089723     24.979519
      0.00000      4.22380      5.10944        -0.003443      0.013196      0.067198
      1.06212      6.28267     12.86016        -0.257556      0.380829     -1.012297
     -0.00000      4.15582      2.74166         0.001027      0.001285     -0.028138
     -0.00000      4.15582     10.49237        -0.853937      0.241076      0.972192
      1.77020      1.31366      2.96438        -0.005544     -0.016370     -0.015375
      1.77020      1.31366     10.71510        11.903992      8.828785    -24.519296
      1.77020      1.38163      5.33187         0.005671     -0.017974      0.007327
      2.83232      3.44049     13.08259         0.756671      0.020677     -0.935575
      1.77020      6.77850      3.73234         0.001384      0.009139     -0.001446
     -0.70808      8.83737     11.48306         0.843356     -0.991595     -0.035034
 -----------------------------------------------------------------------------------
    total drift:                                0.005405      0.000499      0.002889


--------------------------------------------------------------------------------------------------------



  FREE ENERGIE OF THE ION-ELECTRON SYSTEM (eV)
  ---------------------------------------------------
  free  energy   TOTEN  =      -119.50118538 eV

  energy  without entropy=     -119.47717200  energy(sigma->0) =     -119.48917869
 


--------------------------------------------------------------------------------------------------------


    POTLOK:  cpu time   14.36: real time   14.48


--------------------------------------------------------------------------------------------------------


     LOOP+:  cpu time 2214.28: real time 2224.01
    4ORBIT:  cpu time    0.00: real time    0.00

 total amount of memory used by VASP on root node   146493. kBytes
========================================================================

   base      :      30000. kBytes
   nonlr-proj:       3452. kBytes
   fftplans  :       9347. kBytes
   grid      :      14649. kBytes
   one-center:         36. kBytes
   wavefun   :      89009. kBytes
 
  
  
 General timing and accounting informations for this job:
 ========================================================
  
                  Total CPU time used (sec):     2229.967
                            User time (sec):     2202.700
                          System time (sec):       27.267
                         Elapsed time (sec):     2240.841
  
                   Maximum memory used (kb):      335264.
                   Average memory used (kb):           0.
  
                          Minor page faults:      7722651
                          Major page faults:           15
                 Voluntary context switches:         1645
