  24  24   0   0
  0.4176334E+02  0.3540400E-09  0.1044544E-08  0.2750143E-08  0.5000000E-15
  1.000000000000000E-004
  CAR 
 unknown system                          
      4.27734762    -14.63193598  301      0.18132104      1.00000000
    -14.632  0.0000E+00  0.0000E+00
    -14.569  0.0000E+00  0.0000E+00
    -14.506  0.0000E+00  0.0000E+00
    -14.443  0.0000E+00  0.0000E+00
    -14.380  0.0000E+00  0.0000E+00
    -14.317  0.0000E+00  0.0000E+00
    -14.254  0.0000E+00  0.0000E+00
    -14.191  0.8468E-15  0.5338E-16
    -14.128  0.7286E-12  0.4598E-13
    -14.065  0.2915E-09  0.1842E-10
    -14.002  0.5412E-07  0.3430E-08
    -13.939  0.4727E-05  0.3014E-06
    -13.876  0.1983E-03  0.1280E-04
    -13.813  0.4130E-02  0.2731E-03
    -13.750  0.4454E-01  0.3080E-02
    -13.686  0.2606E+00  0.1951E-01
    -13.623  0.8658E+00  0.7408E-01
    -13.560  0.1748E+01  0.1843E+00
    -13.497  0.2520E+01  0.3431E+00
    -13.434  0.3257E+01  0.5484E+00
    -13.371  0.3869E+01  0.7922E+00
    -13.308  0.3886E+01  0.1037E+01
    -13.245  0.3610E+01  0.1265E+01
    -13.182  0.3637E+01  0.1494E+01
    -13.119  0.4126E+01  0.1754E+01
    -13.056  0.4546E+01  0.2041E+01
    -12.993  0.4413E+01  0.2319E+01
    -12.930  0.4304E+01  0.2590E+01
    -12.867  0.4769E+01  0.2891E+01
    -12.804  0.5498E+01  0.3237E+01
    -12.741  0.5534E+01  0.3586E+01
    -12.678  0.4273E+01  0.3855E+01
    -12.615  0.3018E+01  0.4046E+01
    -12.552  0.3805E+01  0.4285E+01
    -12.489  0.6351E+01  0.4686E+01
    -12.426  0.8162E+01  0.5200E+01
    -12.363  0.8048E+01  0.5707E+01
    -12.300  0.7435E+01  0.6176E+01
    -12.237  0.7520E+01  0.6650E+01
    -12.174  0.7355E+01  0.7114E+01
    -12.111  0.6108E+01  0.7499E+01
    -12.048  0.5458E+01  0.7843E+01
    -11.985  0.6742E+01  0.8268E+01
    -11.922  0.8085E+01  0.8777E+01
    -11.859  0.7728E+01  0.9264E+01
    -11.796  0.6407E+01  0.9668E+01
    -11.733  0.5710E+01  0.1003E+02
    -11.669  0.5776E+01  0.1039E+02
    -11.606  0.6155E+01  0.1078E+02
    -11.543  0.7069E+01  0.1123E+02
    -11.480  0.8743E+01  0.1178E+02
    -11.417  0.1044E+02  0.1243E+02
    -11.354  0.1065E+02  0.1311E+02
    -11.291  0.9737E+01  0.1372E+02
    -11.228  0.9553E+01  0.1432E+02
    -11.165  0.9869E+01  0.1494E+02
    -11.102  0.1020E+02  0.1559E+02
    -11.039  0.1097E+02  0.1628E+02
    -10.976  0.1156E+02  0.1701E+02
    -10.913  0.1172E+02  0.1775E+02
    -10.850  0.1146E+02  0.1847E+02
    -10.787  0.1117E+02  0.1917E+02
    -10.724  0.1136E+02  0.1989E+02
    -10.661  0.1038E+02  0.2054E+02
    -10.598  0.9192E+01  0.2112E+02
    -10.535  0.1025E+02  0.2177E+02
    -10.472  0.1105E+02  0.2246E+02
    -10.409  0.9739E+01  0.2308E+02
    -10.346  0.7648E+01  0.2356E+02
    -10.283  0.4716E+01  0.2386E+02
    -10.220  0.1827E+01  0.2397E+02
    -10.157  0.3931E+00  0.2400E+02
    -10.094  0.4420E-01  0.2400E+02
    -10.031  0.2501E-02  0.2400E+02
     -9.968  0.6937E-04  0.2400E+02
     -9.905  0.9243E-06  0.2400E+02
     -9.842  0.5830E-08  0.2400E+02
     -9.779  0.1722E-10  0.2400E+02
     -9.716  0.2385E-13  0.2400E+02
     -9.652  0.0000E+00  0.2400E+02
     -9.589  0.0000E+00  0.2400E+02
     -9.526  0.2422E-13  0.2400E+02
     -9.463  0.1627E-10  0.2400E+02
     -9.400  0.5085E-08  0.2400E+02
     -9.337  0.7417E-06  0.2400E+02
     -9.274  0.5090E-04  0.2400E+02
     -9.211  0.1660E-02  0.2400E+02
     -9.148  0.2613E-01  0.2400E+02
     -9.085  0.2037E+00  0.2401E+02
     -9.022  0.8304E+00  0.2407E+02
     -8.959  0.1974E+01  0.2419E+02
     -8.896  0.3209E+01  0.2439E+02
     -8.833  0.4009E+01  0.2465E+02
     -8.770  0.4277E+01  0.2492E+02
     -8.707  0.5010E+01  0.2523E+02
     -8.644  0.6540E+01  0.2564E+02
     -8.581  0.7493E+01  0.2612E+02
     -8.518  0.7049E+01  0.2656E+02
     -8.455  0.6185E+01  0.2695E+02
     -8.392  0.6331E+01  0.2735E+02
     -8.329  0.6918E+01  0.2779E+02
     -8.266  0.6277E+01  0.2818E+02
     -8.203  0.5015E+01  0.2850E+02
     -8.140  0.4565E+01  0.2878E+02
     -8.077  0.4941E+01  0.2910E+02
     -8.014  0.5347E+01  0.2943E+02
     -7.951  0.4789E+01  0.2974E+02
     -7.888  0.3604E+01  0.2996E+02
     -7.825  0.2965E+01  0.3015E+02
     -7.762  0.3341E+01  0.3036E+02
     -7.699  0.4723E+01  0.3066E+02
     -7.636  0.6133E+01  0.3104E+02
     -7.572  0.6744E+01  0.3147E+02
     -7.509  0.6787E+01  0.3190E+02
     -7.446  0.6549E+01  0.3231E+02
     -7.383  0.6925E+01  0.3275E+02
     -7.320  0.8242E+01  0.3327E+02
     -7.257  0.9144E+01  0.3384E+02
     -7.194  0.8919E+01  0.3440E+02
     -7.131  0.8220E+01  0.3492E+02
     -7.068  0.7103E+01  0.3537E+02
     -7.005  0.5368E+01  0.3571E+02
     -6.942  0.4193E+01  0.3597E+02
     -6.879  0.4661E+01  0.3627E+02
     -6.816  0.6728E+01  0.3669E+02
     -6.753  0.9461E+01  0.3729E+02
     -6.690  0.1162E+02  0.3802E+02
     -6.627  0.1321E+02  0.3885E+02
     -6.564  0.1382E+02  0.3972E+02
     -6.501  0.1244E+02  0.4051E+02
     -6.438  0.9803E+01  0.4113E+02
     -6.375  0.6783E+01  0.4155E+02
     -6.312  0.4289E+01  0.4182E+02
     -6.249  0.3320E+01  0.4203E+02
     -6.186  0.3866E+01  0.4228E+02
     -6.123  0.4702E+01  0.4257E+02
     -6.060  0.4366E+01  0.4285E+02
     -5.997  0.2808E+01  0.4302E+02
     -5.934  0.1862E+01  0.4314E+02
     -5.871  0.2681E+01  0.4331E+02
     -5.808  0.4718E+01  0.4361E+02
     -5.745  0.7037E+01  0.4405E+02
     -5.682  0.8604E+01  0.4459E+02
     -5.619  0.8367E+01  0.4512E+02
     -5.555  0.6301E+01  0.4552E+02
     -5.492  0.3837E+01  0.4576E+02
     -5.429  0.2241E+01  0.4590E+02
     -5.366  0.2322E+01  0.4605E+02
     -5.303  0.4152E+01  0.4631E+02
     -5.240  0.5749E+01  0.4667E+02
     -5.177  0.5645E+01  0.4703E+02
     -5.114  0.5276E+01  0.4736E+02
     -5.051  0.6201E+01  0.4775E+02
     -4.988  0.7999E+01  0.4826E+02
     -4.925  0.9321E+01  0.4884E+02
     -4.862  0.9865E+01  0.4946E+02
     -4.799  0.1013E+02  0.5010E+02
     -4.736  0.1011E+02  0.5074E+02
     -4.673  0.1002E+02  0.5137E+02
     -4.610  0.1055E+02  0.5204E+02
     -4.547  0.1142E+02  0.5276E+02
     -4.484  0.1191E+02  0.5351E+02
     -4.421  0.1222E+02  0.5428E+02
     -4.358  0.1235E+02  0.5506E+02
     -4.295  0.1194E+02  0.5581E+02
     -4.232  0.1185E+02  0.5656E+02
     -4.169  0.1335E+02  0.5740E+02
     -4.106  0.1515E+02  0.5835E+02
     -4.043  0.1542E+02  0.5932E+02
     -3.980  0.1510E+02  0.6028E+02
     -3.917  0.1469E+02  0.6120E+02
     -3.854  0.1287E+02  0.6201E+02
     -3.791  0.1083E+02  0.6269E+02
     -3.728  0.1056E+02  0.6336E+02
     -3.665  0.1154E+02  0.6409E+02
     -3.602  0.1265E+02  0.6489E+02
     -3.538  0.1372E+02  0.6575E+02
     -3.475  0.1379E+02  0.6662E+02
     -3.412  0.1242E+02  0.6740E+02
     -3.349  0.1214E+02  0.6817E+02
     -3.286  0.1382E+02  0.6904E+02
     -3.223  0.1520E+02  0.7000E+02
     -3.160  0.1585E+02  0.7100E+02
     -3.097  0.1665E+02  0.7205E+02
     -3.034  0.1758E+02  0.7315E+02
     -2.971  0.1853E+02  0.7432E+02
     -2.908  0.1888E+02  0.7551E+02
     -2.845  0.1731E+02  0.7660E+02
     -2.782  0.1464E+02  0.7752E+02
     -2.719  0.1349E+02  0.7837E+02
     -2.656  0.1494E+02  0.7932E+02
     -2.593  0.1689E+02  0.8038E+02
     -2.530  0.1752E+02  0.8149E+02
     -2.467  0.1817E+02  0.8263E+02
     -2.404  0.1842E+02  0.8379E+02
     -2.341  0.1751E+02  0.8490E+02
     -2.278  0.1591E+02  0.8590E+02
     -2.215  0.1440E+02  0.8681E+02
     -2.152  0.1441E+02  0.8771E+02
     -2.089  0.1621E+02  0.8874E+02
     -2.026  0.1804E+02  0.8987E+02
     -1.963  0.1877E+02  0.9106E+02
     -1.900  0.1981E+02  0.9230E+02
     -1.837  0.2180E+02  0.9368E+02
     -1.774  0.2283E+02  0.9512E+02
     -1.711  0.2197E+02  0.9650E+02
     -1.648  0.1972E+02  0.9775E+02
     -1.585  0.1660E+02  0.9879E+02
     -1.521  0.1327E+02  0.9963E+02
     -1.458  0.1040E+02  0.1003E+03
     -1.395  0.9220E+01  0.1009E+03
     -1.332  0.9675E+01  0.1015E+03
     -1.269  0.1049E+02  0.1021E+03
     -1.206  0.1077E+02  0.1028E+03
     -1.143  0.1061E+02  0.1035E+03
     -1.080  0.1064E+02  0.1042E+03
     -1.017  0.1024E+02  0.1048E+03
     -0.954  0.8883E+01  0.1054E+03
     -0.891  0.7652E+01  0.1058E+03
     -0.828  0.6655E+01  0.1063E+03
     -0.765  0.4899E+01  0.1066E+03
     -0.702  0.2922E+01  0.1068E+03
     -0.639  0.2235E+01  0.1069E+03
     -0.576  0.2448E+01  0.1070E+03
     -0.513  0.2030E+01  0.1072E+03
     -0.450  0.1477E+01  0.1073E+03
     -0.387  0.1972E+01  0.1074E+03
     -0.324  0.3036E+01  0.1076E+03
     -0.261  0.3288E+01  0.1078E+03
     -0.198  0.2219E+01  0.1079E+03
     -0.135  0.8575E+00  0.1080E+03
     -0.072  0.1764E+00  0.1080E+03
     -0.009  0.1832E-01  0.1080E+03
      0.054  0.9283E-03  0.1080E+03
      0.117  0.2245E-04  0.1080E+03
      0.180  0.2556E-06  0.1080E+03
      0.243  0.2794E-07  0.1080E+03
      0.306  0.3198E-05  0.1080E+03
      0.369  0.1821E-03  0.1080E+03
      0.432  0.4986E-02  0.1080E+03
      0.495  0.6699E-01  0.1080E+03
      0.559  0.4555E+00  0.1080E+03
      0.622  0.1632E+01  0.1081E+03
      0.685  0.3239E+01  0.1083E+03
      0.748  0.3806E+01  0.1086E+03
      0.811  0.3199E+01  0.1088E+03
      0.874  0.3008E+01  0.1090E+03
      0.937  0.3442E+01  0.1092E+03
      1.000  0.3655E+01  0.1094E+03
      1.063  0.4000E+01  0.1097E+03
      1.126  0.4911E+01  0.1100E+03
      1.189  0.6246E+01  0.1104E+03
      1.252  0.7803E+01  0.1109E+03
      1.315  0.8634E+01  0.1114E+03
      1.378  0.9063E+01  0.1120E+03
      1.441  0.1011E+02  0.1126E+03
      1.504  0.1088E+02  0.1133E+03
      1.567  0.1133E+02  0.1140E+03
      1.630  0.1269E+02  0.1148E+03
      1.693  0.1422E+02  0.1157E+03
      1.756  0.1483E+02  0.1166E+03
      1.819  0.1454E+02  0.1176E+03
      1.882  0.1400E+02  0.1184E+03
      1.945  0.1421E+02  0.1193E+03
      2.008  0.1455E+02  0.1203E+03
      2.071  0.1406E+02  0.1211E+03
      2.134  0.1435E+02  0.1221E+03
      2.197  0.1543E+02  0.1230E+03
      2.260  0.1640E+02  0.1241E+03
      2.323  0.1713E+02  0.1251E+03
      2.386  0.1696E+02  0.1262E+03
      2.449  0.1620E+02  0.1272E+03
      2.512  0.1550E+02  0.1282E+03
      2.576  0.1521E+02  0.1292E+03
      2.639  0.1493E+02  0.1301E+03
      2.702  0.1404E+02  0.1310E+03
      2.765  0.1354E+02  0.1318E+03
      2.828  0.1338E+02  0.1327E+03
      2.891  0.1201E+02  0.1334E+03
      2.954  0.9792E+01  0.1341E+03
      3.017  0.8393E+01  0.1346E+03
      3.080  0.7391E+01  0.1351E+03
      3.143  0.6007E+01  0.1354E+03
      3.206  0.4365E+01  0.1357E+03
      3.269  0.2726E+01  0.1359E+03
      3.332  0.1336E+01  0.1360E+03
      3.395  0.4419E+00  0.1360E+03
      3.458  0.8474E-01  0.1360E+03
      3.521  0.8506E-02  0.1360E+03
      3.584  0.4227E-03  0.1360E+03
      3.647  0.1009E-04  0.1360E+03
      3.710  0.1138E-06  0.1360E+03
      3.773  0.5995E-09  0.1360E+03
      3.836  0.1465E-11  0.1360E+03
      3.899  0.1490E-14  0.1360E+03
      3.962  0.0000E+00  0.1360E+03
      4.025  0.0000E+00  0.1360E+03
      4.088  0.0000E+00  0.1360E+03
      4.151  0.0000E+00  0.1360E+03
      4.214  0.0000E+00  0.1360E+03
      4.277  0.0000E+00  0.1360E+03
