   24   24    1    1
  0.4176334E+02  0.3540400E-09  0.1044544E-08  0.2750143E-08  0.5000000E-15
  1.000000000000000E-004
  CAR 
 unknown system                          
    108     54     68
 
  0.0000000E+00  0.0000000E+00  0.0000000E+00  0.9615385E-02
    1      -13.631936
    2      -13.468106
    3      -12.942290
    4      -12.730330
    5      -12.487901
    6      -12.396236
    7      -12.207650
    8      -12.008666
    9      -11.457572
   10      -11.363179
   11      -11.107537
   12      -10.917794
   13       -8.013919
   14       -7.933119
   15       -7.755990
   16       -7.711209
   17       -6.831131
   18       -6.676914
   19       -6.518045
   20       -6.419871
   21       -5.794056
   22       -5.745530
   23       -4.813894
   24       -4.673062
   25       -3.960036
   26       -3.753461
   27       -3.620754
   28       -3.463912
   29       -3.168294
   30       -2.984894
   31       -2.875356
   32       -2.864663
   33       -2.773574
   34       -2.646882
   35       -2.556364
   36       -2.450497
   37       -2.370675
   38       -2.313563
   39       -2.141571
   40       -2.102386
   41       -1.972512
   42       -1.882403
   43       -1.781119
   44       -1.716749
   45       -1.657488
   46       -1.571791
   47       -1.515533
   48       -1.444677
   49       -1.360651
   50       -1.198964
   51       -1.053274
   52       -0.802890
   53       -0.617079
   54       -0.317233
   55        0.634393
   56        1.202293
   57        1.296271
   58        1.381933
   59        1.412695
   60        1.716724
   61        1.770643
   62        1.784881
   63        2.013061
   64        2.066024
   65        2.246499
   66        2.350402
   67        2.504620
   68        2.715011
 
  0.7692308E-01 -0.1387779E-16  0.0000000E+00  0.1923077E-01
    1      -13.574751
    2      -13.406784
    3      -12.895648
    4      -12.678163
    5      -12.431928
    6      -12.340454
    7      -12.147971
    8      -11.946495
    9      -11.408474
   10      -11.314266
   11      -11.059060
   12      -10.869451
   13       -8.050071
   14       -7.981592
   15       -7.722129
   16       -7.642156
   17       -6.794597
   18       -6.648198
   19       -6.507224
   20       -6.413882
   21       -5.760835
   22       -5.710662
   23       -4.831327
   24       -4.676589
   25       -3.957274
   26       -3.785407
   27       -3.660730
   28       -3.572782
   29       -3.424739
   30       -3.298389
   31       -3.207460
   32       -3.150699
   33       -3.095843
   34       -2.927843
   35       -2.784283
   36       -2.661819
   37       -2.506469
   38       -2.406386
   39       -2.263515
   40       -2.169837
   41       -2.111933
   42       -2.040330
   43       -1.954953
   44       -1.896729
   45       -1.849530
   46       -1.770429
   47       -1.670645
   48       -1.503383
   49       -1.437927
   50       -1.156882
   51       -1.108560
   52       -1.005627
   53       -0.798225
   54       -0.314898
   55        1.100769
   56        1.596250
   57        1.637276
   58        1.756920
   59        1.830668
   60        1.959581
   61        2.046649
   62        2.207944
   63        2.277206
   64        2.312870
   65        2.422938
   66        2.555315
   67        2.677471
   68        2.836960
 
  0.1538462E+00 -0.2775558E-16  0.0000000E+00  0.1923077E-01
    1      -13.405992
    2      -13.223892
    3      -12.756850
    4      -12.522387
    5      -12.265858
    6      -12.175295
    7      -11.973782
    8      -11.764219
    9      -11.265020
   10      -11.172362
   11      -10.918153
   12      -10.730757
   13       -8.151058
   14       -8.089696
   15       -7.680247
   16       -7.523208
   17       -6.714516
   18       -6.603665
   19       -6.481873
   20       -6.424676
   21       -5.688397
   22       -5.633708
   23       -5.017121
   24       -4.795379
   25       -4.332251
   26       -4.146464
   27       -4.027926
   28       -3.979402
   29       -3.929110
   30       -3.872020
   31       -3.694319
   32       -3.659266
   33       -3.516130
   34       -3.274660
   35       -3.167292
   36       -3.013460
   37       -2.956990
   38       -2.892093
   39       -2.849201
   40       -2.613482
   41       -2.316895
   42       -2.247693
   43       -2.156362
   44       -2.079287
   45       -1.936583
   46       -1.889425
   47       -1.747088
   48       -1.704201
   49       -1.585002
   50       -1.520083
   51       -1.153347
   52       -1.042659
   53       -0.902287
   54       -0.380552
   55        1.606406
   56        1.778256
   57        1.994216
   58        2.079501
   59        2.232795
   60        2.331946
   61        2.451840
   62        2.498806
   63        2.662641
   64        2.722389
   65        2.796428
   66        2.998858
   67        3.067086
   68        3.138213
 
  0.2307692E+00 -0.4163336E-16  0.0000000E+00  0.1923077E-01
    1      -13.136154
    2      -12.923019
    3      -12.529749
    4      -12.266100
    5      -11.996358
    6      -11.908295
    7      -11.701522
    8      -11.476633
    9      -11.041075
   10      -10.955678
   11      -10.702662
   12      -10.527893
   13       -8.356211
   14       -8.285851
   15       -7.752090
   16       -7.474424
   17       -6.768564
   18       -6.629715
   19       -6.562720
   20       -6.496646
   21       -5.714947
   22       -5.656865
   23       -5.486244
   24       -5.267901
   25       -4.901529
   26       -4.738016
   27       -4.549546
   28       -4.486173
   29       -4.444955
   30       -4.372284
   31       -4.138310
   32       -4.109713
   33       -3.834853
   34       -3.718727
   35       -3.538867
   36       -3.397731
   37       -3.248877
   38       -2.992047
   39       -2.912979
   40       -2.692768
   41       -2.585317
   42       -2.480725
   43       -2.385636
   44       -2.328118
   45       -1.998739
   46       -1.863974
   47       -1.810104
   48       -1.760245
   49       -1.658069
   50       -1.568668
   51       -1.390481
   52       -1.263156
   53       -1.064420
   54       -0.569787
   55        1.279636
   56        1.607347
   57        1.826889
   58        1.977434
   59        2.080343
   60        2.224379
   61        2.324049
   62        2.421516
   63        2.470411
   64        2.742852
   65        2.825573
   66        2.868506
   67        2.958588
   68        3.053461
 
  0.3076923E+00 -0.5551115E-16  0.0000000E+00  0.1923077E-01
    1      -12.792267
    2      -12.511485
    3      -12.220421
    4      -11.917787
    5      -11.639126
    6      -11.556710
    7      -11.367296
    8      -11.118597
    9      -10.770206
   10      -10.711647
   11      -10.465222
   12      -10.342428
   13       -8.693888
   14       -8.581390
   15       -8.011908
   16       -7.631850
   17       -7.141828
   18       -6.925047
   19       -6.865012
   20       -6.814509
   21       -6.100111
   22       -6.092887
   23       -5.892930
   24       -5.791933
   25       -5.240343
   26       -5.136988
   27       -4.768983
   28       -4.718553
   29       -4.690108
   30       -4.619342
   31       -4.347345
   32       -4.257999
   33       -4.158573
   34       -4.130172
   35       -3.511415
   36       -3.323562
   37       -3.136774
   38       -3.089109
   39       -2.998664
   40       -2.848207
   41       -2.779535
   42       -2.642801
   43       -2.513668
   44       -2.341214
   45       -2.158773
   46       -1.988032
   47       -1.863842
   48       -1.818904
   49       -1.775374
   50       -1.717051
   51       -1.639759
   52       -1.570023
   53       -1.241302
   54       -0.847211
   55        0.934484
   56        1.289274
   57        1.611501
   58        1.665722
   59        1.863555
   60        1.989150
   61        2.102956
   62        2.249814
   63        2.364104
   64        2.440931
   65        2.565465
   66        2.730015
   67        2.768216
   68        2.901193
 
  0.3846154E+00 -0.8326673E-16  0.0000000E+00  0.1923077E-01
    1      -12.441080
    2      -12.003504
    3      -11.831428
    4      -11.498654
    5      -11.230899
    6      -11.160665
    7      -11.050471
    8      -10.775946
    9      -10.558227
   10      -10.533824
   11      -10.383470
   12      -10.358342
   13       -8.968669
   14       -8.758281
   15       -8.304525
   16       -7.988424
   17       -7.631837
   18       -7.402308
   19       -7.373890
   20       -7.338813
   21       -6.732606
   22       -6.689585
   23       -6.588350
   24       -6.094248
   25       -5.262695
   26       -5.139500
   27       -4.687716
   28       -4.585924
   29       -4.532795
   30       -4.451371
   31       -4.318513
   32       -4.158638
   33       -4.066305
   34       -3.997211
   35       -3.674854
   36       -3.584484
   37       -3.348786
   38       -3.197703
   39       -3.102106
   40       -2.950015
   41       -2.864069
   42       -2.720347
   43       -2.564088
   44       -2.377931
   45       -2.354668
   46       -2.201656
   47       -2.043656
   48       -2.008284
   49       -1.959170
   50       -1.827273
   51       -1.739004
   52       -1.714955
   53       -1.320948
   54       -1.075884
   55        0.758817
   56        1.079296
   57        1.387865
   58        1.472625
   59        1.733390
   60        1.785106
   61        1.940460
   62        2.094949
   63        2.164999
   64        2.262341
   65        2.331813
   66        2.398297
   67        2.604676
   68        2.824758
 
  0.4615385E+00 -0.8326673E-16  0.0000000E+00  0.1923077E-01
    1      -12.207690
    2      -11.430682
    3      -11.375167
    4      -11.075868
    5      -10.987888
    6      -10.876174
    7      -10.845784
    8      -10.771155
    9      -10.656737
   10      -10.563957
   11      -10.512825
   12      -10.431860
   13       -8.850837
   14       -8.617593
   15       -8.409052
   16       -8.366592
   17       -8.019083
   18       -8.006296
   19       -7.608430
   20       -7.498741
   21       -7.298106
   22       -7.213140
   23       -7.109354
   24       -6.351489
   25       -5.040344
   26       -4.846096
   27       -4.545765
   28       -4.439895
   29       -4.308431
   30       -4.198322
   31       -4.113330
   32       -4.004735
   33       -3.939821
   34       -3.869465
   35       -3.838570
   36       -3.759499
   37       -3.560696
   38       -3.491881
   39       -3.186507
   40       -3.144880
   41       -3.050760
   42       -2.921389
   43       -2.635811
   44       -2.609762
   45       -2.503524
   46       -2.286753
   47       -2.136510
   48       -2.051448
   49       -2.042910
   50       -1.818236
   51       -1.705644
   52       -1.608166
   53       -1.436888
   54       -1.195678
   55        0.667456
   56        0.976072
   57        1.267349
   58        1.442143
   59        1.605207
   60        1.703720
   61        1.825211
   62        1.895498
   63        1.998679
   64        2.122102
   65        2.207294
   66        2.394558
   67        2.502262
   68        2.609503
 
  0.0000000E+00  0.2500000E+00  0.0000000E+00  0.1923077E-01
    1      -13.577386
    2      -13.412592
    3      -13.099633
    4      -12.903802
    5      -12.489189
    6      -12.390750
    7      -12.035006
    8      -11.798238
    9      -11.491209
   10      -11.408153
   11      -11.107066
   12      -10.927001
   13       -8.454096
   14       -8.422776
   15       -7.357783
   16       -7.207109
   17       -6.712869
   18       -6.599419
   19       -6.571455
   20       -6.492357
   21       -5.732862
   22       -5.659792
   23       -4.728641
   24       -4.567471
   25       -4.099252
   26       -3.952024
   27       -3.760441
   28       -3.458627
   29       -3.288399
   30       -3.057101
   31       -2.999705
   32       -2.929312
   33       -2.738269
   34       -2.637706
   35       -2.501203
   36       -2.369671
   37       -2.320714
   38       -2.304019
   39       -2.266642
   40       -2.122264
   41       -2.019374
   42       -1.906102
   43       -1.847741
   44       -1.809167
   45       -1.622859
   46       -1.557415
   47       -1.421579
   48       -1.347342
   49       -1.291370
   50       -1.130079
   51       -0.993125
   52       -0.798502
   53       -0.619738
   54       -0.271448
   55        0.639891
   56        1.242959
   57        1.280572
   58        1.422813
   59        1.494059
   60        1.630930
   61        1.795122
   62        1.824084
   63        1.958180
   64        2.171565
   65        2.312938
   66        2.395612
   67        2.631477
   68        2.712516
 
  0.7692308E-01  0.2500000E+00  0.0000000E+00  0.1923077E-01
    1      -13.503713
    2      -13.335730
    3      -13.085736
    4      -12.884704
    5      -12.431579
    6      -12.333286
    7      -11.946416
    8      -11.698686
    9      -11.444021
   10      -11.366806
   11      -11.061166
   12      -10.882809
   13       -8.512780
   14       -8.488917
   15       -7.303105
   16       -7.127476
   17       -6.724317
   18       -6.606287
   19       -6.481502
   20       -6.408356
   21       -5.698056
   22       -5.614619
   23       -4.820975
   24       -4.618984
   25       -4.134692
   26       -4.026610
   27       -3.744377
   28       -3.607181
   29       -3.519731
   30       -3.340058
   31       -3.275449
   32       -3.077727
   33       -2.975128
   34       -2.927595
   35       -2.777614
   36       -2.619489
   37       -2.495245
   38       -2.430201
   39       -2.413589
   40       -2.253294
   41       -2.221122
   42       -2.106592
   43       -2.054591
   44       -1.932720
   45       -1.774074
   46       -1.748634
   47       -1.672543
   48       -1.354758
   49       -1.257331
   50       -1.119448
   51       -1.052953
   52       -0.938513
   53       -0.807129
   54       -0.250390
   55        1.053975
   56        1.577258
   57        1.663481
   58        1.736724
   59        1.844049
   60        1.977682
   61        2.023466
   62        2.173559
   63        2.292403
   64        2.488057
   65        2.578135
   66        2.666199
   67        2.734729
   68        2.827294
 
  0.1538462E+00  0.2500000E+00  0.0000000E+00  0.1923077E-01
    1      -13.323076
    2      -13.139312
    3      -12.960055
    4      -12.748232
    5      -12.263798
    6      -12.167007
    7      -11.771472
    8      -11.501047
    9      -11.294006
   10      -11.227363
   11      -10.919281
   12      -10.741730
   13       -8.571466
   14       -8.547576
   15       -7.257101
   16       -7.067629
   17       -6.717825
   18       -6.584237
   19       -6.436773
   20       -6.351439
   21       -5.664416
   22       -5.571706
   23       -5.031079
   24       -4.772395
   25       -4.431695
   26       -4.311376
   27       -4.239633
   28       -4.186055
   29       -3.920276
   30       -3.890593
   31       -3.647113
   32       -3.519373
   33       -3.426075
   34       -3.226467
   35       -3.073820
   36       -2.928295
   37       -2.894136
   38       -2.849852
   39       -2.735327
   40       -2.608133
   41       -2.557993
   42       -2.507951
   43       -2.299470
   44       -2.244879
   45       -1.942631
   46       -1.861555
   47       -1.824376
   48       -1.712555
   49       -1.423497
   50       -1.296622
   51       -1.096057
   52       -0.997947
   53       -0.887372
   54       -0.331437
   55        1.440684
   56        1.687927
   57        1.835144
   58        1.886803
   59        2.170638
   60        2.286713
   61        2.445596
   62        2.492049
   63        2.793208
   64        2.844000
   65        2.960465
   66        3.084830
   67        3.138135
   68        3.185249
 
  0.2307692E+00  0.2500000E+00  0.0000000E+00  0.1923077E-01
    1      -13.052218
    2      -12.828400
    3      -12.720137
    4      -12.496922
    5      -11.993265
    6      -11.899960
    7      -11.530087
    8      -11.224661
    9      -11.055257
   10      -11.005600
   11      -10.696287
   12      -10.524630
   13       -8.699824
   14       -8.645534
   15       -7.327388
   16       -7.128225
   17       -6.799364
   18       -6.624219
   19       -6.577964
   20       -6.538897
   21       -5.784930
   22       -5.723573
   23       -5.328541
   24       -5.138269
   25       -4.996500
   26       -4.951565
   27       -4.655915
   28       -4.592319
   29       -4.495861
   30       -4.424138
   31       -4.031343
   32       -3.940766
   33       -3.811453
   34       -3.662521
   35       -3.322315
   36       -3.244933
   37       -3.137552
   38       -3.021635
   39       -2.928864
   40       -2.738215
   41       -2.646282
   42       -2.576533
   43       -2.458152
   44       -2.365269
   45       -2.097914
   46       -1.925563
   47       -1.897070
   48       -1.750406
   49       -1.695275
   50       -1.510008
   51       -1.323594
   52       -1.248309
   53       -1.019248
   54       -0.557586
   55        1.229418
   56        1.321223
   57        1.530929
   58        1.674573
   59        1.735348
   60        2.128999
   61        2.318532
   62        2.375316
   63        2.624017
   64        2.772241
   65        2.922744
   66        3.003465
   67        3.112880
   68        3.252275
 
  0.3076923E+00  0.2500000E+00  0.0000000E+00  0.1923077E-01
    1      -12.728557
    2      -12.413224
    3      -12.361420
    4      -12.137967
    5      -11.636399
    6      -11.550217
    7      -11.256555
    8      -10.910876
    9      -10.767201
   10      -10.741993
   11      -10.448676
   12      -10.319379
   13       -8.898896
   14       -8.820121
   15       -7.634599
   16       -7.535093
   17       -7.121299
   18       -7.041123
   19       -6.953346
   20       -6.886951
   21       -6.124859
   22       -6.038352
   23       -5.846657
   24       -5.814819
   25       -5.317578
   26       -5.282457
   27       -4.947331
   28       -4.862748
   29       -4.473761
   30       -4.368467
   31       -4.331433
   32       -4.235285
   33       -4.081521
   34       -3.940287
   35       -3.387728
   36       -3.271348
   37       -3.087800
   38       -3.027011
   39       -2.929371
   40       -2.866829
   41       -2.792030
   42       -2.622327
   43       -2.489149
   44       -2.387085
   45       -2.236050
   46       -2.167330
   47       -1.960068
   48       -1.878185
   49       -1.835402
   50       -1.699868
   51       -1.667713
   52       -1.576676
   53       -1.235420
   54       -0.878562
   55        0.839874
   56        1.103758
   57        1.297660
   58        1.343106
   59        1.471969
   60        1.975653
   61        2.177570
   62        2.238844
   63        2.390493
   64        2.517516
   65        2.605134
   66        2.680520
   67        2.833642
   68        3.035815
 
  0.3846154E+00  0.2500000E+00  0.0000000E+00  0.1923077E-01
    1      -12.414685
    2      -11.914691
    3      -11.890219
    4      -11.688068
    5      -11.229994
    6      -11.159099
    7      -11.016852
    8      -10.652387
    9      -10.532215
   10      -10.527304
   11      -10.395946
   12      -10.344427
   13       -8.895221
   14       -8.887850
   15       -8.176086
   16       -8.037894
   17       -7.707838
   18       -7.537972
   19       -7.410277
   20       -7.284132
   21       -6.711570
   22       -6.622898
   23       -6.588368
   24       -6.152518
   25       -5.301884
   26       -5.264905
   27       -4.832470
   28       -4.713904
   29       -4.527254
   30       -4.331957
   31       -4.144554
   32       -4.040463
   33       -3.962979
   34       -3.788953
   35       -3.501697
   36       -3.298888
   37       -3.282125
   38       -3.210529
   39       -3.076025
   40       -3.050536
   41       -2.906427
   42       -2.860600
   43       -2.663765
   44       -2.484078
   45       -2.418285
   46       -2.232282
   47       -2.054819
   48       -2.007596
   49       -1.998259
   50       -1.831830
   51       -1.766915
   52       -1.712488
   53       -1.368838
   54       -1.126081
   55        0.703048
   56        0.967505
   57        1.210681
   58        1.268901
   59        1.426822
   60        1.762242
   61        1.894465
   62        1.960474
   63        2.113698
   64        2.211836
   65        2.375513
   66        2.653199
   67        2.715961
   68        2.839939
 
  0.4615385E+00  0.2500000E+00  0.0000000E+00  0.1923077E-01
    1      -12.204675
    2      -11.383490
    3      -11.354301
    4      -11.192920
    5      -10.997588
    6      -10.886657
    7      -10.858855
    8      -10.788687
    9      -10.627786
   10      -10.517600
   11      -10.507678
   12      -10.409137
   13       -8.767654
   14       -8.560024
   15       -8.483454
   16       -8.328313
   17       -8.253907
   18       -7.891808
   19       -7.651636
   20       -7.444795
   21       -7.291552
   22       -7.241153
   23       -7.069689
   24       -6.424050
   25       -5.055009
   26       -4.947277
   27       -4.533320
   28       -4.406568
   29       -4.308421
   30       -4.151790
   31       -4.080602
   32       -4.059500
   33       -3.934878
   34       -3.859325
   35       -3.738406
   36       -3.589259
   37       -3.541386
   38       -3.415409
   39       -3.196429
   40       -3.172149
   41       -3.111326
   42       -2.919586
   43       -2.634573
   44       -2.576424
   45       -2.533952
   46       -2.464596
   47       -2.132975
   48       -2.055584
   49       -2.049393
   50       -1.823342
   51       -1.681272
   52       -1.567243
   53       -1.468717
   54       -1.208588
   55        0.704083
   56        0.875775
   57        1.218704
   58        1.485573
   59        1.545438
   60        1.611630
   61        1.705202
   62        1.829722
   63        1.952813
   64        2.114541
   65        2.251875
   66        2.449358
   67        2.554186
   68        2.599143
 
 -0.4615385E+00  0.2500000E+00  0.0000000E+00  0.1923077E-01
    1      -12.214311
    2      -11.463648
    3      -11.355167
    4      -10.999408
    5      -10.979480
    6      -10.868340
    7      -10.837670
    8      -10.739375
    9      -10.682547
   10      -10.632071
   11      -10.515717
   12      -10.450458
   13       -8.990689
   14       -8.685801
   15       -8.360862
   16       -8.233762
   17       -8.001278
   18       -7.871601
   19       -7.560221
   20       -7.531074
   21       -7.341973
   22       -7.209052
   23       -7.147766
   24       -6.447279
   25       -4.878847
   26       -4.662486
   27       -4.609418
   28       -4.509154
   29       -4.331566
   30       -4.294000
   31       -4.114090
   32       -4.060769
   33       -3.930240
   34       -3.915089
   35       -3.812621
   36       -3.783813
   37       -3.653730
   38       -3.562095
   39       -3.320359
   40       -3.280358
   41       -2.974875
   42       -2.734084
   43       -2.627844
   44       -2.506973
   45       -2.416817
   46       -2.305940
   47       -2.114152
   48       -2.097974
   49       -2.037881
   50       -1.862038
   51       -1.633399
   52       -1.550771
   53       -1.412534
   54       -1.176591
   55        0.668103
   56        0.967225
   57        1.283856
   58        1.440878
   59        1.644209
   60        1.766779
   61        1.810753
   62        1.931132
   63        1.974790
   64        2.193840
   65        2.284707
   66        2.400977
   67        2.479191
   68        2.598542
 
 -0.3846154E+00  0.2500000E+00  0.0000000E+00  0.1923077E-01
    1      -12.460229
    2      -12.029867
    3      -11.766545
    4      -11.414236
    5      -11.227446
    6      -11.163160
    7      -11.103194
    8      -10.855591
    9      -10.561051
   10      -10.533722
   11      -10.390400
   12      -10.378651
   13       -8.821953
   14       -8.670286
   15       -8.417610
   16       -8.236473
   17       -7.604469
   18       -7.368532
   19       -7.256860
   20       -7.146908
   21       -6.796821
   22       -6.738889
   23       -6.592933
   24       -6.187160
   25       -5.064221
   26       -4.973349
   27       -4.913315
   28       -4.775012
   29       -4.497849
   30       -4.336247
   31       -4.220167
   32       -4.179196
   33       -4.123948
   34       -4.016001
   35       -3.709792
   36       -3.650717
   37       -3.492249
   38       -3.334266
   39       -3.118662
   40       -3.020866
   41       -2.871011
   42       -2.692966
   43       -2.534139
   44       -2.411708
   45       -2.278903
   46       -2.166108
   47       -2.010662
   48       -1.908762
   49       -1.873583
   50       -1.832805
   51       -1.730395
   52       -1.574481
   53       -1.313408
   54       -1.082783
   55        0.715358
   56        1.143601
   57        1.413340
   58        1.479012
   59        1.775192
   60        1.891811
   61        1.992352
   62        2.111711
   63        2.201258
   64        2.295790
   65        2.348229
   66        2.503559
   67        2.586641
   68        2.695126
 
 -0.3076923E+00  0.2500000E+00  0.0000000E+00  0.1923077E-01
    1      -12.809811
    2      -12.523727
    3      -12.162986
    4      -11.876373
    5      -11.638928
    6      -11.558753
    7      -11.424264
    8      -11.164682
    9      -10.759737
   10      -10.703342
   11      -10.491283
   12      -10.348627
   13       -8.483205
   14       -8.350677
   15       -8.114686
   16       -8.110957
   17       -7.136862
   18       -6.928532
   19       -6.800713
   20       -6.643689
   21       -6.150226
   22       -6.086174
   23       -5.901433
   24       -5.767780
   25       -5.084956
   26       -5.039390
   27       -4.987509
   28       -4.819177
   29       -4.663317
   30       -4.572807
   31       -4.362667
   32       -4.242774
   33       -4.191701
   34       -4.104225
   35       -3.483170
   36       -3.384864
   37       -3.179344
   38       -3.136570
   39       -3.003473
   40       -2.895005
   41       -2.777033
   42       -2.647902
   43       -2.572502
   44       -2.357101
   45       -2.078933
   46       -1.953954
   47       -1.819136
   48       -1.805208
   49       -1.740493
   50       -1.663909
   51       -1.586455
   52       -1.566053
   53       -1.257262
   54       -0.898588
   55        0.923560
   56        1.401348
   57        1.652999
   58        1.703181
   59        1.870660
   60        2.032250
   61        2.077023
   62        2.313735
   63        2.340340
   64        2.421974
   65        2.559492
   66        2.734064
   67        2.820131
   68        2.849714
 
 -0.2307692E+00  0.2500000E+00  0.0000000E+00  0.1923077E-01
    1      -13.138814
    2      -12.918763
    3      -12.519074
    4      -12.280767
    5      -11.998230
    6      -11.908931
    7      -11.711593
    8      -11.459622
    9      -11.038603
   10      -10.959352
   11      -10.709607
   12      -10.526612
   13       -8.327922
   14       -8.110698
   15       -7.824786
   16       -7.707720
   17       -6.774223
   18       -6.627565
   19       -6.564534
   20       -6.464954
   21       -5.686635
   22       -5.645250
   23       -5.339736
   24       -5.263108
   25       -4.843799
   26       -4.764735
   27       -4.603280
   28       -4.529539
   29       -4.461151
   30       -4.421618
   31       -4.170089
   32       -4.104675
   33       -3.761946
   34       -3.707121
   35       -3.436397
   36       -3.377117
   37       -3.261598
   38       -3.094775
   39       -2.920863
   40       -2.763809
   41       -2.651717
   42       -2.489546
   43       -2.391614
   44       -2.318438
   45       -1.941111
   46       -1.820642
   47       -1.769970
   48       -1.745131
   49       -1.661360
   50       -1.613398
   51       -1.388844
   52       -1.215169
   53       -1.073516
   54       -0.632092
   55        1.247257
   56        1.605869
   57        1.862977
   58        1.965218
   59        2.010087
   60        2.148013
   61        2.308025
   62        2.429597
   63        2.601670
   64        2.715557
   65        2.811614
   66        2.978377
   67        3.011715
   68        3.046018
 
 -0.1538462E+00  0.2500000E+00  0.0000000E+00  0.1923077E-01
    1      -13.389565
    2      -13.202365
    3      -12.806823
    4      -12.595874
    5      -12.268444
    6      -12.173903
    7      -11.917550
    8      -11.676036
    9      -11.276790
   10      -11.191674
   11      -10.916182
   12      -10.728959
   13       -8.309639
   14       -8.197645
   15       -7.521234
   16       -7.447644
   17       -6.696767
   18       -6.594130
   19       -6.488127
   20       -6.477244
   21       -5.646034
   22       -5.595288
   23       -4.884636
   24       -4.768753
   25       -4.397910
   26       -4.218739
   27       -4.117607
   28       -4.066185
   29       -3.907529
   30       -3.840266
   31       -3.658030
   32       -3.554948
   33       -3.506877
   34       -3.258598
   35       -3.169316
   36       -3.055885
   37       -2.942823
   38       -2.868388
   39       -2.825306
   40       -2.630826
   41       -2.492222
   42       -2.432739
   43       -2.160663
   44       -2.103319
   45       -1.933161
   46       -1.798510
   47       -1.719941
   48       -1.623015
   49       -1.548117
   50       -1.508393
   51       -1.145015
   52       -1.016940
   53       -0.885783
   54       -0.413725
   55        1.475482
   56        1.676320
   57        1.861712
   58        2.106882
   59        2.227250
   60        2.330984
   61        2.529418
   62        2.618858
   63        2.766756
   64        2.847166
   65        2.895026
   66        2.932140
   67        3.037028
   68        3.197550
 
 -0.7692308E-01  0.2500000E+00  0.0000000E+00  0.1923077E-01
    1      -13.538806
    2      -13.367986
    3      -13.004570
    4      -12.806253
    5      -12.434260