       N       E                     dE             d eps       ncg     rms          rms(c)
DAV:   1     0.486315241794E+03    0.48632E+03   -0.28640E+04  7360   0.790E+02
DAV:   2    -0.726875692243E+02   -0.55900E+03   -0.54397E+03  9772   0.189E+02
DAV:   3    -0.128283881124E+03   -0.55596E+02   -0.54979E+02  8744   0.618E+01
DAV:   4    -0.130730745644E+03   -0.24469E+01   -0.24362E+01 10968   0.140E+01
DAV:   5    -0.130789019354E+03   -0.58274E-01   -0.58218E-01 10080   0.211E+00    0.105E+01
DAV:   6    -0.128626635929E+03    0.21624E+01   -0.38202E+00  8832   0.527E+00    0.591E+00
DAV:   7    -0.128372193439E+03    0.25444E+00   -0.39178E+00  8752   0.509E+00    0.163E+00
DAV:   8    -0.128320450034E+03    0.51743E-01   -0.48570E-01  8912   0.228E+00    0.583E-01
DAV:   9    -0.128318535696E+03    0.19143E-02   -0.97765E-02  8832   0.912E-01    0.209E-01
DAV:  10    -0.128307695183E+03    0.10841E-01   -0.91092E-03  9400   0.321E-01    0.938E-02
DAV:  11    -0.128300937025E+03    0.67582E-02   -0.31963E-03  9048   0.169E-01    0.399E-02
DAV:  12    -0.128299066722E+03    0.18703E-02   -0.43303E-04  9448   0.685E-02    0.223E-02
DAV:  13    -0.128296778590E+03    0.22881E-02   -0.22152E-04  9312   0.394E-02    0.128E-02
DAV:  14    -0.128296550484E+03    0.22811E-03   -0.32532E-05  9120   0.196E-02    0.854E-03
DAV:  15    -0.128296632642E+03   -0.82158E-04   -0.67042E-05  8200   0.208E-02    0.504E-03
DAV:  16    -0.128297147335E+03   -0.51469E-03   -0.15951E-04  8444   0.244E-02    0.304E-03
DAV:  17    -0.128297310635E+03   -0.16330E-03   -0.79488E-05  7912   0.150E-02    0.163E-03
DAV:  18    -0.128297366462E+03   -0.55827E-04   -0.15513E-05  6488   0.976E-03    0.100E-03
DAV:  19    -0.128297392287E+03   -0.25825E-04   -0.67079E-06  6396   0.589E-03    0.677E-04
DAV:  20    -0.128297302205E+03    0.90082E-04   -0.27123E-05  7228   0.838E-03    0.483E-04
DAV:  21    -0.128297291160E+03    0.11045E-04   -0.11762E-05  6312   0.944E-03    0.299E-04
DAV:  22    -0.128297251025E+03    0.40135E-04   -0.72911E-06  6640   0.745E-03    0.148E-04
DAV:  23    -0.128297245583E+03    0.54417E-05   -0.39090E-06  5792   0.628E-03    0.677E-05
DAV:  24    -0.128297233924E+03    0.11659E-04   -0.44484E-06  6640   0.638E-03    0.295E-05
DAV:  25    -0.128297233083E+03    0.84092E-06   -0.19380E-06  5564   0.471E-03
   1 F= -.12829723E+03 E0= -.12829723E+03  d E =-.384235E-10
