<?xml version="1.0" encoding="ISO-8859-1"?>
<modeling>
 <generator>
  <i name="program" type="string">vasp </i>
  <i name="version" type="string">5.3.5  </i>
  <i name="subversion" type="string">31Mar14 (build Oct 29 2014 16:16:03) complex                          parallel </i>
  <i name="platform" type="string">Linux-UFHPC </i>
  <i name="date" type="string">2016 02 09 </i>
  <i name="time" type="string">17:48:05 </i>
 </generator>
 <incar>
  <i type="string" name="PREC">accurate</i>
  <i type="int" name="IBRION">     2</i>
  <i name="EDIFF">      0.00000100</i>
  <i type="int" name="NSW">     0</i>
  <i type="int" name="ISIF">     3</i>
  <i name="ENCUT">    300.00000000</i>
  <i type="string" name="LREAL"> Auto</i>
  <i type="int" name="ISMEAR">     0</i>
  <i name="SIGMA">      0.10000000</i>
  <i type="logical" name="LWAVE"> F  </i>
  <i type="logical" name="LCHARG"> F  </i>
  <i type="logical" name="LAECHG"> F  </i>
  <i type="string" name="GGA"> Bo</i>
  <i name="PARAM1">      0.18333333</i>
  <i name="PARAM2">      0.22000000</i>
  <i type="logical" name="LUSE_VDW"> T  </i>
  <i name="AGGAC">      0.00000000</i>
 </incar>
 <kpoints>
  <generation param="Gamma">
   <v type="int" name="divisions">      13        4        2 </v>
   <v name="usershift">      0.00000000       0.00000000       0.00000000 </v>
   <v name="genvec1">      0.07692308      -0.00000000       0.00000000 </v>
   <v name="genvec2">      0.00000000       0.25000000       0.00000000 </v>
   <v name="genvec3">      0.00000000       0.00000000       0.50000000 </v>
   <v name="shift">      0.00000000       0.00000000       0.00000000 </v>
  </generation>
  <varray name="kpointlist" >
   <v>       0.00000000       0.00000000       0.00000000 </v>
   <v>       0.07692308      -0.00000000       0.00000000 </v>
   <v>       0.15384615      -0.00000000       0.00000000 </v>
   <v>       0.23076923      -0.00000000       0.00000000 </v>
   <v>       0.30769231      -0.00000000       0.00000000 </v>
   <v>       0.38461538      -0.00000000       0.00000000 </v>
   <v>       0.46153846      -0.00000000       0.00000000 </v>
   <v>       0.00000000       0.25000000       0.00000000 </v>
   <v>       0.07692308       0.25000000       0.00000000 </v>
   <v>       0.15384615       0.25000000       0.00000000 </v>
   <v>       0.23076923       0.25000000       0.00000000 </v>
   <v>       0.30769231       0.25000000       0.00000000 </v>
   <v>       0.38461538       0.25000000       0.00000000 </v>
   <v>       0.46153846       0.25000000       0.00000000 </v>
   <v>      -0.46153846       0.25000000       0.00000000 </v>
   <v>      -0.38461538       0.25000000       0.00000000 </v>
   <v>      -0.30769231       0.25000000       0.00000000 </v>
   <v>      -0.23076923       0.25000000       0.00000000 </v>
   <v>      -0.15384615       0.25000000       0.00000000 </v>
   <v>      -0.07692308       0.25000000       0.00000000 </v>
   <v>       0.00000000       0.50000000       0.00000000 </v>
   <v>       0.07692308       0.50000000       0.00000000 </v>
   <v>       0.15384615       0.50000000       0.00000000 </v>
   <v>       0.23076923       0.50000000       0.00000000 </v>
   <v>       0.30769231       0.50000000       0.00000000 </v>
   <v>       0.38461538       0.50000000       0.00000000 </v>
   <v>       0.46153846       0.50000000       0.00000000 </v>
   <v>       0.00000000       0.00000000       0.50000000 </v>
   <v>       0.07692308      -0.00000000       0.50000000 </v>
   <v>       0.15384615      -0.00000000       0.50000000 </v>
   <v>       0.23076923      -0.00000000       0.50000000 </v>
   <v>       0.30769231      -0.00000000       0.50000000 </v>
   <v>       0.38461538      -0.00000000       0.50000000 </v>
   <v>       0.46153846      -0.00000000       0.50000000 </v>
   <v>       0.00000000       0.25000000       0.50000000 </v>
   <v>       0.07692308       0.25000000       0.50000000 </v>
   <v>       0.15384615       0.25000000       0.50000000 </v>
   <v>       0.23076923       0.25000000       0.50000000 </v>
   <v>       0.30769231       0.25000000       0.50000000 </v>
   <v>       0.38461538       0.25000000       0.50000000 </v>
   <v>       0.46153846       0.25000000       0.50000000 </v>
   <v>      -0.46153846       0.25000000       0.50000000 </v>
   <v>      -0.38461538       0.25000000       0.50000000 </v>
   <v>      -0.30769231       0.25000000       0.50000000 </v>
   <v>      -0.23076923       0.25000000       0.50000000 </v>
   <v>      -0.15384615       0.25000000       0.50000000 </v>
   <v>      -0.07692308       0.25000000       0.50000000 </v>
   <v>       0.00000000       0.50000000       0.50000000 </v>
   <v>       0.07692308       0.50000000       0.50000000 </v>
   <v>       0.15384615       0.50000000       0.50000000 </v>
   <v>       0.23076923       0.50000000       0.50000000 </v>
   <v>       0.30769231       0.50000000       0.50000000 </v>
   <v>       0.38461538       0.50000000       0.50000000 </v>
   <v>       0.46153846       0.50000000       0.50000000 </v>
  </varray>
  <varray name="weights" >
   <v>       0.00961538 </v>
   <v>       0.01923077 </v>
   <v>       0.01923077 </v>
   <v>       0.01923077 </v>
   <v>       0.01923077 </v>
   <v>       0.01923077 </v>
   <v>       0.01923077 </v>
   <v>       0.01923077 </v>
   <v>       0.01923077 </v>
   <v>       0.01923077 </v>
   <v>       0.01923077 </v>
   <v>       0.01923077 </v>
   <v>       0.01923077 </v>
   <v>       0.01923077 </v>
   <v>       0.01923077 </v>
   <v>       0.01923077 </v>
   <v>       0.01923077 </v>
   <v>       0.01923077 </v>
   <v>       0.01923077 </v>
   <v>       0.01923077 </v>
   <v>       0.00961538 </v>
   <v>       0.01923077 </v>
   <v>       0.01923077 </v>
   <v>       0.01923077 </v>
   <v>       0.01923077 </v>
   <v>       0.01923077 </v>
   <v>       0.01923077 </v>
   <v>       0.00961538 </v>
   <v>       0.01923077 </v>
   <v>       0.01923077 </v>
   <v>       0.01923077 </v>
   <v>       0.01923077 </v>
   <v>       0.01923077 </v>
   <v>       0.01923077 </v>
   <v>       0.01923077 </v>
   <v>       0.01923077 </v>
   <v>       0.01923077 </v>
   <v>       0.01923077 </v>
   <v>       0.01923077 </v>
   <v>       0.01923077 </v>
   <v>       0.01923077 </v>
   <v>       0.01923077 </v>
   <v>       0.01923077 </v>
   <v>       0.01923077 </v>
   <v>       0.01923077 </v>
   <v>       0.01923077 </v>
   <v>       0.01923077 </v>
   <v>       0.00961538 </v>
   <v>       0.01923077 </v>
   <v>       0.01923077 </v>
   <v>       0.01923077 </v>
   <v>       0.01923077 </v>
   <v>       0.01923077 </v>
   <v>       0.01923077 </v>
  </varray>
 </kpoints>
 <parameters>
  <separator name="general" >
   <i type="string" name="SYSTEM">unknown system</i>
   <i type="logical" name="LCOMPAT"> F  </i>
  </separator>
  <separator name="electronic" >
   <i type="string" name="PREC">accura</i>
   <i name="ENMAX">    300.00000000</i>
   <i name="ENAUG">    342.92400000</i>
   <i name="EDIFF">      0.00000100</i>
   <i type="int" name="IALGO">    38</i>
   <i type="int" name="IWAVPR">    10</i>
   <i type="int" name="NBANDS">    68</i>
   <i name="NELECT">    108.00000000</i>
   <i type="int" name="TURBO">     0</i>
   <i type="int" name="IRESTART">     0</i>
   <i type="int" name="NREBOOT">     0</i>
   <i type="int" name="NMIN">     0</i>
   <i name="EREF">      0.00000000</i>
   <separator name="electronic smearing" >
    <i type="int" name="ISMEAR">     0</i>
    <i name="SIGMA">      0.10000000</i>
    <i name="KSPACING">      0.50000000</i>
    <i type="logical" name="KGAMMA"> T  </i>
   </separator>
   <separator name="electronic projectors" >
    <i type="logical" name="LREAL"> T  </i>
    <v name="ROPT">     -0.00025000     -0.00025000</v>
    <i type="int" name="LMAXPAW">  -100</i>
    <i type="int" name="LMAXMIX">     2</i>
    <i type="logical" name="NLSPLINE"> F  </i>
   </separator>
   <separator name="electronic startup" >
    <i type="int" name="ISTART">     0</i>
    <i type="int" name="ICHARG">     2</i>
    <i type="int" name="INIWAV">     1</i>
   </separator>
   <separator name="electronic spin" >
    <i type="int" name="ISPIN">     1</i>
    <i type="logical" name="LNONCOLLINEAR"> F  </i>
    <v name="MAGMOM">      1.00000000      1.00000000      1.00000000      1.00000000      1.00000000      1.00000000      1.00000000      1.00000000      1.00000000      1.00000000      1.00000000      1.00000000      1.00000000      1.00000000      1.00000000      1.00000000      1.00000000      1.00000000      1.00000000      1.00000000
      1.00000000      1.00000000      1.00000000      1.00000000</v>
    <i name="NUPDOWN">     -1.00000000</i>
    <i type="logical" name="LSORBIT"> F  </i>
    <v name="SAXIS">      0.00000000      0.00000000      1.00000000</v>
    <i type="logical" name="LSPIRAL"> F  </i>
    <v name="QSPIRAL">      0.00000000      0.00000000      0.00000000</v>
    <i type="logical" name="LZEROZ"> F  </i>
   </separator>
   <separator name="electronic exchange-correlation" >
    <i type="logical" name="LASPH"> F  </i>
    <i type="logical" name="LMETAGGA"> F  </i>
   </separator>
   <separator name="electronic convergence" >
    <i type="int" name="NELM">    60</i>
    <i type="int" name="NELMDL">    -5</i>
    <i type="int" name="NELMIN">     2</i>
    <i name="ENINI">    300.00000000</i>
    <separator name="electronic convergence detail" >
     <i type="logical" name="LDIAG"> T  </i>
     <i type="logical" name="LSUBROT"> F  </i>
     <i name="WEIMIN">      0.00000000</i>
     <i name="EBREAK">      0.00000000</i>
     <i name="DEPER">      0.30000000</i>
     <i type="int" name="NRMM">     4</i>
     <i name="TIME">      0.40000000</i>
    </separator>
   </separator>
   <separator name="electronic mixer" >
    <i name="AMIX">      0.40000000</i>
    <i name="BMIX">      1.00000000</i>
    <i name="AMIN">      0.10000000</i>
    <i name="AMIX_MAG">      1.60000000</i>
    <i name="BMIX_MAG">      1.00000000</i>
    <separator name="electronic mixer details" >
     <i type="int" name="IMIX">     4</i>
     <i type="int" name="MAXMIX">   -45</i>
     <i name="WC">    100.00000000</i>
     <i type="int" name="INIMIX">     1</i>
     <i type="int" name="MIXPRE">     1</i>
     <i type="int" name="MREMOVE">     5</i>
    </separator>
   </separator>
   <separator name="electronic dipolcorrection" >
    <i type="logical" name="LDIPOL"> F  </i>
    <i type="logical" name="LMONO"> F  </i>
    <i type="int" name="IDIPOL">     0</i>
    <i name="EPSILON">      1.00000000</i>
    <v name="DIPOL">   -100.00000000   -100.00000000   -100.00000000</v>
    <i name="EFIELD">      0.00000000</i>
   </separator>
  </separator>
  <separator name="grids" >
   <i type="int" name="NGX">    20</i>
   <i type="int" name="NGY">    60</i>
   <i type="int" name="NGZ">   160</i>
   <i type="int" name="NGXF">    40</i>
   <i type="int" name="NGYF">   120</i>
   <i type="int" name="NGZF">   320</i>
   <i type="logical" name="ADDGRID"> F  </i>
  </separator>
  <separator name="ionic" >
   <i type="int" name="NSW">     0</i>
   <i type="int" name="IBRION">    -1</i>
   <i type="int" name="ISIF">     3</i>
   <i name="PSTRESS">      0.00000000</i>
   <i name="EDIFFG">      0.00001000</i>
   <i type="int" name="NFREE">     1</i>
   <i name="POTIM">      0.50000000</i>
   <i name="SMASS">     -3.00000000</i>
   <i name="SCALEE">      1.00000000</i>
  </separator>
  <separator name="ionic md" >
   <i name="TEBEG">      0.00010000</i>
   <i name="TEEND">      0.00010000</i>
   <i type="int" name="NBLOCK">     1</i>
   <i type="int" name="KBLOCK">     1</i>
   <i type="int" name="NPACO">   256</i>
   <i name="APACO">     16.00000000</i>
  </separator>
  <separator name="symmetry" >
   <i type="int" name="ISYM">     2</i>
   <i name="SYMPREC">      0.00001000</i>
  </separator>
  <separator name="dos" >
   <i type="logical" name="LORBIT"> F  </i>
   <v name="RWIGS">     -1.00000000     -1.00000000</v>
   <i type="int" name="NEDOS">   301</i>
   <i name="EMIN">     10.00000000</i>
   <i name="EMAX">    -10.00000000</i>
   <i name="EFERMI">      0.00000000</i>
  </separator>
  <separator name="writing" >
   <i type="int" name="NWRITE">     2</i>
   <i type="logical" name="LWAVE"> F  </i>
   <i type="logical" name="LCHARG"> F  </i>
   <i type="logical" name="LPARD"> F  </i>
   <i type="logical" name="LVTOT"> F  </i>
   <i type="logical" name="LVHAR"> F  </i>
   <i type="logical" name="LELF"> F  </i>
   <i type="logical" name="LOPTICS"> F  </i>
   <v name="STM">      0.00000000      0.00000000      0.00000000      0.00000000      0.00000000      0.00000000      0.00000000</v>
  </separator>
  <separator name="performance" >
   <i type="int" name="NPAR">     4</i>
   <i type="int" name="NSIM">     4</i>
   <i type="int" name="NBLK">    -1</i>
   <i type="logical" name="LPLANE"> T  </i>
   <i type="logical" name="LSCALAPACK"> T  </i>
   <i type="logical" name="LSCAAWARE"> F  </i>
   <i type="logical" name="LSCALU"> F  </i>
   <i type="logical" name="LASYNC"> F  </i>
   <i type="logical" name="LORBITALREAL"> F  </i>
  </separator>
  <separator name="miscellaneous" >
   <i type="int" name="IDIOT">     3</i>
   <i type="logical" name="LMUSIC"> F  </i>
   <v name="POMASS">     30.97400000     28.08500000</v>
   <v name="DARWINR">      0.00000000      0.00000000</v>
   <v name="DARWINV">      1.00000000      1.00000000</v>
   <i type="logical" name="LCORR"> T  </i>
  </separator>
  <i type="logical" name="GGA_COMPAT"> T  </i>
  <i type="logical" name="LBERRY"> F  </i>
  <i type="int" name="ICORELEVEL">     0</i>
  <i type="logical" name="LDAU"> F  </i>
  <i type="int" name="I_CONSTRAINED_M">     0</i>
  <separator name="electronic exchange-correlation" >
   <i type="string" name="GGA">BO</i>
   <i type="int" name="VOSKOWN">     0</i>
   <i type="logical" name="LHFCALC"> F  </i>
   <i type="string" name="PRECFOCK"></i>
   <i type="logical" name="LSYMGRAD"> F  </i>
   <i type="logical" name="LHFONE"> F  </i>
   <i type="logical" name="LRHFCALC"> F  </i>
   <i type="logical" name="LTHOMAS"> F  </i>
   <i type="logical" name="LMODELHF"> F  </i>
   <i name="ENCUT4O">     -1.00000000</i>
   <i type="int" name="EXXOEP">     0</i>
   <i type="int" name="FOURORBIT">     0</i>
   <i name="AEXX">      0.00000000</i>
   <i name="HFALPHA">      0.00000000</i>
   <i name="MCALPHA">      0.00000000</i>
   <i name="ALDAX">      1.00000000</i>
   <i name="AGGAX">      1.00000000</i>
   <i name="ALDAC">      1.00000000</i>
   <i name="AGGAC">      0.00000000</i>
   <i type="int" name="NKREDX">     1</i>
   <i type="int" name="NKREDY">     1</i>
   <i type="int" name="NKREDZ">     1</i>
   <i type="logical" name="SHIFTRED"> F  </i>
   <i type="logical" name="ODDONLY"> F  </i>
   <i type="logical" name="EVENONLY"> F  </i>
   <i type="int" name="LMAXFOCK">     0</i>
   <i type="int" name="NMAXFOCKAE">     0</i>
   <i type="logical" name="LFOCKAEDFT"> F  </i>
   <i name="HFSCREEN">      0.00000000</i>
   <i name="HFSCREENC">      0.00000000</i>
   <i type="int" name="NBANDSGWLOW">     0</i>
  </separator>
  <separator name="vdW DFT" >
   <i type="logical" name="LUSE_VDW"> T  </i>
   <i name="Zab_VDW">     -0.84910000</i>
   <i name="PARAM1">      0.18333333</i>
   <i name="PARAM2">      0.22000000</i>
   <i name="PARAM3">      0.00000000</i>
  </separator>
  <separator name="model GW" >
   <i type="int" name="MODEL_GW">     0</i>
   <i name="MODEL_EPS0">     25.05800243</i>
   <i name="MODEL_ALPHA">      1.00000000</i>
  </separator>
  <separator name="linear response parameters" >
   <i type="logical" name="LEPSILON"> F  </i>
   <i type="logical" name="LRPA"> F  </i>
   <i type="logical" name="LNABLA"> F  </i>
   <i type="logical" name="LVEL"> F  </i>
   <i type="int" name="KINTER">     0</i>
   <i name="CSHIFT">      0.10000000</i>
   <i name="OMEGAMAX">     -1.00000000</i>
   <i name="DEG_THRESHOLD">      0.00200000</i>
  </separator>
  <separator name="orbital magnetization" >
   <i type="logical" name="NUCIND"> F  </i>
   <v name="MAGPOS">      0.00000000      0.00000000      0.00000000</v>
   <i type="logical" name="LNICSALL"> T  </i>
   <i type="logical" name="ORBITALMAG"> F  </i>
   <i type="logical" name="LMAGBLOCH"> F  </i>
   <i type="logical" name="LCHIMAG"> F  </i>
   <i type="logical" name="LGAUGE"> T  </i>
   <i type="int" name="MAGATOM">     0</i>
   <v name="MAGDIPOL">      0.00000000      0.00000000      0.00000000</v>
   <v name="AVECCONST">      0.00000000      0.00000000      0.00000000</v>
  </separator>
  <separator name="response functions" >
   <i type="logical" name="LADDER"> F  </i>
   <i type="logical" name="LFXC"> F  </i>
   <i type="logical" name="LHARTREE"> T  </i>
   <i type="int" name="IBSE">     0</i>
   <i type="logical" name="LTCTE"> F  </i>
   <i type="logical" name="LTETE"> F  </i>
   <i type="logical" name="LTRIPLET"> F  </i>
   <i type="logical" name="LFXCEPS"> F  </i>
   <i type="logical" name="LFXHEG"> F  </i>
   <i type="logical" name="L2ORDER"> F  </i>
   <i type="logical" name="LUSEW"> F  </i>
   <i name="ENCUTGW">     -2.00000000</i>
   <i name="ENCUTGWSOFT">     -2.00000000</i>
   <i name="ENCUTLF">     -1.00000000</i>
   <i type="int" name="LMAXMP2">    -1</i>
   <i name="SCISSOR">      0.00000000</i>
   <i type="int" name="NOMEGA">     0</i>
   <i type="int" name="NOMEGAR">     0</i>
   <i type="int" name="NBANDSGW">    -1</i>
   <i type="int" name="NBANDSO">    -1</i>
   <i type="int" name="NBANDSV">    -1</i>
   <i type="int" name="NELM">     1</i>
   <i type="int" name="DIM">     3</i>
   <i type="int" name="ANTIRES">     0</i>
   <i name="OMEGAMAX">    -30.00000000</i>
   <i name="OMEGAMIN">    -30.00000000</i>
   <i name="OMEGATL">   -200.00000000</i>
   <i type="int" name="OMEGAGRID">     0</i>
   <i name="CSHIFT">     -0.10000000</i>
   <i type="logical" name="SELFENERGY"> F  </i>
   <i type="logical" name="LSPECTRAL"> F  </i>
   <i type="logical" name="ODDONLYGW"> F  </i>
   <i type="logical" name="EVENONLYGW"> F  </i>
   <i type="int" name="NKREDLFX">     1</i>
   <i type="int" name="NKREDLFY">     1</i>
   <i type="int" name="NKREDLFZ">     1</i>
   <i type="int" name="MAXMEM">  1800</i>
   <i type="int" name="TELESCOPE">     0</i>
   <i type="int" name="TAUPAR">     1</i>
  </separator>
  <separator name="External order field" >
   <i name="OFIELD_KAPPA">      0.00000000</i>
   <v name="OFIELD_K">      0.00000000      0.00000000      0.00000000</v>
   <i name="OFIELD_Q6_NEAR">      0.00000000</i>
   <i name="OFIELD_Q6_FAR">      0.00000000</i>
   <i name="OFIELD_A">      0.00000000</i>
  </separator>
 </parameters>
 <atominfo>
  <atoms>      24 </atoms>
  <types>       2 </types>
  <array name="atoms" >
   <dimension dim="1">ion</dimension>
   <field type="string">element</field>
   <field type="int">atomtype</field>
   <set>
    <rc><c>P </c><c>   1</c></rc>
    <rc><c>P </c><c>   1</c></rc>
    <rc><c>P </c><c>   1</c></rc>
    <rc><c>P </c><c>   1</c></rc>
    <rc><c>P </c><c>   1</c></rc>
    <rc><c>P </c><c>   1</c></rc>
    <rc><c>P </c><c>   1</c></rc>
    <rc><c>P </c><c>   1</c></rc>
    <rc><c>P </c><c>   1</c></rc>
    <rc><c>P </c><c>   1</c></rc>
    <rc><c>P </c><c>   1</c></rc>
    <rc><c>P </c><c>   1</c></rc>
    <rc><c>Si</c><c>   2</c></rc>
    <rc><c>Si</c><c>   2</c></rc>
    <rc><c>Si</c><c>   2</c></rc>
    <rc><c>Si</c><c>   2</c></rc>
    <rc><c>Si</c><c>   2</c></rc>
    <rc><c>Si</c><c>   2</c></rc>
    <rc><c>Si</c><c>   2</c></rc>
    <rc><c>Si</c><c>   2</c></rc>
    <rc><c>Si</c><c>   2</c></rc>
    <rc><c>Si</c><c>   2</c></rc>
    <rc><c>Si</c><c>   2</c></rc>
    <rc><c>Si</c><c>   2</c></rc>
   </set>
  </array>
  <array name="atomtypes" >
   <dimension dim="1">type</dimension>
   <field type="int">atomspertype</field>
   <field type="string">element</field>
   <field>mass</field>
   <field>valence</field>
   <field type="string">pseudopotential</field>
   <set>
    <rc><c>  12</c><c>P </c><c>     30.97400000</c><c>      5.00000000</c><c>  PAW_PBE P 17Jan2003                   </c></rc>
    <rc><c>  12</c><c>Si</c><c>     28.08500000</c><c>      4.00000000</c><c> PAW_PBE Si 05Jan2001                   </c></rc>
   </set>
  </array>
 </atominfo>
 <structure name="initialpos" >
  <crystal>
   <varray name="basis" >
    <v>       3.54040000       0.00000000       0.00000000 </v>
    <v>      -1.77020000      10.29434800       0.00000000 </v>
    <v>       0.00000000       0.00000000      27.50142900 </v>
   </varray>
   <i name="volume">   1002.32009712 </i>
   <varray name="rec_basis" >
    <v>       0.28245396       0.04857034       0.00000000 </v>
    <v>       0.00000000       0.09714068       0.00000000 </v>
    <v>       0.00000000       0.00000000       0.03636175 </v>
   </varray>
  </crystal>
  <varray name="positions" >
   <v>       0.11402300       0.22804500       0.23316207 </v>
   <v>       0.41402300       0.12804500       0.51499159 </v>
   <v>       0.45808900       0.91617900       0.20939482 </v>
   <v>       0.75808900       0.81617900       0.49122434 </v>
   <v>       0.31085400       0.62170900       0.08414979 </v>
   <v>       0.31085400       0.62170900       0.36597930 </v>
   <v>       0.99923000       0.99846000       0.08631254 </v>
   <v>       0.99923000       0.99846000       0.36814206 </v>
   <v>       0.65492700       0.30985400       0.06041748 </v>
   <v>       0.65492700       0.30985400       0.34224700 </v>
   <v>       0.76973800       0.53947500       0.20725292 </v>
   <v>       0.06973800       0.43947500       0.48908244 </v>
   <v>       0.93971600       0.87943300       0.15783749 </v>
   <v>       0.23971600       0.77943300       0.43966701 </v>
   <v>       0.20515200       0.41030300       0.18578822 </v>
   <v>       0.50515200       0.31030300       0.46761774 </v>
   <v>       0.20184900       0.40369900       0.09969156 </v>
   <v>       0.20184900       0.40369900       0.38152107 </v>
   <v>       0.56380500       0.12761000       0.10779021 </v>
   <v>       0.56380500       0.12761000       0.38961973 </v>
   <v>       0.56710600       0.13421200       0.19387616 </v>
   <v>       0.86710600       0.03421200       0.47570568 </v>
   <v>       0.82923400       0.65846800       0.13571444 </v>
   <v>       0.12923400       0.55846800       0.41754396 </v>
  </varray>
 </structure>
 <calculation>
  <scstep>
   <time name="dav">   77.45   77.58</time>
   <time name="total">   94.06   94.28</time>
   <energy>
    <i name="alphaZ">     36.80884744 </i>
    <i name="ewald">  11930.73773325 </i>
    <i name="hartreedc"> -14970.69977455 </i>
    <i name="XCdc">    -87.80822670 </i>
    <i name="pawpsdc">   1056.43050070 </i>
    <i name="pawaedc">   -732.41190547 </i>
    <i name="eentropy">     -0.04990913 </i>
    <i name="bandstr">    -90.74775035 </i>
    <i name="atom">   3354.04126044 </i>
    <i name="e_fr_energy">    496.30077563 </i>
    <i name="e_wo_entrp">    496.35068476 </i>
    <i name="e_0_energy">    496.32573020 </i>
   </energy>
  </scstep>
  <scstep>
   <time name="dav">   97.63   97.70</time>
   <time name="total">   97.64   97.71</time>
   <energy>
    <i name="e_fr_energy">    -63.55802111 </i>
    <i name="e_wo_entrp">    -63.53371018 </i>
    <i name="e_0_energy">    -63.54586565 </i>
   </energy>
  </scstep>
  <scstep>
   <time name="dav">   89.00   89.20</time>
   <time name="total">   89.01   89.21</time>
   <energy>
    <i name="e_fr_energy">   -120.92476248 </i>
    <i name="e_wo_entrp">   -120.90163436 </i>
    <i name="e_0_energy">   -120.91319842 </i>
   </energy>
  </scstep>
  <scstep>
   <time name="dav">  104.39  104.46</time>
   <time name="total">  104.40  104.50</time>
   <energy>
    <i name="e_fr_energy">   -123.56457588 </i>
    <i name="e_wo_entrp">   -123.54024872 </i>
    <i name="e_0_energy">   -123.55241230 </i>
   </energy>
  </scstep>
  <scstep>
   <time name="dav">   98.68   98.87</time>
   <time name="total">  105.29  105.49</time>
   <energy>
    <i name="e_fr_energy">   -123.63317795 </i>
    <i name="e_wo_entrp">   -123.60877776 </i>
    <i name="e_0_energy">   -123.62097785 </i>
   </energy>
  </scstep>
  <scstep>
   <time name="dav">   88.68   88.74</time>
   <time name="total">  108.74  108.88</time>
   <energy>
    <i name="e_fr_energy">   -119.68808071 </i>
    <i name="e_wo_entrp">   -119.66201728 </i>
    <i name="e_0_energy">   -119.67504899 </i>
   </energy>
  </scstep>
  <scstep>
   <time name="dav">   86.52   86.63</time>
   <time name="total">  107.36  107.58</time>
   <energy>
    <i name="e_fr_energy">   -119.51443155 </i>
    <i name="e_wo_entrp">   -119.49112873 </i>
    <i name="e_0_energy">   -119.50278014 </i>
   </energy>
  </scstep>
  <scstep>
   <time name="dav">   88.87   88.93</time>
   <time name="total">  109.42  109.50</time>
   <energy>
    <i name="e_fr_energy">   -119.53648686 </i>
    <i name="e_wo_entrp">   -119.51279044 </i>
    <i name="e_0_energy">   -119.52463865 </i>
   </energy>
  </scstep>
  <scstep>
   <time name="dav">   89.77   89.84</time>
   <time name="total">  109.77  109.89</time>
   <energy>
    <i name="e_fr_energy">   -119.53017608 </i>
    <i name="e_wo_entrp">   -119.50582188 </i>
    <i name="e_0_energy">   -119.51799898 </i>
   </energy>
  </scstep>
  <scstep>
   <time name="dav">   88.89   89.04</time>
   <time name="total">  109.36  109.56</time>
   <energy>
    <i name="e_fr_energy">   -119.52179029 </i>
    <i name="e_wo_entrp">   -119.49742981 </i>
    <i name="e_0_energy">   -119.50961005 </i>
   </energy>
  </scstep>
  <scstep>
   <time name="dav">   90.59   90.64</time>
   <time name="total">  110.54  110.63</time>
   <energy>
    <i name="e_fr_energy">   -119.51579711 </i>
    <i name="e_wo_entrp">   -119.49148963 </i>
    <i name="e_0_energy">   -119.50364337 </i>
   </energy>
  </scstep>
  <scstep>
   <time name="dav">   91.32   91.40</time>
   <time name="total">  111.32  111.43</time>
   <energy>
    <i name="e_fr_energy">   -119.50975491 </i>
    <i name="e_wo_entrp">   -119.48554756 </i>
    <i name="e_0_energy">   -119.49765124 </i>
   </energy>
  </scstep>
  <scstep>
   <time name="dav">   92.17   92.38</time>
   <time name="total">  112.65  113.01</time>
   <energy>
    <i name="e_fr_energy">   -119.50664258 </i>
    <i name="e_wo_entrp">   -119.48241577 </i>
    <i name="e_0_energy">   -119.49452918 </i>
   </energy>
  </scstep>
  <scstep>
   <time name="dav">   91.64   91.70</time>
   <time name="total">  112.11  112.21</time>
   <energy>
    <i name="e_fr_energy">   -119.50555393 </i>
    <i name="e_wo_entrp">   -119.48134583 </i>
    <i name="e_0_energy">   -119.49344988 </i>
   </energy>
  </scstep>
  <scstep>
   <time name="dav">   86.32   86.39</time>
   <time name="total">  107.29  107.54</time>
   <energy>
    <i name="e_fr_energy">   -119.50505897 </i>
    <i name="e_wo_entrp">   -119.48085348 </i>
    <i name="e_0_energy">   -119.49295622 </i>
   </energy>
  </scstep>
  <scstep>
   <time name="dav">   83.96   84.06</time>
   <time name="total">  103.97  104.14</time>
   <energy>
    <i name="e_fr_energy">   -119.50537869 </i>
    <i name="e_wo_entrp">   -119.48117145 </i>
    <i name="e_0_energy">   -119.49327507 </i>
   </energy>
  </scstep>
  <scstep>
   <time name="dav">   87.02   87.11</time>
   <time name="total">  107.02  107.22</time>
   <energy>
    <i name="e_fr_energy">   -119.50585825 </i>
    <i name="e_wo_entrp">   -119.48164833 </i>
    <i name="e_0_energy">   -119.49375329 </i>
   </energy>
  </scstep>
  <scstep>
   <time name="dav">   80.71   80.85</time>
   <time name="total">  101.23  101.43</time>
   <energy>
    <i name="e_fr_energy">   -119.50597943 </i>
    <i name="e_wo_entrp">   -119.48176991 </i>
    <i name="e_0_energy">   -119.49387467 </i>
   </energy>
  </scstep>
  <scstep>
   <time name="dav">   67.11   67.18</time>
   <time name="total">   87.68   87.82</time>
   <energy>
    <i name="e_fr_energy">   -119.50600757 </i>
    <i name="e_wo_entrp">   -119.48179725 </i>
    <i name="e_0_energy">   -119.49390241 </i>
   </energy>
  </scstep>
  <scstep>
   <time name="dav">   73.55   73.80</time>
   <time name="total">   93.62   93.97</time>
   <energy>
    <i name="e_fr_energy">   -119.50603880 </i>
    <i name="e_wo_entrp">   -119.48182765 </i>
    <i name="e_0_energy">   -119.49393323 </i>
   </energy>
  </scstep>
  <scstep>
   <time name="dav">   72.66   72.79</time>
   <time name="total">   92.09   92.27</time>
   <energy>
    <i name="e_fr_energy">   -119.50601724 </i>
    <i name="e_wo_entrp">   -119.48180625 </i>
    <i name="e_0_energy">   -119.49391174 </i>
   </energy>
  </scstep>
  <scstep>
   <time name="dav">   61.51   61.86</time>
   <time name="total">   81.50   82.05</time>
   <energy>
    <i name="e_fr_energy">   -119.50595428 </i>
    <i name="e_wo_entrp">   -119.48174391 </i>
    <i name="e_0_energy">   -119.49384909 </i>
   </energy>
  </scstep>
  <scstep>
   <time name="dav">   70.12   70.20</time>
   <time name="total">   90.89   91.21</time>
   <energy>
    <i name="e_fr_energy">   -119.50591449 </i>
    <i name="e_wo_entrp">   -119.48170405 </i>
    <i name="e_0_energy">   -119.49380927 </i>
   </energy>
  </scstep>
  <scstep>
   <time name="dav">   70.34   70.72</time>
   <time name="total">   90.67   91.28</time>
   <energy>
    <i name="e_fr_energy">   -119.50589117 </i>
    <i name="e_wo_entrp">   -119.48168071 </i>
    <i name="e_0_energy">   -119.49378594 </i>
   </energy>
  </scstep>
  <scstep>
   <time name="dav">   69.27   69.37</time>
   <time name="total">   89.29   89.51</time>
   <energy>
    <i name="e_fr_energy">   -119.50588307 </i>
    <i name="e_wo_entrp">   -119.48167270 </i>
    <i name="e_0_energy">   -119.49377788 </i>
   </energy>
  </scstep>
  <scstep>
   <time name="dav">   66.40   66.91</time>
   <time name="total">   86.14   86.69</time>
   <energy>
    <i name="e_fr_energy">   -119.50588085 </i>
    <i name="e_wo_entrp">   -119.48167047 </i>
    <i name="e_0_energy">   -119.49377566 </i>
   </energy>
  </scstep>
  <scstep>
   <time name="dav">   61.58   61.71</time>
   <time name="total">   82.28   82.45</time>
   <energy>
    <i name="e_fr_energy">   -119.50587980 </i>
    <i name="e_wo_entrp">   -119.48166940 </i>
    <i name="e_0_energy">   -119.49377460 </i>
   </energy>
  </scstep>
  <scstep>
   <time name="dav">   62.05   62.09</time>
   <time name="total">   76.95   77.02</time>
   <energy>
    <i name="alphaZ">     36.80884744 </i>
    <i name="ewald">  11930.73773325 </i>
    <i name="hartreedc"> -15069.16817529 </i>
    <i name="XCdc">    -79.93619222 </i>
    <i name="pawpsdc">   1174.76267611 </i>
    <i name="pawaedc">   -854.09030776 </i>
    <i name="eentropy">     -0.02421041 </i>
    <i name="bandstr">   -612.63751189 </i>
    <i name="atom">   3354.04126044 </i>
    <i name="e_fr_energy">   -119.50588033 </i>
    <i name="e_wo_entrp">   -119.48166992 </i>
    <i name="e_0_energy">   -119.49377513 </i>
   </energy>
  </scstep>
  <structure>
   <crystal>
    <varray name="basis" >
     <v>       3.54040000       0.00000000       0.00000000 </v>
     <v>      -1.77020000      10.29434800       0.00000000 </v>
     <v>       0.00000000       0.00000000      27.50142900 </v>
    </varray>
    <i name="volume">   1002.32009712 </i>
    <varray name="rec_basis" >
     <v>       0.28245396       0.04857034       0.00000000 </v>
     <v>       0.00000000       0.09714068       0.00000000 </v>
     <v>       0.00000000       0.00000000       0.03636175 </v>
    </varray>
   </crystal>
   <varray name="positions" >
    <v>       0.11402300       0.22804500       0.23316207 </v>
    <v>       0.41402300       0.12804500       0.51499159 </v>
    <v>       0.45808900       0.91617900       0.20939482 </v>
    <v>       0.75808900       0.81617900       0.49122434 </v>
    <v>       0.31085400       0.62170900       0.08414979 </v>
    <v>       0.31085400       0.62170900       0.36597930 </v>
    <v>       0.99923000       0.99846000       0.08631254 </v>
    <v>       0.99923000       0.99846000       0.36814206 </v>
    <v>       0.65492700       0.30985400       0.06041748 </v>
    <v>       0.65492700       0.30985400       0.34224700 </v>
    <v>       0.76973800       0.53947500       0.20725292 </v>
    <v>       0.06973800       0.43947500       0.48908244 </v>
    <v>       0.93971600       0.87943300       0.15783749 </v>
    <v>       0.23971600       0.77943300       0.43966701 </v>
    <v>       0.20515200       0.41030300       0.18578822 </v>
    <v>       0.50515200       0.31030300       0.46761774 </v>
    <v>       0.20184900       0.40369900       0.09969156 </v>
    <v>       0.20184900       0.40369900       0.38152107 </v>
    <v>       0.56380500       0.12761000       0.10779021 </v>
    <v>       0.56380500       0.12761000       0.38961973 </v>
    <v>       0.56710600       0.13421200       0.19387616 </v>
    <v>       0.86710600       0.03421200       0.47570568 </v>
    <v>       0.82923400       0.65846800       0.13571444 </v>
    <v>       0.12923400       0.55846800       0.41754396 </v>
   </varray>
  </structure>
  <varray name="forces" >
   <v>       0.02652873      -0.03528507       0.04359307 </v>
   <v>      -0.38879133      -0.20940635       0.45839431 </v>
   <v>       0.00205365      -0.00955213       0.08326714 </v>
   <v>      -0.20517009       0.10869906       0.09484751 </v>
   <v>      -0.00317793      -0.00343541       0.00608852 </v>
   <v>       7.45138454       8.80923607     -19.87125266 </v>
   <v>       0.00456805      -0.00328184      -0.00073858 </v>
   <v>       0.62486375       0.44536125       1.06543350 </v>
   <v>       0.00145792      -0.00054913       0.01630851 </v>
   <v>       0.43749122       0.29853571      -0.48409283 </v>
   <v>       0.00078626       0.00640133       0.09305005 </v>
   <v>      -0.51654241      -0.05215078       0.92948089 </v>
   <v>       0.00210083      -0.00331657       0.00467780 </v>
   <v>      -0.41482285       0.76042786       0.50609376 </v>
   <v>      -0.00263914       0.01195419       0.06852546 </v>
   <v>      -0.13448524      -0.70474253      -0.47683138 </v>
   <v>       0.00115477       0.00073428      -0.02508979 </v>
   <v>       2.29792620      -6.73575021      -4.86553361 </v>
   <v>       0.00233063      -0.01553217      -0.01333389 </v>
   <v>      -0.12385615      -0.03481632      -0.27750060 </v>
   <v>      -0.00408110      -0.02007331       0.00589048 </v>
   <v>      -0.13086010      -0.27064978      -0.35765244 </v>
   <v>       0.00312109       0.01171054      -0.00283658 </v>
   <v>      -8.93134131      -2.35451868      22.99921135 </v>
  </varray>
  <varray name="stress" >
   <v>       5.76775711       0.41352925     -28.50105345 </v>
   <v>       0.41352925      27.41753428     -12.84837067 </v>
   <v>     -28.50105324     -12.84837074      51.87082923 </v>
  </varray>
  <energy>
   <i name="e_fr_energy">   -119.50588033 </i>
   <i name="e_wo_entrp">   -119.49377513 </i>
   <i name="e_0_energy">     -0.02421041 </i>
  </energy>
  <time name="totalsc"> 2897.97 2904.29</time>
  <eigenvalues>
   <array>
    <dimension dim="1">band</dimension>
    <dimension dim="2">kpoint</dimension>
    <dimension dim="3">spin</dimension>
    <field>eigene</field>
    <field>occ</field>
    <set>
     <set comment="spin 1">
      <set comment="kpoint 1">
       <r>  -14.4503    1.0000 </r>
       <r>  -13.5662    1.0000 </r>
       <r>  -12.9142    1.0000 </r>
       <r>  -12.8275    1.0000 </r>
       <r>  -12.5135    1.0000 </r>
       <r>  -12.3020    1.0000 </r>
       <r>  -12.1775    1.0000 </r>
       <r>  -12.0933    1.0000 </r>
       <r>  -11.4589    1.0000 </r>
       <r>  -11.3491    1.0000 </r>
       <r>  -11.0208    1.0000 </r>
       <r>  -10.9247    1.0000 </r>
       <r>   -8.1968    1.0000 </r>
       <r>   -8.0478    1.0000 </r>
       <r>   -7.8540    1.0000 </r>
       <r>   -7.1143    1.0000 </r>
       <r>   -6.9230    1.0000 </r>
       <r>   -6.7747    1.0000 </r>
       <r>   -6.5198    1.0000 </r>
       <r>   -6.4832    1.0000 </r>
       <r>   -5.8555    1.0000 </r>
       <r>   -5.6456    1.0000 </r>
       <r>   -4.7757    1.0000 </r>
       <r>   -4.5538    1.0000 </r>
       <r>   -4.0731    1.0000 </r>
       <r>   -3.7245    1.0000 </r>
       <r>   -3.7068    1.0000 </r>
       <r>   -3.5294    1.0000 </r>
       <r>   -3.2113    1.0000 </r>
       <r>   -3.0891    1.0000 </r>
       <r>   -3.0610    1.0000 </r>
       <r>   -2.8833    1.0000 </r>
       <r>   -2.8709    1.0000 </r>
       <r>   -2.6277    1.0000 </r>
       <r>   -2.4785    1.0000 </r>
       <r>   -2.4267    1.0000 </r>
       <r>   -2.4151    1.0000 </r>
       <r>   -2.2923    1.0000 </r>
       <r>   -2.2285    1.0000 </r>
       <r>   -2.0643    1.0000 </r>
       <r>   -1.8678    1.0000 </r>
       <r>   -1.7564    1.0000 </r>
       <r>   -1.6871    1.0000 </r>
       <r>   -1.6651    1.0000 </r>
       <r>   -1.6069    1.0000 </r>
       <r>   -1.5451    1.0000 </r>
       <r>   -1.4656    1.0000 </r>
       <r>   -1.4580    1.0000 </r>
       <r>   -1.2272    1.0000 </r>
       <r>   -1.0394    1.0000 </r>
       <r>   -1.0121    1.0000 </r>
       <r>   -0.6515    1.0000 </r>
       <r>   -0.0037    0.9917 </r>
       <r>    0.0878    0.8643 </r>
       <r>    0.3747    0.0016 </r>
       <r>    0.8288    0.0000 </r>
       <r>    0.9925    0.0000 </r>
       <r>    1.1818    0.0000 </r>
       <r>    1.2901    0.0000 </r>
       <r>    1.5395    0.0000 </r>
       <r>    1.6947    0.0000 </r>
       <r>    1.8760    0.0000 </r>
       <r>    1.9605    0.0000 </r>
       <r>    2.1085    0.0000 </r>
       <r>    2.3555    0.0000 </r>
       <r>    2.4085    0.0000 </r>
       <r>    2.5356    0.0000 </r>
       <r>    2.6376    0.0000 </r>
      </set>
      <set comment="kpoint 2">
       <r>  -14.4124    1.0000 </r>
       <r>  -13.5048    1.0000 </r>
       <r>  -12.8614    1.0000 </r>
       <r>  -12.7753    1.0000 </r>
       <r>  -12.4580    1.0000 </r>
       <r>  -12.2473    1.0000 </r>
       <r>  -12.1200    1.0000 </r>
       <r>  -12.0324    1.0000 </r>
       <r>  -11.4100    1.0000 </r>
       <r>  -11.3028    1.0000 </r>
       <r>  -10.9721    1.0000 </r>
       <r>  -10.8727    1.0000 </r>
       <r>   -8.1823    1.0000 </r>
       <r>   -8.0831    1.0000 </r>
       <r>   -7.8161    1.0000 </r>
       <r>   -7.1195    1.0000 </r>
       <r>   -6.8822    1.0000 </r>
       <r>   -6.7417    1.0000 </r>
       <r>   -6.5138    1.0000 </r>
       <r>   -6.4724    1.0000 </r>
       <r>   -5.8217    1.0000 </r>
       <r>   -5.6209    1.0000 </r>
       <r>   -4.7777    1.0000 </r>
       <r>   -4.5263    1.0000 </r>
       <r>   -4.0685    1.0000 </r>
       <r>   -3.7617    1.0000 </r>
       <r>   -3.7319    1.0000 </r>
       <r>   -3.6520    1.0000 </r>
       <r>   -3.5056    1.0000 </r>
       <r>   -3.4425    1.0000 </r>
       <r>   -3.3051    1.0000 </r>
       <r>   -3.2320    1.0000 </r>
       <r>   -2.9847    1.0000 </r>
       <r>   -2.9055    1.0000 </r>
       <r>   -2.7555    1.0000 </r>
       <r>   -2.6130    1.0000 </r>
       <r>   -2.5077    1.0000 </r>
       <r>   -2.4503    1.0000 </r>
       <r>   -2.2480    1.0000 </r>
       <r>   -2.2154    1.0000 </r>
       <r>   -2.0573    1.0000 </r>
       <r>   -1.9997    1.0000 </r>
       <r>   -1.9923    1.0000 </r>
       <r>   -1.8756    1.0000 </r>
       <r>   -1.8427    1.0000 </r>
       <r>   -1.7542    1.0000 </r>
       <r>   -1.6000    1.0000 </r>
       <r>   -1.5315    1.0000 </r>
       <r>   -1.2756    1.0000 </r>
       <r>   -1.1529    1.0000 </r>
       <r>   -0.9438    1.0000 </r>
       <r>   -0.6212    1.0000 </r>
       <r>    0.0651    0.9224 </r>
       <r>    0.1574    0.5463 </r>
       <r>    0.4415    0.0000 </r>
       <r>    0.9719    0.0000 </r>
       <r>    1.3192    0.0000 </r>
       <r>    1.5490    0.0000 </r>
       <r>    1.6969    0.0000 </r>
       <r>    1.7621    0.0000 </r>
       <r>    2.0998    0.0000 </r>
       <r>    2.1742    0.0000 </r>
       <r>    2.2378    0.0000 </r>
       <r>    2.2736    0.0000 </r>
       <r>    2.5259    0.0000 </r>
       <r>    2.5848    0.0000 </r>
       <r>    2.7417    0.0000 </r>
       <r>    2.8897    0.0000 </r>
      </set>
      <set comment="kpoint 3">
       <r>  -14.3034    1.0000 </r>
       <r>  -13.3218    1.0000 </r>
       <r>  -12.7042    1.0000 </r>
       <r>  -12.6195    1.0000 </r>
       <r>  -12.2933    1.0000 </r>
       <r>  -12.0851    1.0000 </r>
       <r>  -11.9520    1.0000 </r>
       <r>  -11.8530    1.0000 </r>
       <r>  -11.2681    1.0000 </r>
       <r>  -11.1685    1.0000 </r>
       <r>  -10.8324    1.0000 </r>
       <r>  -10.7203    1.0000 </r>
       <r>   -8.2011    1.0000 </r>
       <r>   -8.1284    1.0000 </r>
       <r>   -7.7737    1.0000 </r>
       <r>   -7.1455    1.0000 </r>
       <r>   -6.7927    1.0000 </r>
       <r>   -6.6785    1.0000 </r>
       <r>   -6.5258    1.0000 </r>
       <r>   -6.4608    1.0000 </r>
       <r>   -5.7464    1.0000 </r>
       <r>   -5.5825    1.0000 </r>
       <r>   -4.8926    1.0000 </r>
       <r>   -4.6211    1.0000 </r>
       <r>   -4.3838    1.0000 </r>
       <r>   -4.2511    1.0000 </r>
       <r>   -4.1323    1.0000 </r>
       <r>   -4.0691    1.0000 </r>
       <r>   -3.9795    1.0000 </r>
       <r>   -3.8872    1.0000 </r>
       <r>   -3.7154    1.0000 </r>
       <r>   -3.5541    1.0000 </r>
       <r>   -3.4535    1.0000 </r>
       <r>   -3.2507    1.0000 </r>
       <r>   -3.1188    1.0000 </r>
       <r>   -3.0327    1.0000 </r>
       <r>   -2.9946    1.0000 </r>
       <r>   -2.9716    1.0000 </r>
       <r>   -2.7413    1.0000 </r>
       <r>   -2.6430    1.0000 </r>
       <r>   -2.4218    1.0000 </r>
       <r>   -2.2851    1.0000 </r>
       <r>   -2.2105    1.0000 </r>
       <r>   -2.1695    1.0000 </r>
       <r>   -2.0340    1.0000 </r>
       <r>   -1.9492    1.0000 </r>
       <r>   -1.7688    1.0000 </r>
       <r>   -1.6720    1.0000 </r>
       <r>   -1.2900    1.0000 </r>
       <r>   -1.1997    1.0000 </r>
       <r>   -0.9544    1.0000 </r>
       <r>   -0.6192    1.0000 </r>
       <r>    0.0770    0.8951 </r>
       <r>    0.2157    0.2393 </r>
       <r>    0.4836    0.0000 </r>
       <r>    0.9893    0.0000 </r>
       <r>    1.5256    0.0000 </r>
       <r>    1.9194    0.0000 </r>
       <r>    1.9959    0.0000 </r>
       <r>    2.2428    0.0000 </r>
       <r>    2.3942    0.0000 </r>
       <r>    2.5726    0.0000 </r>
       <r>    2.6013    0.0000 </r>
       <r>    2.6865    0.0000 </r>
       <r>    2.7850    0.0000 </r>
       <r>    2.9064    0.0000 </r>
       <r>    3.0176    0.0000 </r>
       <r>    3.0718    0.0000 </r>
      </set>
      <set comment="kpoint 4">
       <r>  -14.1392    1.0000 </r>
       <r>  -13.0208    1.0000 </r>
       <r>  -12.4460    1.0000 </r>
       <r>  -12.3633    1.0000 </r>
       <r>  -12.0266    1.0000 </r>
       <r>  -11.8236    1.0000 </r>
       <r>  -11.6876    1.0000 </r>
       <r>  -11.5683    1.0000 </r>
       <r>  -11.0515    1.0000 </r>
       <r>  -10.9634    1.0000 </r>
       <r>  -10.6280    1.0000 </r>
       <r>  -10.4805    1.0000 </r>
       <r>   -8.3851    1.0000 </r>
       <r>   -8.1474    1.0000 </r>
       <r>   -7.8482    1.0000 </r>
       <r>   -7.2698    1.0000 </r>
       <r>   -6.7737    1.0000 </r>
       <r>   -6.7185    1.0000 </r>
       <r>   -6.6590    1.0000 </r>
       <r>   -6.4627    1.0000 </r>
       <r>   -5.7655    1.0000 </r>
       <r>   -5.6897    1.0000 </r>
       <r>   -5.3662    1.0000 </r>
       <r>   -5.3260    1.0000 </r>
       <r>   -4.8403    1.0000 </r>
       <r>   -4.8002    1.0000 </r>
       <r>   -4.6338    1.0000 </r>
       <r>   -4.5372    1.0000 </r>
       <r>   -4.3686    1.0000 </r>
       <r>   -4.2163    1.0000 </r>
       <r>   -4.1222    1.0000 </r>
       <r>   -3.9681    1.0000 </r>
       <r>   -3.8130    1.0000 </r>
       <r>   -3.7090    1.0000 </r>
       <r>   -3.5041    1.0000 </r>
       <r>   -3.4880    1.0000 </r>
       <r>   -3.2615    1.0000 </r>
       <r>   -3.0425    1.0000 </r>
       <r>   -2.9829    1.0000 </r>
       <r>   -2.8846    1.0000 </r>
       <r>   -2.6541    1.0000 </r>
       <r>   -2.4915    1.0000 </r>
       <r>   -2.3890    1.0000 </r>
       <r>   -2.3308    1.0000 </r>
       <r>   -2.0998    1.0000 </r>
       <r>   -1.9270    1.0000 </r>
       <r>   -1.8386    1.0000 </r>
       <r>   -1.7447    1.0000 </r>
       <r>   -1.4920    1.0000 </r>
       <r>   -1.1952    1.0000 </r>
       <r>   -1.0992    1.0000 </r>
       <r>   -0.6831    1.0000 </r>
       <r>   -0.0855    0.9998 </r>
       <r>    0.1961    0.3330 </r>
       <r>    0.3231    0.0130 </r>
       <r>    0.8659    0.0000 </r>
       <r>    1.2649    0.0000 </r>
       <r>    1.7596    0.0000 </r>
       <r>    1.8526    0.0000 </r>
       <r>    2.0028    0.0000 </r>
       <r>    2.1924    0.0000 </r>
       <r>    2.2612    0.0000 </r>
       <r>    2.3703    0.0000 </r>
       <r>    2.6235    0.0000 </r>
       <r>    2.6692    0.0000 </r>
       <r>    2.8559    0.0000 </r>
       <r>    2.9394    0.0000 </r>
       <r>    3.0833    0.0000 </r>
      </set>
      <set comment="kpoint 5">
       <r>  -13.9490    1.0000 </r>
       <r>  -12.6090    1.0000 </r>
       <r>  -12.0951    1.0000 </r>
       <r>  -12.0150    1.0000 </r>
       <r>  -11.6745    1.0000 </r>
       <r>  -11.4818    1.0000 </r>
       <r>  -11.3531    1.0000 </r>
       <r>  -11.2122    1.0000 </r>
       <r>  -10.8075    1.0000 </r>
       <r>  -10.7351    1.0000 </r>
       <r>  -10.4410    1.0000 </r>
       <r>  -10.1834    1.0000 </r>
       <r>   -8.6796    1.0000 </r>
       <r>   -8.2998    1.0000 </r>
       <r>   -8.1092    1.0000 </r>
       <r>   -7.5949    1.0000 </r>
       <r>   -7.0666    1.0000 </r>
       <r>   -7.0188    1.0000 </r>
       <r>   -6.9275    1.0000 </r>
       <r>   -6.5340    1.0000 </r>
       <r>   -6.1895    1.0000 </r>
       <r>   -6.1325    1.0000 </r>
       <r>   -5.9901    1.0000 </r>
       <r>   -5.9262    1.0000 </r>
       <r>   -5.2360    1.0000 </r>
       <r>   -5.0779    1.0000 </r>
       <r>   -4.8350    1.0000 </r>
       <r>   -4.7691    1.0000 </r>
       <r>   -4.7238    1.0000 </r>
       <r>   -4.4227    1.0000 </r>
       <r>   -4.3415    1.0000 </r>
       <r>   -4.2517    1.0000 </r>
       <r>   -4.2135    1.0000 </r>
       <r>   -3.8679    1.0000 </r>
       <r>   -3.5067    1.0000 </r>
       <r>   -3.4144    1.0000 </r>
       <r>   -3.1462    1.0000 </r>
       <r>   -3.0900    1.0000 </r>
       <r>   -3.0243    1.0000 </r>
       <r>   -2.9322    1.0000 </r>
       <r>   -2.8466    1.0000 </r>
       <r>   -2.6536    1.0000 </r>
       <r>   -2.6171    1.0000 </r>
       <r>   -2.3774    1.0000 </r>
       <r>   -2.1798    1.0000 </r>
       <r>   -2.0851    1.0000 </r>
       <r>   -1.9091    1.0000 </r>
       <r>   -1.8877    1.0000 </r>
       <r>   -1.7388    1.0000 </r>
       <r>   -1.3301    1.0000 </r>
       <r>   -1.1321    1.0000 </r>
       <r>   -0.8020    1.0000 </r>
       <r>   -0.3155    1.0000 </r>
       <r>   -0.1231    1.0000 </r>
       <r>    0.1288    0.6990 </r>
       <r>    0.7686    0.0000 </r>
       <r>    0.9309    0.0000 </r>
       <r>    1.5326    0.0000 </r>
       <r>    1.6065    0.0000 </r>
       <r>    1.7676    0.0000 </r>
       <r>    1.8428    0.0000 </r>
       <r>    1.9829    0.0000 </r>
       <r>    2.2022    0.0000 </r>
       <r>    2.2596    0.0000 </r>
       <r>    2.3465    0.0000 </r>
       <r>    2.6522    0.0000 </r>
       <r>    2.7934    0.0000 </r>
       <r>    2.8445    0.0000 </r>
      </set>
      <set comment="kpoint 6">
       <r>  -13.7759    1.0000 </r>
       <r>  -12.1006    1.0000 </r>
       <r>  -11.6711    1.0000 </r>
       <r>  -11.5959    1.0000 </r>
       <r>  -11.2752    1.0000 </r>
       <r>  -11.1078    1.0000 </r>
       <r>  -11.0032    1.0000 </r>
       <r>  -10.8711    1.0000 </r>
       <r>  -10.6533    1.0000 </r>
       <r>  -10.6011    1.0000 </r>
       <r>  -10.4809    1.0000 </r>
       <r>   -9.8917    1.0000 </r>
       <r>   -8.8563    1.0000 </r>
       <r>   -8.5926    1.0000 </r>
       <r>   -8.4015    1.0000 </r>
       <r>   -7.9359    1.0000 </r>
       <r>   -7.5157    1.0000 </r>
       <r>   -7.4829    1.0000 </r>
       <r>   -7.4376    1.0000 </r>
       <r>   -6.8630    1.0000 </r>
       <r>   -6.7875    1.0000 </r>
       <r>   -6.7235    1.0000 </r>
       <r>   -6.6838    1.0000 </r>
       <r>   -6.1970    1.0000 </r>
       <r>   -5.3526    1.0000 </r>
       <r>   -5.2374    1.0000 </r>
       <r>   -4.9622    1.0000 </r>
       <r>   -4.6751    1.0000 </r>
       <r>   -4.5538    1.0000 </r>
       <r>   -4.4338    1.0000 </r>
       <r>   -4.2589    1.0000 </r>
       <r>   -4.1682    1.0000 </r>
       <r>   -4.0797    1.0000 </r>
       <r>   -3.6816    1.0000 </r>
       <r>   -3.6346    1.0000 </r>
       <r>   -3.3621    1.0000 </r>
       <r>   -3.2929    1.0000 </r>
       <r>   -3.2254    1.0000 </r>
       <r>   -3.1584    1.0000 </r>
       <r>   -2.9793    1.0000 </r>
       <r>   -2.8373    1.0000 </r>
       <r>   -2.8142    1.0000 </r>
       <r>   -2.6878    1.0000 </r>
       <r>   -2.5178    1.0000 </r>
       <r>   -2.3428    1.0000 </r>
       <r>   -2.2627    1.0000 </r>
       <r>   -2.0768    1.0000 </r>
       <r>   -2.0489    1.0000 </r>
       <r>   -1.8582    1.0000 </r>
       <r>   -1.4580    1.0000 </r>
       <r>   -1.2105    1.0000 </r>
       <r>   -0.8511    1.0000 </r>
       <r>   -0.5134    1.0000 </r>
       <r>   -0.4159    1.0000 </r>
       <r>   -0.0423    0.9984 </r>
       <r>    0.5523    0.0000 </r>
       <r>    0.7663    0.0000 </r>
       <r>    1.2971    0.0000 </r>
       <r>    1.4244    0.0000 </r>
       <r>    1.5963    0.0000 </r>
       <r>    1.6858    0.0000 </r>
       <r>    1.7449    0.0000 </r>
       <r>    2.0129    0.0000 </r>
       <r>    2.0757    0.0000 </r>
       <r>    2.2461    0.0000 </r>
       <r>    2.3013    0.0000 </r>
       <r>    2.5370    0.0000 </r>
       <r>    2.6949    0.0000 </r>
      </set>
      <set comment="kpoint 7">
       <r>  -13.6707    1.0000 </r>
       <r>  -11.5268    1.0000 </r>
       <r>  -11.2282    1.0000 </r>
       <r>  -11.1736    1.0000 </r>
       <r>  -10.9695    1.0000 </r>
       <r>  -10.8879    1.0000 </r>
       <r>  -10.8670    1.0000 </r>
       <r>  -10.7592    1.0000 </r>
       <r>  -10.7522    1.0000 </r>
       <r>  -10.6620    1.0000 </r>
       <r>  -10.6507    1.0000 </r>
       <r>   -9.7059    1.0000 </r>
       <r>   -8.8555    1.0000 </r>
       <r>   -8.7137    1.0000 </r>
       <r>   -8.4649    1.0000 </r>
       <r>   -8.1049    1.0000 </r>
       <r>   -7.9979    1.0000 </r>
       <r>   -7.8131    1.0000 </r>
       <r>   -7.5943    1.0000 </r>
       <r>   -7.3278    1.0000 </r>
       <r>   -7.3073    1.0000 </r>
       <r>   -7.2097    1.0000 </r>
       <r>   -7.1750    1.0000 </r>
       <r>   -6.2052    1.0000 </r>
       <r>   -5.5653    1.0000 </r>
       <r>   -4.9821    1.0000 </r>
       <r>   -4.9326    1.0000 </r>
       <r>   -4.5268    1.0000 </r>
       <r>   -4.3161    1.0000 </r>
       <r>   -4.1294    1.0000 </r>
       <r>   -4.0832    1.0000 </r>
       <r>   -3.9766    1.0000 </r>
       <r>   -3.9011    1.0000 </r>
       <r>   -3.8536    1.0000 </r>
       <r>   -3.6243    1.0000 </r>
       <r>   -3.6017    1.0000 </r>
       <r>   -3.4224    1.0000 </r>
       <r>   -3.2818    1.0000 </r>
       <r>   -3.1998    1.0000 </r>
       <r>   -3.1142    1.0000 </r>
       <r>   -3.0182    1.0000 </r>
       <r>   -2.9211    1.0000 </r>
       <r>   -2.7567    1.0000 </r>
       <r>   -2.7048    1.0000 </r>
       <r>   -2.3930    1.0000 </r>
       <r>   -2.3220    1.0000 </r>
       <r>   -2.1974    1.0000 </r>
       <r>   -2.1195    1.0000 </r>
       <r>   -1.7455    1.0000 </r>
       <r>   -1.5645    1.0000 </r>
       <r>   -1.3414    1.0000 </r>
       <r>   -0.8735    1.0000 </r>
       <r>   -0.6666    1.0000 </r>
       <r>   -0.4410    1.0000 </r>
       <r>   -0.1354    1.0000 </r>
       <r>    0.3456    0.0055 </r>
       <r>    0.6622    0.0000 </r>
       <r>    1.1818    0.0000 </r>
       <r>    1.3643    0.0000 </r>
       <r>    1.5162    0.0000 </r>
       <r>    1.5851    0.0000 </r>
       <r>    1.6805    0.0000 </r>
       <r>    1.8109    0.0000 </r>
       <r>    1.8909    0.0000 </r>
       <r>    2.0646    0.0000 </r>
       <r>    2.3645    0.0000 </r>
       <r>    2.4745    0.0000 </r>
       <r>    2.5991    0.0000 </r>
      </set>
      <set comment="kpoint 8">
       <r>  -14.4454    1.0000 </r>
       <r>  -13.5107    1.0000 </r>
       <r>  -13.0020    1.0000 </r>
       <r>  -12.9706    1.0000 </r>
       <r>  -12.5118    1.0000 </r>
       <r>  -12.2715    1.0000 </r>
       <r>  -12.1015    1.0000 </r>
       <r>  -11.8937    1.0000 </r>
       <r>  -11.5038    1.0000 </r>
       <r>  -11.3814    1.0000 </r>
       <r>  -11.0284    1.0000 </r>
       <r>  -10.9222    1.0000 </r>
       <r>   -8.5429    1.0000 </r>
       <r>   -8.1719    1.0000 </r>
       <r>   -7.4766    1.0000 </r>
       <r>   -7.3979    1.0000 </r>
       <r>   -6.7569    1.0000 </r>
       <r>   -6.6952    1.0000 </r>
       <r>   -6.6084    1.0000 </r>
       <r>   -6.2257    1.0000 </r>
       <r>   -5.7763    1.0000 </r>
       <r>   -5.5475    1.0000 </r>
       <r>   -4.6723    1.0000 </r>
       <r>   -4.3770    1.0000 </r>
       <r>   -4.1448    1.0000 </r>
       <r>   -4.0365    1.0000 </r>
       <r>   -3.7022    1.0000 </r>
       <r>   -3.6440    1.0000 </r>
       <r>   -3.3704    1.0000 </r>
       <r>   -3.1549    1.0000 </r>
       <r>   -3.0841    1.0000 </r>
       <r>   -2.9296    1.0000 </r>
       <r>   -2.7357    1.0000 </r>
       <r>   -2.6011    1.0000 </r>
       <r>   -2.5505    1.0000 </r>
       <r>   -2.4155    1.0000 </r>
       <r>   -2.3797    1.0000 </r>
       <r>   -2.3141    1.0000 </r>
       <r>   -2.2128    1.0000 </r>
       <r>   -2.1385    1.0000 </r>
       <r>   -1.9952    1.0000 </r>
       <r>   -1.9094    1.0000 </r>
       <r>   -1.7784    1.0000 </r>
       <r>   -1.6532    1.0000 </r>
       <r>   -1.5486    1.0000 </r>
       <r>   -1.4718    1.0000 </r>
       <r>   -1.4085    1.0000 </r>
       <r>   -1.3895    1.0000 </r>
       <r>   -1.1684    1.0000 </r>
       <r>   -1.0546    1.0000 </r>
       <r>   -0.9632    1.0000 </r>
       <r>   -0.8750    1.0000 </r>
       <r>   -0.0027    0.9914 </r>
       <r>    0.4103    0.0003 </r>
       <r>    0.4900    0.0000 </r>
       <r>    0.9195    0.0000 </r>
       <r>    1.0541    0.0000 </r>
       <r>    1.1871    0.0000 </r>
       <r>    1.3668    0.0000 </r>
       <r>    1.5541    0.0000 </r>
       <r>    1.7040    0.0000 </r>
       <r>    1.8017    0.0000 </r>
       <r>    1.8714    0.0000 </r>
       <r>    2.2322    0.0000 </r>
       <r>    2.3362    0.0000 </r>
       <r>    2.5316    0.0000 </r>
       <r>    2.6214    0.0000 </r>
       <r>    2.6932    0.0000 </r>
      </set>
      <set comment="kpoint 9">
       <r>  -14.4068    1.0000 </r>
       <r>  -13.4338    1.0000 </r>
       <r>  -12.9826    1.0000 </r>
       <r>  -12.9265    1.0000 </r>
       <r>  -12.4547    1.0000 </r>
       <r>  -12.2123    1.0000 </r>
       <r>  -12.0344    1.0000 </r>
       <r>  -11.7945    1.0000 </r>
       <r>  -11.4624    1.0000 </r>
       <r>  -11.3384    1.0000 </r>
       <r>  -10.9837    1.0000 </r>
       <r>  -10.8728    1.0000 </r>
       <r>   -8.6010    1.0000 </r>
       <r>   -8.1367    1.0000 </r>
       <r>   -7.5230    1.0000 </r>
       <r>   -7.3545    1.0000 </r>
       <r>   -6.7193    1.0000 </r>
       <r>   -6.6901    1.0000 </r>
       <r>   -6.5443    1.0000 </r>
       <r>   -6.1780    1.0000 </r>
       <r>   -5.7275    1.0000 </r>
       <r>   -5.5124    1.0000 </r>
       <r>   -4.7165    1.0000 </r>
       <r>   -4.3550    1.0000 </r>
       <r>   -4.1773    1.0000 </r>
       <r>   -4.1088    1.0000 </r>
       <r>   -3.8043    1.0000 </r>
       <r>   -3.6796    1.0000 </r>
       <r>   -3.5731    1.0000 </r>
       <r>   -3.4174    1.0000 </r>
       <r>   -3.3862    1.0000 </r>
       <r>   -3.0706    1.0000 </r>
       <r>   -3.0338    1.0000 </r>
       <r>   -2.8565    1.0000 </r>
       <r>   -2.7119    1.0000 </r>
       <r>   -2.6917    1.0000 </r>
       <r>   -2.5502    1.0000 </r>
       <r>   -2.4889    1.0000 </r>
       <r>   -2.3337    1.0000 </r>
       <r>   -2.2630    1.0000 </r>
       <r>   -2.1594    1.0000 </r>
       <r>   -2.1033    1.0000 </r>
       <r>   -2.0281    1.0000 </r>
       <r>   -1.8672    1.0000 </r>
       <r>   -1.8361    1.0000 </r>
       <r>   -1.7701    1.0000 </r>
       <r>   -1.5049    1.0000 </r>
       <r>   -1.4149    1.0000 </r>
       <r>   -1.3420    1.0000 </r>
       <r>   -1.1084    1.0000 </r>
       <r>   -0.9130    1.0000 </r>
       <r>   -0.7996    1.0000 </r>
       <r>    0.0588    0.9345 </r>
       <r>    0.4367    0.0001 </r>
       <r>    0.5889    0.0000 </r>
       <r>    1.0971    0.0000 </r>
       <r>    1.3598    0.0000 </r>
       <r>    1.5600    0.0000 </r>
       <r>    1.6985    0.0000 </r>
       <r>    1.8111    0.0000 </r>
       <r>    1.9301    0.0000 </r>
       <r>    2.1483    0.0000 </r>
       <r>    2.2122    0.0000 </r>
       <r>    2.4776    0.0000 </r>
       <r>    2.5990    0.0000 </r>
       <r>    2.6392    0.0000 </r>
       <r>    2.8405    0.0000 </r>
       <r>    2.9396    0.0000 </r>
      </set>
      <set comment="kpoint 10">
       <r>  -14.2981    1.0000 </r>
       <r>  -13.2372    1.0000 </r>
       <r>  -12.8460    1.0000 </r>
       <r>  -12.7694    1.0000 </r>
       <r>  -12.2884    1.0000 </r>
       <r>  -12.0466    1.0000 </r>
       <r>  -11.8729    1.0000 </r>
       <r>  -11.5969    1.0000 </r>
       <r>  -11.3230    1.0000 </r>
       <r>  -11.1983    1.0000 </r>
       <r>  -10.8419    1.0000 </r>
       <r>  -10.7255    1.0000 </r>
       <r>   -8.6663    1.0000 </r>
       <r>   -8.0854    1.0000 </r>
       <r>   -7.5390    1.0000 </r>
       <r>   -7.3264    1.0000 </r>
       <r>   -6.6856    1.0000 </r>
       <r>   -6.6164    1.0000 </r>
       <r>   -6.5076    1.0000 </r>
       <r>   -6.1895    1.0000 </r>
       <r>   -5.6801    1.0000 </r>
       <r>   -5.5300    1.0000 </r>
       <r>   -4.8681    1.0000 </r>
       <r>   -4.6365    1.0000 </r>
       <r>   -4.4122    1.0000 </r>
       <r>   -4.3582    1.0000 </r>
       <r>   -4.3094    1.0000 </r>
       <r>   -4.1291    1.0000 </r>
       <r>   -3.9921    1.0000 </r>
       <r>   -3.7689    1.0000 </r>
       <r>   -3.6578    1.0000 </r>
       <r>   -3.5548    1.0000 </r>
       <r>   -3.4447    1.0000 </r>
       <r>   -3.2265    1.0000 </r>
       <r>   -3.1115    1.0000 </r>
       <r>   -3.0398    1.0000 </r>
       <r>   -2.9853    1.0000 </r>
       <r>   -2.8509    1.0000 </r>
       <r>   -2.7057    1.0000 </r>
       <r>   -2.6272    1.0000 </r>
       <r>   -2.5742    1.0000 </r>
       <r>   -2.4721    1.0000 </r>
       <r>   -2.3407    1.0000 </r>
       <r>   -2.1750    1.0000 </r>
       <r>   -2.0480    1.0000 </r>
       <r>   -1.9330    1.0000 </r>
       <r>   -1.8892    1.0000 </r>
       <r>   -1.5137    1.0000 </r>
       <r>   -1.3500    1.0000 </r>
       <r>   -1.1662    1.0000 </r>
       <r>   -0.9232    1.0000 </r>
       <r>   -0.7448    1.0000 </r>
       <r>    0.0455    0.9553 </r>
       <r>    0.3409    0.0066 </r>
       <r>    0.6408    0.0000 </r>
       <r>    1.0338    0.0000 </r>
       <r>    1.5033    0.0000 </r>
       <r>    1.6895    0.0000 </r>
       <r>    2.0685    0.0000 </r>
       <r>    2.1444    0.0000 </r>
       <r>    2.3258    0.0000 </r>
       <r>    2.5072    0.0000 </r>
       <r>    2.6591    0.0000 </r>
       <r>    2.7405    0.0000 </r>
       <r>    2.8507    0.0000 </r>
       <r>    3.0285    0.0000 </r>
       <r>    3.0563    0.0000 </r>
       <r>    3.1181    0.0000 </r>
      </set>
      <set comment="kpoint 11">
       <r>  -14.1351    1.0000 </r>
       <r>  -12.9257    1.0000 </r>
       <r>  -12.5946    1.0000 </r>
       <r>  -12.5029    1.0000 </r>
       <r>  -12.0207    1.0000 </r>
       <r>  -11.7833    1.0000 </r>
       <r>  -11.6296    1.0000 </r>
       <r>  -11.3205    1.0000 </r>
       <r>  -11.1012    1.0000 </r>
       <r>  -10.9786    1.0000 </r>
       <r>  -10.6239    1.0000 </r>
       <r>  -10.4930    1.0000 </r>
       <r>   -8.7972    1.0000 </r>
       <r>   -8.0888    1.0000 </r>
       <r>   -7.5723    1.0000 </r>
       <r>   -7.4171    1.0000 </r>
       <r>   -6.7215    1.0000 </r>
       <r>   -6.6781    1.0000 </r>
       <r>   -6.5353    1.0000 </r>
       <r>   -6.4092    1.0000 </r>
       <r>   -5.8481    1.0000 </r>
       <r>   -5.7824    1.0000 </r>
       <r>   -5.3490    1.0000 </r>
       <r>   -5.2303    1.0000 </r>
       <r>   -5.0563    1.0000 </r>
       <r>   -4.6936    1.0000 </r>
       <r>   -4.6153    1.0000 </r>
       <r>   -4.5385    1.0000 </r>
       <r>   -4.4538    1.0000 </r>
       <r>   -4.2891    1.0000 </r>
       <r>   -4.0521    1.0000 </r>
       <r>   -3.9068    1.0000 </r>
       <r>   -3.7632    1.0000 </r>
       <r>   -3.6135    1.0000 </r>
       <r>   -3.3735    1.0000 </r>
       <r>   -3.2489    1.0000 </r>
       <r>   -3.2186    1.0000 </r>
       <r>   -3.1189    1.0000 </r>
       <r>   -3.0718    1.0000 </r>
       <r>   -2.8137    1.0000 </r>
       <r>   -2.6764    1.0000 </r>
       <r>   -2.5654    1.0000 </r>
       <r>   -2.5441    1.0000 </r>
       <r>   -2.2706    1.0000 </r>
       <r>   -2.1644    1.0000 </r>
       <r>   -2.0060    1.0000 </r>
       <r>   -1.8931    1.0000 </r>
       <r>   -1.7950    1.0000 </r>
       <r>   -1.4168    1.0000 </r>
       <r>   -1.2710    1.0000 </r>
       <r>   -1.0688    1.0000 </r>
       <r>   -0.7356    1.0000 </r>
       <r>   -0.1272    1.0000 </r>
       <r>    0.1026    0.8137 </r>
       <r>    0.5578    0.0000 </r>
       <r>    0.6268    0.0000 </r>
       <r>    1.2426    0.0000 </r>
       <r>    1.4525    0.0000 </r>
       <r>    1.5917    0.0000 </r>
       <r>    1.8446    0.0000 </r>
       <r>    2.1769    0.0000 </r>
       <r>    2.2139    0.0000 </r>
       <r>    2.5321    0.0000 </r>
       <r>    2.5833    0.0000 </r>
       <r>    2.6826    0.0000 </r>
       <r>    2.8836    0.0000 </r>
       <r>    3.0152    0.0000 </r>
       <r>    3.2339    0.0000 </r>
      </set>
      <set comment="kpoint 12">
       <r>  -13.9465    1.0000 </r>
       <r>  -12.5089    1.0000 </r>
       <r>  -12.2356    1.0000 </r>
       <r>  -12.1363    1.0000 </r>
       <r>  -11.6693    1.0000 </r>
       <r>  -11.4450    1.0000 </r>
       <r>  -11.3250    1.0000 </r>
       <r>  -11.0069    1.0000 </r>
       <r>  -10.8375    1.0000 </r>
       <r>  -10.7332    1.0000 </r>
       <r>  -10.4175    1.0000 </r>
       <r>  -10.2007    1.0000 </r>
       <r>   -8.9963    1.0000 </r>
       <r>   -8.2576    1.0000 </r>
       <r>   -7.7348    1.0000 </r>
       <r>   -7.7131    1.0000 </r>
       <r>   -7.1389    1.0000 </r>
       <r>   -6.9866    1.0000 </r>
       <r>   -6.9092    1.0000 </r>
       <r>   -6.5894    1.0000 </r>
       <r>   -6.3040    1.0000 </r>
       <r>   -6.2088    1.0000 </r>
       <r>   -5.9457    1.0000 </r>
       <r>   -5.9024    1.0000 </r>
       <r>   -5.4066    1.0000 </r>
       <r>   -5.0088    1.0000 </r>
       <r>   -4.9556    1.0000 </r>
       <r>   -4.8176    1.0000 </r>
       <r>   -4.5302    1.0000 </r>
       <r>   -4.4209    1.0000 </r>
       <r>   -4.3559    1.0000 </r>
       <r>   -4.1615    1.0000 </r>
       <r>   -4.0350    1.0000 </r>
       <r>   -3.6876    1.0000 </r>
       <r>   -3.4288    1.0000 </r>
       <r>   -3.3564    1.0000 </r>
       <r>   -3.1529    1.0000 </r>
       <r>   -3.0609    1.0000 </r>
       <r>   -2.9994    1.0000 </r>
       <r>   -2.8877    1.0000 </r>
       <r>   -2.7686    1.0000 </r>
       <r>   -2.6898    1.0000 </r>
       <r>   -2.5584    1.0000 </r>
       <r>   -2.4242    1.0000 </r>
       <r>   -2.3019    1.0000 </r>
       <r>   -2.1619    1.0000 </r>
       <r>   -1.9748    1.0000 </r>
       <r>   -1.9000    1.0000 </r>
       <r>   -1.7727    1.0000 </r>
       <r>   -1.3402    1.0000 </r>
       <r>   -1.2019    1.0000 </r>
       <r>   -0.8266    1.0000 </r>
       <r>   -0.3916    1.0000 </r>
       <r>   -0.2008    1.0000 </r>
       <r>    0.1518    0.5777 </r>
       <r>    0.4720    0.0000 </r>
       <r>    0.8563    0.0000 </r>
       <r>    1.2074    0.0000 </r>
       <r>    1.2636    0.0000 </r>
       <r>    1.5454    0.0000 </r>
       <r>    1.8351    0.0000 </r>
       <r>    2.1268    0.0000 </r>
       <r>    2.2971    0.0000 </r>
       <r>    2.3244    0.0000 </r>
       <r>    2.4372    0.0000 </r>
       <r>    2.5967    0.0000 </r>
       <r>    2.7829    0.0000 </r>
       <r>    2.9638    0.0000 </r>
      </set>
      <set comment="kpoint 13">
       <r>  -13.7748    1.0000 </r>
       <r>  -12.0053    1.0000 </r>
       <r>  -11.7856    1.0000 </r>
       <r>  -11.6917    1.0000 </r>
       <r>  -11.2735    1.0000 </r>
       <r>  -11.0897    1.0000 </r>
       <r>  -10.9975    1.0000 </r>
       <r>  -10.7493    1.0000 </r>
       <r>  -10.6267    1.0000 </r>
       <r>  -10.5939    1.0000 </r>
       <r>  -10.4937    1.0000 </r>
       <r>   -9.8977    1.0000 </r>
       <r>   -8.9866    1.0000 </r>
       <r>   -8.5790    1.0000 </r>
       <r>   -8.1363    1.0000 </r>
       <r>   -7.9221    1.0000 </r>
       <r>   -7.8052    1.0000 </r>
       <r>   -7.4435    1.0000 </r>
       <r>   -7.3789    1.0000 </r>
       <r>   -7.0323    1.0000 </r>
       <r>   -6.7299    1.0000 </r>
       <r>   -6.7196    1.0000 </r>
       <r>   -6.6824    1.0000 </r>
       <r>   -6.2125    1.0000 </r>
       <r>   -5.3702    1.0000 </r>
       <r>   -5.3046    1.0000 </r>
       <r>   -4.9982    1.0000 </r>
       <r>   -4.8122    1.0000 </r>
       <r>   -4.5757    1.0000 </r>
       <r>   -4.4111    1.0000 </r>
       <r>   -4.1560    1.0000 </r>
       <r>   -4.0175    1.0000 </r>
       <r>   -3.8859    1.0000 </r>
       <r>   -3.5560    1.0000 </r>
       <r>   -3.3927    1.0000 </r>
       <r>   -3.3677    1.0000 </r>
       <r>   -3.3067    1.0000 </r>
       <r>   -3.2175    1.0000 </r>
       <r>   -3.1507    1.0000 </r>
       <r>   -2.9443    1.0000 </r>
       <r>   -2.8903    1.0000 </r>
       <r>   -2.7976    1.0000 </r>
       <r>   -2.7018    1.0000 </r>
       <r>   -2.5631    1.0000 </r>
       <r>   -2.3590    1.0000 </r>
       <r>   -2.2675    1.0000 </r>
       <r>   -2.1005    1.0000 </r>
       <r>   -2.0775    1.0000 </r>
       <r>   -1.8768    1.0000 </r>
       <r>   -1.5178    1.0000 </r>
       <r>   -1.2853    1.0000 </r>
       <r>   -0.9445    1.0000 </r>
       <r>   -0.5438    1.0000 </r>
       <r>   -0.4738    1.0000 </r>
       <r>   -0.1104    1.0000 </r>
       <r>    0.4400    0.0001 </r>
       <r>    0.5474    0.0000 </r>
       <r>    1.1496    0.0000 </r>
       <r>    1.2602    0.0000 </r>
       <r>    1.3245    0.0000 </r>
       <r>    1.6745    0.0000 </r>
       <r>    1.7998    0.0000 </r>
       <r>    2.0095    0.0000 </r>
       <r>    2.0763    0.0000 </r>
       <r>    2.2081    0.0000 </r>
       <r>    2.5750    0.0000 </r>
       <r>    2.6240    0.0000 </r>
       <r>    2.8210    0.0000 </r>
      </set>
      <set comment="kpoint 14">
       <r>  -13.6704    1.0000 </r>
       <r>  -11.4557    1.0000 </r>
       <r>  -11.2905    1.0000 </r>
       <r>  -11.2285    1.0000 </r>
       <r>  -10.9824    1.0000 </r>
       <r>  -10.8983    1.0000 </r>
       <r>  -10.8805    1.0000 </r>
       <r>  -10.7631    1.0000 </r>
       <r>  -10.7261    1.0000 </r>
       <r>  -10.6466    1.0000 </r>
       <r>  -10.6057    1.0000 </r>
       <r>   -9.7067    1.0000 </r>
       <r>   -8.8140    1.0000 </r>
       <r>   -8.5804    1.0000 </r>
       <r>   -8.4255    1.0000 </r>
       <r>   -8.3529    1.0000 </r>
       <r>   -8.0208    1.0000 </r>
       <r>   -7.7752    1.0000 </r>
       <r>   -7.5398    1.0000 </r>
       <r>   -7.4351    1.0000 </r>
       <r>   -7.3385    1.0000 </r>
       <r>   -7.1678    1.0000 </r>
       <r>   -7.1569    1.0000 </r>
       <r>   -6.1989    1.0000 </r>
       <r>   -5.5029    1.0000 </r>
       <r>   -5.0547    1.0000 </r>
       <r>   -5.0132    1.0000 </r>
       <r>   -4.4999    1.0000 </r>
       <r>   -4.2950    1.0000 </r>
       <r>   -4.1748    1.0000 </r>
       <r>   -4.1300    1.0000 </r>
       <r>   -3.9592    1.0000 </r>
       <r>   -3.8147    1.0000 </r>
       <r>   -3.6856    1.0000 </r>
       <r>   -3.6501    1.0000 </r>
       <r>   -3.5400    1.0000 </r>
       <r>   -3.5016    1.0000 </r>
       <r>   -3.2912    1.0000 </r>
       <r>   -3.2015    1.0000 </r>
       <r>   -3.0279    1.0000 </r>
       <r>   -3.0013    1.0000 </r>
       <r>   -2.8265    1.0000 </r>
       <r>   -2.6766    1.0000 </r>
       <r>   -2.6337    1.0000 </r>
       <r>   -2.6139    1.0000 </r>
       <r>   -2.3471    1.0000 </r>
       <r>   -2.1662    1.0000 </r>
       <r>   -2.1425    1.0000 </r>
       <r>   -1.7396    1.0000 </r>
       <r>   -1.5897    1.0000 </r>
       <r>   -1.3627    1.0000 </r>
       <r>   -0.9946    1.0000 </r>
       <r>   -0.7140    1.0000 </r>
       <r>   -0.4498    1.0000 </r>
       <r>   -0.1693    1.0000 </r>
       <r>    0.3742    0.0016 </r>
       <r>    0.4978    0.0000 </r>
       <r>    1.1256    0.0000 </r>
       <r>    1.4015    0.0000 </r>
       <r>    1.4659    0.0000 </r>
       <r>    1.5226    0.0000 </r>
       <r>    1.6734    0.0000 </r>
       <r>    1.7776    0.0000 </r>
       <r>    1.9897    0.0000 </r>
       <r>    2.1509    0.0000 </r>
       <r>    2.4130    0.0000 </r>
       <r>    2.4659    0.0000 </r>
       <r>    2.6005    0.0000 </r>
      </set>
      <set comment="kpoint 15">
       <r>  -13.6708    1.0000 </r>
       <r>  -11.5606    1.0000 </r>
       <r>  -11.2204    1.0000 </r>
       <r>  -11.0972    1.0000 </r>
       <r>  -10.9562    1.0000 </r>
       <r>  -10.8897    1.0000 </r>
       <r>  -10.8345    1.0000 </r>
       <r>  -10.7829    1.0000 </r>
       <r>  -10.7701    1.0000 </r>
       <r>  -10.7274    1.0000 </r>
       <r>  -10.6416    1.0000 </r>
       <r>   -9.7139    1.0000 </r>
       <r>   -8.8299    1.0000 </r>
       <r>   -8.7820    1.0000 </r>
       <r>   -8.4589    1.0000 </r>
       <r>   -7.9813    1.0000 </r>
       <r>   -7.9695    1.0000 </r>
       <r>   -7.8883    1.0000 </r>
       <r>   -7.6278    1.0000 </r>
       <r>   -7.3160    1.0000 </r>
       <r>   -7.3037    1.0000 </r>
       <r>   -7.2457    1.0000 </r>
       <r>   -7.1700    1.0000 </r>
       <r>   -6.1600    1.0000 </r>
       <r>   -5.5159    1.0000 </r>
       <r>   -5.0030    1.0000 </r>
       <r>   -4.7594    1.0000 </r>
       <r>   -4.6038    1.0000 </r>
       <r>   -4.3964    1.0000 </r>
       <r>   -4.1968    1.0000 </r>
       <r>   -4.0511    1.0000 </r>
       <r>   -4.0224    1.0000 </r>
       <r>   -3.9136    1.0000 </r>
       <r>   -3.8934    1.0000 </r>
       <r>   -3.6795    1.0000 </r>
       <r>   -3.6537    1.0000 </r>
       <r>   -3.5004    1.0000 </r>
       <r>   -3.3793    1.0000 </r>
       <r>   -3.2065    1.0000 </r>
       <r>   -2.9779    1.0000 </r>
       <r>   -2.8789    1.0000 </r>
       <r>   -2.8243    1.0000 </r>
       <r>   -2.7319    1.0000 </r>
       <r>   -2.7047    1.0000 </r>
       <r>   -2.4312    1.0000 </r>
       <r>   -2.3719    1.0000 </r>
       <r>   -2.1949    1.0000 </r>
       <r>   -2.1288    1.0000 </r>
       <r>   -1.7300    1.0000 </r>
       <r>   -1.5352    1.0000 </r>
       <r>   -1.2935    1.0000 </r>
       <r>   -0.9124    1.0000 </r>
       <r>   -0.7423    1.0000 </r>
       <r>   -0.3994    1.0000 </r>
       <r>   -0.1524    1.0000 </r>
       <r>    0.4341    0.0001 </r>
       <r>    0.5940    0.0000 </r>
       <r>    1.1382    0.0000 </r>
       <r>    1.3506    0.0000 </r>
       <r>    1.6186    0.0000 </r>
       <r>    1.6844    0.0000 </r>
       <r>    1.7731    0.0000 </r>
       <r>    1.8022    0.0000 </r>
       <r>    2.0255    0.0000 </r>
       <r>    2.2158    0.0000 </r>
       <r>    2.3433    0.0000 </r>
       <r>    2.4834    0.0000 </r>
       <r>    2.5788    0.0000 </r>
      </set>
      <set comment="kpoint 16">
       <r>  -13.7763    1.0000 </r>
       <r>  -12.1272    1.0000 </r>
       <r>  -11.6586    1.0000 </r>
       <r>  -11.5114    1.0000 </r>
       <r>  -11.2730    1.0000 </r>
       <r>  -11.1164    1.0000 </r>
       <r>  -11.0325    1.0000 </r>
       <r>  -10.9474    1.0000 </r>
       <r>  -10.6563    1.0000 </r>
       <r>  -10.5769    1.0000 </r>
       <r>  -10.4764    1.0000 </r>
       <r>   -9.8771    1.0000 </r>
       <r>   -8.7680    1.0000 </r>
       <r>   -8.6907    1.0000 </r>
       <r>   -8.5160    1.0000 </r>
       <r>   -7.7683    1.0000 </r>
       <r>   -7.5664    1.0000 </r>
       <r>   -7.4631    1.0000 </r>
       <r>   -7.3548    1.0000 </r>
       <r>   -6.9908    1.0000 </r>
       <r>   -6.8364    1.0000 </r>
       <r>   -6.6922    1.0000 </r>
       <r>   -6.6398    1.0000 </r>
       <r>   -6.1396    1.0000 </r>
       <r>   -5.3293    1.0000 </r>
       <r>   -5.0773    1.0000 </r>
       <r>   -4.9620    1.0000 </r>
       <r>   -4.8729    1.0000 </r>
       <r>   -4.5188    1.0000 </r>
       <r>   -4.4228    1.0000 </r>
       <r>   -4.2966    1.0000 </r>
       <r>   -4.1508    1.0000 </r>
       <r>   -4.0919    1.0000 </r>
       <r>   -3.7484    1.0000 </r>
       <r>   -3.6777    1.0000 </r>
       <r>   -3.4634    1.0000 </r>
       <r>   -3.4203    1.0000 </r>
       <r>   -3.2018    1.0000 </r>
       <r>   -3.1349    1.0000 </r>
       <r>   -3.0645    1.0000 </r>
       <r>   -2.7732    1.0000 </r>
       <r>   -2.7260    1.0000 </r>
       <r>   -2.6286    1.0000 </r>
       <r>   -2.5335    1.0000 </r>
       <r>   -2.3777    1.0000 </r>
       <r>   -2.2595    1.0000 </r>
       <r>   -2.0703    1.0000 </r>
       <r>   -1.9704    1.0000 </r>
       <r>   -1.8407    1.0000 </r>
       <r>   -1.4383    1.0000 </r>
       <r>   -1.1866    1.0000 </r>
       <r>   -0.8493    1.0000 </r>
       <r>   -0.5582    1.0000 </r>
       <r>   -0.3149    1.0000 </r>
       <r>   -0.0695    0.9996 </r>
       <r>    0.5785    0.0000 </r>
       <r>    0.7715    0.0000 </r>
       <r>    1.2769    0.0000 </r>
       <r>    1.3966    0.0000 </r>
       <r>    1.6983    0.0000 </r>
       <r>    1.8250    0.0000 </r>
       <r>    1.8893    0.0000 </r>
       <r>    2.1031    0.0000 </r>
       <r>    2.1891    0.0000 </r>
       <r>    2.2679    0.0000 </r>
       <r>    2.3982    0.0000 </r>
       <r>    2.5113    0.0000 </r>
       <r>    2.5887    0.0000 </r>
      </set>
      <set comment="kpoint 17">
       <r>  -13.9493    1.0000 </r>
       <r>  -12.6213    1.0000 </r>
       <r>  -12.0872    1.0000 </r>
       <r>  -11.9735    1.0000 </r>
       <r>  -11.6739    1.0000 </r>
       <r>  -11.4847    1.0000 </r>
       <r>  -11.3734    1.0000 </r>
       <r>  -11.2565    1.0000 </r>
       <r>  -10.7993    1.0000 </r>
       <r>  -10.7206    1.0000 </r>
       <r>  -10.4472    1.0000 </r>
       <r>  -10.1719    1.0000 </r>
       <r>   -8.5805    1.0000 </r>
       <r>   -8.4121    1.0000 </r>
       <r>   -8.2123    1.0000 </r>
       <r>   -7.3423    1.0000 </r>
       <r>   -7.1770    1.0000 </r>
       <r>   -7.0241    1.0000 </r>
       <r>   -6.8982    1.0000 </r>
       <r>   -6.5262    1.0000 </r>
       <r>   -6.2280    1.0000 </r>
       <r>   -6.1819    1.0000 </r>
       <r>   -5.9984    1.0000 </r>
       <r>   -5.8646    1.0000 </r>
       <r>   -5.1762    1.0000 </r>
       <r>   -5.1485    1.0000 </r>
       <r>   -4.9139    1.0000 </r>
       <r>   -4.6805    1.0000 </r>
       <r>   -4.6409    1.0000 </r>
       <r>   -4.5046    1.0000 </r>
       <r>   -4.3327    1.0000 </r>
       <r>   -4.2693    1.0000 </r>
       <r>   -4.1729    1.0000 </r>
       <r>   -3.8552    1.0000 </r>
       <r>   -3.6363    1.0000 </r>
       <r>   -3.4799    1.0000 </r>
       <r>   -3.1586    1.0000 </r>
       <r>   -3.0972    1.0000 </r>
       <r>   -3.0705    1.0000 </r>
       <r>   -2.8706    1.0000 </r>
       <r>   -2.8203    1.0000 </r>
       <r>   -2.6537    1.0000 </r>
       <r>   -2.5922    1.0000 </r>
       <r>   -2.3607    1.0000 </r>
       <r>   -2.1799    1.0000 </r>
       <r>   -2.0458    1.0000 </r>
       <r>   -1.8927    1.0000 </r>
       <r>   -1.8857    1.0000 </r>
       <r>   -1.7295    1.0000 </r>
       <r>   -1.3363    1.0000 </r>
       <r>   -1.1476    1.0000 </r>
       <r>   -0.7919    1.0000 </r>
       <r>   -0.3046    1.0000 </r>
       <r>   -0.1195    1.0000 </r>
       <r>    0.1049    0.8046 </r>
       <r>    0.8023    0.0000 </r>
       <r>    0.9775    0.0000 </r>
       <r>    1.5041    0.0000 </r>
       <r>    1.6130    0.0000 </r>
       <r>    1.8452    0.0000 </r>
       <r>    1.9506    0.0000 </r>
       <r>    1.9906    0.0000 </r>
       <r>    2.2319    0.0000 </r>
       <r>    2.3576    0.0000 </r>
       <r>    2.4444    0.0000 </r>
       <r>    2.6371    0.0000 </r>
       <r>    2.6851    0.0000 </r>
       <r>    2.7528    0.0000 </r>
      </set>
      <set comment="kpoint 18">
       <r>  -14.1389    1.0000 </r>
       <r>  -13.0166    1.0000 </r>
       <r>  -12.4513    1.0000 </r>
       <r>  -12.3778    1.0000 </r>
       <r>  -12.0265    1.0000 </r>
       <r>  -11.8161    1.0000 </r>
       <r>  -11.6903    1.0000 </r>
       <r>  -11.5524    1.0000 </r>
       <r>  -11.0552    1.0000 </r>
       <r>  -10.9588    1.0000 </r>
       <r>  -10.6266    1.0000 </r>
       <r>  -10.4760    1.0000 </r>
       <r>   -8.4251    1.0000 </r>
       <r>   -8.2127    1.0000 </r>
       <r>   -7.8073    1.0000 </r>
       <r>   -7.1719    1.0000 </r>
       <r>   -6.8364    1.0000 </r>
       <r>   -6.7094    1.0000 </r>
       <r>   -6.6618    1.0000 </r>
       <r>   -6.3602    1.0000 </r>
       <r>   -5.7844    1.0000 </r>
       <r>   -5.7631    1.0000 </r>
       <r>   -5.3741    1.0000 </r>
       <r>   -5.3492    1.0000 </r>
       <r>   -4.8602    1.0000 </r>
       <r>   -4.8253    1.0000 </r>
       <r>   -4.6261    1.0000 </r>
       <r>   -4.5404    1.0000 </r>
       <r>   -4.2789    1.0000 </r>
       <r>   -4.1929    1.0000 </r>
       <r>   -4.0912    1.0000 </r>
       <r>   -3.9602    1.0000 </r>
       <r>   -3.8212    1.0000 </r>
       <r>   -3.7754    1.0000 </r>
       <r>   -3.5121    1.0000 </r>
       <r>   -3.4736    1.0000 </r>
       <r>   -3.2587    1.0000 </r>
       <r>   -3.1137    1.0000 </r>
       <r>   -3.0048    1.0000 </r>
       <r>   -2.7675    1.0000 </r>
       <r>   -2.6523    1.0000 </r>
       <r>   -2.5353    1.0000 </r>
       <r>   -2.4608    1.0000 </r>
       <r>   -2.2711    1.0000 </r>
       <r>   -2.0838    1.0000 </r>
       <r>   -1.9155    1.0000 </r>
       <r>   -1.8421    1.0000 </r>
       <r>   -1.7499    1.0000 </r>
       <r>   -1.4847    1.0000 </r>
       <r>   -1.1675    1.0000 </r>
       <r>   -1.0981    1.0000 </r>
       <r>   -0.7287    1.0000 </r>
       <r>   -0.0795    0.9997 </r>
       <r>    0.0821    0.8813 </r>
       <r>    0.3483    0.0049 </r>
       <r>    1.0887    0.0000 </r>
       <r>    1.2165    0.0000 </r>
       <r>    1.7296    0.0000 </r>
       <r>    1.8204    0.0000 </r>
[...]
       <r>    2.6741    0.0000 </r>
      </set>
      <set comment="kpoint 54">
       <r>  -13.6706    1.0000 </r>
       <r>  -11.5154    1.0000 </r>
       <r>  -11.2213    1.0000 </r>
       <r>  -11.1952    1.0000 </r>
       <r>  -10.9725    1.0000 </r>
       <r>  -10.8957    1.0000 </r>
       <r>  -10.8741    1.0000 </r>
       <r>  -10.7745    1.0000 </r>
       <r>  -10.7479    1.0000 </r>
       <r>  -10.6481    1.0000 </r>
       <r>  -10.6361    1.0000 </r>
       <r>   -9.7145    1.0000 </r>
       <r>   -8.7849    1.0000 </r>
       <r>   -8.6908    1.0000 </r>
       <r>   -8.4657    1.0000 </r>
       <r>   -8.1445    1.0000 </r>
       <r>   -8.0364    1.0000 </r>
       <r>   -7.8215    1.0000 </r>
       <r>   -7.5840    1.0000 </r>
       <r>   -7.4173    1.0000 </r>
       <r>   -7.3136    1.0000 </r>
       <r>   -7.1982    1.0000 </r>
       <r>   -7.1608    1.0000 </r>
       <r>   -6.1444    1.0000 </r>
       <r>   -5.3980    1.0000 </r>
       <r>   -5.1386    1.0000 </r>
       <r>   -4.9702    1.0000 </r>
       <r>   -4.5049    1.0000 </r>
       <r>   -4.3434    1.0000 </r>
       <r>   -4.2132    1.0000 </r>
       <r>   -4.0939    1.0000 </r>
       <r>   -3.9804    1.0000 </r>
       <r>   -3.8142    1.0000 </r>
       <r>   -3.7953    1.0000 </r>
       <r>   -3.6731    1.0000 </r>
       <r>   -3.5863    1.0000 </r>
       <r>   -3.4942    1.0000 </r>
       <r>   -3.2850    1.0000 </r>
       <r>   -3.2187    1.0000 </r>
       <r>   -3.0509    1.0000 </r>
       <r>   -2.9886    1.0000 </r>
       <r>   -2.8157    1.0000 </r>
       <r>   -2.7168    1.0000 </r>
       <r>   -2.6035    1.0000 </r>
       <r>   -2.4283    1.0000 </r>
       <r>   -2.3691    1.0000 </r>
       <r>   -2.2136    1.0000 </r>
       <r>   -2.1120    1.0000 </r>
       <r>   -1.7462    1.0000 </r>
       <r>   -1.5607    1.0000 </r>
       <r>   -1.3431    1.0000 </r>
       <r>   -0.9239    1.0000 </r>
       <r>   -0.8309    1.0000 </r>
       <r>   -0.4225    1.0000 </r>
       <r>   -0.2161    1.0000 </r>
       <r>    0.3962    0.0006 </r>
       <r>    0.4732    0.0000 </r>
       <r>    1.1482    0.0000 </r>
       <r>    1.3293    0.0000 </r>
       <r>    1.5530    0.0000 </r>
       <r>    1.6284    0.0000 </r>
       <r>    1.8585    0.0000 </r>
       <r>    1.8835    0.0000 </r>
       <r>    2.0315    0.0000 </r>
       <r>    2.1282    0.0000 </r>
       <r>    2.3310    0.0000 </r>
       <r>    2.4307    0.0000 </r>
       <r>    2.5051    0.0000 </r>
      </set>
     </set>
    </set>
   </array>
  </eigenvalues>
  <separator name="orbital magnetization" >
   <v name="MAGDIPOLOUT">      0.00000000      0.00000000      0.00000000</v>
  </separator>
  <dos>
   <i name="efermi">      0.16562350 </i>
   <total>
    <array>
     <dimension dim="1">gridpoints</dimension>
     <dimension dim="2">spin</dimension>
     <field>energy</field>
     <field>total</field>
     <field>integrated</field>
     <set>
      <set comment="spin 1">
       <r>   -15.4503     0.0000     0.0000 </r>
       <r>   -15.3847     0.0000     0.0000 </r>
       <r>   -15.3191     0.0000     0.0000 </r>
       <r>   -15.2535     0.0000     0.0000 </r>
       <r>   -15.1879     0.0000     0.0000 </r>
       <r>   -15.1223     0.0000     0.0000 </r>
       <r>   -15.0567     0.0000     0.0000 </r>
       <r>   -14.9911     0.0000     0.0000 </r>
       <r>   -14.9254     0.0000     0.0000 </r>
       <r>   -14.8598     0.0000     0.0000 </r>
       <r>   -14.7942     0.0000     0.0000 </r>
       <r>   -14.7286     0.0001     0.0000 </r>
       <r>   -14.6630     0.0031     0.0002 </r>
       <r>   -14.5974     0.0516     0.0036 </r>
       <r>   -14.5318     0.3964     0.0296 </r>
       <r>   -14.4661     1.4569     0.1252 </r>
       <r>   -14.4005     2.7207     0.3037 </r>
       <r>   -14.3349     3.0219     0.5020 </r>
       <r>   -14.2693     2.5219     0.6675 </r>
       <r>   -14.2037     1.9440     0.7950 </r>
       <r>   -14.1381     1.8876     0.9189 </r>
       <r>   -14.0725     1.7415     1.0331 </r>
       <r>   -14.0068     1.4647     1.1292 </r>
       <r>   -13.9412     1.7562     1.2445 </r>
       <r>   -13.8756     1.7937     1.3622 </r>
       <r>   -13.8100     1.8051     1.4806 </r>
       <r>   -13.7444     2.3719     1.6362 </r>
       <r>   -13.6788     2.6358     1.8092 </r>
       <r>   -13.6132     2.2197     1.9548 </r>
       <r>   -13.5475     1.7524     2.0698 </r>
       <r>   -13.4819     1.8799     2.1931 </r>
       <r>   -13.4163     2.0357     2.3267 </r>
       <r>   -13.3507     1.9407     2.4540 </r>
       <r>   -13.2851     1.8525     2.5756 </r>
       <r>   -13.2195     1.7282     2.6890 </r>
       <r>   -13.1539     1.5718     2.7921 </r>
       <r>   -13.0882     1.7041     2.9039 </r>
       <r>   -13.0226     2.8147     3.0886 </r>
       <r>   -12.9570     4.5399     3.3865 </r>
       <r>   -12.8914     5.2151     3.7287 </r>
       <r>   -12.8258     4.4101     4.0180 </r>
       <r>   -12.7602     3.5040     4.2480 </r>
       <r>   -12.6946     3.2010     4.4580 </r>
       <r>   -12.6289     3.4379     4.6836 </r>
       <r>   -12.5633     4.1913     4.9586 </r>
       <r>   -12.4977     5.1622     5.2973 </r>
       <r>   -12.4321     5.3108     5.6458 </r>
       <r>   -12.3665     4.4009     5.9345 </r>
       <r>   -12.3009     4.3542     6.2202 </r>
       <r>   -12.2353     5.3339     6.5702 </r>
       <r>   -12.1696     6.2455     6.9800 </r>
       <r>   -12.1040     7.8486     7.4950 </r>
       <r>   -12.0384     9.4490     8.1149 </r>
       <r>   -11.9728     8.5156     8.6737 </r>
       <r>   -11.9072     6.1448     9.0769 </r>
       <r>   -11.8416     5.2270     9.4198 </r>
       <r>   -11.7760     5.6453     9.7902 </r>
       <r>   -11.7104     6.7623    10.2339 </r>
       <r>   -11.6447     7.8969    10.7521 </r>
       <r>   -11.5791     7.7584    11.2612 </r>
       <r>   -11.5135     7.6129    11.7607 </r>
       <r>   -11.4479     7.9696    12.2836 </r>
       <r>   -11.3823     8.4525    12.8382 </r>
       <r>   -11.3167     9.8077    13.4817 </r>
       <r>   -11.2511    10.5753    14.1756 </r>
       <r>   -11.1854     9.5101    14.7996 </r>
       <r>   -11.1198     8.4076    15.3512 </r>
       <r>   -11.0542     9.2829    15.9603 </r>
       <r>   -10.9886    11.5089    16.7155 </r>
       <r>   -10.9230    12.9951    17.5681 </r>
       <r>   -10.8574    13.3970    18.4472 </r>
       <r>   -10.7918    13.2981    19.3197 </r>
       <r>   -10.7261    13.0154    20.1737 </r>
       <r>   -10.6605    12.3509    20.9841 </r>
       <r>   -10.5949    10.5605    21.6770 </r>
       <r>   -10.5293     7.9532    22.1989 </r>
       <r>   -10.4637     6.2840    22.6112 </r>
       <r>   -10.3981     4.5305    22.9084 </r>
       <r>   -10.3325     2.1182    23.0474 </r>
       <r>   -10.2668     0.9954    23.1127 </r>
       <r>   -10.2012     1.4040    23.2049 </r>
       <r>   -10.1356     1.6166    23.3109 </r>
       <r>   -10.0700     0.9031    23.3702 </r>
       <r>   -10.0044     0.4290    23.3983 </r>
       <r>    -9.9388     0.8950    23.4571 </r>
       <r>    -9.8732     1.6624    23.5661 </r>
       <r>    -9.8075     1.7063    23.6781 </r>
       <r>    -9.7419     1.6552    23.7867 </r>
       <r>    -9.6763     1.7619    23.9023 </r>
       <r>    -9.6107     1.1138    23.9754 </r>
       <r>    -9.5451     0.3290    23.9970 </r>
       <r>    -9.4795     0.0436    23.9998 </r>
       <r>    -9.4139     0.0026    24.0000 </r>
       <r>    -9.3482     0.0001    24.0000 </r>
       <r>    -9.2826     0.0000    24.0000 </r>
       <r>    -9.2170     0.0018    24.0001 </r>
       <r>    -9.1514     0.0299    24.0021 </r>
       <r>    -9.0858     0.2327    24.0174 </r>
       <r>    -9.0202     0.8805    24.0751 </r>
       <r>    -8.9546     1.8196    24.1945 </r>
       <r>    -8.8889     2.7665    24.3760 </r>
       <r>    -8.8233     4.1669    24.6494 </r>
       <r>    -8.7577     5.4298    25.0057 </r>
       <r>    -8.6921     5.4456    25.3630 </r>
       <r>    -8.6265     4.7999    25.6780 </r>
       <r>    -8.5609     4.4165    25.9677 </r>
       <r>    -8.4953     4.5544    26.2666 </r>
       <r>    -8.4297     5.1203    26.6025 </r>
       <r>    -8.3640     4.9612    26.9281 </r>
       <r>    -8.2984     4.0751    27.1954 </r>
       <r>    -8.2328     4.6468    27.5003 </r>
       <r>    -8.1672     6.9630    27.9572 </r>
       <r>    -8.1016     8.3145    28.5028 </r>
       <r>    -8.0360     7.0133    28.9629 </r>
       <r>    -7.9704     4.9168    29.2855 </r>
       <r>    -7.9047     4.0346    29.5503 </r>
       <r>    -7.8391     4.7388    29.8612 </r>
       <r>    -7.7735     5.8218    30.2432 </r>
       <r>    -7.7079     5.4572    30.6012 </r>
       <r>    -7.6423     4.8349    30.9185 </r>
       <r>    -7.5767     5.9247    31.3072 </r>
       <r>    -7.5111     7.6434    31.8087 </r>
       <r>    -7.4454     8.6372    32.3755 </r>
       <r>    -7.3798     9.0313    32.9680 </r>
       <r>    -7.3142     8.9424    33.5548 </r>
       <r>    -7.2486     8.2923    34.0989 </r>
       <r>    -7.1830     7.8223    34.6121 </r>
       <r>    -7.1174     7.2496    35.0878 </r>
       <r>    -7.0518     5.8425    35.4712 </r>
       <r>    -6.9861     4.9035    35.7929 </r>
       <r>    -6.9205     4.8613    36.1119 </r>
       <r>    -6.8549     5.6390    36.4819 </r>
       <r>    -6.7893     8.2846    37.0254 </r>
       <r>    -6.7237    12.7280    37.8606 </r>
       <r>    -6.6581    14.8950    38.8379 </r>
       <r>    -6.5925    12.4373    39.6540 </r>
       <r>    -6.5268     8.8690    40.2359 </r>
       <r>    -6.4612     6.4037    40.6561 </r>
       <r>    -6.3956     4.6858    40.9635 </r>
       <r>    -6.3300     4.1628    41.2367 </r>
       <r>    -6.2644     5.2607    41.5818 </r>
       <r>    -6.1988     7.2846    42.0598 </r>
       <r>    -6.1332     7.3511    42.5421 </r>
       <r>    -6.0675     4.9300    42.8656 </r>
       <r>    -6.0019     3.8554    43.1186 </r>
       <r>    -5.9363     4.5796    43.4191 </r>
       <r>    -5.8707     5.0852    43.7527 </r>
       <r>    -5.8051     5.4776    44.1122 </r>
       <r>    -5.7395     5.7460    44.4892 </r>
       <r>    -5.6739     5.3314    44.8390 </r>
       <r>    -5.6082     5.1179    45.1748 </r>
       <r>    -5.5426     5.4386    45.5316 </r>
       <r>    -5.4770     5.0851    45.8653 </r>
       <r>    -5.4114     5.1219    46.2014 </r>
       <r>    -5.3458     6.4488    46.6245 </r>
       <r>    -5.2802     6.4366    47.0468 </r>
       <r>    -5.2146     5.0986    47.3814 </r>
       <r>    -5.1490     4.5509    47.6800 </r>
       <r>    -5.0833     5.2826    48.0266 </r>
       <r>    -5.0177     6.8652    48.4770 </r>
       <r>    -4.9521     7.9728    49.0002 </r>
       <r>    -4.8865     8.0903    49.5310 </r>
       <r>    -4.8209     8.1027    50.0626 </r>
       <r>    -4.7553     8.4915    50.6198 </r>
       <r>    -4.6897     9.3596    51.2339 </r>
       <r>    -4.6240    10.1355    51.8990 </r>
       <r>    -4.5584    10.2507    52.5715 </r>
       <r>    -4.4928    10.2273    53.2426 </r>
       <r>    -4.4272    10.6741    53.9430 </r>
       <r>    -4.3616    11.8239    54.7188 </r>
       <r>    -4.2960    12.4897    55.5383 </r>
       <r>    -4.2304    12.6670    56.3694 </r>
       <r>    -4.1647    13.9976    57.2879 </r>
       <r>    -4.0991    15.5471    58.3080 </r>
       <r>    -4.0335    15.0443    59.2951 </r>
       <r>    -3.9679    12.8213    60.1363 </r>
       <r>    -3.9023    10.5405    60.8279 </r>
       <r>    -3.8367     9.8760    61.4759 </r>
       <r>    -3.7711    11.4983    62.2304 </r>
       <r>    -3.7054    14.0344    63.1512 </r>
       <r>    -3.6398    15.1521    64.1454 </r>
       <r>    -3.5742    14.6751    65.1083 </r>
       <r>    -3.5086    14.6074    66.0668 </r>
       <r>    -3.4430    14.7104    67.0320 </r>
       <r>    -3.3774    13.7606    67.9349 </r>
       <r>    -3.3118    12.6018    68.7617 </r>
       <r>    -3.2461    13.5060    69.6479 </r>
       <r>    -3.1805    15.8854    70.6902 </r>
       <r>    -3.1149    18.0537    71.8748 </r>
       <r>    -3.0493    19.5705    73.1589 </r>
       <r>    -2.9837    19.1778    74.4172 </r>
       <r>    -2.9181    16.9614    75.5301 </r>
       <r>    -2.8525    15.4149    76.5416 </r>
       <r>    -2.7868    15.6972    77.5715 </r>
       <r>    -2.7212    17.3582    78.7105 </r>
       <r>    -2.6556    18.9221    79.9520 </r>
       <r>    -2.5900    18.8374    81.1880 </r>
       <r>    -2.5244    16.9629    82.3010 </r>
       <r>    -2.4588    14.9052    83.2790 </r>
       <r>    -2.3932    14.8378    84.2526 </r>
       <r>    -2.3275    15.4656    85.2673 </r>
       <r>    -2.2619    15.7384    86.3000 </r>
       <r>    -2.1963    16.7799    87.4010 </r>
       <r>    -2.1307    17.7591    88.5662 </r>
       <r>    -2.0651    17.1635    89.6924 </r>
       <r>    -1.9995    15.5253    90.7111 </r>
       <r>    -1.9339    14.9153    91.6897 </r>
       <r>    -1.8683    15.7942    92.7261 </r>
       <r>    -1.8026    15.4296    93.7385 </r>
       <r>    -1.7370    12.9804    94.5902 </r>
       <r>    -1.6714     9.4055    95.2073 </r>
       <r>    -1.6058     7.2664    95.6841 </r>
       <r>    -1.5402     8.1220    96.2170 </r>
       <r>    -1.4746     9.5559    96.8440 </r>
       <r>    -1.4090     9.9196    97.4948 </r>
       <r>    -1.3433    10.3245    98.1723 </r>
       <r>    -1.2777    10.6568    98.8715 </r>
       <r>    -1.2121    10.3153    99.5483 </r>
       <r>    -1.1465     9.7099   100.1854 </r>
       <r>    -1.0809     8.2247   100.7251 </r>
       <r>    -1.0153     6.8592   101.1752 </r>
       <r>    -0.9497     7.6671   101.6782 </r>
       <r>    -0.8840     9.4477   102.2981 </r>
       <r>    -0.8184     9.9112   102.9484 </r>
       <r>    -0.7528     8.7854   103.5249 </r>
       <r>    -0.6872     6.6117   103.9587 </r>
       <r>    -0.6216     4.4806   104.2527 </r>
       <r>    -0.5560     3.3865   104.4749 </r>
       <r>    -0.4904     3.6051   104.7115 </r>
       <r>    -0.4247     4.2468   104.9901 </r>
       <r>    -0.3591     4.0012   105.2526 </r>
       <r>    -0.2935     3.2028   105.4628 </r>
       <r>    -0.2279     3.3085   105.6799 </r>
       <r>    -0.1623     4.5804   105.9804 </r>
       <r>    -0.0967     5.7024   106.3546 </r>
       <r>    -0.0311     6.0293   106.7502 </r>
       <r>     0.0346     6.5041   107.1769 </r>
       <r>     0.1002     6.8218   107.6245 </r>
       <r>     0.1658     5.7342   108.0008 </r>
       <r>     0.2314     4.0786   108.2684 </r>
       <r>     0.2970     3.6625   108.5087 </r>
       <r>     0.3626     5.2065   108.8503 </r>
       <r>     0.4282     7.4206   109.3372 </r>
       <r>     0.4939     8.5067   109.8954 </r>
       <r>     0.5595     8.1238   110.4284 </r>
       <r>     0.6251     6.6928   110.8675 </r>
       <r>     0.6907     4.7638   111.1801 </r>
       <r>     0.7563     3.5312   111.4118 </r>
       <r>     0.8219     3.3950   111.6346 </r>
       <r>     0.8875     3.6092   111.8714 </r>
       <r>     0.9532     3.9318   112.1294 </r>
       <r>     1.0188     4.2091   112.4055 </r>
       <r>     1.0844     4.7990   112.7204 </r>
       <r>     1.1500     6.6192   113.1547 </r>
       <r>     1.2156     8.6500   113.7223 </r>
       <r>     1.2812     9.4663   114.3434 </r>
       <r>     1.3468     8.9939   114.9335 </r>
       <r>     1.4124     8.2188   115.4728 </r>
       <r>     1.4781     8.8764   116.0552 </r>
       <r>     1.5437    10.7547   116.7609 </r>
       <r>     1.6093    11.6569   117.5257 </r>
       <r>     1.6749    11.8508   118.3033 </r>
       <r>     1.7405    12.8175   119.1443 </r>
       <r>     1.8061    13.7056   120.0436 </r>
       <r>     1.8717    12.9655   120.8943 </r>
       <r>     1.9374    11.0298   121.6180 </r>
       <r>     2.0030    10.4091   122.3010 </r>
       <r>     2.0686    11.4227   123.0505 </r>
       <r>     2.1342    12.9989   123.9034 </r>
       <r>     2.1998    14.7501   124.8712 </r>
       <r>     2.2654    15.0386   125.8580 </r>
       <r>     2.3310    13.4728   126.7420 </r>
       <r>     2.3967    12.3651   127.5533 </r>
       <r>     2.4623    12.3874   128.3661 </r>
       <r>     2.5279    13.4902   129.2512 </r>
       <r>     2.5935    15.2532   130.2521 </r>
       <r>     2.6591    15.6193   131.2769 </r>
       <r>     2.7247    13.5786   132.1678 </r>
       <r>     2.7903    11.1867   132.9019 </r>
       <r>     2.8560    10.3981   133.5841 </r>
       <r>     2.9216    10.0499   134.2435 </r>
       <r>     2.9872     8.7490   134.8176 </r>
       <r>     3.0528     7.0622   135.2810 </r>
       <r>     3.1184     5.0590   135.6129 </r>
       <r>     3.1840     3.0355   135.8121 </r>
       <r>     3.2496     1.7307   135.9256 </r>
       <r>     3.3153     0.8475   135.9812 </r>
       <r>     3.3809     0.2481   135.9975 </r>
       <r>     3.4465     0.0355   135.9998 </r>
       <r>     3.5121     0.0023   136.0000 </r>
       <r>     3.5777     0.0001   136.0000 </r>
       <r>     3.6433     0.0000   136.0000 </r>
       <r>     3.7089     0.0000   136.0000 </r>
       <r>     3.7746     0.0000   136.0000 </r>
       <r>     3.8402     0.0000   136.0000 </r>
       <r>     3.9058     0.0000   136.0000 </r>
       <r>     3.9714     0.0000   136.0000 </r>
       <r>     4.0370     0.0000   136.0000 </r>
       <r>     4.1026     0.0000   136.0000 </r>
       <r>     4.1682     0.0000   136.0000 </r>
       <r>     4.2339     0.0000   136.0000 </r>
      </set>
     </set>
    </array>
   </total>
  </dos>
 </calculation>
 <structure name="finalpos" >
  <crystal>
   <varray name="basis" >
    <v>       3.54040000       0.00000000       0.00000000 </v>
    <v>      -1.77020000      10.29434800       0.00000000 </v>
    <v>       0.00000000       0.00000000      27.50142900 </v>
   </varray>
   <i name="volume">   1002.32009712 </i>
   <varray name="rec_basis" >
    <v>       0.28245396       0.04857034       0.00000000 </v>
    <v>       0.00000000       0.09714068       0.00000000 </v>
    <v>       0.00000000       0.00000000       0.03636175 </v>
   </varray>
  </crystal>
  <varray name="positions" >
   <v>       0.11402300       0.22804500       0.23316207 </v>
   <v>       0.41402300       0.12804500       0.51499159 </v>
   <v>       0.45808900       0.91617900       0.20939482 </v>
   <v>       0.75808900       0.81617900       0.49122434 </v>
   <v>       0.31085400       0.62170900       0.08414979 </v>
   <v>       0.31085400       0.62170900       0.36597930 </v>
   <v>       0.99923000       0.99846000       0.08631254 </v>
   <v>       0.99923000       0.99846000       0.36814206 </v>
   <v>       0.65492700       0.30985400       0.06041748 </v>
   <v>       0.65492700       0.30985400       0.34224700 </v>
   <v>       0.76973800       0.53947500       0.20725292 </v>
   <v>       0.06973800       0.43947500       0.48908244 </v>
   <v>       0.93971600       0.87943300       0.15783749 </v>
   <v>       0.23971600       0.77943300       0.43966701 </v>
   <v>       0.20515200       0.41030300       0.18578822 </v>
   <v>       0.50515200       0.31030300       0.46761774 </v>
   <v>       0.20184900       0.40369900       0.09969156 </v>
   <v>       0.20184900       0.40369900       0.38152107 </v>
   <v>       0.56380500       0.12761000       0.10779021 </v>
   <v>       0.56380500       0.12761000       0.38961973 </v>
   <v>       0.56710600       0.13421200       0.19387616 </v>
   <v>       0.86710600       0.03421200       0.47570568 </v>
   <v>       0.82923400       0.65846800       0.13571444 </v>
   <v>       0.12923400       0.55846800       0.41754396 </v>
  </varray>
 </structure>
</modeling>
