<?xml version="1.0" encoding="ISO-8859-1"?>
<modeling>
 <generator>
  <i name="program" type="string">vasp </i>
  <i name="version" type="string">5.3.5  </i>
  <i name="subversion" type="string">31Mar14 (build Oct 29 2014 16:16:03) complex                          parallel </i>
  <i name="platform" type="string">Linux-UFHPC </i>
  <i name="date" type="string">2016 02 09 </i>
  <i name="time" type="string">17:51:27 </i>
 </generator>
 <incar>
  <i type="string" name="PREC">accurate</i>
  <i type="int" name="IBRION">     2</i>
  <i name="EDIFF">      0.00000100</i>
  <i type="int" name="NSW">     0</i>
  <i type="int" name="ISIF">     3</i>
  <i name="ENCUT">    300.00000000</i>
  <i type="string" name="LREAL"> Auto</i>
  <i type="int" name="ISMEAR">     0</i>
  <i name="SIGMA">      0.10000000</i>
  <i type="logical" name="LWAVE"> F  </i>
  <i type="logical" name="LCHARG"> F  </i>
  <i type="logical" name="LAECHG"> F  </i>
  <i type="string" name="GGA"> Bo</i>
  <i name="PARAM1">      0.18333333</i>
  <i name="PARAM2">      0.22000000</i>
  <i type="logical" name="LUSE_VDW"> T  </i>
  <i name="AGGAC">      0.00000000</i>
 </incar>
 <kpoints>
  <generation param="Gamma">
   <v type="int" name="divisions">      13        4        2 </v>
   <v name="usershift">      0.00000000       0.00000000       0.00000000 </v>
   <v name="genvec1">      0.07692308      -0.00000000       0.00000000 </v>
   <v name="genvec2">      0.00000000       0.25000000       0.00000000 </v>
   <v name="genvec3">      0.00000000       0.00000000       0.50000000 </v>
   <v name="shift">      0.00000000       0.00000000       0.00000000 </v>
  </generation>
  <varray name="kpointlist" >
   <v>       0.00000000       0.00000000       0.00000000 </v>
   <v>       0.07692308      -0.00000000       0.00000000 </v>
   <v>       0.15384615      -0.00000000       0.00000000 </v>
   <v>       0.23076923      -0.00000000       0.00000000 </v>
   <v>       0.30769231      -0.00000000       0.00000000 </v>
   <v>       0.38461538      -0.00000000       0.00000000 </v>
   <v>       0.46153846      -0.00000000       0.00000000 </v>
   <v>       0.00000000       0.25000000       0.00000000 </v>
   <v>       0.07692308       0.25000000       0.00000000 </v>
   <v>       0.15384615       0.25000000       0.00000000 </v>
   <v>       0.23076923       0.25000000       0.00000000 </v>
   <v>       0.30769231       0.25000000       0.00000000 </v>
   <v>       0.38461538       0.25000000       0.00000000 </v>
   <v>       0.46153846       0.25000000       0.00000000 </v>
   <v>      -0.46153846       0.25000000       0.00000000 </v>
   <v>      -0.38461538       0.25000000       0.00000000 </v>
   <v>      -0.30769231       0.25000000       0.00000000 </v>
   <v>      -0.23076923       0.25000000       0.00000000 </v>
   <v>      -0.15384615       0.25000000       0.00000000 </v>
   <v>      -0.07692308       0.25000000       0.00000000 </v>
   <v>       0.00000000       0.50000000       0.00000000 </v>
   <v>       0.07692308       0.50000000       0.00000000 </v>
   <v>       0.15384615       0.50000000       0.00000000 </v>
   <v>       0.23076923       0.50000000       0.00000000 </v>
   <v>       0.30769231       0.50000000       0.00000000 </v>
   <v>       0.38461538       0.50000000       0.00000000 </v>
   <v>       0.46153846       0.50000000       0.00000000 </v>
   <v>       0.00000000       0.00000000       0.50000000 </v>
   <v>       0.07692308      -0.00000000       0.50000000 </v>
   <v>       0.15384615      -0.00000000       0.50000000 </v>
   <v>       0.23076923      -0.00000000       0.50000000 </v>
   <v>       0.30769231      -0.00000000       0.50000000 </v>
   <v>       0.38461538      -0.00000000       0.50000000 </v>
   <v>       0.46153846      -0.00000000       0.50000000 </v>
   <v>       0.00000000       0.25000000       0.50000000 </v>
   <v>       0.07692308       0.25000000       0.50000000 </v>
   <v>       0.15384615       0.25000000       0.50000000 </v>
   <v>       0.23076923       0.25000000       0.50000000 </v>
   <v>       0.30769231       0.25000000       0.50000000 </v>
   <v>       0.38461538       0.25000000       0.50000000 </v>
   <v>       0.46153846       0.25000000       0.50000000 </v>
   <v>      -0.46153846       0.25000000       0.50000000 </v>
   <v>      -0.38461538       0.25000000       0.50000000 </v>
   <v>      -0.30769231       0.25000000       0.50000000 </v>
   <v>      -0.23076923       0.25000000       0.50000000 </v>
   <v>      -0.15384615       0.25000000       0.50000000 </v>
   <v>      -0.07692308       0.25000000       0.50000000 </v>
   <v>       0.00000000       0.50000000       0.50000000 </v>
   <v>       0.07692308       0.50000000       0.50000000 </v>
   <v>       0.15384615       0.50000000       0.50000000 </v>
   <v>       0.23076923       0.50000000       0.50000000 </v>
   <v>       0.30769231       0.50000000       0.50000000 </v>
   <v>       0.38461538       0.50000000       0.50000000 </v>
   <v>       0.46153846       0.50000000       0.50000000 </v>
  </varray>
  <varray name="weights" >
   <v>       0.00961538 </v>
   <v>       0.01923077 </v>
   <v>       0.01923077 </v>
   <v>       0.01923077 </v>
   <v>       0.01923077 </v>
   <v>       0.01923077 </v>
   <v>       0.01923077 </v>
   <v>       0.01923077 </v>
   <v>       0.01923077 </v>
   <v>       0.01923077 </v>
   <v>       0.01923077 </v>
   <v>       0.01923077 </v>
   <v>       0.01923077 </v>
   <v>       0.01923077 </v>
   <v>       0.01923077 </v>
   <v>       0.01923077 </v>
   <v>       0.01923077 </v>
   <v>       0.01923077 </v>
   <v>       0.01923077 </v>
   <v>       0.01923077 </v>
   <v>       0.00961538 </v>
   <v>       0.01923077 </v>
   <v>       0.01923077 </v>
   <v>       0.01923077 </v>
   <v>       0.01923077 </v>
   <v>       0.01923077 </v>
   <v>       0.01923077 </v>
   <v>       0.00961538 </v>
   <v>       0.01923077 </v>
   <v>       0.01923077 </v>
   <v>       0.01923077 </v>
   <v>       0.01923077 </v>
   <v>       0.01923077 </v>
   <v>       0.01923077 </v>
   <v>       0.01923077 </v>
   <v>       0.01923077 </v>
   <v>       0.01923077 </v>
   <v>       0.01923077 </v>
   <v>       0.01923077 </v>
   <v>       0.01923077 </v>
   <v>       0.01923077 </v>
   <v>       0.01923077 </v>
   <v>       0.01923077 </v>
   <v>       0.01923077 </v>
   <v>       0.01923077 </v>
   <v>       0.01923077 </v>
   <v>       0.01923077 </v>
   <v>       0.00961538 </v>
   <v>       0.01923077 </v>
   <v>       0.01923077 </v>
   <v>       0.01923077 </v>
   <v>       0.01923077 </v>
   <v>       0.01923077 </v>
   <v>       0.01923077 </v>
  </varray>
 </kpoints>
 <parameters>
  <separator name="general" >
   <i type="string" name="SYSTEM">unknown system</i>
   <i type="logical" name="LCOMPAT"> F  </i>
  </separator>
  <separator name="electronic" >
   <i type="string" name="PREC">accura</i>
   <i name="ENMAX">    300.00000000</i>
   <i name="ENAUG">    342.92400000</i>
   <i name="EDIFF">      0.00000100</i>
   <i type="int" name="IALGO">    38</i>
   <i type="int" name="IWAVPR">    10</i>
   <i type="int" name="NBANDS">    68</i>
   <i name="NELECT">    108.00000000</i>
   <i type="int" name="TURBO">     0</i>
   <i type="int" name="IRESTART">     0</i>
   <i type="int" name="NREBOOT">     0</i>
   <i type="int" name="NMIN">     0</i>
   <i name="EREF">      0.00000000</i>
   <separator name="electronic smearing" >
    <i type="int" name="ISMEAR">     0</i>
    <i name="SIGMA">      0.10000000</i>
    <i name="KSPACING">      0.50000000</i>
    <i type="logical" name="KGAMMA"> T  </i>
   </separator>
   <separator name="electronic projectors" >
    <i type="logical" name="LREAL"> T  </i>
    <v name="ROPT">     -0.00025000     -0.00025000</v>
    <i type="int" name="LMAXPAW">  -100</i>
    <i type="int" name="LMAXMIX">     2</i>
    <i type="logical" name="NLSPLINE"> F  </i>
   </separator>
   <separator name="electronic startup" >
    <i type="int" name="ISTART">     0</i>
    <i type="int" name="ICHARG">     2</i>
    <i type="int" name="INIWAV">     1</i>
   </separator>
   <separator name="electronic spin" >
    <i type="int" name="ISPIN">     1</i>
    <i type="logical" name="LNONCOLLINEAR"> F  </i>
    <v name="MAGMOM">      1.00000000      1.00000000      1.00000000      1.00000000      1.00000000      1.00000000      1.00000000      1.00000000      1.00000000      1.00000000      1.00000000      1.00000000      1.00000000      1.00000000      1.00000000      1.00000000      1.00000000      1.00000000      1.00000000      1.00000000
      1.00000000      1.00000000      1.00000000      1.00000000</v>
    <i name="NUPDOWN">     -1.00000000</i>
    <i type="logical" name="LSORBIT"> F  </i>
    <v name="SAXIS">      0.00000000      0.00000000      1.00000000</v>
    <i type="logical" name="LSPIRAL"> F  </i>
    <v name="QSPIRAL">      0.00000000      0.00000000      0.00000000</v>
    <i type="logical" name="LZEROZ"> F  </i>
   </separator>
   <separator name="electronic exchange-correlation" >
    <i type="logical" name="LASPH"> F  </i>
    <i type="logical" name="LMETAGGA"> F  </i>
   </separator>
   <separator name="electronic convergence" >
    <i type="int" name="NELM">    60</i>
    <i type="int" name="NELMDL">    -5</i>
    <i type="int" name="NELMIN">     2</i>
    <i name="ENINI">    300.00000000</i>
    <separator name="electronic convergence detail" >
     <i type="logical" name="LDIAG"> T  </i>
     <i type="logical" name="LSUBROT"> F  </i>
     <i name="WEIMIN">      0.00000000</i>
     <i name="EBREAK">      0.00000000</i>
     <i name="DEPER">      0.30000000</i>
     <i type="int" name="NRMM">     4</i>
     <i name="TIME">      0.40000000</i>
    </separator>
   </separator>
   <separator name="electronic mixer" >
    <i name="AMIX">      0.40000000</i>
    <i name="BMIX">      1.00000000</i>
    <i name="AMIN">      0.10000000</i>
    <i name="AMIX_MAG">      1.60000000</i>
    <i name="BMIX_MAG">      1.00000000</i>
    <separator name="electronic mixer details" >
     <i type="int" name="IMIX">     4</i>
     <i type="int" name="MAXMIX">   -45</i>
     <i name="WC">    100.00000000</i>
     <i type="int" name="INIMIX">     1</i>
     <i type="int" name="MIXPRE">     1</i>
     <i type="int" name="MREMOVE">     5</i>
    </separator>
   </separator>
   <separator name="electronic dipolcorrection" >
    <i type="logical" name="LDIPOL"> F  </i>
    <i type="logical" name="LMONO"> F  </i>
    <i type="int" name="IDIPOL">     0</i>
    <i name="EPSILON">      1.00000000</i>
    <v name="DIPOL">   -100.00000000   -100.00000000   -100.00000000</v>
    <i name="EFIELD">      0.00000000</i>
   </separator>
  </separator>
  <separator name="grids" >
   <i type="int" name="NGX">    20</i>
   <i type="int" name="NGY">    60</i>
   <i type="int" name="NGZ">   160</i>
   <i type="int" name="NGXF">    40</i>
   <i type="int" name="NGYF">   120</i>
   <i type="int" name="NGZF">   320</i>
   <i type="logical" name="ADDGRID"> F  </i>
  </separator>
  <separator name="ionic" >
   <i type="int" name="NSW">     0</i>
   <i type="int" name="IBRION">    -1</i>
   <i type="int" name="ISIF">     3</i>
   <i name="PSTRESS">      0.00000000</i>
   <i name="EDIFFG">      0.00001000</i>
   <i type="int" name="NFREE">     1</i>
   <i name="POTIM">      0.50000000</i>
   <i name="SMASS">     -3.00000000</i>
   <i name="SCALEE">      1.00000000</i>
  </separator>
  <separator name="ionic md" >
   <i name="TEBEG">      0.00010000</i>
   <i name="TEEND">      0.00010000</i>
   <i type="int" name="NBLOCK">     1</i>
   <i type="int" name="KBLOCK">     1</i>
   <i type="int" name="NPACO">   256</i>
   <i name="APACO">     16.00000000</i>
  </separator>
  <separator name="symmetry" >
   <i type="int" name="ISYM">     2</i>
   <i name="SYMPREC">      0.00001000</i>
  </separator>
  <separator name="dos" >
   <i type="logical" name="LORBIT"> F  </i>
   <v name="RWIGS">     -1.00000000     -1.00000000</v>
   <i type="int" name="NEDOS">   301</i>
   <i name="EMIN">     10.00000000</i>
   <i name="EMAX">    -10.00000000</i>
   <i name="EFERMI">      0.00000000</i>
  </separator>
  <separator name="writing" >
   <i type="int" name="NWRITE">     2</i>
   <i type="logical" name="LWAVE"> F  </i>
   <i type="logical" name="LCHARG"> F  </i>
   <i type="logical" name="LPARD"> F  </i>
   <i type="logical" name="LVTOT"> F  </i>
   <i type="logical" name="LVHAR"> F  </i>
   <i type="logical" name="LELF"> F  </i>
   <i type="logical" name="LOPTICS"> F  </i>
   <v name="STM">      0.00000000      0.00000000      0.00000000      0.00000000      0.00000000      0.00000000      0.00000000</v>
  </separator>
  <separator name="performance" >
   <i type="int" name="NPAR">     4</i>
   <i type="int" name="NSIM">     4</i>
   <i type="int" name="NBLK">    -1</i>
   <i type="logical" name="LPLANE"> T  </i>
   <i type="logical" name="LSCALAPACK"> T  </i>
   <i type="logical" name="LSCAAWARE"> F  </i>
   <i type="logical" name="LSCALU"> F  </i>
   <i type="logical" name="LASYNC"> F  </i>
   <i type="logical" name="LORBITALREAL"> F  </i>
  </separator>
  <separator name="miscellaneous" >
   <i type="int" name="IDIOT">     3</i>
   <i type="logical" name="LMUSIC"> F  </i>
   <v name="POMASS">     30.97400000     28.08500000</v>
   <v name="DARWINR">      0.00000000      0.00000000</v>
   <v name="DARWINV">      1.00000000      1.00000000</v>
   <i type="logical" name="LCORR"> T  </i>
  </separator>
  <i type="logical" name="GGA_COMPAT"> T  </i>
  <i type="logical" name="LBERRY"> F  </i>
  <i type="int" name="ICORELEVEL">     0</i>
  <i type="logical" name="LDAU"> F  </i>
  <i type="int" name="I_CONSTRAINED_M">     0</i>
  <separator name="electronic exchange-correlation" >
   <i type="string" name="GGA">BO</i>
   <i type="int" name="VOSKOWN">     0</i>
   <i type="logical" name="LHFCALC"> F  </i>
   <i type="string" name="PRECFOCK"></i>
   <i type="logical" name="LSYMGRAD"> F  </i>
   <i type="logical" name="LHFONE"> F  </i>
   <i type="logical" name="LRHFCALC"> F  </i>
   <i type="logical" name="LTHOMAS"> F  </i>
   <i type="logical" name="LMODELHF"> F  </i>
   <i name="ENCUT4O">     -1.00000000</i>
   <i type="int" name="EXXOEP">     0</i>
   <i type="int" name="FOURORBIT">     0</i>
   <i name="AEXX">      0.00000000</i>
   <i name="HFALPHA">      0.00000000</i>
   <i name="MCALPHA">      0.00000000</i>
   <i name="ALDAX">      1.00000000</i>
   <i name="AGGAX">      1.00000000</i>
   <i name="ALDAC">      1.00000000</i>
   <i name="AGGAC">      0.00000000</i>
   <i type="int" name="NKREDX">     1</i>
   <i type="int" name="NKREDY">     1</i>
   <i type="int" name="NKREDZ">     1</i>
   <i type="logical" name="SHIFTRED"> F  </i>
   <i type="logical" name="ODDONLY"> F  </i>
   <i type="logical" name="EVENONLY"> F  </i>
   <i type="int" name="LMAXFOCK">     0</i>
   <i type="int" name="NMAXFOCKAE">     0</i>
   <i type="logical" name="LFOCKAEDFT"> F  </i>
   <i name="HFSCREEN">      0.00000000</i>
   <i name="HFSCREENC">      0.00000000</i>
   <i type="int" name="NBANDSGWLOW">     0</i>
  </separator>
  <separator name="vdW DFT" >
   <i type="logical" name="LUSE_VDW"> T  </i>
   <i name="Zab_VDW">     -0.84910000</i>
   <i name="PARAM1">      0.18333333</i>
   <i name="PARAM2">      0.22000000</i>
   <i name="PARAM3">      0.00000000</i>
  </separator>
  <separator name="model GW" >
   <i type="int" name="MODEL_GW">     0</i>
   <i name="MODEL_EPS0">     25.05800243</i>
   <i name="MODEL_ALPHA">      1.00000000</i>
  </separator>
  <separator name="linear response parameters" >
   <i type="logical" name="LEPSILON"> F  </i>
   <i type="logical" name="LRPA"> F  </i>
   <i type="logical" name="LNABLA"> F  </i>
   <i type="logical" name="LVEL"> F  </i>
   <i type="int" name="KINTER">     0</i>
   <i name="CSHIFT">      0.10000000</i>
   <i name="OMEGAMAX">     -1.00000000</i>
   <i name="DEG_THRESHOLD">      0.00200000</i>
  </separator>
  <separator name="orbital magnetization" >
   <i type="logical" name="NUCIND"> F  </i>
   <v name="MAGPOS">      0.00000000      0.00000000      0.00000000</v>
   <i type="logical" name="LNICSALL"> T  </i>
   <i type="logical" name="ORBITALMAG"> F  </i>
   <i type="logical" name="LMAGBLOCH"> F  </i>
   <i type="logical" name="LCHIMAG"> F  </i>
   <i type="logical" name="LGAUGE"> T  </i>
   <i type="int" name="MAGATOM">     0</i>
   <v name="MAGDIPOL">      0.00000000      0.00000000      0.00000000</v>
   <v name="AVECCONST">      0.00000000      0.00000000      0.00000000</v>
  </separator>
  <separator name="response functions" >
   <i type="logical" name="LADDER"> F  </i>
   <i type="logical" name="LFXC"> F  </i>
   <i type="logical" name="LHARTREE"> T  </i>
   <i type="int" name="IBSE">     0</i>
   <i type="logical" name="LTCTE"> F  </i>
   <i type="logical" name="LTETE"> F  </i>
   <i type="logical" name="LTRIPLET"> F  </i>
   <i type="logical" name="LFXCEPS"> F  </i>
   <i type="logical" name="LFXHEG"> F  </i>
   <i type="logical" name="L2ORDER"> F  </i>
   <i type="logical" name="LUSEW"> F  </i>
   <i name="ENCUTGW">     -2.00000000</i>
   <i name="ENCUTGWSOFT">     -2.00000000</i>
   <i name="ENCUTLF">     -1.00000000</i>
   <i type="int" name="LMAXMP2">    -1</i>
   <i name="SCISSOR">      0.00000000</i>
   <i type="int" name="NOMEGA">     0</i>
   <i type="int" name="NOMEGAR">     0</i>
   <i type="int" name="NBANDSGW">    -1</i>
   <i type="int" name="NBANDSO">    -1</i>
   <i type="int" name="NBANDSV">    -1</i>
   <i type="int" name="NELM">     1</i>
   <i type="int" name="DIM">     3</i>
   <i type="int" name="ANTIRES">     0</i>
   <i name="OMEGAMAX">    -30.00000000</i>
   <i name="OMEGAMIN">    -30.00000000</i>
   <i name="OMEGATL">   -200.00000000</i>
   <i type="int" name="OMEGAGRID">     0</i>
   <i name="CSHIFT">     -0.10000000</i>
   <i type="logical" name="SELFENERGY"> F  </i>
   <i type="logical" name="LSPECTRAL"> F  </i>
   <i type="logical" name="ODDONLYGW"> F  </i>
   <i type="logical" name="EVENONLYGW"> F  </i>
   <i type="int" name="NKREDLFX">     1</i>
   <i type="int" name="NKREDLFY">     1</i>
   <i type="int" name="NKREDLFZ">     1</i>
   <i type="int" name="MAXMEM">  1800</i>
   <i type="int" name="TELESCOPE">     0</i>
   <i type="int" name="TAUPAR">     1</i>
  </separator>
  <separator name="External order field" >
   <i name="OFIELD_KAPPA">      0.00000000</i>
   <v name="OFIELD_K">      0.00000000      0.00000000      0.00000000</v>
   <i name="OFIELD_Q6_NEAR">      0.00000000</i>
   <i name="OFIELD_Q6_FAR">      0.00000000</i>
   <i name="OFIELD_A">      0.00000000</i>
  </separator>
 </parameters>
 <atominfo>
  <atoms>      24 </atoms>
  <types>       2 </types>
  <array name="atoms" >
   <dimension dim="1">ion</dimension>
   <field type="string">element</field>
   <field type="int">atomtype</field>
   <set>
    <rc><c>P </c><c>   1</c></rc>
    <rc><c>P </c><c>   1</c></rc>
    <rc><c>P </c><c>   1</c></rc>
    <rc><c>P </c><c>   1</c></rc>
    <rc><c>P </c><c>   1</c></rc>
    <rc><c>P </c><c>   1</c></rc>
    <rc><c>P </c><c>   1</c></rc>
    <rc><c>P </c><c>   1</c></rc>
    <rc><c>P </c><c>   1</c></rc>
    <rc><c>P </c><c>   1</c></rc>
    <rc><c>P </c><c>   1</c></rc>
    <rc><c>P </c><c>   1</c></rc>
    <rc><c>Si</c><c>   2</c></rc>
    <rc><c>Si</c><c>   2</c></rc>
    <rc><c>Si</c><c>   2</c></rc>
    <rc><c>Si</c><c>   2</c></rc>
    <rc><c>Si</c><c>   2</c></rc>
    <rc><c>Si</c><c>   2</c></rc>
    <rc><c>Si</c><c>   2</c></rc>
    <rc><c>Si</c><c>   2</c></rc>
    <rc><c>Si</c><c>   2</c></rc>
    <rc><c>Si</c><c>   2</c></rc>
    <rc><c>Si</c><c>   2</c></rc>
    <rc><c>Si</c><c>   2</c></rc>
   </set>
  </array>
  <array name="atomtypes" >
   <dimension dim="1">type</dimension>
   <field type="int">atomspertype</field>
   <field type="string">element</field>
   <field>mass</field>
   <field>valence</field>
   <field type="string">pseudopotential</field>
   <set>
    <rc><c>  12</c><c>P </c><c>     30.97400000</c><c>      5.00000000</c><c>  PAW_PBE P 17Jan2003                   </c></rc>
    <rc><c>  12</c><c>Si</c><c>     28.08500000</c><c>      4.00000000</c><c> PAW_PBE Si 05Jan2001                   </c></rc>
   </set>
  </array>
 </atominfo>
 <structure name="initialpos" >
  <crystal>
   <varray name="basis" >
    <v>       3.54040000       0.00000000       0.00000000 </v>
    <v>      -1.77020000      10.29434800       0.00000000 </v>
    <v>       0.00000000       0.00000000      27.50142900 </v>
   </varray>
   <i name="volume">   1002.32009712 </i>
   <varray name="rec_basis" >
    <v>       0.28245396       0.04857034       0.00000000 </v>
    <v>       0.00000000       0.09714068       0.00000000 </v>
    <v>       0.00000000       0.00000000       0.03636175 </v>
   </varray>
  </crystal>
  <varray name="positions" >
   <v>       0.11402300       0.22804500       0.23316207 </v>
   <v>       0.51402300       0.42804500       0.51499159 </v>
   <v>       0.45808900       0.91617900       0.20939482 </v>
   <v>       0.85808900       0.11617900       0.49122434 </v>
   <v>       0.31085400       0.62170900       0.08414979 </v>
   <v>       0.31085400       0.62170900       0.36597930 </v>
   <v>       0.99923000       0.99846000       0.08631254 </v>
   <v>       0.99923000       0.99846000       0.36814206 </v>
   <v>       0.65492700       0.30985400       0.06041748 </v>
   <v>       0.65492700       0.30985400       0.34224700 </v>
   <v>       0.76973800       0.53947500       0.20725292 </v>
   <v>       0.16973800       0.73947500       0.48908244 </v>
   <v>       0.93971600       0.87943300       0.15783749 </v>
   <v>       0.33971600       0.07943300       0.43966701 </v>
   <v>       0.20515200       0.41030300       0.18578822 </v>
   <v>       0.60515200       0.61030300       0.46761774 </v>
   <v>       0.20184900       0.40369900       0.09969156 </v>
   <v>       0.20184900       0.40369900       0.38152107 </v>
   <v>       0.56380500       0.12761000       0.10779021 </v>
   <v>       0.56380500       0.12761000       0.38961973 </v>
   <v>       0.56710600       0.13421200       0.19387616 </v>
   <v>       0.96710600       0.33421200       0.47570568 </v>
   <v>       0.82923400       0.65846800       0.13571444 </v>
   <v>       0.22923400       0.85846800       0.41754396 </v>
  </varray>
 </structure>
 <calculation>
  <scstep>
   <time name="dav">   60.16   60.53</time>
   <time name="total">   76.02   76.52</time>
   <energy>
    <i name="alphaZ">     36.80884744 </i>
    <i name="ewald">  11930.55292070 </i>
    <i name="hartreedc"> -14973.93723363 </i>
    <i name="XCdc">    -88.01187405 </i>
    <i name="pawpsdc">   1056.43050070 </i>
    <i name="pawaedc">   -732.41190547 </i>
    <i name="eentropy">     -0.04474783 </i>
    <i name="bandstr">    -89.43829386 </i>
    <i name="atom">   3354.04126044 </i>
    <i name="e_fr_energy">    493.98947445 </i>
    <i name="e_wo_entrp">    494.03422227 </i>
    <i name="e_0_energy">    494.01184836 </i>
   </energy>
  </scstep>
  <scstep>
   <time name="dav">   81.70   82.11</time>
   <time name="total">   81.71   82.13</time>
   <energy>
    <i name="e_fr_energy">    -64.22409738 </i>
    <i name="e_wo_entrp">    -64.20542747 </i>
    <i name="e_0_energy">    -64.21476242 </i>
   </energy>
  </scstep>
  <scstep>
   <time name="dav">   69.24   69.48</time>
   <time name="total">   69.26   69.49</time>
   <energy>
    <i name="e_fr_energy">   -120.29698388 </i>
    <i name="e_wo_entrp">   -120.27162186 </i>
    <i name="e_0_energy">   -120.28430287 </i>
   </energy>
  </scstep>
  <scstep>
   <time name="dav">   84.55   84.77</time>
   <time name="total">   84.56   84.79</time>
   <energy>
    <i name="e_fr_energy">   -122.90225939 </i>
    <i name="e_wo_entrp">   -122.87623922 </i>
    <i name="e_0_energy">   -122.88924931 </i>
   </energy>
  </scstep>
  <scstep>
   <time name="dav">   75.53   75.83</time>
   <time name="total">   79.69   80.01</time>
   <energy>
    <i name="e_fr_energy">   -122.95950364 </i>
    <i name="e_wo_entrp">   -122.93345076 </i>
    <i name="e_0_energy">   -122.94647720 </i>
   </energy>
  </scstep>
  <scstep>
   <time name="dav">   71.84   72.06</time>
   <time name="total">   90.44   90.71</time>
   <energy>
    <i name="e_fr_energy">   -119.60788341 </i>
    <i name="e_wo_entrp">   -119.58411815 </i>
    <i name="e_0_energy">   -119.59600078 </i>
   </energy>
  </scstep>
  <scstep>
   <time name="dav">   68.13   68.42</time>
   <time name="total">   86.80   87.12</time>
   <energy>
    <i name="e_fr_energy">   -119.54608875 </i>
    <i name="e_wo_entrp">   -119.52475939 </i>
    <i name="e_0_energy">   -119.53542407 </i>
   </energy>
  </scstep>
  <scstep>
   <time name="dav">   72.73   73.11</time>
   <time name="total">   91.33   91.74</time>
   <energy>
    <i name="e_fr_energy">   -119.54627635 </i>
    <i name="e_wo_entrp">   -119.52186149 </i>
    <i name="e_0_energy">   -119.53406892 </i>
   </energy>
  </scstep>
  <scstep>
   <time name="dav">   69.83   70.23</time>
   <time name="total">   88.43   88.86</time>
   <energy>
    <i name="e_fr_energy">   -119.52813642 </i>
    <i name="e_wo_entrp">   -119.50423234 </i>
    <i name="e_0_energy">   -119.51618438 </i>
   </energy>
  </scstep>
  <scstep>
   <time name="dav">   69.78   70.15</time>
   <time name="total">   88.39   88.82</time>
   <energy>
    <i name="e_fr_energy">   -119.52160019 </i>
    <i name="e_wo_entrp">   -119.49742201 </i>
    <i name="e_0_energy">   -119.50951110 </i>
   </energy>
  </scstep>
  <scstep>
   <time name="dav">   72.88   73.28</time>
   <time name="total">   91.48   91.92</time>
   <energy>
    <i name="e_fr_energy">   -119.51182543 </i>
    <i name="e_wo_entrp">   -119.48774262 </i>
    <i name="e_0_energy">   -119.49978402 </i>
   </energy>
  </scstep>
  <scstep>
   <time name="dav">   70.92   71.38</time>
   <time name="total">   89.53   90.01</time>
   <energy>
    <i name="e_fr_energy">   -119.50632422 </i>
    <i name="e_wo_entrp">   -119.48232726 </i>
    <i name="e_0_energy">   -119.49432574 </i>
   </energy>
  </scstep>
  <scstep>
   <time name="dav">   69.54   69.96</time>
   <time name="total">   88.11   88.58</time>
   <energy>
    <i name="e_fr_energy">   -119.50227724 </i>
    <i name="e_wo_entrp">   -119.47824976 </i>
    <i name="e_0_energy">   -119.49026350 </i>
   </energy>
  </scstep>
  <scstep>
   <time name="dav">   74.08   74.46</time>
   <time name="total">   92.71   93.14</time>
   <energy>
    <i name="e_fr_energy">   -119.50058986 </i>
    <i name="e_wo_entrp">   -119.47659161 </i>
    <i name="e_0_energy">   -119.48859074 </i>
   </energy>
  </scstep>
  <scstep>
   <time name="dav">   67.01   67.36</time>
   <time name="total">   85.57   86.02</time>
   <energy>
    <i name="e_fr_energy">   -119.50035494 </i>
    <i name="e_wo_entrp">   -119.47634614 </i>
    <i name="e_0_energy">   -119.48835054 </i>
   </energy>
  </scstep>
  <scstep>
   <time name="dav">   65.43   65.63</time>
   <time name="total">   84.10   84.32</time>
   <energy>
    <i name="e_fr_energy">   -119.50075212 </i>
    <i name="e_wo_entrp">   -119.47674159 </i>
    <i name="e_0_energy">   -119.48874685 </i>
   </energy>
  </scstep>
  <scstep>
   <time name="dav">   63.95   64.15</time>
   <time name="total">   82.54   82.81</time>
   <energy>
    <i name="e_fr_energy">   -119.50113513 </i>
    <i name="e_wo_entrp">   -119.47712530 </i>
    <i name="e_0_energy">   -119.48913021 </i>
   </energy>
  </scstep>
  <scstep>
   <time name="dav">   63.99   64.17</time>
   <time name="total">   82.58   82.83</time>
   <energy>
    <i name="e_fr_energy">   -119.50129582 </i>
    <i name="e_wo_entrp">   -119.47728388 </i>
    <i name="e_0_energy">   -119.48928985 </i>
   </energy>
  </scstep>
  <scstep>
   <time name="dav">   52.59   52.80</time>
   <time name="total">   71.02   71.37</time>
   <energy>
    <i name="e_fr_energy">   -119.50133178 </i>
    <i name="e_wo_entrp">   -119.47731967 </i>
    <i name="e_0_energy">   -119.48932573 </i>
   </energy>
  </scstep>
  <scstep>
   <time name="dav">   59.67   59.86</time>
   <time name="total">   78.06   78.43</time>
   <energy>
    <i name="e_fr_energy">   -119.50135249 </i>
    <i name="e_wo_entrp">   -119.47734000 </i>
    <i name="e_0_energy">   -119.48934625 </i>
   </energy>
  </scstep>
  <scstep>
   <time name="dav">   54.70   54.86</time>
   <time name="total">   73.22   73.41</time>
   <energy>
    <i name="e_fr_energy">   -119.50130768 </i>
    <i name="e_wo_entrp">   -119.47729350 </i>
    <i name="e_0_energy">   -119.48930059 </i>
   </energy>
  </scstep>
  <scstep>
   <time name="dav">   58.09   58.33</time>
   <time name="total">   76.58   76.91</time>
   <energy>
    <i name="e_fr_energy">   -119.50124940 </i>
    <i name="e_wo_entrp">   -119.47723576 </i>
    <i name="e_0_energy">   -119.48924258 </i>
   </energy>
  </scstep>
  <scstep>
   <time name="dav">   54.01   54.22</time>
   <time name="total">   72.42   72.78</time>
   <energy>
    <i name="e_fr_energy">   -119.50121823 </i>
    <i name="e_wo_entrp">   -119.47720455 </i>
    <i name="e_0_energy">   -119.48921139 </i>
   </energy>
  </scstep>
  <scstep>
   <time name="dav">   56.46   56.81</time>
   <time name="total">   74.92   75.36</time>
   <energy>
    <i name="e_fr_energy">   -119.50118978 </i>
    <i name="e_wo_entrp">   -119.47717631 </i>
    <i name="e_0_energy">   -119.48918305 </i>
   </energy>
  </scstep>
  <scstep>
   <time name="dav">   49.40   49.63</time>
   <time name="total">   68.04   68.43</time>
   <energy>
    <i name="e_fr_energy">   -119.50118564 </i>
    <i name="e_wo_entrp">   -119.47717223 </i>
    <i name="e_0_energy">   -119.48917894 </i>
   </energy>
  </scstep>
  <scstep>
   <time name="dav">   49.05   49.21</time>
   <time name="total">   63.48   63.70</time>
   <energy>
    <i name="alphaZ">     36.80884744 </i>
    <i name="ewald">  11930.55292070 </i>
    <i name="hartreedc"> -15067.86432587 </i>
    <i name="XCdc">    -80.37134258 </i>
    <i name="pawpsdc">   1168.08474518 </i>
    <i name="pawaedc">   -847.33719397 </i>
    <i name="eentropy">     -0.02401338 </i>
    <i name="bandstr">   -613.39208335 </i>
    <i name="atom">   3354.04126044 </i>
    <i name="e_fr_energy">   -119.50118538 </i>
    <i name="e_wo_entrp">   -119.47717200 </i>
    <i name="e_0_energy">   -119.48917869 </i>
   </energy>
  </scstep>
  <structure>
   <crystal>
    <varray name="basis" >
     <v>       3.54040000       0.00000000       0.00000000 </v>
     <v>      -1.77020000      10.29434800       0.00000000 </v>
     <v>       0.00000000       0.00000000      27.50142900 </v>
    </varray>
    <i name="volume">   1002.32009712 </i>
    <varray name="rec_basis" >
     <v>       0.28245396       0.04857034       0.00000000 </v>
     <v>       0.00000000       0.09714068       0.00000000 </v>
     <v>       0.00000000       0.00000000       0.03636175 </v>
    </varray>
   </crystal>
   <varray name="positions" >
    <v>       0.11402300       0.22804500       0.23316207 </v>
    <v>       0.51402300       0.42804500       0.51499159 </v>
    <v>       0.45808900       0.91617900       0.20939482 </v>
    <v>       0.85808900       0.11617900       0.49122434 </v>
    <v>       0.31085400       0.62170900       0.08414979 </v>
    <v>       0.31085400       0.62170900       0.36597930 </v>
    <v>       0.99923000       0.99846000       0.08631254 </v>
    <v>       0.99923000       0.99846000       0.36814206 </v>
    <v>       0.65492700       0.30985400       0.06041748 </v>
    <v>       0.65492700       0.30985400       0.34224700 </v>
    <v>       0.76973800       0.53947500       0.20725292 </v>
    <v>       0.16973800       0.73947500       0.48908244 </v>
    <v>       0.93971600       0.87943300       0.15783749 </v>
    <v>       0.33971600       0.07943300       0.43966701 </v>
    <v>       0.20515200       0.41030300       0.18578822 </v>
    <v>       0.60515200       0.61030300       0.46761774 </v>
    <v>       0.20184900       0.40369900       0.09969156 </v>
    <v>       0.20184900       0.40369900       0.38152107 </v>
    <v>       0.56380500       0.12761000       0.10779021 </v>
    <v>       0.56380500       0.12761000       0.38961973 </v>
    <v>       0.56710600       0.13421200       0.19387616 </v>
    <v>       0.96710600       0.33421200       0.47570568 </v>
    <v>       0.82923400       0.65846800       0.13571444 </v>
    <v>       0.22923400       0.85846800       0.41754396 </v>
   </varray>
  </structure>
  <varray name="forces" >
   <v>      -0.02333902      -0.05565470       0.00543887 </v>
   <v>       0.01814935       0.32505266      -0.10568764 </v>
   <v>      -0.00108905      -0.01196048       0.08381452 </v>
   <v>       0.92401129       0.51802160       1.21072620 </v>
   <v>      -0.00063936      -0.00480580       0.00642991 </v>
   <v>       0.93662875      -0.40843922       1.02854843 </v>
   <v>      -0.00341430      -0.00105102      -0.00117629 </v>
   <v>      -1.30705980      -0.84647899      -1.99889882 </v>
   <v>       0.00136461       0.00002726       0.01766255 </v>
   <v>      -0.15794677      -0.13431706      -0.22999500 </v>
   <v>       0.00145694       0.00773216       0.09250368 </v>
   <v>      -0.83264170       0.23306473       0.40486859 </v>
   <v>       0.00225993      -0.00051711       0.00669025 </v>
   <v>     -11.94936284      -8.08972276      24.97951867 </v>
   <v>      -0.00344331       0.01319645       0.06719827 </v>
   <v>      -0.25755582       0.38082884      -1.01229711 </v>
   <v>       0.00102679       0.00128472      -0.02813834 </v>
   <v>      -0.85393667       0.24107573       0.97219162 </v>
   <v>      -0.00554446      -0.01637005      -0.01537513 </v>
   <v>      11.90399206       8.82878537     -24.51929638 </v>
   <v>       0.00567140      -0.01797378       0.00732726 </v>
   <v>       0.75667138       0.02067721      -0.93557459 </v>
   <v>       0.00138414       0.00913897      -0.00144565 </v>
   <v>       0.84335649      -0.99159474      -0.03503386 </v>
  </varray>
  <varray name="stress" >
   <v>      16.19723546      13.56321845     -21.61304029 </v>
   <v>      13.56321845       4.70907716     -10.47040898 </v>
   <v>     -21.61304030     -10.47040866      51.88746845 </v>
  </varray>
  <energy>
   <i name="e_fr_energy">   -119.50118538 </i>
   <i name="e_wo_entrp">   -119.48917869 </i>
   <i name="e_0_energy">     -0.02401338 </i>
  </energy>
  <time name="totalsc"> 2214.28 2224.01</time>
  <eigenvalues>
   <array>
    <dimension dim="1">band</dimension>
    <dimension dim="2">kpoint</dimension>
    <dimension dim="3">spin</dimension>
    <field>eigene</field>
    <field>occ</field>
    <set>
     <set comment="spin 1">
      <set comment="kpoint 1">
       <r>  -14.4870    1.0000 </r>
       <r>  -13.5723    1.0000 </r>
       <r>  -12.8330    1.0000 </r>
       <r>  -12.8045    1.0000 </r>
       <r>  -12.5212    1.0000 </r>
       <r>  -12.2095    1.0000 </r>
       <r>  -12.1120    1.0000 </r>
       <r>  -12.0850    1.0000 </r>
       <r>  -11.4647    1.0000 </r>
       <r>  -11.2289    1.0000 </r>
       <r>  -11.0227    1.0000 </r>
       <r>  -10.0816    1.0000 </r>
       <r>   -8.4788    1.0000 </r>
       <r>   -8.0643    1.0000 </r>
       <r>   -7.8609    1.0000 </r>
       <r>   -7.5027    1.0000 </r>
       <r>   -6.9538    1.0000 </r>
       <r>   -6.8620    1.0000 </r>
       <r>   -6.5247    1.0000 </r>
       <r>   -6.4970    1.0000 </r>
       <r>   -5.8577    1.0000 </r>
       <r>   -5.6633    1.0000 </r>
       <r>   -4.7976    1.0000 </r>
       <r>   -4.5720    1.0000 </r>
       <r>   -4.1056    1.0000 </r>
       <r>   -3.8289    1.0000 </r>
       <r>   -3.7259    1.0000 </r>
       <r>   -3.6286    1.0000 </r>
       <r>   -3.4650    1.0000 </r>
       <r>   -3.0887    1.0000 </r>
       <r>   -3.0751    1.0000 </r>
       <r>   -2.8762    1.0000 </r>
       <r>   -2.8580    1.0000 </r>
       <r>   -2.7279    1.0000 </r>
       <r>   -2.5729    1.0000 </r>
       <r>   -2.4857    1.0000 </r>
       <r>   -2.4220    1.0000 </r>
       <r>   -2.4119    1.0000 </r>
       <r>   -2.2156    1.0000 </r>
       <r>   -2.0459    1.0000 </r>
       <r>   -1.9455    1.0000 </r>
       <r>   -1.8874    1.0000 </r>
       <r>   -1.7598    1.0000 </r>
       <r>   -1.7515    1.0000 </r>
       <r>   -1.6735    1.0000 </r>
       <r>   -1.6098    1.0000 </r>
       <r>   -1.4635    1.0000 </r>
       <r>   -1.3842    1.0000 </r>
       <r>   -1.1467    1.0000 </r>
       <r>   -1.1052    1.0000 </r>
       <r>   -0.9645    1.0000 </r>
       <r>   -0.4205    1.0000 </r>
       <r>   -0.2507    0.9913 </r>
       <r>    0.0191    0.0754 </r>
       <r>    0.7398    0.0000 </r>
       <r>    0.9551    0.0000 </r>
       <r>    1.1504    0.0000 </r>
       <r>    1.2849    0.0000 </r>
       <r>    1.4706    0.0000 </r>
       <r>    1.5840    0.0000 </r>
       <r>    1.6862    0.0000 </r>
       <r>    1.7977    0.0000 </r>
       <r>    1.9533    0.0000 </r>
       <r>    2.0561    0.0000 </r>
       <r>    2.1253    0.0000 </r>
       <r>    2.4001    0.0000 </r>
       <r>    2.5126    0.0000 </r>
       <r>    2.5690    0.0000 </r>
      </set>
      <set comment="kpoint 2">
       <r>  -14.4285    1.0000 </r>
       <r>  -13.5110    1.0000 </r>
       <r>  -12.7808    1.0000 </r>
       <r>  -12.7491    1.0000 </r>
       <r>  -12.4655    1.0000 </r>
       <r>  -12.1544    1.0000 </r>
       <r>  -12.0542    1.0000 </r>
       <r>  -12.0254    1.0000 </r>
       <r>  -11.4158    1.0000 </r>
       <r>  -11.1835    1.0000 </r>
       <r>  -10.9743    1.0000 </r>
       <r>  -10.0499    1.0000 </r>
       <r>   -8.4586    1.0000 </r>
       <r>   -8.1012    1.0000 </r>
       <r>   -7.8239    1.0000 </r>
       <r>   -7.5273    1.0000 </r>
       <r>   -6.9351    1.0000 </r>
       <r>   -6.8339    1.0000 </r>
       <r>   -6.5187    1.0000 </r>
       <r>   -6.4887    1.0000 </r>
       <r>   -5.8238    1.0000 </r>
       <r>   -5.6445    1.0000 </r>
       <r>   -4.8039    1.0000 </r>
       <r>   -4.6553    1.0000 </r>
       <r>   -4.1313    1.0000 </r>
       <r>   -4.0004    1.0000 </r>
       <r>   -3.7590    1.0000 </r>
       <r>   -3.6899    1.0000 </r>
       <r>   -3.5916    1.0000 </r>
       <r>   -3.4507    1.0000 </r>
       <r>   -3.3169    1.0000 </r>
       <r>   -3.2643    1.0000 </r>
       <r>   -3.0645    1.0000 </r>
       <r>   -2.9094    1.0000 </r>
       <r>   -2.7698    1.0000 </r>
       <r>   -2.6026    1.0000 </r>
       <r>   -2.5250    1.0000 </r>
       <r>   -2.4899    1.0000 </r>
       <r>   -2.2705    1.0000 </r>
       <r>   -2.2305    1.0000 </r>
       <r>   -2.1640    1.0000 </r>
       <r>   -2.0750    1.0000 </r>
       <r>   -1.9973    1.0000 </r>
       <r>   -1.9527    1.0000 </r>
       <r>   -1.8501    1.0000 </r>
       <r>   -1.7686    1.0000 </r>
       <r>   -1.5427    1.0000 </r>
       <r>   -1.3474    1.0000 </r>
       <r>   -1.1650    1.0000 </r>
       <r>   -1.0717    1.0000 </r>
       <r>   -0.9260    1.0000 </r>
       <r>   -0.3270    0.9997 </r>
       <r>   -0.2299    0.9814 </r>
       <r>    0.0226    0.0686 </r>
       <r>    0.7530    0.0000 </r>
       <r>    0.9243    0.0000 </r>
       <r>    1.4657    0.0000 </r>
       <r>    1.5315    0.0000 </r>
       <r>    1.7245    0.0000 </r>
       <r>    1.7548    0.0000 </r>
       <r>    2.0755    0.0000 </r>
       <r>    2.1143    0.0000 </r>
       <r>    2.1987    0.0000 </r>
       <r>    2.2508    0.0000 </r>
       <r>    2.3580    0.0000 </r>
       <r>    2.4983    0.0000 </r>
       <r>    2.5838    0.0000 </r>
       <r>    2.7355    0.0000 </r>
      </set>
      <set comment="kpoint 3">
       <r>  -14.2549    1.0000 </r>
       <r>  -13.3280    1.0000 </r>
       <r>  -12.6251    1.0000 </r>
       <r>  -12.5845    1.0000 </r>
       <r>  -12.3006    1.0000 </r>
       <r>  -11.9929    1.0000 </r>
       <r>  -11.8853    1.0000 </r>
       <r>  -11.8496    1.0000 </r>
       <r>  -11.2739    1.0000 </r>
       <r>  -11.0535    1.0000 </r>
       <r>  -10.8355    1.0000 </r>
       <r>   -9.9631    1.0000 </r>
       <r>   -8.4400    1.0000 </r>
       <r>   -8.1978    1.0000 </r>
       <r>   -7.7821    1.0000 </r>
       <r>   -7.6267    1.0000 </r>
       <r>   -6.9206    1.0000 </r>
       <r>   -6.7649    1.0000 </r>
       <r>   -6.5303    1.0000 </r>
       <r>   -6.4794    1.0000 </r>
       <r>   -5.7491    1.0000 </r>
       <r>   -5.6399    1.0000 </r>
       <r>   -5.0614    1.0000 </r>
       <r>   -4.8974    1.0000 </r>
       <r>   -4.3358    1.0000 </r>
       <r>   -4.2352    1.0000 </r>
       <r>   -4.1350    1.0000 </r>
       <r>   -4.0944    1.0000 </r>
       <r>   -4.0053    1.0000 </r>
       <r>   -3.8096    1.0000 </r>
       <r>   -3.7767    1.0000 </r>
       <r>   -3.6840    1.0000 </r>
       <r>   -3.4895    1.0000 </r>
       <r>   -3.3451    1.0000 </r>
       <r>   -3.2016    1.0000 </r>
       <r>   -3.0774    1.0000 </r>
       <r>   -2.9995    1.0000 </r>
       <r>   -2.9354    1.0000 </r>
       <r>   -2.7225    1.0000 </r>
       <r>   -2.5816    1.0000 </r>
       <r>   -2.4053    1.0000 </r>
       <r>   -2.3235    1.0000 </r>
       <r>   -2.1917    1.0000 </r>
       <r>   -2.0697    1.0000 </r>
       <r>   -1.9227    1.0000 </r>
       <r>   -1.7915    1.0000 </r>
       <r>   -1.6823    1.0000 </r>
       <r>   -1.4159    1.0000 </r>
       <r>   -1.2517    1.0000 </r>
       <r>   -1.0634    1.0000 </r>
       <r>   -0.9184    1.0000 </r>
       <r>   -0.4027    1.0000 </r>
       <r>   -0.1116    0.6597 </r>
       <r>    0.0594    0.0223 </r>
       <r>    0.2987    0.0000 </r>
       <r>    1.0884    0.0000 </r>
       <r>    1.3976    0.0000 </r>
       <r>    1.8440    0.0000 </r>
       <r>    1.9487    0.0000 </r>
       <r>    2.0152    0.0000 </r>
       <r>    2.2229    0.0000 </r>
       <r>    2.3944    0.0000 </r>
       <r>    2.5832    0.0000 </r>
       <r>    2.6399    0.0000 </r>
       <r>    2.8541    0.0000 </r>
       <r>    2.9074    0.0000 </r>
       <r>    2.9904    0.0000 </r>
       <r>    3.0266    0.0000 </r>
      </set>
      <set comment="kpoint 4">
       <r>  -13.9721    1.0000 </r>
       <r>  -13.0269    1.0000 </r>
       <r>  -12.3689    1.0000 </r>
       <r>  -12.3170    1.0000 </r>
       <r>  -12.0336    1.0000 </r>
       <r>  -11.7361    1.0000 </r>
       <r>  -11.6220    1.0000 </r>
       <r>  -11.5688    1.0000 </r>
       <r>  -11.0572    1.0000 </r>
       <r>  -10.8631    1.0000 </r>
       <r>  -10.6324    1.0000 </r>
       <r>   -9.8508    1.0000 </r>
       <r>   -8.6190    1.0000 </r>
       <r>   -8.3900    1.0000 </r>
       <r>   -7.8556    1.0000 </r>
       <r>   -7.7176    1.0000 </r>
       <r>   -7.0310    1.0000 </r>
       <r>   -6.7333    1.0000 </r>
       <r>   -6.6642    1.0000 </r>
       <r>   -6.5167    1.0000 </r>
       <r>   -5.8869    1.0000 </r>
       <r>   -5.7685    1.0000 </r>
       <r>   -5.3704    1.0000 </r>
       <r>   -5.2575    1.0000 </r>
       <r>   -4.8522    1.0000 </r>
       <r>   -4.7783    1.0000 </r>
       <r>   -4.6371    1.0000 </r>
       <r>   -4.5661    1.0000 </r>
       <r>   -4.5296    1.0000 </r>
       <r>   -4.2350    1.0000 </r>
       <r>   -4.1880    1.0000 </r>
       <r>   -4.0825    1.0000 </r>
       <r>   -3.8188    1.0000 </r>
       <r>   -3.6499    1.0000 </r>
       <r>   -3.4976    1.0000 </r>
       <r>   -3.4366    1.0000 </r>
       <r>   -3.2129    1.0000 </r>
       <r>   -3.0310    1.0000 </r>
       <r>   -2.7948    1.0000 </r>
       <r>   -2.7059    1.0000 </r>
       <r>   -2.6125    1.0000 </r>
       <r>   -2.5121    1.0000 </r>
       <r>   -2.4302    1.0000 </r>
       <r>   -2.0794    1.0000 </r>
       <r>   -1.9391    1.0000 </r>
       <r>   -1.8642    1.0000 </r>
       <r>   -1.7685    1.0000 </r>
       <r>   -1.6117    1.0000 </r>
       <r>   -1.4977    1.0000 </r>
       <r>   -1.1548    1.0000 </r>
       <r>   -1.0739    1.0000 </r>
       <r>   -0.7349    1.0000 </r>
       <r>   -0.3953    1.0000 </r>
       <r>   -0.1379    0.7834 </r>
       <r>    0.1265    0.0016 </r>
       <r>    0.9573    0.0000 </r>
       <r>    1.5079    0.0000 </r>
       <r>    1.8253    0.0000 </r>
       <r>    1.8463    0.0000 </r>
       <r>    1.9801    0.0000 </r>
       <r>    2.0427    0.0000 </r>
       <r>    2.2332    0.0000 </r>
       <r>    2.3421    0.0000 </r>
       <r>    2.6379    0.0000 </r>
       <r>    2.6758    0.0000 </r>
       <r>    2.7637    0.0000 </r>
       <r>    2.8571    0.0000 </r>
       <r>    2.9349    0.0000 </r>
      </set>
      <set comment="kpoint 5">
       <r>  -13.5942    1.0000 </r>
       <r>  -12.6151    1.0000 </r>
       <r>  -12.0206    1.0000 </r>
       <r>  -11.9619    1.0000 </r>
       <r>  -11.6813    1.0000 </r>
       <r>  -11.4129    1.0000 </r>
       <r>  -11.3013    1.0000 </r>
       <r>  -11.2158    1.0000 </r>
       <r>  -10.8130    1.0000 </r>
       <r>  -10.6747    1.0000 </r>
       <r>  -10.4464    1.0000 </r>
       <r>   -9.7774    1.0000 </r>
       <r>   -9.0758    1.0000 </r>
       <r>   -8.6854    1.0000 </r>
       <r>   -8.1161    1.0000 </r>
       <r>   -7.6442    1.0000 </r>
       <r>   -7.3580    1.0000 </r>
       <r>   -7.0281    1.0000 </r>
       <r>   -6.9313    1.0000 </r>
       <r>   -6.6901    1.0000 </r>
       <r>   -6.4223    1.0000 </r>
       <r>   -6.1943    1.0000 </r>
       <r>   -5.9943    1.0000 </r>
       <r>   -5.5399    1.0000 </r>
       <r>   -5.2438    1.0000 </r>
       <r>   -5.0675    1.0000 </r>
       <r>   -4.9124    1.0000 </r>
       <r>   -4.8229    1.0000 </r>
       <r>   -4.7301    1.0000 </r>
       <r>   -4.4532    1.0000 </r>
       <r>   -4.3401    1.0000 </r>
       <r>   -4.2511    1.0000 </r>
       <r>   -4.1768    1.0000 </r>
       <r>   -3.6887    1.0000 </r>
       <r>   -3.4468    1.0000 </r>
       <r>   -3.3784    1.0000 </r>
       <r>   -3.1363    1.0000 </r>
       <r>   -3.0756    1.0000 </r>
       <r>   -3.0254    1.0000 </r>
       <r>   -2.8697    1.0000 </r>
       <r>   -2.6751    1.0000 </r>
       <r>   -2.5923    1.0000 </r>
       <r>   -2.4932    1.0000 </r>
       <r>   -2.2173    1.0000 </r>
       <r>   -2.0891    1.0000 </r>
       <r>   -1.9654    1.0000 </r>
       <r>   -1.9086    1.0000 </r>
       <r>   -1.8962    1.0000 </r>
       <r>   -1.7371    1.0000 </r>
       <r>   -1.5459    1.0000 </r>
       <r>   -1.3201    1.0000 </r>
       <r>   -0.8866    1.0000 </r>
       <r>   -0.6279    1.0000 </r>
       <r>   -0.4416    1.0000 </r>
       <r>   -0.1181    0.6925 </r>
       <r>    0.8767    0.0000 </r>
       <r>    1.3780    0.0000 </r>
       <r>    1.5485    0.0000 </r>
       <r>    1.6353    0.0000 </r>
       <r>    1.7721    0.0000 </r>
       <r>    1.9352    0.0000 </r>
       <r>    1.9989    0.0000 </r>
       <r>    2.1989    0.0000 </r>
       <r>    2.3279    0.0000 </r>
       <r>    2.4139    0.0000 </r>
       <r>    2.6272    0.0000 </r>
       <r>    2.6969    0.0000 </r>
       <r>    2.8063    0.0000 </r>
      </set>
      <set comment="kpoint 6">
       <r>  -13.1579    1.0000 </r>
       <r>  -12.1067    1.0000 </r>
       <r>  -11.6015    1.0000 </r>
       <r>  -11.5648    1.0000 </r>
       <r>  -11.2827    1.0000 </r>
       <r>  -11.1587    1.0000 </r>
       <r>  -10.9712    1.0000 </r>
       <r>  -10.8771    1.0000 </r>
       <r>  -10.6585    1.0000 </r>
       <r>  -10.5930    1.0000 </r>
       <r>  -10.4865    1.0000 </r>
       <r>   -9.8157    1.0000 </r>
       <r>   -9.4361    1.0000 </r>
       <r>   -8.8619    1.0000 </r>
       <r>   -8.4086    1.0000 </r>
       <r>   -7.7616    1.0000 </r>
       <r>   -7.5983    1.0000 </r>
       <r>   -7.4897    1.0000 </r>
       <r>   -7.4442    1.0000 </r>
       <r>   -7.0762    1.0000 </r>
       <r>   -6.8104    1.0000 </r>
       <r>   -6.7908    1.0000 </r>
       <r>   -6.6896    1.0000 </r>
       <r>   -6.1982    1.0000 </r>
       <r>   -5.2441    1.0000 </r>
       <r>   -4.9616    1.0000 </r>
       <r>   -4.7675    1.0000 </r>
       <r>   -4.6631    1.0000 </r>
       <r>   -4.5566    1.0000 </r>
       <r>   -4.3292    1.0000 </r>
       <r>   -4.2671    1.0000 </r>
       <r>   -4.1930    1.0000 </r>
       <r>   -4.0969    1.0000 </r>
       <r>   -3.8207    1.0000 </r>
       <r>   -3.6870    1.0000 </r>
       <r>   -3.4471    1.0000 </r>
       <r>   -3.3045    1.0000 </r>
       <r>   -3.2384    1.0000 </r>
       <r>   -3.1644    1.0000 </r>
       <r>   -2.8274    1.0000 </r>
       <r>   -2.8018    1.0000 </r>
       <r>   -2.6209    1.0000 </r>
       <r>   -2.4849    1.0000 </r>
       <r>   -2.3788    1.0000 </r>
       <r>   -2.2769    1.0000 </r>
       <r>   -2.1416    1.0000 </r>
       <r>   -2.0852    1.0000 </r>
       <r>   -2.0490    1.0000 </r>
       <r>   -1.9050    1.0000 </r>
       <r>   -1.8365    1.0000 </r>
       <r>   -1.4419    1.0000 </r>
       <r>   -1.1695    1.0000 </r>
       <r>   -0.7987    1.0000 </r>
       <r>   -0.6017    1.0000 </r>
       <r>   -0.2808    0.9975 </r>
       <r>    0.8240    0.0000 </r>
       <r>    1.1021    0.0000 </r>
       <r>    1.3329    0.0000 </r>
       <r>    1.4399    0.0000 </r>
       <r>    1.6839    0.0000 </r>
       <r>    1.6959    0.0000 </r>
       <r>    1.9767    0.0000 </r>
       <r>    2.0542    0.0000 </r>
       <r>    2.2128    0.0000 </r>
       <r>    2.2394    0.0000 </r>
       <r>    2.3587    0.0000 </r>
       <r>    2.4424    0.0000 </r>
       <r>    2.6362    0.0000 </r>
      </set>
      <set comment="kpoint 7">
       <r>  -12.7838    1.0000 </r>
       <r>  -11.5332    1.0000 </r>
       <r>  -11.4003    1.0000 </r>
       <r>  -11.1788    1.0000 </r>
       <r>  -11.0308    1.0000 </r>
       <r>  -10.9768    1.0000 </r>
       <r>  -10.8754    1.0000 </r>
       <r>  -10.7617    1.0000 </r>
       <r>  -10.7447    1.0000 </r>
       <r>  -10.6663    1.0000 </r>
       <r>  -10.5703    1.0000 </r>
       <r>   -9.8352    1.0000 </r>
       <r>   -9.6192    1.0000 </r>
       <r>   -8.7198    1.0000 </r>
       <r>   -8.4711    1.0000 </r>
       <r>   -8.1112    1.0000 </r>
       <r>   -7.9473    1.0000 </r>
       <r>   -7.7638    1.0000 </r>
       <r>   -7.6011    1.0000 </r>
       <r>   -7.4001    1.0000 </r>
       <r>   -7.3147    1.0000 </r>
       <r>   -7.2119    1.0000 </r>
       <r>   -6.8840    1.0000 </r>
       <r>   -6.5806    1.0000 </r>
       <r>   -4.9492    1.0000 </r>
       <r>   -4.7485    1.0000 </r>
       <r>   -4.5884    1.0000 </r>
       <r>   -4.5310    1.0000 </r>
       <r>   -4.3774    1.0000 </r>
       <r>   -4.3025    1.0000 </r>
       <r>   -4.1034    1.0000 </r>
       <r>   -4.0333    1.0000 </r>
       <r>   -3.9660    1.0000 </r>
       <r>   -3.8724    1.0000 </r>
       <r>   -3.8469    1.0000 </r>
       <r>   -3.6189    1.0000 </r>
       <r>   -3.5536    1.0000 </r>
       <r>   -3.3182    1.0000 </r>
       <r>   -3.2810    1.0000 </r>
       <r>   -3.0659    1.0000 </r>
       <r>   -2.9919    1.0000 </r>
       <r>   -2.7425    1.0000 </r>
       <r>   -2.7026    1.0000 </r>
       <r>   -2.3915    1.0000 </r>
       <r>   -2.2746    1.0000 </r>
       <r>   -2.1858    1.0000 </r>
       <r>   -2.1384    1.0000 </r>
       <r>   -2.0201    1.0000 </r>
       <r>   -1.9927    1.0000 </r>
       <r>   -1.7304    1.0000 </r>
       <r>   -1.5627    1.0000 </r>
       <r>   -1.5065    1.0000 </r>
       <r>   -0.8386    1.0000 </r>
       <r>   -0.6288    1.0000 </r>
       <r>   -0.4056    1.0000 </r>
       <r>    0.8083    0.0000 </r>
       <r>    0.9049    0.0000 </r>
       <r>    1.1974    0.0000 </r>
       <r>    1.3515    0.0000 </r>
       <r>    1.5628    0.0000 </r>
       <r>    1.6291    0.0000 </r>
       <r>    1.8354    0.0000 </r>
       <r>    1.9986    0.0000 </r>
       <r>    2.0350    0.0000 </r>
       <r>    2.1522    0.0000 </r>
       <r>    2.3279    0.0000 </r>
       <r>    2.4024    0.0000 </r>
       <r>    2.5042    0.0000 </r>
      </set>
      <set comment="kpoint 8">
       <r>  -14.4828    1.0000 </r>
       <r>  -13.5169    1.0000 </r>
       <r>  -13.0068    1.0000 </r>
       <r>  -12.8583    1.0000 </r>
       <r>  -12.5198    1.0000 </r>
       <r>  -12.2031    1.0000 </r>
       <r>  -12.0019    1.0000 </r>
       <r>  -11.8975    1.0000 </r>
       <r>  -11.5098    1.0000 </r>
       <r>  -11.2657    1.0000 </r>
       <r>  -11.0314    1.0000 </r>
       <r>  -10.0360    1.0000 </r>
       <r>   -8.5772    1.0000 </r>
       <r>   -8.5411    1.0000 </r>
       <r>   -7.7222    1.0000 </r>
       <r>   -7.4171    1.0000 </r>
       <r>   -6.7613    1.0000 </r>
       <r>   -6.6996    1.0000 </r>
       <r>   -6.6231    1.0000 </r>
       <r>   -6.3973    1.0000 </r>
       <r>   -5.7802    1.0000 </r>
       <r>   -5.5708    1.0000 </r>
       <r>   -4.6950    1.0000 </r>
       <r>   -4.4989    1.0000 </r>
       <r>   -4.0742    1.0000 </r>
       <r>   -3.9905    1.0000 </r>
       <r>   -3.8008    1.0000 </r>
       <r>   -3.7015    1.0000 </r>
       <r>   -3.4657    1.0000 </r>
       <r>   -3.2972    1.0000 </r>
       <r>   -3.1592    1.0000 </r>
       <r>   -3.0197    1.0000 </r>
       <r>   -2.8381    1.0000 </r>
       <r>   -2.7410    1.0000 </r>
       <r>   -2.5510    1.0000 </r>
       <r>   -2.4275    1.0000 </r>
       <r>   -2.4201    1.0000 </r>
       <r>   -2.3544    1.0000 </r>
       <r>   -2.2445    1.0000 </r>
       <r>   -2.1649    1.0000 </r>
       <r>   -2.0268    1.0000 </r>
       <r>   -1.9315    1.0000 </r>
       <r>   -1.8998    1.0000 </r>
       <r>   -1.7822    1.0000 </r>
       <r>   -1.6591    1.0000 </r>
       <r>   -1.5469    1.0000 </r>
       <r>   -1.3943    1.0000 </r>
       <r>   -1.3467    1.0000 </r>
       <r>   -1.1640    1.0000 </r>
       <r>   -1.0401    1.0000 </r>
       <r>   -0.9468    1.0000 </r>
       <r>   -0.3045    0.9992 </r>
       <r>   -0.1836    0.9237 </r>
       <r>    0.1054    0.0039 </r>
       <r>    0.7990    0.0000 </r>
       <r>    1.0410    0.0000 </r>
       <r>    1.1724    0.0000 </r>
       <r>    1.3416    0.0000 </r>
       <r>    1.4287    0.0000 </r>
       <r>    1.6374    0.0000 </r>
       <r>    1.7358    0.0000 </r>
       <r>    1.7737    0.0000 </r>
       <r>    1.8592    0.0000 </r>
       <r>    2.1337    0.0000 </r>
       <r>    2.2227    0.0000 </r>
       <r>    2.4834    0.0000 </r>
       <r>    2.5334    0.0000 </r>
       <r>    2.6253    0.0000 </r>
      </set>
      <set comment="kpoint 9">
       <r>  -14.4236    1.0000 </r>
       <r>  -13.4400    1.0000 </r>
       <r>  -12.9877    1.0000 </r>
       <r>  -12.8127    1.0000 </r>
       <r>  -12.4626    1.0000 </r>
       <r>  -12.1472    1.0000 </r>
       <r>  -11.9290    1.0000 </r>
       <r>  -11.7985    1.0000 </r>
       <r>  -11.4685    1.0000 </r>
       <r>  -11.2268    1.0000 </r>
       <r>  -10.9871    1.0000 </r>
       <r>   -9.9989    1.0000 </r>
       <r>   -8.6099    1.0000 </r>
       <r>   -8.5586    1.0000 </r>
       <r>   -7.7586    1.0000 </r>
       <r>   -7.3681    1.0000 </r>
       <r>   -6.7375    1.0000 </r>
       <r>   -6.7064    1.0000 </r>
       <r>   -6.5598    1.0000 </r>
       <r>   -6.3820    1.0000 </r>
       <r>   -5.7319    1.0000 </r>
       <r>   -5.5200    1.0000 </r>
       <r>   -4.7301    1.0000 </r>
       <r>   -4.5835    1.0000 </r>
       <r>   -4.1613    1.0000 </r>
       <r>   -4.0798    1.0000 </r>
       <r>   -3.9198    1.0000 </r>
       <r>   -3.7401    1.0000 </r>
       <r>   -3.6557    1.0000 </r>
       <r>   -3.5214    1.0000 </r>
       <r>   -3.4181    1.0000 </r>
       <r>   -3.1315    1.0000 </r>
       <r>   -3.0526    1.0000 </r>
       <r>   -2.9880    1.0000 </r>
       <r>   -2.7676    1.0000 </r>
       <r>   -2.6990    1.0000 </r>
       <r>   -2.5886    1.0000 </r>
       <r>   -2.5270    1.0000 </r>
       <r>   -2.3618    1.0000 </r>
       <r>   -2.3219    1.0000 </r>
       <r>   -2.2215    1.0000 </r>
       <r>   -2.1276    1.0000 </r>
       <r>   -2.0360    1.0000 </r>
       <r>   -1.9015    1.0000 </r>
       <r>   -1.8475    1.0000 </r>
       <r>   -1.7739    1.0000 </r>
       <r>   -1.5133    1.0000 </r>
       <r>   -1.3407    1.0000 </r>
       <r>   -1.1136    1.0000 </r>
       <r>   -0.9798    1.0000 </r>
       <r>   -0.8769    1.0000 </r>
       <r>   -0.2385    0.9863 </r>
       <r>   -0.1318    0.7570 </r>
       <r>    0.1183    0.0023 </r>
       <r>    0.7460    0.0000 </r>
       <r>    1.0025    0.0000 </r>
       <r>    1.3320    0.0000 </r>
       <r>    1.5592    0.0000 </r>
       <r>    1.7520    0.0000 </r>
       <r>    1.8779    0.0000 </r>
       <r>    1.9202    0.0000 </r>
       <r>    2.1469    0.0000 </r>
       <r>    2.2186    0.0000 </r>
       <r>    2.4385    0.0000 </r>
       <r>    2.4815    0.0000 </r>
       <r>    2.5290    0.0000 </r>
       <r>    2.6231    0.0000 </r>
       <r>    2.8841    0.0000 </r>
      </set>
      <set comment="kpoint 10">
       <r>  -14.2495    1.0000 </r>
       <r>  -13.2434    1.0000 </r>
       <r>  -12.8512    1.0000 </r>
       <r>  -12.6542    1.0000 </r>
       <r>  -12.2962    1.0000 </r>
       <r>  -11.9836    1.0000 </r>
       <r>  -11.7567    1.0000 </r>
       <r>  -11.6011    1.0000 </r>
       <r>  -11.3291    1.0000 </r>
       <r>  -11.1008    1.0000 </r>
       <r>  -10.8459    1.0000 </r>
       <r>   -9.9148    1.0000 </r>
       <r>   -8.6729    1.0000 </r>
       <r>   -8.5153    1.0000 </r>
       <r>   -7.8577    1.0000 </r>
       <r>   -7.3371    1.0000 </r>
       <r>   -6.7434    1.0000 </r>
       <r>   -6.6872    1.0000 </r>
       <r>   -6.5362    1.0000 </r>
       <r>   -6.3900    1.0000 </r>
       <r>   -5.6864    1.0000 </r>
       <r>   -5.5486    1.0000 </r>
       <r>   -4.8985    1.0000 </r>
       <r>   -4.8666    1.0000 </r>
       <r>   -4.4839    1.0000 </r>
       <r>   -4.4049    1.0000 </r>
       <r>   -4.3283    1.0000 </r>
       <r>   -4.0337    1.0000 </r>
       <r>   -4.0130    1.0000 </r>
       <r>   -3.9107    1.0000 </r>
       <r>   -3.7349    1.0000 </r>
       <r>   -3.6621    1.0000 </r>
       <r>   -3.4711    1.0000 </r>
       <r>   -3.3279    1.0000 </r>
       <r>   -3.1394    1.0000 </r>
       <r>   -2.9974    1.0000 </r>
       <r>   -2.9316    1.0000 </r>
       <r>   -2.8474    1.0000 </r>
       <r>   -2.8124    1.0000 </r>
       <r>   -2.6727    1.0000 </r>
       <r>   -2.6148    1.0000 </r>
       <r>   -2.3873    1.0000 </r>
       <r>   -2.3191    1.0000 </r>
       <r>   -2.0528    1.0000 </r>
       <r>   -1.9436    1.0000 </r>
       <r>   -1.8655    1.0000 </r>
       <r>   -1.5643    1.0000 </r>
       <r>   -1.4645    1.0000 </r>
       <r>   -1.1684    1.0000 </r>
       <r>   -0.9726    1.0000 </r>
       <r>   -0.8642    1.0000 </r>
       <r>   -0.4082    1.0000 </r>
       <r>   -0.1770    0.9093 </r>
       <r>    0.1317    0.0012 </r>
       <r>    0.3903    0.0000 </r>
       <r>    1.0084    0.0000 </r>
       <r>    1.2872    0.0000 </r>
       <r>    1.6365    0.0000 </r>
       <r>    1.9734    0.0000 </r>
       <r>    2.0648    0.0000 </r>
       <r>    2.2119    0.0000 </r>
       <r>    2.3232    0.0000 </r>
       <r>    2.7063    0.0000 </r>
       <r>    2.7284    0.0000 </r>
       <r>    2.8307    0.0000 </r>
       <r>    2.9365    0.0000 </r>
       <r>    3.0213    0.0000 </r>
       <r>    3.0882    0.0000 </r>
      </set>
      <set comment="kpoint 11">
       <r>  -13.9666    1.0000 </r>
       <r>  -12.9320    1.0000 </r>
       <r>  -12.5998    1.0000 </r>
       <r>  -12.3887    1.0000 </r>
       <r>  -12.0282    1.0000 </r>
       <r>  -11.7206    1.0000 </r>
       <r>  -11.5014    1.0000 </r>
       <r>  -11.3249    1.0000 </r>
       <r>  -11.1073    1.0000 </r>
       <r>  -10.9114    1.0000 </r>
       <r>  -10.6285    1.0000 </r>
       <r>   -9.8155    1.0000 </r>
       <r>   -8.8038    1.0000 </r>
       <r>   -8.6436    1.0000 </r>
       <r>   -7.9151    1.0000 </r>
       <r>   -7.4245    1.0000 </r>
       <r>   -6.9243    1.0000 </r>
       <r>   -6.7281    1.0000 </r>
       <r>   -6.6787    1.0000 </r>
       <r>   -6.4734    1.0000 </r>
       <r>   -5.8655    1.0000 </r>
       <r>   -5.8352    1.0000 </r>
       <r>   -5.2419    1.0000 </r>
       <r>   -5.1502    1.0000 </r>
       <r>   -5.0582    1.0000 </r>
       <r>   -4.7245    1.0000 </r>
       <r>   -4.6935    1.0000 </r>
       <r>   -4.6015    1.0000 </r>
       <r>   -4.5677    1.0000 </r>
       <r>   -4.3255    1.0000 </r>
       <r>   -4.1874    1.0000 </r>
       <r>   -4.0401    1.0000 </r>
       <r>   -3.7737    1.0000 </r>
       <r>   -3.6414    1.0000 </r>
       <r>   -3.3418    1.0000 </r>
       <r>   -3.2378    1.0000 </r>
       <r>   -3.1720    1.0000 </r>
       <r>   -3.1228    1.0000 </r>
       <r>   -2.7632    1.0000 </r>
       <r>   -2.7174    1.0000 </r>
       <r>   -2.6523    1.0000 </r>
       <r>   -2.5611    1.0000 </r>
       <r>   -2.4701    1.0000 </r>
       <r>   -2.0738    1.0000 </r>
       <r>   -1.9989    1.0000 </r>
       <r>   -1.9267    1.0000 </r>
       <r>   -1.8030    1.0000 </r>
       <r>   -1.6423    1.0000 </r>
       <r>   -1.4192    1.0000 </r>
       <r>   -1.1456    1.0000 </r>
       <r>   -1.0717    1.0000 </r>
       <r>   -0.7175    1.0000 </r>
       <r>   -0.4239    1.0000 </r>
       <r>   -0.1474    0.8206 </r>
       <r>   -0.0542    0.3445 </r>
       <r>    0.9012    0.0000 </r>
       <r>    1.3283    0.0000 </r>
       <r>    1.4705    0.0000 </r>
       <r>    1.5744    0.0000 </r>
       <r>    1.8781    0.0000 </r>
       <r>    2.0635    0.0000 </r>
       <r>    2.2410    0.0000 </r>
       <r>    2.4716    0.0000 </r>
       <r>    2.5939    0.0000 </r>
       <r>    2.6812    0.0000 </r>
       <r>    2.8863    0.0000 </r>
       <r>    3.0174    0.0000 </r>
       <r>    3.1977    0.0000 </r>
      </set>
      <set comment="kpoint 12">
       <r>  -13.5891    1.0000 </r>
       <r>  -12.5152    1.0000 </r>
       <r>  -12.2407    1.0000 </r>
       <r>  -12.0317    1.0000 </r>
       <r>  -11.6764    1.0000 </r>
       <r>  -11.3787    1.0000 </r>
       <r>  -11.2094    1.0000 </r>
       <r>  -11.0120    1.0000 </r>
       <r>  -10.8436    1.0000 </r>
       <r>  -10.7185    1.0000 </r>
       <r>  -10.4229    1.0000 </r>
       <r>   -9.7699    1.0000 </r>
       <r>   -9.0670    1.0000 </r>
       <r>   -9.0023    1.0000 </r>
       <r>   -7.7603    1.0000 </r>
       <r>   -7.7383    1.0000 </r>
       <r>   -7.3145    1.0000 </r>
       <r>   -7.1446    1.0000 </r>
       <r>   -6.9940    1.0000 </r>
       <r>   -6.7056    1.0000 </r>
       <r>   -6.3783    1.0000 </r>
       <r>   -6.2216    1.0000 </r>
       <r>   -5.9491    1.0000 </r>
       <r>   -5.6448    1.0000 </r>
       <r>   -5.4126    1.0000 </r>
       <r>   -5.0458    1.0000 </r>
       <r>   -4.9718    1.0000 </r>
       <r>   -4.7045    1.0000 </r>
       <r>   -4.5367    1.0000 </r>
       <r>   -4.4392    1.0000 </r>
       <r>   -4.3765    1.0000 </r>
       <r>   -4.2280    1.0000 </r>
       <r>   -4.0415    1.0000 </r>
       <r>   -3.7674    1.0000 </r>
       <r>   -3.3738    1.0000 </r>
       <r>   -3.2342    1.0000 </r>
       <r>   -3.0791    1.0000 </r>
       <r>   -3.0211    1.0000 </r>
       <r>   -2.9391    1.0000 </r>
       <r>   -2.8908    1.0000 </r>
       <r>   -2.6152    1.0000 </r>
       <r>   -2.5193    1.0000 </r>
       <r>   -2.4578    1.0000 </r>
       <r>   -2.3343    1.0000 </r>
       <r>   -2.2134    1.0000 </r>
       <r>   -1.9963    1.0000 </r>
       <r>   -1.9592    1.0000 </r>
       <r>   -1.8670    1.0000 </r>
       <r>   -1.7741    1.0000 </r>
       <r>   -1.5204    1.0000 </r>
       <r>   -1.3286    1.0000 </r>
       <r>   -0.9651    1.0000 </r>
       <r>   -0.7047    1.0000 </r>
       <r>   -0.5208    1.0000 </r>
       <r>   -0.3397    0.9999 </r>
       <r>    0.7448    0.0000 </r>
       <r>    1.1587    0.0000 </r>
       <r>    1.2208    0.0000 </r>
       <r>    1.3094    0.0000 </r>
       <r>    1.6021    0.0000 </r>
       <r>    1.9696    0.0000 </r>
       <r>    2.1504    0.0000 </r>
       <r>    2.2476    0.0000 </r>
       <r>    2.4298    0.0000 </r>
       <r>    2.5395    0.0000 </r>
       <r>    2.5882    0.0000 </r>
       <r>    2.6837    0.0000 </r>
       <r>    2.9456    0.0000 </r>
      </set>
      <set comment="kpoint 13">
       <r>  -13.1541    1.0000 </r>
       <r>  -12.0116    1.0000 </r>
       <r>  -11.7907    1.0000 </r>
       <r>  -11.6261    1.0000 </r>
       <r>  -11.2804    1.0000 </r>
       <r>  -11.0768    1.0000 </r>
       <r>  -10.9702    1.0000 </r>
       <r>  -10.7558    1.0000 </r>
       <r>  -10.6332    1.0000 </r>
       <r>  -10.6065    1.0000 </r>
       <r>  -10.4992    1.0000 </r>
       <r>   -9.8359    1.0000 </r>
       <r>   -9.4003    1.0000 </r>
       <r>   -8.9924    1.0000 </r>
       <r>   -8.1433    1.0000 </r>
       <r>   -7.8122    1.0000 </r>
       <r>   -7.7611    1.0000 </r>
       <r>   -7.6230    1.0000 </r>
       <r>   -7.3885    1.0000 </r>
       <r>   -6.9902    1.0000 </r>
       <r>   -6.8980    1.0000 </r>
       <r>   -6.7250    1.0000 </r>
       <r>   -6.6907    1.0000 </r>
       <r>   -6.2974    1.0000 </r>
       <r>   -5.3759    1.0000 </r>
       <r>   -4.9872    1.0000 </r>
       <r>   -4.8186    1.0000 </r>
       <r>   -4.6415    1.0000 </r>
       <r>   -4.4974    1.0000 </r>
       <r>   -4.4406    1.0000 </r>
       <r>   -4.1523    1.0000 </r>
       <r>   -4.0752    1.0000 </r>
       <r>   -3.8917    1.0000 </r>
       <r>   -3.7598    1.0000 </r>
       <r>   -3.3852    1.0000 </r>
       <r>   -3.3452    1.0000 </r>
       <r>   -3.2967    1.0000 </r>
       <r>   -3.1638    1.0000 </r>
       <r>   -3.1363    1.0000 </r>
       <r>   -2.9573    1.0000 </r>
       <r>   -2.9177    1.0000 </r>
       <r>   -2.7240    1.0000 </r>
       <r>   -2.5451    1.0000 </r>
       <r>   -2.3559    1.0000 </r>
       <r>   -2.2859    1.0000 </r>
       <r>   -2.1137    1.0000 </r>
       <r>   -2.1044    1.0000 </r>
       <r>   -2.0174    1.0000 </r>
       <r>   -1.8754    1.0000 </r>
       <r>   -1.7390    1.0000 </r>
       <r>   -1.4999    1.0000 </r>
       <r>   -1.4101    1.0000 </r>
       <r>   -0.8729    1.0000 </r>
       <r>   -0.6182    1.0000 </r>
       <r>   -0.4700    1.0000 </r>
       <r>    0.6777    0.0000 </r>
       <r>    0.9543    0.0000 </r>
       <r>    1.1735    0.0000 </r>
       <r>    1.2699    0.0000 </r>
       <r>    1.3616    0.0000 </r>
       <r>    1.7892    0.0000 </r>
       <r>    1.9579    0.0000 </r>
       <r>    1.9986    0.0000 </r>
       <r>    2.1458    0.0000 </r>
       <r>    2.2923    0.0000 </r>
       <r>    2.5583    0.0000 </r>
       <r>    2.6077    0.0000 </r>
       <r>    2.7215    0.0000 </r>
      </set>
      <set comment="kpoint 14">
       <r>  -12.7822    1.0000 </r>
       <r>  -11.4629    1.0000 </r>
       <r>  -11.4059    1.0000 </r>
       <r>  -11.2955    1.0000 </r>
       <r>  -11.0442    1.0000 </r>
       <r>  -10.9896    1.0000 </r>
       <r>  -10.8959    1.0000 </r>
       <r>  -10.7433    1.0000 </r>
       <r>  -10.7306    1.0000 </r>
       <r>  -10.6117    1.0000 </r>
       <r>  -10.5518    1.0000 </r>
       <r>   -9.8415    1.0000 </r>
       <r>   -9.6096    1.0000 </r>
       <r>   -8.5863    1.0000 </r>
       <r>   -8.4313    1.0000 </r>
       <r>   -8.3597    1.0000 </r>
       <r>   -7.9363    1.0000 </r>
       <r>   -7.7894    1.0000 </r>
       <r>   -7.5470    1.0000 </r>
       <r>   -7.3480    1.0000 </r>
       <r>   -7.2707    1.0000 </r>
       <r>   -7.1716    1.0000 </r>
       <r>   -6.9649    1.0000 </r>
       <r>   -6.6929    1.0000 </r>
       <r>   -5.0516    1.0000 </r>
       <r>   -4.7690    1.0000 </r>
       <r>   -4.5754    1.0000 </r>
       <r>   -4.5003    1.0000 </r>
       <r>   -4.3839    1.0000 </r>
       <r>   -4.2310    1.0000 </r>
       <r>   -4.1722    1.0000 </r>
       <r>   -3.9723    1.0000 </r>
       <r>   -3.9180    1.0000 </r>
       <r>   -3.7231    1.0000 </r>
       <r>   -3.6919    1.0000 </r>
       <r>   -3.5557    1.0000 </r>
       <r>   -3.5230    1.0000 </r>
       <r>   -3.3350    1.0000 </r>
       <r>   -3.2857    1.0000 </r>
       <r>   -3.0825    1.0000 </r>
       <r>   -3.0105    1.0000 </r>
       <r>   -2.7875    1.0000 </r>
       <r>   -2.6553    1.0000 </r>
       <r>   -2.6215    1.0000 </r>
       <r>   -2.2673    1.0000 </r>
       <r>   -2.1938    1.0000 </r>
       <r>   -2.1527    1.0000 </r>
       <r>   -2.0567    1.0000 </r>
       <r>   -1.8910    1.0000 </r>
       <r>   -1.7236    1.0000 </r>
       <r>   -1.5825    1.0000 </r>
       <r>   -1.5203    1.0000 </r>
       <r>   -0.8729    1.0000 </r>
       <r>   -0.6672    1.0000 </r>
       <r>   -0.5172    1.0000 </r>
       <r>    0.6913    0.0000 </r>
       <r>    0.8522    0.0000 </r>
       <r>    1.1476    0.0000 </r>
       <r>    1.3918    0.0000 </r>
       <r>    1.4859    0.0000 </r>
       <r>    1.5432    0.0000 </r>
       <r>    1.7355    0.0000 </r>
       <r>    1.9160    0.0000 </r>
       <r>    2.0835    0.0000 </r>
       <r>    2.2949    0.0000 </r>
       <r>    2.3984    0.0000 </r>
       <r>    2.4555    0.0000 </r>
       <r>    2.5978    0.0000 </r>
      </set>
      <set comment="kpoint 15">
       <r>  -12.7846    1.0000 </r>
       <r>  -11.5668    1.0000 </r>
       <r>  -11.3905    1.0000 </r>
       <r>  -11.1025    1.0000 </r>
       <r>  -11.0390    1.0000 </r>
       <r>  -10.9630    1.0000 </r>
       <r>  -10.8397    1.0000 </r>
       <r>  -10.7881    1.0000 </r>
       <r>  -10.7381    1.0000 </r>
       <r>  -10.7301    1.0000 </r>
       <r>  -10.5846    1.0000 </r>
       <r>   -9.8430    1.0000 </r>
       <r>   -9.6215    1.0000 </r>
       <r>   -8.7884    1.0000 </r>
       <r>   -8.4649    1.0000 </r>
       <r>   -7.9775    1.0000 </r>
       <r>   -7.9356    1.0000 </r>
       <r>   -7.6677    1.0000 </r>
       <r>   -7.6346    1.0000 </r>
       <r>   -7.4497    1.0000 </r>
       <r>   -7.3110    1.0000 </r>
       <r>   -7.2498    1.0000 </r>
       <r>   -6.9520    1.0000 </r>
       <r>   -6.5907    1.0000 </r>
       <r>   -4.7959    1.0000 </r>
       <r>   -4.7611    1.0000 </r>
       <r>   -4.6103    1.0000 </r>
       <r>   -4.5487    1.0000 </r>
       <r>   -4.4037    1.0000 </r>
       <r>   -4.2593    1.0000 </r>
       <r>   -4.1033    1.0000 </r>
       <r>   -4.0386    1.0000 </r>
       <r>   -3.9866    1.0000 </r>
       <r>   -3.9161    1.0000 </r>
       <r>   -3.8258    1.0000 </r>
       <r>   -3.6852    1.0000 </r>
       <r>   -3.5272    1.0000 </r>
       <r>   -3.3993    1.0000 </r>
       <r>   -3.3230    1.0000 </r>
       <r>   -2.9862    1.0000 </r>
       <r>   -2.8396    1.0000 </r>
       <r>   -2.7806    1.0000 </r>
       <r>   -2.7010    1.0000 </r>
       <r>   -2.4204    1.0000 </r>
       <r>   -2.3084    1.0000 </r>
       <r>   -2.2780    1.0000 </r>
       <r>   -2.1912    1.0000 </r>
       <r>   -2.0934    1.0000 </r>
       <r>   -1.9754    1.0000 </r>
       <r>   -1.7130    1.0000 </r>
       <r>   -1.5254    1.0000 </r>
       <r>   -1.3510    1.0000 </r>
       <r>   -0.8230    1.0000 </r>
       <r>   -0.6475    1.0000 </r>
       <r>   -0.4626    1.0000 </r>
       <r>    0.7498    0.0000 </r>
       <r>    0.9454    0.0000 </r>
       <r>    1.1392    0.0000 </r>
       <r>    1.3408    0.0000 </r>
       <r>    1.6212    0.0000 </r>
       <r>    1.7198    0.0000 </r>
       <r>    1.7676    0.0000 </r>
       <r>    2.0082    0.0000 </r>
       <r>    2.2085    0.0000 </r>
       <r>    2.3068    0.0000 </r>
       <r>    2.3596    0.0000 </r>
       <r>    2.5233    0.0000 </r>
       <r>    2.5890    0.0000 </r>
      </set>
      <set comment="kpoint 16">
       <r>  -13.1593    1.0000 </r>
       <r>  -12.1332    1.0000 </r>
       <r>  -11.5305    1.0000 </r>
       <r>  -11.5167    1.0000 </r>
       <r>  -11.2850    1.0000 </r>
       <r>  -11.2214    1.0000 </r>
       <r>  -10.9701    1.0000 </r>
       <r>  -10.9007    1.0000 </r>
       <r>  -10.6614    1.0000 </r>
       <r>  -10.6219    1.0000 </r>
       <r>  -10.4820    1.0000 </r>
       <r>   -9.8450    1.0000 </r>
       <r>   -9.4028    1.0000 </r>
       <r>   -8.7737    1.0000 </r>
       <r>   -8.5222    1.0000 </r>
       <r>   -7.7888    1.0000 </r>
       <r>   -7.4827    1.0000 </r>
       <r>   -7.4451    1.0000 </r>
       <r>   -7.3609    1.0000 </r>
       <r>   -7.1930    1.0000 </r>
       <r>   -6.8430    1.0000 </r>
       <r>   -6.8328    1.0000 </r>
       <r>   -6.6936    1.0000 </r>
       <r>   -6.1756    1.0000 </r>
       <r>   -5.0908    1.0000 </r>
       <r>   -4.9184    1.0000 </r>
       <r>   -4.8808    1.0000 </r>
       <r>   -4.8222    1.0000 </r>
       <r>   -4.4522    1.0000 </r>
       <r>   -4.3752    1.0000 </r>
       <r>   -4.2759    1.0000 </r>
       <r>   -4.1253    1.0000 </r>
       <r>   -4.0583    1.0000 </r>
       <r>   -3.7572    1.0000 </r>
       <r>   -3.7352    1.0000 </r>
       <r>   -3.4508    1.0000 </r>
       <r>   -3.4140    1.0000 </r>
       <r>   -3.2872    1.0000 </r>
       <r>   -3.1950    1.0000 </r>
       <r>   -2.8710    1.0000 </r>
       <r>   -2.7815    1.0000 </r>
       <r>   -2.6150    1.0000 </r>
       <r>   -2.5173    1.0000 </r>
       <r>   -2.4011    1.0000 </r>
       <r>   -2.2577    1.0000 </r>
       <r>   -2.1607    1.0000 </r>
       <r>   -2.0883    1.0000 </r>
       <r>   -1.9760    1.0000 </r>
       <r>   -1.9040    1.0000 </r>
       <r>   -1.8234    1.0000 </r>
       <r>   -1.4262    1.0000 </r>
       <r>   -1.2174    1.0000 </r>
       <r>   -0.7680    1.0000 </r>
       <r>   -0.4909    1.0000 </r>
       <r>   -0.3158    0.9995 </r>
       <r>    0.8653    0.0000 </r>
       <r>    1.1128    0.0000 </r>
       <r>    1.2804    0.0000 </r>
       <r>    1.3736    0.0000 </r>
       <r>    1.7594    0.0000 </r>
       <r>    1.8703    0.0000 </r>
       <r>    2.0473    0.0000 </r>
       <r>    2.1264    0.0000 </r>
       <r>    2.2489    0.0000 </r>
       <r>    2.3614    0.0000 </r>
       <r>    2.4033    0.0000 </r>
       <r>    2.5821    0.0000 </r>
       <r>    2.6062    0.0000 </r>
      </set>
      <set comment="kpoint 17">
       <r>  -13.5949    1.0000 </r>
       <r>  -12.6274    1.0000 </r>
       <r>  -11.9791    1.0000 </r>
       <r>  -11.9488    1.0000 </r>
       <r>  -11.6811    1.0000 </r>
       <r>  -11.4416    1.0000 </r>
       <r>  -11.2986    1.0000 </r>
       <r>  -11.2493    1.0000 </r>
       <r>  -10.8047    1.0000 </r>
       <r>  -10.6751    1.0000 </r>
       <r>  -10.4525    1.0000 </r>
       <r>   -9.8014    1.0000 </r>
       <r>   -9.0298    1.0000 </r>
       <r>   -8.5867    1.0000 </r>
       <r>   -8.2185    1.0000 </r>
       <r>   -7.7236    1.0000 </r>
       <r>   -7.2655    1.0000 </r>
       <r>   -7.0322    1.0000 </r>
       <r>   -6.9014    1.0000 </r>
       <r>   -6.6603    1.0000 </r>
       <r>   -6.4941    1.0000 </r>
       <r>   -6.1878    1.0000 </r>
       <r>   -6.0030    1.0000 </r>
       <r>   -5.5952    1.0000 </r>
       <r>   -5.1847    1.0000 </r>
       <r>   -5.0164    1.0000 </r>
       <r>   -4.9418    1.0000 </r>
       <r>   -4.9156    1.0000 </r>
       <r>   -4.6792    1.0000 </r>
       <r>   -4.4532    1.0000 </r>
       <r>   -4.3357    1.0000 </r>
       <r>   -4.2628    1.0000 </r>
       <r>   -4.1118    1.0000 </r>
       <r>   -3.5802    1.0000 </r>
       <r>   -3.5074    1.0000 </r>
       <r>   -3.4466    1.0000 </r>
       <r>   -3.1607    1.0000 </r>
       <r>   -3.1032    1.0000 </r>
       <r>   -2.9899    1.0000 </r>
       <r>   -2.8661    1.0000 </r>
       <r>   -2.7314    1.0000 </r>
       <r>   -2.6029    1.0000 </r>
       <r>   -2.4584    1.0000 </r>
       <r>   -2.2404    1.0000 </r>
       <r>   -2.0513    1.0000 </r>
       <r>   -1.9539    1.0000 </r>
       <r>   -1.9014    1.0000 </r>
       <r>   -1.8618    1.0000 </r>
       <r>   -1.7355    1.0000 </r>
       <r>   -1.5513    1.0000 </r>
       <r>   -1.3453    1.0000 </r>
       <r>   -1.0483    1.0000 </r>
       <r>   -0.6978    1.0000 </r>
       <r>   -0.3532    0.9999 </r>
       <r>   -0.0382    0.2656 </r>
       <r>    0.9789    0.0000 </r>
       <r>    1.3387    0.0000 </r>
       <r>    1.5208    0.0000 </r>
       <r>    1.6166    0.0000 </r>
       <r>    1.8973    0.0000 </r>
       <r>    1.9669    0.0000 </r>
       <r>    2.1530    0.0000 </r>
       <r>    2.2543    0.0000 </r>
       <r>    2.3426    0.0000 </r>
       <r>    2.4309    0.0000 </r>
       <r>    2.6165    0.0000 </r>
       <r>    2.6796    0.0000 </r>
       <r>    2.7637    0.0000 </r>
      </set>
      <set comment="kpoint 18">
       <r>  -13.9716    1.0000 </r>
       <r>  -13.0227    1.0000 </r>
       <r>  -12.3835    1.0000 </r>
       <r>  -12.3231    1.0000 </r>
       <r>  -12.0337    1.0000 </r>
       <r>  -11.7395    1.0000 </r>
       <r>  -11.6056    1.0000 </r>
       <r>  -11.5524    1.0000 </r>
       <r>  -11.0609    1.0000 </r>
       <r>  -10.8701    1.0000 </r>
       <r>  -10.6309    1.0000 </r>
       <r>   -9.8517    1.0000 </r>
       <r>   -8.5664    1.0000 </r>
       <r>   -8.4305    1.0000 </r>
       <r>   -7.8628    1.0000 </r>
       <r>   -7.8134    1.0000 </r>
       <r>   -6.9359    1.0000 </r>
       <r>   -6.7223    1.0000 </r>
       <r>   -6.6680    1.0000 </r>
       <r>   -6.4005    1.0000 </r>
       <r>   -6.0119    1.0000 </r>
       <r>   -5.7710    1.0000 </r>
       <r>   -5.3718    1.0000 </r>
       <r>   -5.3598    1.0000 </r>
       <r>   -4.8686    1.0000 </r>
       <r>   -4.7760    1.0000 </r>
       <r>   -4.6327    1.0000 </r>
       <r>   -4.5506    1.0000 </r>
       <r>   -4.4846    1.0000 </r>
       <r>   -4.2207    1.0000 </r>
       <r>   -4.1751    1.0000 </r>
       <r>   -4.0184    1.0000 </r>
       <r>   -3.8019    1.0000 </r>
       <r>   -3.5883    1.0000 </r>
       <r>   -3.4799    1.0000 </r>
       <r>   -3.4524    1.0000 </r>
       <r>   -3.2379    1.0000 </r>
       <r>   -3.0317    1.0000 </r>
       <r>   -2.8895    1.0000 </r>
       <r>   -2.7672    1.0000 </r>
       <r>   -2.6139    1.0000 </r>
       <r>   -2.4746    1.0000 </r>
       <r>   -2.2911    1.0000 </r>
       <r>   -2.1193    1.0000 </r>
       <r>   -1.9325    1.0000 </r>
       <r>   -1.8576    1.0000 </r>
       <r>   -1.7834    1.0000 </r>
       <r>   -1.5816    1.0000 </r>
       <r>   -1.4929    1.0000 </r>
       <r>   -1.2160    1.0000 </r>
       <r>   -1.1402    1.0000 </r>
       <r>   -0.8376    1.0000 </r>
       <r>   -0.4329    1.0000 </r>
       <r>   -0.1686    0.8883 </r>
       <r>    0.2098    0.0000 </r>
       <r>    1.0884    0.0000 </r>
       <r>    1.5584    0.0000 </r>
       <r>    1.6898    0.0000 </r>
       <r>    1.8295    0.0000 </r>
       <r>    1.9683    0.0000 </r>
       <r>    2.1704    0.0000 </r>
       <r>    2.1986    0.0000 </r>
       <r>    2.3605    0.0000 </r>
       <r>    2.4544    0.0000 </r>
       <r>    2.6837    0.0000 </r>
       <r>    2.8809    0.0000 </r>
       <r>    2.9354    0.0000 </r>
       <r>    3.0209    0.0000 </r>
      </set>
      <set comment="kpoint 19">
       <r>  -14.2532    1.0000 </r>
       <r>  -13.3065    1.0000 </r>
       <r>  -12.6987    1.0000 </r>
       <r>  -12.6087    1.0000 </r>
       <r>  -12.3007    1.0000 </r>
[...]
       <r>    2.8096    0.0000 </r>
      </set>
      <set comment="kpoint 54">
       <r>  -12.7831    1.0000 </r>
       <r>  -11.5218    1.0000 </r>
       <r>  -11.3969    1.0000 </r>
       <r>  -11.2010    1.0000 </r>
       <r>  -11.0517    1.0000 </r>
       <r>  -10.9798    1.0000 </r>
       <r>  -10.8810    1.0000 </r>
       <r>  -10.7547    1.0000 </r>
       <r>  -10.7313    1.0000 </r>
       <r>  -10.6526    1.0000 </r>
       <r>  -10.5646    1.0000 </r>
       <r>   -9.8488    1.0000 </r>
       <r>   -9.6125    1.0000 </r>
       <r>   -8.6970    1.0000 </r>
       <r>   -8.4716    1.0000 </r>
       <r>   -8.1510    1.0000 </r>
       <r>   -7.9104    1.0000 </r>
       <r>   -7.7364    1.0000 </r>
       <r>   -7.5909    1.0000 </r>
       <r>   -7.3249    1.0000 </r>
       <r>   -7.2857    1.0000 </r>
       <r>   -7.2011    1.0000 </r>
       <r>   -7.0325    1.0000 </r>
       <r>   -6.7055    1.0000 </r>
       <r>   -4.9793    1.0000 </r>
       <r>   -4.7961    1.0000 </r>
       <r>   -4.5943    1.0000 </r>
       <r>   -4.5105    1.0000 </r>
       <r>   -4.3496    1.0000 </r>
       <r>   -4.2253    1.0000 </r>
       <r>   -4.0998    1.0000 </r>
       <r>   -3.9841    1.0000 </r>
       <r>   -3.8737    1.0000 </r>
       <r>   -3.8022    1.0000 </r>
       <r>   -3.6842    1.0000 </r>
       <r>   -3.5926    1.0000 </r>
       <r>   -3.5187    1.0000 </r>
       <r>   -3.3237    1.0000 </r>
       <r>   -3.2856    1.0000 </r>
       <r>   -3.1375    1.0000 </r>
       <r>   -3.0514    1.0000 </r>
       <r>   -2.8279    1.0000 </r>
       <r>   -2.7054    1.0000 </r>
       <r>   -2.4080    1.0000 </r>
       <r>   -2.3501    1.0000 </r>
       <r>   -2.2745    1.0000 </r>
       <r>   -2.1884    1.0000 </r>
       <r>   -2.0836    1.0000 </r>
       <r>   -1.8830    1.0000 </r>
       <r>   -1.7266    1.0000 </r>
       <r>   -1.5524    1.0000 </r>
       <r>   -1.3982    1.0000 </r>
       <r>   -0.8821    1.0000 </r>
       <r>   -0.6896    1.0000 </r>
       <r>   -0.4930    1.0000 </r>
       <r>    0.6772    0.0000 </r>
       <r>    0.7301    0.0000 </r>
       <r>    1.1822    0.0000 </r>
       <r>    1.3255    0.0000 </r>
       <r>    1.5520    0.0000 </r>
       <r>    1.6256    0.0000 </r>
       <r>    1.8209    0.0000 </r>
       <r>    1.9232    0.0000 </r>
       <r>    2.0271    0.0000 </r>
       <r>    2.3403    0.0000 </r>
       <r>    2.4225    0.0000 </r>
       <r>    2.5588    0.0000 </r>
       <r>    2.7114    0.0000 </r>
      </set>
     </set>
    </set>
   </array>
  </eigenvalues>
  <separator name="orbital magnetization" >
   <v name="MAGDIPOLOUT">      0.00000000      0.00000000      0.00000000</v>
  </separator>
  <dos>
   <i name="efermi">     -0.08251831 </i>
   <total>
    <array>
     <dimension dim="1">gridpoints</dimension>
     <dimension dim="2">spin</dimension>
     <field>energy</field>
     <field>total</field>
     <field>integrated</field>
     <set>
      <set comment="spin 1">
       <r>   -15.4870     0.0000     0.0000 </r>
       <r>   -15.4213     0.0000     0.0000 </r>
       <r>   -15.3557     0.0000     0.0000 </r>
       <r>   -15.2901     0.0000     0.0000 </r>
       <r>   -15.2244     0.0000     0.0000 </r>
       <r>   -15.1588     0.0000     0.0000 </r>
       <r>   -15.0932     0.0000     0.0000 </r>
       <r>   -15.0275     0.0000     0.0000 </r>
       <r>   -14.9619     0.0000     0.0000 </r>
       <r>   -14.8963     0.0000     0.0000 </r>
       <r>   -14.8307     0.0000     0.0000 </r>
       <r>   -14.7650     0.0001     0.0000 </r>
       <r>   -14.6994     0.0028     0.0002 </r>
       <r>   -14.6338     0.0431     0.0030 </r>
       <r>   -14.5681     0.3210     0.0241 </r>
       <r>   -14.5025     1.1840     0.1018 </r>
       <r>   -14.4369     2.2291     0.2481 </r>
       <r>   -14.3712     2.2714     0.3972 </r>
       <r>   -14.3056     1.7878     0.5145 </r>
       <r>   -14.2400     1.8145     0.6336 </r>
       <r>   -14.1743     1.4262     0.7272 </r>
       <r>   -14.1087     0.6515     0.7699 </r>
       <r>   -14.0431     0.6752     0.8143 </r>
       <r>   -13.9775     1.4381     0.9086 </r>
       <r>   -13.9118     1.5840     1.0126 </r>
       <r>   -13.8462     0.7878     1.0643 </r>
       <r>   -13.7806     0.1934     1.0770 </r>
       <r>   -13.7149     0.2097     1.0908 </r>
       <r>   -13.6493     0.9251     1.1515 </r>
       <r>   -13.5837     2.1638     1.2935 </r>
       <r>   -13.5180     2.8027     1.4774 </r>
       <r>   -13.4524     2.5320     1.6436 </r>
       <r>   -13.3868     2.0986     1.7813 </r>
       <r>   -13.3211     1.9414     1.9087 </r>
       <r>   -13.2555     2.1236     2.0481 </r>
       <r>   -13.1899     2.7421     2.2281 </r>
       <r>   -13.1243     3.1494     2.4348 </r>
       <r>   -13.0586     2.8583     2.6224 </r>
       <r>   -12.9930     2.9606     2.8167 </r>
       <r>   -12.9274     3.7057     3.0599 </r>
       <r>   -12.8617     4.6595     3.3657 </r>
       <r>   -12.7961     5.4607     3.7241 </r>
       <r>   -12.7305     5.2584     4.0692 </r>
       <r>   -12.6648     4.7189     4.3789 </r>
       <r>   -12.5992     4.9493     4.7037 </r>
       <r>   -12.5336     4.9900     5.0312 </r>
       <r>   -12.4680     4.6534     5.3366 </r>
       <r>   -12.4023     4.4233     5.6269 </r>
       <r>   -12.3367     4.4882     5.9215 </r>
       <r>   -12.2711     4.5795     6.2220 </r>
       <r>   -12.2054     4.6308     6.5260 </r>
       <r>   -12.1398     5.3431     6.8766 </r>
       <r>   -12.0742     6.9849     7.3351 </r>
       <r>   -12.0085     8.9743     7.9240 </r>
       <r>   -11.9429     8.9609     8.5121 </r>
       <r>   -11.8773     6.8680     8.9629 </r>
       <r>   -11.8116     5.5077     9.3244 </r>
       <r>   -11.7460     5.9933     9.7177 </r>
       <r>   -11.6804     7.1658    10.1880 </r>
       <r>   -11.6148     7.8733    10.7047 </r>
       <r>   -11.5491     8.5690    11.2671 </r>
       <r>   -11.4835     9.0320    11.8599 </r>
       <r>   -11.4179     8.7909    12.4369 </r>
       <r>   -11.3522     8.8066    13.0148 </r>
       <r>   -11.2866     9.8027    13.6582 </r>
       <r>   -11.2210    10.2809    14.3329 </r>
       <r>   -11.1553     9.4409    14.9525 </r>
       <r>   -11.0897     9.5044    15.5763 </r>
       <r>   -11.0241    10.8749    16.2900 </r>
       <r>   -10.9585    11.2501    17.0284 </r>
       <r>   -10.8928    10.7804    17.7359 </r>
       <r>   -10.8272    10.6643    18.4358 </r>
       <r>   -10.7616    10.4342    19.1206 </r>
       <r>   -10.6959    10.4565    19.8069 </r>
       <r>   -10.6303    10.4953    20.4957 </r>
       <r>   -10.5647     8.9016    21.0799 </r>
       <r>   -10.4990     6.2719    21.4915 </r>
       <r>   -10.4334     4.3007    21.7738 </r>
       <r>   -10.3678     2.4452    21.9343 </r>
       <r>   -10.3021     0.8405    21.9894 </r>
       <r>   -10.2365     0.1655    22.0003 </r>
       <r>   -10.1709     0.1755    22.0118 </r>
       <r>   -10.1053     0.8040    22.0646 </r>
       <r>   -10.0396     2.1722    22.2071 </r>
       <r>    -9.9740     3.6757    22.4484 </r>
       <r>    -9.9084     5.1288    22.7850 </r>
       <r>    -9.8427     6.8483    23.2345 </r>
       <r>    -9.7771     6.7236    23.6757 </r>
       <r>    -9.7115     4.0857    23.9439 </r>
       <r>    -9.6458     2.2539    24.0918 </r>
       <r>    -9.5802     1.8711    24.2146 </r>
       <r>    -9.5146     1.3661    24.3043 </r>
       <r>    -9.4490     1.2496    24.3863 </r>
       <r>    -9.3833     1.6059    24.4917 </r>
       <r>    -9.3177     1.2784    24.5756 </r>
       <r>    -9.2521     0.5173    24.6095 </r>
       <r>    -9.1864     0.2392    24.6252 </r>
       <r>    -9.1208     0.7372    24.6736 </r>
       <r>    -9.0552     1.9200    24.7996 </r>
       <r>    -8.9895     2.8434    24.9862 </r>
       <r>    -8.9239     2.7232    25.1649 </r>
       <r>    -8.8583     2.5429    25.3318 </r>
       <r>    -8.7926     3.3208    25.5498 </r>
       <r>    -8.7270     4.2373    25.8279 </r>
       <r>    -8.6614     4.9272    26.1513 </r>
       <r>    -8.5958     6.1446    26.5545 </r>
       <r>    -8.5301     7.3934    27.0398 </r>
       <r>    -8.4645     7.8104    27.5524 </r>
       <r>    -8.3989     6.7050    27.9924 </r>
       <r>    -8.3332     4.1554    28.2651 </r>
       <r>    -8.2676     2.2548    28.4131 </r>
       <r>    -8.2020     2.1031    28.5512 </r>
       <r>    -8.1363     2.7653    28.7326 </r>
       <r>    -8.0707     3.0871    28.9353 </r>
       <r>    -8.0051     3.3001    29.1518 </r>
       <r>    -7.9395     4.4379    29.4431 </r>
       <r>    -7.8738     6.4588    29.8670 </r>
       <r>    -7.8082     8.7318    30.4401 </r>
       <r>    -7.7426     9.6446    31.0731 </r>
       <r>    -7.6769     8.2341    31.6135 </r>
       <r>    -7.6113     6.5297    32.0420 </r>
       <r>    -7.5457     5.7540    32.4196 </r>
       <r>    -7.4800     6.0779    32.8185 </r>
       <r>    -7.4144     7.3434    33.3005 </r>
       <r>    -7.3488     8.2534    33.8422 </r>
       <r>    -7.2831     8.1812    34.3791 </r>
       <r>    -7.2175     6.9334    34.8341 </r>
       <r>    -7.1519     5.0922    35.1683 </r>
       <r>    -7.0863     4.1584    35.4413 </r>
       <r>    -7.0206     5.0223    35.7709 </r>
       <r>    -6.9550     6.7481    36.2138 </r>
       <r>    -6.8894     7.9567    36.7360 </r>
       <r>    -6.8237     9.1641    37.3374 </r>
       <r>    -6.7581    12.1740    38.1364 </r>
       <r>    -6.6925    15.0045    39.1211 </r>
       <r>    -6.6268    13.1107    39.9816 </r>
       <r>    -6.5612     8.8677    40.5636 </r>
       <r>    -6.4956     6.9554    41.0201 </r>
       <r>    -6.4300     6.6883    41.4590 </r>
       <r>    -6.3643     6.3257    41.8742 </r>
       <r>    -6.2987     5.3312    42.2241 </r>
       <r>    -6.2331     4.5195    42.5207 </r>
       <r>    -6.1674     4.1447    42.7927 </r>
       <r>    -6.1018     3.2307    43.0048 </r>
       <r>    -6.0362     2.5252    43.1705 </r>
       <r>    -5.9705     2.9181    43.3620 </r>
       <r>    -5.9049     3.4311    43.5872 </r>
       <r>    -5.8393     4.0060    43.8501 </r>
       <r>    -5.7736     4.9378    44.1742 </r>
       <r>    -5.7080     5.7608    44.5523 </r>
       <r>    -5.6424     6.1707    44.9572 </r>
       <r>    -5.5768     5.7222    45.3328 </r>
       <r>    -5.5111     4.1689    45.6064 </r>
       <r>    -5.4455     3.0458    45.8063 </r>
       <r>    -5.3799     3.5981    46.0424 </r>
       <r>    -5.3142     4.2805    46.3234 </r>
       <r>    -5.2486     4.1893    46.5983 </r>
       <r>    -5.1830     3.8751    46.8526 </r>
       <r>    -5.1173     4.1655    47.1260 </r>
       <r>    -5.0517     6.0504    47.5231 </r>
       <r>    -4.9861     8.2612    48.0653 </r>
       <r>    -4.9204     9.5836    48.6943 </r>
       <r>    -4.8548    10.3435    49.3731 </r>
       <r>    -4.7892    11.1849    50.1072 </r>
       <r>    -4.7236    11.6384    50.8710 </r>
       <r>    -4.6579    11.3721    51.6174 </r>
       <r>    -4.5923    11.7999    52.3918 </r>
       <r>    -4.5267    12.5553    53.2158 </r>
       <r>    -4.4610    12.1480    54.0131 </r>
       <r>    -4.3954    11.3520    54.7581 </r>
       <r>    -4.3298    11.1267    55.4884 </r>
       <r>    -4.2641    11.5316    56.2452 </r>
       <r>    -4.1985    13.1833    57.1104 </r>
       <r>    -4.1329    15.4916    58.1272 </r>
       <r>    -4.0673    16.3512    59.2003 </r>
       <r>    -4.0016    14.5686    60.1564 </r>
       <r>    -3.9360    11.2132    60.8924 </r>
       <r>    -3.8704     9.4620    61.5134 </r>
       <r>    -3.8047    11.0855    62.2409 </r>
       <r>    -3.7391    13.8496    63.1499 </r>
       <r>    -3.6735    14.6311    64.1101 </r>
       <r>    -3.6078    13.5122    64.9969 </r>
       <r>    -3.5422    12.3130    65.8050 </r>
       <r>    -3.4766    12.4824    66.6243 </r>
       <r>    -3.4109    13.7309    67.5254 </r>
       <r>    -3.3453    14.8588    68.5006 </r>
       <r>    -3.2797    15.3466    69.5078 </r>
       <r>    -3.2141    15.0566    70.4960 </r>
       <r>    -3.1484    15.7068    71.5268 </r>
       <r>    -3.0828    17.1674    72.6535 </r>
       <r>    -3.0172    17.0604    73.7732 </r>
       <r>    -2.9515    15.4836    74.7894 </r>
       <r>    -2.8859    14.0467    75.7113 </r>
       <r>    -2.8203    13.9597    76.6275 </r>
       <r>    -2.7546    15.5095    77.6454 </r>
       <r>    -2.6890    16.8465    78.7510 </r>
       <r>    -2.6234    16.5667    79.8383 </r>
       <r>    -2.5578    15.6494    80.8654 </r>
       <r>    -2.4921    15.1154    81.8574 </r>
       <r>    -2.4265    15.3740    82.8664 </r>
       <r>    -2.3609    15.5307    83.8857 </r>
       <r>    -2.2952    15.5088    84.9036 </r>
       <r>    -2.2296    16.0326    85.9558 </r>
       <r>    -2.1640    16.6879    87.0510 </r>
       <r>    -2.0983    17.5676    88.2040 </r>
       <r>    -2.0327    18.5712    89.4228 </r>
       <r>    -1.9671    19.3309    90.6915 </r>
       <r>    -1.9014    19.8457    91.9940 </r>
       <r>    -1.8358    18.8995    93.2344 </r>
       <r>    -1.7702    16.1816    94.2964 </r>
       <r>    -1.7046    12.4235    95.1118 </r>
       <r>    -1.6389     9.4949    95.7349 </r>
       <r>    -1.5733     9.8712    96.3828 </r>
       <r>    -1.5077    11.7078    97.1512 </r>
       <r>    -1.4420    11.7586    97.9229 </r>
       <r>    -1.3764    10.5715    98.6167 </r>
       <r>    -1.3108     8.8606    99.1982 </r>
       <r>    -1.2451     7.2723    99.6755 </r>
       <r>    -1.1795     7.5947   100.1740 </r>
       <r>    -1.1139     8.7359   100.7473 </r>
       <r>    -1.0483     8.5154   101.3062 </r>
       <r>    -0.9826     8.1124   101.8386 </r>
       <r>    -0.9170     8.7990   102.4161 </r>
       <r>    -0.8514     8.9687   103.0047 </r>
       <r>    -0.7857     7.4934   103.4965 </r>
       <r>    -0.7201     5.9315   103.8858 </r>
       <r>    -0.6545     5.3834   104.2391 </r>
       <r>    -0.5888     5.0334   104.5694 </r>
       <r>    -0.5232     5.3940   104.9234 </r>
       <r>    -0.4576     7.0935   105.3890 </r>
       <r>    -0.3919     7.9974   105.9139 </r>
       <r>    -0.3263     7.1913   106.3858 </r>
       <r>    -0.2607     6.7228   106.8271 </r>
       <r>    -0.1951     7.1614   107.2971 </r>
       <r>    -0.1294     6.8269   107.7451 </r>
       <r>    -0.0638     5.1971   108.0862 </r>
       <r>     0.0018     4.1622   108.3594 </r>
       <r>     0.0675     4.2726   108.6398 </r>
       <r>     0.1331     4.0928   108.9084 </r>
       <r>     0.1987     2.9976   109.1051 </r>
       <r>     0.2644     1.7605   109.2207 </r>
       <r>     0.3300     1.0914   109.2923 </r>
       <r>     0.3956     0.8839   109.3503 </r>
       <r>     0.4612     0.8670   109.4072 </r>
       <r>     0.5269     0.9204   109.4676 </r>
       <r>     0.5925     1.1185   109.5410 </r>
       <r>     0.6581     2.0322   109.6744 </r>
       <r>     0.7238     3.8532   109.9273 </r>
       <r>     0.7894     5.4138   110.2826 </r>
       <r>     0.8550     6.2776   110.6946 </r>
       <r>     0.9207     6.9140   111.1484 </r>
       <r>     0.9863     6.9660   111.6055 </r>
       <r>     1.0519     6.8307   112.0538 </r>
       <r>     1.1176     7.2585   112.5302 </r>
       <r>     1.1832     7.6725   113.0338 </r>
       <r>     1.2488     7.9818   113.5576 </r>
       <r>     1.3144     9.6240   114.1892 </r>
       <r>     1.3801    11.1196   114.9190 </r>
       <r>     1.4457    10.3551   115.5986 </r>
       <r>     1.5113     9.7931   116.2414 </r>
       <r>     1.5770    10.7051   116.9439 </r>
       <r>     1.6426    10.9602   117.6633 </r>
       <r>     1.7082    10.4804   118.3511 </r>
       <r>     1.7739    10.8230   119.0614 </r>
       <r>     1.8395    11.6695   119.8273 </r>
       <r>     1.9051    12.6691   120.6588 </r>
       <r>     1.9708    13.8888   121.5703 </r>
       <r>     2.0364    14.7178   122.5362 </r>
       <r>     2.1020    14.7115   123.5018 </r>
       <r>     2.1676    15.0188   124.4874 </r>
       <r>     2.2333    15.6970   125.5176 </r>
       <r>     2.2989    15.2491   126.5185 </r>
       <r>     2.3645    14.6336   127.4789 </r>
       <r>     2.4302    14.6931   128.4432 </r>
       <r>     2.4958    14.5593   129.3987 </r>
       <r>     2.5614    14.9443   130.3795 </r>
       <r>     2.6271    15.5237   131.3983 </r>
       <r>     2.6927    14.1522   132.3272 </r>
       <r>     2.7583    11.5179   133.0831 </r>
       <r>     2.8239     9.3993   133.7000 </r>
       <r>     2.8896     8.4018   134.2514 </r>
       <r>     2.9552     7.8266   134.7650 </r>
       <r>     3.0208     6.9173   135.2190 </r>
       <r>     3.0865     5.4509   135.5768 </r>
       <r>     3.1521     3.6109   135.8137 </r>
       <r>     3.2177     1.9058   135.9388 </r>
       <r>     3.2834     0.7307   135.9868 </r>
       <r>     3.3490     0.1765   135.9984 </r>
       <r>     3.4146     0.0232   135.9999 </r>
       <r>     3.4803     0.0015   136.0000 </r>
       <r>     3.5459     0.0000   136.0000 </r>
       <r>     3.6115     0.0000   136.0000 </r>
       <r>     3.6771     0.0000   136.0000 </r>
       <r>     3.7428     0.0000   136.0000 </r>
       <r>     3.8084     0.0000   136.0000 </r>
       <r>     3.8740     0.0000   136.0000 </r>
       <r>     3.9397     0.0000   136.0000 </r>
       <r>     4.0053     0.0000   136.0000 </r>
       <r>     4.0709     0.0000   136.0000 </r>
       <r>     4.1366     0.0000   136.0000 </r>
       <r>     4.2022     0.0000   136.0000 </r>
      </set>
     </set>
    </array>
   </total>
  </dos>
 </calculation>
 <structure name="finalpos" >
  <crystal>
   <varray name="basis" >
    <v>       3.54040000       0.00000000       0.00000000 </v>
    <v>      -1.77020000      10.29434800       0.00000000 </v>
    <v>       0.00000000       0.00000000      27.50142900 </v>
   </varray>
   <i name="volume">   1002.32009712 </i>
   <varray name="rec_basis" >
    <v>       0.28245396       0.04857034       0.00000000 </v>
    <v>       0.00000000       0.09714068       0.00000000 </v>
    <v>       0.00000000       0.00000000       0.03636175 </v>
   </varray>
  </crystal>
  <varray name="positions" >
   <v>       0.11402300       0.22804500       0.23316207 </v>
   <v>       0.51402300       0.42804500       0.51499159 </v>
   <v>       0.45808900       0.91617900       0.20939482 </v>
   <v>       0.85808900       0.11617900       0.49122434 </v>
   <v>       0.31085400       0.62170900       0.08414979 </v>
   <v>       0.31085400       0.62170900       0.36597930 </v>
   <v>       0.99923000       0.99846000       0.08631254 </v>
   <v>       0.99923000       0.99846000       0.36814206 </v>
   <v>       0.65492700       0.30985400       0.06041748 </v>
   <v>       0.65492700       0.30985400       0.34224700 </v>
   <v>       0.76973800       0.53947500       0.20725292 </v>
   <v>       0.16973800       0.73947500       0.48908244 </v>
   <v>       0.93971600       0.87943300       0.15783749 </v>
   <v>       0.33971600       0.07943300       0.43966701 </v>
   <v>       0.20515200       0.41030300       0.18578822 </v>
   <v>       0.60515200       0.61030300       0.46761774 </v>
   <v>       0.20184900       0.40369900       0.09969156 </v>
   <v>       0.20184900       0.40369900       0.38152107 </v>
   <v>       0.56380500       0.12761000       0.10779021 </v>
   <v>       0.56380500       0.12761000       0.38961973 </v>
   <v>       0.56710600       0.13421200       0.19387616 </v>
   <v>       0.96710600       0.33421200       0.47570568 </v>
   <v>       0.82923400       0.65846800       0.13571444 </v>
   <v>       0.22923400       0.85846800       0.41754396 </v>
  </varray>
 </structure>
</modeling>
