   24   24    1    1
  0.4176334E+02  0.3540400E-09  0.1044544E-08  0.2750143E-08  0.5000000E-15
  1.000000000000000E-004
  CAR 
 unknown system                          
    108     54     68
 
  0.0000000E+00  0.0000000E+00  0.0000000E+00  0.9615385E-02
    1      -15.079231
    2      -13.535446
    3      -12.812031
    4      -12.800338
    5      -12.477526
    6      -12.324334
    7      -12.145731
    8      -12.052666
    9      -11.428844
   10      -11.363952
   11      -10.989216
   12      -10.012347
   13       -8.749354
   14       -8.029076
   15       -7.821310
   16       -7.529410
   17       -6.913959
   18       -6.818680
   19       -6.487377
   20       -6.341582
   21       -5.825584
   22       -5.642442
   23       -4.806635
   24       -4.693836
   25       -4.346463
   26       -4.183122
   27       -3.771529
   28       -3.691185
   29       -3.516468
   30       -3.370624
   31       -3.047296
   32       -2.934372
   33       -2.846034
   34       -2.615405
   35       -2.493669
   36       -2.440277
   37       -2.381903
   38       -2.324282
   39       -2.217950
   40       -2.016428
   41       -1.916230
   42       -1.862733
   43       -1.729464
   44       -1.633488
   45       -1.597408
   46       -1.570749
   47       -1.427740
   48       -1.374630
   49       -1.141505
   50       -1.023018
   51       -0.991040
   52       -0.521304
   53        0.035015
   54        0.293241
   55        0.623721
   56        1.159581
   57        1.178387
   58        1.257816
   59        1.324256
   60        1.633633
   61        1.698198
   62        1.871570
   63        1.976726
   64        1.987664
   65        2.089375
   66        2.174973
   67        2.440207
   68        2.607510
 
  0.7692308E-01 -0.1387779E-16  0.0000000E+00  0.1923077E-01
    1      -15.026230
    2      -13.474084
    3      -12.759421
    4      -12.748185
    5      -12.421915
    6      -12.274055
    7      -12.087956
    8      -11.992732
    9      -11.380025
   10      -11.317327
   11      -10.940778
   12       -9.979875
   13       -8.721620
   14       -8.065866
   15       -7.784279
   16       -7.529068
   17       -6.877990
   18       -6.784393
   19       -6.481406
   20       -6.334727
   21       -5.792065
   22       -5.675188
   23       -4.959907
   24       -4.751244
   25       -4.529839
   26       -4.138416
   27       -3.779132
   28       -3.706533
   29       -3.541378
   30       -3.526414
   31       -3.334562
   32       -3.246042
   33       -3.036707
   34       -2.950362
   35       -2.732659
   36       -2.660006
   37       -2.475442
   38       -2.387575
   39       -2.297124
   40       -2.249164
   41       -2.194510
   42       -2.015991
   43       -1.968533
   44       -1.963166
   45       -1.838898
   46       -1.737716
   47       -1.514456
   48       -1.302984
   49       -1.100448
   50       -1.020766
   51       -0.929372
   52       -0.214854
   53        0.048170
   54        0.389437
   55        0.728604
   56        0.979547
   57        1.350573
   58        1.572491
   59        1.629135
   60        1.765660
   61        1.931664
   62        2.104277
   63        2.141176
   64        2.235132
   65        2.302308
   66        2.409097
   67        2.617090
   68        2.777641
 
  0.1538462E+00 -0.2775558E-16  0.0000000E+00  0.1923077E-01
    1      -14.870175
    2      -13.291066
    3      -12.604889
    4      -12.592485
    5      -12.257107
    6      -12.127027
    7      -11.919341
    8      -11.815691
    9      -11.238415
   10      -11.182758
   11      -10.801788
   12       -9.891851
   13       -8.648190
   14       -8.162387
   15       -7.742080
   16       -7.563710
   17       -6.801356
   18       -6.706546
   19       -6.493032
   20       -6.424879
   21       -5.917034
   22       -5.715528
   23       -5.332261
   24       -4.867524
   25       -4.636681
   26       -4.220935
   27       -4.143236
   28       -4.077666
   29       -3.974913
   30       -3.833454
   31       -3.737156
   32       -3.640509
   33       -3.483125
   34       -3.310011
   35       -3.146035
   36       -3.084902
   37       -2.991574
   38       -2.965949
   39       -2.843268
   40       -2.620959
   41       -2.397129
   42       -2.358520
   43       -2.266759
   44       -2.139404
   45       -1.941914
   46       -1.768513
   47       -1.657127
   48       -1.284286
   49       -1.134204
   50       -1.069897
   51       -0.924104
   52       -0.155906
   53        0.141278
   54        0.463686
   55        0.643399
   56        0.977811
   57        1.390626
   58        1.500864
   59        1.907618
   60        1.954516
   61        2.258955
   62        2.414801
   63        2.447521
   64        2.608889
   65        2.671161
   66        2.825102
   67        2.966379
   68        3.085679
 
  0.2307692E+00 -0.4163336E-16  0.0000000E+00  0.1923077E-01
    1      -14.621381
    2      -12.989967
    3      -12.361486
    4      -12.336413
    5      -11.990333
    6      -11.896815
    7      -11.653505
    8      -11.533414
    9      -11.022257
   10      -10.979828
   11      -10.598361
   12       -9.780368
   13       -8.578170
   14       -8.353760
   15       -7.816205
   16       -7.742394
   17       -6.946101
   18       -6.715898
   19       -6.668857
   20       -6.624547
   21       -6.053938
   22       -5.738031
   23       -5.578534
   24       -5.333535
   25       -4.966203
   26       -4.804640
   27       -4.599573
   28       -4.512229
   29       -4.447536
   30       -4.219868
   31       -4.172492
   32       -4.077710
   33       -3.793706
   34       -3.677081
   35       -3.475083
   36       -3.449858
   37       -3.256425
   38       -3.139604
   39       -2.988139
   40       -2.693794
   41       -2.550571
   42       -2.504181
   43       -2.429178
   44       -2.340880
   45       -1.911672
   46       -1.833767
   47       -1.736334
   48       -1.471771
   49       -1.319707
   50       -1.143170
   51       -1.049976
   52       -0.576714
   53       -0.188341
   54        0.191042
   55        0.495973
   56        1.004386
   57        1.174998
   58        1.671066
   59        1.878982
   60        1.952887
   61        2.069258
   62        2.258930
   63        2.391717
   64        2.512602
   65        2.666488
   66        2.707304
   67        2.885854
   68        2.933493
 
  0.3076923E+00 -0.5551115E-16  0.0000000E+00  0.1923077E-01
    1      -14.303366
    2      -12.578092
    3      -12.068140
    4      -11.988387
    5      -11.639476
    6      -11.609324
    7      -11.314021
    8      -11.179005
    9      -10.779041
   10      -10.754889
   11      -10.411869
   12       -9.703828
   13       -8.678257
   14       -8.648020
   15       -8.077124
   16       -7.950927
   17       -7.372176
   18       -6.987579
   19       -6.912913
   20       -6.883131
   21       -6.315066
   22       -6.167666
   23       -6.009382
   24       -5.949495
   25       -5.214786
   26       -5.157909
   27       -4.852360
   28       -4.791760
   29       -4.695917
   30       -4.530054
   31       -4.309729
   32       -4.216758
   33       -4.141707
   34       -3.690197
   35       -3.536462
   36       -3.394828
   37       -3.257788
   38       -3.096849
   39       -3.029845
   40       -2.844707
   41       -2.768420
   42       -2.640402
   43       -2.475875
   44       -2.372184
   45       -2.058597
   46       -1.895601
   47       -1.877394
   48       -1.725562
   49       -1.613580
   50       -1.313065
   51       -1.259867
   52       -0.937233
   53       -0.559552
   54       -0.103164
   55        0.257528
   56        0.666725
   57        1.176678
   58        1.498058
   59        1.617479
   60        1.782023
   61        1.909674
   62        2.019126
   63        2.203117
   64        2.333803
   65        2.377797
   66        2.568308
   67        2.698828
   68        2.777114
 
  0.3846154E+00 -0.8326673E-16  0.0000000E+00  0.1923077E-01
    1      -13.968107
    2      -12.069667
    3      -11.835002
    4      -11.569664
    5      -11.292712
    6      -11.236603
    7      -10.945280
    8      -10.837894
    9      -10.625707
   10      -10.597660
   11      -10.451080
   12       -9.701249
   13       -8.941753
   14       -8.825920
   15       -8.369705
   16       -8.001626
   17       -7.689607
   18       -7.454843
   19       -7.404689
   20       -7.255821
   21       -6.872388
   22       -6.761931
   23       -6.650645
   24       -6.432542
   25       -5.225439
   26       -5.192664
   27       -4.785528
   28       -4.654969
   29       -4.521918
   30       -4.469972
   31       -4.234920
   32       -4.139936
   33       -4.065331
   34       -3.675611
   35       -3.652208
   36       -3.632749
   37       -3.270360
   38       -3.225446
   39       -3.163011
   40       -3.064167
   41       -2.804598
   42       -2.669493
   43       -2.458570
   44       -2.389876
   45       -2.269060
   46       -2.082064
   47       -2.026645
   48       -1.858436
   49       -1.793959
   50       -1.595155
   51       -1.376019
   52       -1.122745
   53       -0.873813
   54       -0.399368
   55        0.072581
   56        0.370186
   57        1.002996
   58        1.374562
   59        1.540937
   60        1.692410
   61        1.740645
   62        1.829036
   63        2.056911
   64        2.131106
   65        2.267752
   66        2.323772
   67        2.521124
   68        2.711671
 
  0.4615385E+00 -0.8326673E-16  0.0000000E+00  0.1923077E-01
    1      -13.726021
    2      -11.777708
    3      -11.495605
    4      -11.147985
    5      -10.954089
    6      -10.930775
    7      -10.842080
    8      -10.728508
    9      -10.658482
   10      -10.627374
   11      -10.608093
   12       -9.734156
   13       -9.101666
   14       -8.686260
   15       -8.431324
   16       -8.164145
   17       -8.074218
   18       -7.716165
   19       -7.560137
   20       -7.449076
   21       -7.300978
   22       -7.273283
   23       -7.182126
   24       -6.780951
   25       -5.072372
   26       -4.913665
   27       -4.641573
   28       -4.505263
   29       -4.457645
   30       -4.246529
   31       -4.061381
   32       -4.044409
   33       -3.944650
   34       -3.833364
   35       -3.750308
   36       -3.639721
   37       -3.557778
   38       -3.409736
   39       -3.256393
   40       -3.138387
   41       -2.999361
   42       -2.708643
   43       -2.611710
   44       -2.378609
   45       -2.348570
   46       -2.181493
   47       -2.090147
   48       -1.887271
   49       -1.776747
   50       -1.650407
   51       -1.486129
   52       -1.198153
   53       -1.051809
   54       -0.601397
   55       -0.051225
   56        0.214688
   57        0.824731
   58        1.348573
   59        1.527848
   60        1.574557
   61        1.678603
   62        1.735864
   63        1.878014
   64        1.966133
   65        2.086848
   66        2.384369
   67        2.485258
   68        2.602719
 
  0.0000000E+00  0.2500000E+00  0.0000000E+00  0.1923077E-01
    1      -15.077668
    2      -13.479494
    3      -12.974339
    4      -12.859539
    5      -12.476546
    6      -12.291169
    7      -12.078754
    8      -11.862766
    9      -11.473863
   10      -11.389368
   11      -10.997040
   12       -9.970479
   13       -8.829144
   14       -8.512059
   15       -7.705015
   16       -7.372530
   17       -6.724827
   18       -6.661650
   19       -6.594549
   20       -6.319303
   21       -5.748409
   22       -5.518117
   23       -4.694482
   24       -4.591889
   25       -4.375372
   26       -4.210304
   27       -4.015849
   28       -3.758429
   29       -3.572319
   30       -3.372370
   31       -3.121603
   32       -3.058576
   33       -2.745670
   34       -2.708679
   35       -2.577769
   36       -2.386648
   37       -2.382380
   38       -2.298934
   39       -2.237790
   40       -2.145742
   41       -1.982536
   42       -1.945484
   43       -1.874405
   44       -1.620556
   45       -1.591134
   46       -1.492988
   47       -1.360095
   48       -1.311813
   49       -1.138364
   50       -1.023276
   51       -0.963256
   52       -0.400454
   53        0.047529
   54        0.420241
   55        0.794528
   56        1.136735
   57        1.203236
   58        1.297069
   59        1.414356
   60        1.651851
   61        1.741290
   62        1.843309
   63        1.937515
   64        2.007057
   65        2.145868
   66        2.268659
   67        2.561339
   68        2.624226
 
  0.7692308E-01  0.2500000E+00  0.0000000E+00  0.1923077E-01
    1      -15.024381
    2      -13.402386
    3      -12.955415
    4      -12.815685
    5      -12.419483
    6      -12.232572
    7      -12.015835
    8      -11.764348
    9      -11.432378
   10      -11.347145
   11      -10.952505
   12       -9.933676
   13       -8.804388
   14       -8.570574
   15       -7.738540
   16       -7.322880
   17       -6.687905
   18       -6.665917
   19       -6.523229
   20       -6.246278
   21       -5.700384
   22       -5.563977
   23       -4.935862
   24       -4.680548
   25       -4.519177
   26       -4.166556
   27       -4.076256
   28       -3.743627
   29       -3.619510
   30       -3.528045
   31       -3.385219
   32       -3.129862
   33       -3.014066
   34       -3.006597
   35       -2.778451
   36       -2.697468
   37       -2.518610
   38       -2.438794
   39       -2.376566
   40       -2.291783
   41       -2.242896
   42       -2.148886
   43       -2.009813
   44       -1.908269
   45       -1.834884
   46       -1.750937
   47       -1.435954
   48       -1.279073
   49       -1.084347
   50       -0.986685
   51       -0.907005
   52       -0.088619
   53        0.079443
   54        0.429509
   55        0.846597
   56        0.975037
   57        1.372336
   58        1.605525
   59        1.733179
   60        1.791818
   61        1.938066
   62        1.988754
   63        2.196584
   64        2.253193
   65        2.459446
   66        2.531162
   67        2.664687
   68        2.879542
 
  0.1538462E+00  0.2500000E+00  0.0000000E+00  0.1923077E-01
    1      -14.868216
    2      -13.205501
    3      -12.819182
    4      -12.665772
    5      -12.253078
    6      -12.074931
    7      -11.855109
    8      -11.567501
    9      -11.292779
   10      -11.214259
   11      -10.811058
   12       -9.854564
   13       -8.707590
   14       -8.634793
   15       -7.762283
   16       -7.292066
   17       -6.701925
   18       -6.650984
   19       -6.495771
   20       -6.189620
   21       -5.932235
   22       -5.652194
   23       -5.297005
   24       -4.834364
   25       -4.640116
   26       -4.376781
   27       -4.296456
   28       -4.215464
   29       -3.979255
   30       -3.848065
   31       -3.692652
   32       -3.586381
   33       -3.520981
   34       -3.275027
   35       -3.065938
   36       -3.032557
   37       -2.959662
   38       -2.819165
   39       -2.773401
   40       -2.653861
   41       -2.599627
   42       -2.446432
   43       -2.320270
   44       -2.248696
   45       -1.969014
   46       -1.888230
   47       -1.499015
   48       -1.317162
   49       -1.136217
   50       -1.051170
   51       -0.899667
   52       -0.135024
   53        0.120255
   54        0.530956
   55        0.665437
   56        0.990162
   57        1.322347
   58        1.483228
   59        1.686969
   60        2.071280
   61        2.124004
   62        2.316424
   63        2.390656
   64        2.702428
   65        2.770364
   66        2.935603
   67        3.066330
   68        3.101153
 
  0.2307692E+00  0.2500000E+00  0.0000000E+00  0.1923077E-01
    1      -14.619556
    2      -12.893683
    3      -12.568191
    4      -12.421542
    5      -11.985159
    6      -11.832449
    7      -11.609644
    8      -11.291841
    9      -11.070822
   10      -11.009441
   11      -10.593596
   12       -9.765033
   13       -8.768257
   14       -8.579743
   15       -7.856875
   16       -7.381298
   17       -7.076929
   18       -6.689607
   19       -6.644087
   20       -6.386319
   21       -6.073300
   22       -5.820483
   23       -5.642475
   24       -5.199428
   25       -5.028095
   26       -4.856605
   27       -4.662495
   28       -4.556919
   29       -4.506715
   30       -4.390743
   31       -4.091008
   32       -4.004260
   33       -3.745707
   34       -3.601006
   35       -3.399445
   36       -3.247036
   37       -3.195267
   38       -3.088402
   39       -2.954039
   40       -2.688033
   41       -2.568819
   42       -2.527672
   43       -2.487629
   44       -2.332850
   45       -1.991212
   46       -1.911693
   47       -1.772263
   48       -1.411783
   49       -1.356554
   50       -1.208926
   51       -1.032208
   52       -0.609056
   53       -0.159720
   54       -0.001494
   55        0.431109
   56        0.844822
   57        1.183045
   58        1.451474
   59        1.531185
   60        1.680914
   61        2.011915
   62        2.218089
   63        2.485998
   64        2.596614
   65        2.714696
   66        2.871451
   67        3.043918
   68        3.117369
 
  0.3076923E+00  0.2500000E+00  0.0000000E+00  0.1923077E-01
    1      -14.301909
    2      -12.476479
    3      -12.209653
    4      -12.116926
    5      -11.633331
    6      -11.542819
    7      -11.300050
    8      -10.979206
    9      -10.806972
   10      -10.775708
   11      -10.387948
   12       -9.711574
   13       -8.966306
   14       -8.637220
   15       -7.944838
   16       -7.697884
   17       -7.527285
   18       -7.110576
   19       -6.952879
   20       -6.689841
   21       -6.359559
   22       -6.204407
   23       -6.161401
   24       -5.906761
   25       -5.380058
   26       -5.128151
   27       -4.936988
   28       -4.831718
   29       -4.513391
   30       -4.417717
   31       -4.338533
   32       -4.255245
   33       -4.011248
   34       -3.641536
   35       -3.475268
   36       -3.338147
   37       -3.136711
   38       -3.002440
   39       -2.938993
   40       -2.865547
   41       -2.675760
   42       -2.558993
   43       -2.432633
   44       -2.346127
   45       -2.247840
   46       -1.961517
   47       -1.892302
   48       -1.753286
   49       -1.637396
   50       -1.353557
   51       -1.283983
   52       -0.937847
   53       -0.662456
   54       -0.401171
   55        0.144900
   56        0.492903
   57        1.009783
   58        1.211429
   59        1.306202
   60        1.481184
   61        1.865887
   62        2.170034
   63        2.306085
   64        2.350246
   65        2.466745
   66        2.622395
   67        2.839042
   68        2.968605
 
  0.3846154E+00  0.2500000E+00  0.0000000E+00  0.1923077E-01
    1      -13.967289
    2      -11.972692
    3      -11.854292
    4      -11.760150
    5      -11.259241
    6      -11.235572
    7      -10.954201
    8      -10.722586
    9      -10.597789
   10      -10.593171
   11      -10.464194
   12       -9.712772
   13       -8.956748
   14       -8.908211
   15       -8.103876
   16       -7.992632
   17       -7.778658
   18       -7.740883
   19       -7.347008
   20       -7.100271
   21       -6.907673
   22       -6.689539
   23       -6.663990
   24       -6.616025
   25       -5.344049
   26       -5.230648
   27       -4.790428
   28       -4.759200
   29       -4.514280
   30       -4.415344
   31       -4.147296
   32       -4.104027
   33       -3.856638
   34       -3.709261
   35       -3.514249
   36       -3.352598
   37       -3.280173
   38       -3.198273
   39       -3.128979
   40       -2.957119
   41       -2.902691
   42       -2.752615
   43       -2.532001
   44       -2.306815
   45       -2.272045
   46       -2.093619
   47       -2.059494
   48       -1.867388
   49       -1.748880
   50       -1.557327
   51       -1.438870
   52       -1.141307
   53       -0.988788
   54       -0.703312
   55       -0.046588
   56        0.282715
   57        0.815173
   58        1.183326
   59        1.340793
   60        1.514422
   61        1.715103
   62        1.829143
   63        2.046741
   64        2.164362
   65        2.224233
   66        2.538703
   67        2.647042
   68        2.722647
 
  0.4615385E+00  0.2500000E+00  0.0000000E+00  0.1923077E-01
    1      -13.725820
    2      -11.778828
    3      -11.422510
    4      -11.265796
    5      -10.958357
    6      -10.944673
    7      -10.861470
    8      -10.700512
    9      -10.668751
   10      -10.590921
   11      -10.572697
   12       -9.739426
   13       -9.085450
   14       -8.552058
   15       -8.395640
   16       -8.320512
   17       -8.185113
   18       -7.729268
   19       -7.505592
   20       -7.402598
   21       -7.308468
   22       -7.274717
   23       -7.144389
   24       -6.834627
   25       -5.090592
   26       -5.017394
   27       -4.659314
   28       -4.468631
   29       -4.414999
   30       -4.192356
   31       -4.150532
   32       -4.119484
   33       -3.924771
   34       -3.765406
   35       -3.663657
   36       -3.555324
   37       -3.485769
   38       -3.349214
   39       -3.261680
   40       -3.166283
   41       -2.984885
   42       -2.683282
   43       -2.614909
   44       -2.546453
   45       -2.348638
   46       -2.124486
   47       -2.107737
   48       -1.870515
   49       -1.704323
   50       -1.628637
   51       -1.500706
   52       -1.310180
   53       -0.936238
   54       -0.835816
   55       -0.074853
   56        0.195088
   57        0.840452
   58        1.386041
   59        1.503071
   60        1.512330
   61        1.573624
   62        1.678779
   63        1.804012
   64        2.063511
   65        2.199789
   66        2.398489
   67        2.456172
   68        2.515473
 
 -0.4615385E+00  0.2500000E+00  0.0000000E+00  0.1923077E-01
    1      -13.726231
    2      -11.777409
    3      -11.529724
    4      -11.072011
    5      -10.944358
    6      -10.917746
    7      -10.807294
    8      -10.749876
    9      -10.703654
   10      -10.661554
   11      -10.611123
   12       -9.730582
   13       -9.107023
   14       -8.754490
   15       -8.425179
   16       -8.164871
   17       -7.939082
   18       -7.738755
   19       -7.593514
   20       -7.516794
   21       -7.278877
   22       -7.265211
   23       -7.214438
   24       -6.663537
   25       -5.043738
   26       -4.737002
   27       -4.619824
   28       -4.574188
   29       -4.473496
   30       -4.354114
   31       -4.251624
   32       -4.004952
   33       -3.992320
   34       -3.884212
   35       -3.765429
   36       -3.646364
   37       -3.536522
   38       -3.382065
   39       -3.337220
   40       -3.189777
   41       -2.809748
   42       -2.701783
   43       -2.644682
   44       -2.384911
   45       -2.365943
   46       -2.167103
   47       -2.113323
   48       -1.905593
   49       -1.754979
   50       -1.609583
   51       -1.470866
   52       -1.289722
   53       -0.823115
   54       -0.671290
   55       -0.000916
   56        0.290340
   57        1.032091
   58        1.346632
   59        1.447816
   60        1.667889
   61        1.714581
   62        1.790337
   63        1.801267
   64        2.087061
   65        2.232207
   66        2.283715
   67        2.364825
   68        2.590751
 
 -0.3846154E+00  0.2500000E+00  0.0000000E+00  0.1923077E-01
    1      -13.968519
    2      -12.096484
    3      -11.826048
    4      -11.485576
    5      -11.302871
    6      -11.234513
    7      -10.961466
    8      -10.902928
    9      -10.629399
   10      -10.596780
   11      -10.446464
   12       -9.682673
   13       -8.973234
   14       -8.738454
   15       -8.482874
   16       -8.040164
   17       -7.607862
   18       -7.429939
   19       -7.348247
   20       -7.322153
   21       -6.832762
   22       -6.813620
   23       -6.652979
   24       -6.329521
   25       -5.206301
   26       -5.051375
   27       -4.851764
   28       -4.824004
   29       -4.495292
   30       -4.395382
   31       -4.267693
   32       -4.120468
   33       -4.064682
   34       -3.806332
   35       -3.721727
   36       -3.636446
   37       -3.403768
   38       -3.261258
   39       -3.171036
   40       -3.088896
   41       -2.769752
   42       -2.632578
   43       -2.472244
   44       -2.412178
   45       -2.239596
   46       -2.077115
   47       -1.947700
   48       -1.832005
   49       -1.779071
   50       -1.650599
   51       -1.367414
   52       -1.133778
   53       -0.648866
   54       -0.368077
   55        0.090972
   56        0.519110
   57        1.200622
   58        1.329893
   59        1.483130
   60        1.746551
   61        1.852972
   62        1.911055
   63        2.086245
   64        2.128770
   65        2.197092
   66        2.276410
   67        2.434722
   68        2.612068
 
 -0.3076923E+00  0.2500000E+00  0.0000000E+00  0.1923077E-01
    1      -14.303655
    2      -12.590509
    3      -12.057625
    4      -11.946971
    5      -11.639831
    6      -11.620440
    7      -11.322801
    8      -11.220107
    9      -10.770933
   10      -10.751394
   11      -10.418054
   12       -9.694259
   13       -8.716636
   14       -8.549693
   15       -8.179983
   16       -7.903853
   17       -7.366153
   18       -6.994037
   19       -6.943877
   20       -6.862641
   21       -6.300524
   22       -6.159434
   23       -5.974586
   24       -5.943701
   25       -5.163832
   26       -5.135289
   27       -4.925481
   28       -4.872549
   29       -4.642518
   30       -4.504826
   31       -4.307253
   32       -4.241821
   33       -4.096565
   34       -3.813749
   35       -3.521627
   36       -3.455214
   37       -3.269525
   38       -3.096444
   39       -3.036666
   40       -2.834295
   41       -2.812058
   42       -2.642606
   43       -2.476832
   44       -2.353466
   45       -2.023352
   46       -1.882340
   47       -1.868856
   48       -1.720445
   49       -1.582822
   50       -1.355691
   51       -1.272017
   52       -0.870063
   53       -0.457506
   54       -0.092841
   55        0.274266
   56        0.742301
   57        1.149464
   58        1.484881
   59        1.649733
   60        1.918437
   61        1.959677
   62        2.033868
   63        2.173087
   64        2.279665
   65        2.388389
   66        2.432787
   67        2.685930
   68        2.753525
 
 -0.2307692E+00  0.2500000E+00  0.0000000E+00  0.1923077E-01
    1      -14.621293
    2      -12.985693
    3      -12.365443
    4      -12.350924
    5      -11.990445
    6      -11.892830
    7      -11.649117
    8      -11.517970
    9      -11.025970
   10      -10.982167
   11      -10.596887
   12       -9.777170
   13       -8.607166
   14       -8.393850
   15       -7.774437
   16       -7.636806
   17       -7.136946
   18       -6.698837
   19       -6.629785
   20       -6.582524
   21       -6.042776
   22       -5.739510
   23       -5.554850
   24       -5.328324
   25       -4.947575
   26       -4.824604
   27       -4.590864
   28       -4.520620
   29       -4.477074
   30       -4.228050
   31       -4.170888
   32       -4.121022
   33       -3.792612
   34       -3.686580
   35       -3.447763
   36       -3.429127
   37       -3.239960
   38       -3.104129
   39       -2.985931
   40       -2.705105
   41       -2.597381
   42       -2.531016
   43       -2.433131
   44       -2.320161
   45       -1.904601
   46       -1.835451
   47       -1.747214
   48       -1.464682
   49       -1.339864
   50       -1.091892
   51       -1.043245
   52       -0.482622
   53       -0.211016
   54        0.089844
   55        0.597324
   56        0.948662
   57        1.161415
   58        1.502349
   59        1.831248
   60        1.984688
   61        2.105628
   62        2.246977
   63        2.365358
   64        2.483811
   65        2.708485
   66        2.787492
   67        2.915023
   68        2.977101
 
 -0.1538462E+00  0.2500000E+00  0.0000000E+00  0.1923077E-01
    1      -14.869572
    2      -13.269376
    3      -12.666274
    4      -12.625136
    5      -12.257380
    6      -12.109924
    7      -11.892968
    8      -11.736856
    9      -11.257803
   10      -11.193454
   11      -10.799395
   12       -9.879208
   13       -8.683611
   14       -8.374333
   15       -7.560415
   16       -7.522169
   17       -6.865997
   18       -6.674250
   19       -6.546592
   20       -6.370448
   21       -5.810871
   22       -5.690246
   23       -5.358308
   24       -4.840957
   25       -4.602033
   26       -4.283220
   27       -4.178215
   28       -4.137996
   29       -3.942008
   30       -3.852538
   31       -3.774325
   32       -3.691291
   33       -3.482985
   34       -3.265627
   35       -3.129746
   36       -3.044113
   37       -2.953506
   38       -2.901974
   39       -2.861525
   40       -2.619287
   41       -2.508217
   42       -2.430008
   43       -2.253949
   44       -2.157166
   45       -1.938805
   46       -1.778736
   47       -1.612682
   48       -1.316383
   49       -1.177301
   50       -0.965270
   51       -0.928486
   52       -0.039842
   53        0.141153
   54        0.284282
   55        0.776990
   56        0.969583
   57        1.316447
   58        1.503041
   59        1.805793
   60        1.913431
   61        2.206174
   62        2.405558
   63        2.466416
   64        2.682416
   65        2.767108
   66        2.805123
   67        2.991934
   68        3.108676
 
 -0.7692308E-01  0.2500000E+00  0.0000000E+00  0.1923077E-01
    1      -15.025117
    2      -13.434995
    3      -12.876676
    4      -12.794697
    5      -12.421858