 running on    8 total cores
 distrk:  each k-point on    8 cores,    1 groups
 distr:  one band on    2 cores,    4 groups
 using from now: INCAR     
 vasp.5.3.5 31Mar14 (build Oct 29 2014 16:16:03) complex                        
  
 POSCAR found type information on POSCAR  P  Si
 POSCAR found :  2 types and      24 ions
 scaLAPACK will be used

 ----------------------------------------------------------------------------- 
|                                                                             |
|  ADVICE TO THIS USER RUNNING 'VASP/VAMP'   (HEAR YOUR MASTER'S VOICE ...):  |
|                                                                             |
|      You have switched on vdW-DFT.                                          |
|      This routine was written and supplied by Jiri Klimes.                  |
|      We recommed that you carefully read and cite the following             |
|      publication                                                            |
|      J. Klimes, D.R. Bowler, A. Michelides                                  |
|        J. Phys.: Cond Matt. 22 022201 (2010)                                |
|      J. Klimes, D.R. Bowler, A. Michelides                                  |
|        Phys. Rev. B. 83, 195131 (2011)                                      |
|      and references therein.                                                |
|                                                                             |
 ----------------------------------------------------------------------------- 


 ----------------------------------------------------------------------------- 
|                                                                             |
|  ADVICE TO THIS USER RUNNING 'VASP/VAMP'   (HEAR YOUR MASTER'S VOICE ...):  |
|                                                                             |
|      You enforced a specific xc-type in the INCAR file,                     |
|      a different type was found on the POTCAR file                          |
|          I HOPE YOU KNOW, WHAT YOU ARE  DOING                               |
|                                                                             |
 ----------------------------------------------------------------------------- 

 LDA part: xc-table for Pade appr. of Perdew


 VERY BAD NEWS! internal error in subroutine IBZKPT:
 Reciprocal lattice and k-lattice belong to different class of lattices. Often results are still useful...      96


 VERY BAD NEWS! internal error in subroutine IBZKPT:
 Reciprocal lattice and k-lattice belong to different class of lattices. Often results are still useful...      96


 VERY BAD NEWS! internal error in subroutine IBZKPT:
 Reciprocal lattice and k-lattice belong to different class of lattices. Often results are still useful...      96


 VERY BAD NEWS! internal error in subroutine IBZKPT:
 Reciprocal lattice and k-lattice belong to different class of lattices. Often results are still useful...      96


 VERY BAD NEWS! internal error in subroutine IBZKPT:
 Reciprocal lattice and k-lattice belong to different class of lattices. Often results are still useful...      96


 VERY BAD NEWS! internal error in subroutine IBZKPT:
 Reciprocal lattice and k-lattice belong to different class of lattices. Often results are still useful...      96


 VERY BAD NEWS! internal error in subroutine IBZKPT:
 Reciprocal lattice and k-lattice belong to different class of lattices. Often results are still useful...      96


 VERY BAD NEWS! internal error in subroutine IBZKPT:
 Reciprocal lattice and k-lattice belong to different class of lattices. Often results are still useful...      96
 POSCAR, INCAR and KPOINTS ok, starting setup
 WARNING: small aliasing (wrap around) errors must be expected
 FFT: planning ...
 WAVECAR not read
 entering main loop
       N       E                     dE             d eps       ncg     rms          rms(c)
Total vdW correction in eV:     15.9056874
DAV:   1     0.489497679735E+03    0.48950E+03   -0.28660E+04  7368   0.790E+02
DAV:   2    -0.669555379271E+02   -0.55645E+03   -0.54105E+03  9700   0.189E+02
DAV:   3    -0.122707755664E+03   -0.55752E+02   -0.54937E+02  8788   0.620E+01
DAV:   4    -0.125276553158E+03   -0.25688E+01   -0.25499E+01 10912   0.141E+01
DAV:   5    -0.125338679139E+03   -0.62126E-01   -0.62046E-01 10136   0.216E+00    0.981E+00
Total vdW correction in eV:     16.2773113
DAV:   6    -0.123306039327E+03    0.20326E+01   -0.55039E+00  8616   0.575E+00    0.547E+00
Total vdW correction in eV:     16.7235469
DAV:   7    -0.123094226361E+03    0.21181E+00   -0.39259E+00  8864   0.497E+00    0.204E+00
Total vdW correction in eV:     16.8629087
DAV:   8    -0.123071171650E+03    0.23055E-01   -0.83141E-01  9176   0.254E+00    0.970E-01
Total vdW correction in eV:     16.9415093
DAV:   9    -0.123046353996E+03    0.24818E-01   -0.12958E-01  8872   0.115E+00    0.379E-01
Total vdW correction in eV:     16.9729864
DAV:  10    -0.123032670481E+03    0.13684E-01   -0.34795E-02  8976   0.558E-01    0.146E-01
Total vdW correction in eV:     16.9846294
DAV:  11    -0.123025580156E+03    0.70903E-02   -0.58512E-03  8880   0.229E-01    0.743E-02
Total vdW correction in eV:     16.9927055
DAV:  12    -0.123019883833E+03    0.56963E-02   -0.14009E-03  9200   0.106E-01    0.355E-02
Total vdW correction in eV:     16.9984846
DAV:  13    -0.123016136343E+03    0.37475E-02   -0.29085E-04  9320   0.510E-02    0.181E-02
Total vdW correction in eV:     17.0032110
DAV:  14    -0.123014728578E+03    0.14078E-02   -0.11990E-04  9248   0.293E-02    0.106E-02
Total vdW correction in eV:     17.0062023
DAV:  15    -0.123014432370E+03    0.29621E-03   -0.44500E-05  8368   0.194E-02    0.618E-03
Total vdW correction in eV:     17.0083909
DAV:  16    -0.123014923629E+03   -0.49126E-03   -0.95990E-05  8208   0.210E-02    0.377E-03
Total vdW correction in eV:     17.0088750
DAV:  17    -0.123015274223E+03   -0.35059E-03   -0.14682E-04  7920   0.211E-02    0.211E-03
Total vdW correction in eV:     17.0086750
DAV:  18    -0.123015325432E+03   -0.51209E-04   -0.46087E-05  7480   0.122E-02    0.127E-03
Total vdW correction in eV:     17.0084147
DAV:  19    -0.123015369016E+03   -0.43584E-04   -0.15193E-05  6632   0.864E-03    0.844E-04
Total vdW correction in eV:     17.0082331
DAV:  20    -0.123015392738E+03   -0.23722E-04   -0.27340E-05  6872   0.970E-03    0.607E-04
Total vdW correction in eV:     17.0081000
DAV:  21    -0.123015352051E+03    0.40687E-04   -0.13989E-05  6160   0.947E-03    0.311E-04
Total vdW correction in eV:     17.0080757
DAV:  22    -0.123015298031E+03    0.54020E-04   -0.60137E-06  6280   0.669E-03    0.194E-04
Total vdW correction in eV:     17.0080765
DAV:  23    -0.123015280958E+03    0.17073E-04   -0.60549E-06  6152   0.742E-03    0.997E-05
Total vdW correction in eV:     17.0080793
DAV:  24    -0.123015263119E+03    0.17839E-04   -0.42198E-06  6464   0.622E-03    0.510E-05
Total vdW correction in eV:     17.0080789
DAV:  25    -0.123015262882E+03    0.23695E-06   -0.25105E-06  5856   0.521E-03
Total vdW correction in eV:     17.0080767
Total vdW correction in eV:     17.0080785
   1 F= -.12301526E+03 E0= -.12300216E+03  d E =-.262036E-01
