 vasp.5.3.5 31Mar14 (build Oct 29 2014 16:16:03) complex                        
  
 executed on          Linux-UFHPC date 2016.02.09  17:25:17
 running on    8 total cores
 distrk:  each k-point on    8 cores,    1 groups
 distr:  one band on NCORES_PER_BAND=   2 cores,    4 groups


--------------------------------------------------------------------------------------------------------


 INCAR:
 POTCAR:    PAW_PBE P 17Jan2003                   
 POTCAR:   PAW_PBE Si 05Jan2001                   

 ----------------------------------------------------------------------------- 
|                                                                             |
|  ADVICE TO THIS USER RUNNING 'VASP/VAMP'   (HEAR YOUR MASTER'S VOICE ...):  |
|                                                                             |
|      You have switched on vdW-DFT.                                          |
|      This routine was written and supplied by Jiri Klimes.                  |
|      We recommed that you carefully read and cite the following             |
|      publication                                                            |
|      J. Klimes, D.R. Bowler, A. Michelides                                  |
|        J. Phys.: Cond Matt. 22 022201 (2010)                                |
|      J. Klimes, D.R. Bowler, A. Michelides                                  |
|        Phys. Rev. B. 83, 195131 (2011)                                      |
|      and references therein.                                                |
|                                                                             |
 ----------------------------------------------------------------------------- 

 POTCAR:    PAW_PBE P 17Jan2003                   
   VRHFIN =P : s2p3                                                             
   LEXCH  = PE                                                                  
   EATOM  =   176.0430 eV,   12.9388 Ry                                         
                                                                                
   TITEL  = PAW_PBE P 17Jan2003                                                 
   LULTRA =        F    use ultrasoft PP ?                                      
   IUNSCR =        1    unscreen: 0-lin 1-nonlin 2-no                           
   RPACOR =    1.500    partial core radius                                     
   POMASS =   30.974; ZVAL   =    5.000    mass and valenz                      
   RCORE  =    1.900    outmost cutoff radius                                   
   RWIGS  =    2.330; RWIGS  =    1.233    wigner-seitz radius (au A)           
   ENMAX  =  270.000; ENMIN  =  191.280 eV                                      
   ICORE  =        2    local potential                                         
   LCOR   =        T    correct aug charges                                     
   LPAW   =        T    paw PP                                                  
   EAUG   =  342.924                                                            
   DEXC   =    -.002                                                            
   RMAX   =    2.887    core radius for proj-oper                               
   RAUG   =    1.300    factor for augmentation sphere                          
   RDEP   =    1.931    radius for radial grids                                 
   QCUT   =   -4.330; QGAM   =    8.659    optimization parameters              
                                                                                
   Description                                                                  
     l     E      TYP  RCUT    TYP  RCUT                                        
     0   .000     23  1.900                                                     
     0   .000     23  1.900                                                     
     1   .000     23  1.900                                                     
     1   .000     23  1.900                                                     
     2   .000     23  1.900                                                     
  local pseudopotential read in
  partial core-charges read in
  atomic valenz-charges read in
  non local Contribution for L=           0  read in
    real space projection operators read in
  non local Contribution for L=           0  read in
    real space projection operators read in
  non local Contribution for L=           1  read in
    real space projection operators read in
  non local Contribution for L=           1  read in
    real space projection operators read in
    PAW grid and wavefunctions read in
 
   number of l-projection  operators is LMAX  =           4
   number of lm-projection operators is LMMAX =           8
 
 POTCAR:   PAW_PBE Si 05Jan2001                   
   VRHFIN =Si: s2p2                                                             
   LEXCH  = PE                                                                  
   EATOM  =   103.0669 eV,    7.5752 Ry                                         
                                                                                
   TITEL  = PAW_PBE Si 05Jan2001                                                
   LULTRA =        F    use ultrasoft PP ?                                      
   IUNSCR =        1    unscreen: 0-lin 1-nonlin 2-no                           
   RPACOR =    1.500    partial core radius                                     
   POMASS =   28.085; ZVAL   =    4.000    mass and valenz                      
   RCORE  =    1.900    outmost cutoff radius                                   
   RWIGS  =    2.480; RWIGS  =    1.312    wigner-seitz radius (au A)           
   ENMAX  =  245.345; ENMIN  =  184.009 eV                                      
   ICORE  =        2    local potential                                         
   LCOR   =        T    correct aug charges                                     
   LPAW   =        T    paw PP                                                  
   EAUG   =  322.069                                                            
   DEXC   =    -.007                                                            
   RMAX   =    2.944    core radius for proj-oper                               
   RAUG   =    1.300    factor for augmentation sphere                          
   RDEP   =    1.993    radius for radial grids                                 
   QCUT   =   -4.246; QGAM   =    8.493    optimization parameters              
                                                                                
   Description                                                                  
     l     E      TYP  RCUT    TYP  RCUT                                        
     0   .000     23  1.900                                                     
     0   .000     23  1.900                                                     
     1   .000     23  1.900                                                     
     1   .000     23  1.900                                                     
     2   .000      7  1.900                                                     
  local pseudopotential read in
  partial core-charges read in
  atomic valenz-charges read in
  non local Contribution for L=           0  read in
    real space projection operators read in
  non local Contribution for L=           0  read in
    real space projection operators read in
  non local Contribution for L=           1  read in
    real space projection operators read in
  non local Contribution for L=           1  read in
    real space projection operators read in
    PAW grid and wavefunctions read in
 
   number of l-projection  operators is LMAX  =           4
   number of lm-projection operators is LMMAX =           8
 
 Optimization of the real space projectors (new method)

 maximal supplied QI-value         = 19.84
 optimisation between [QCUT,QGAM] = [  8.73, 17.66] = [ 21.34, 87.33] Ry 
 Optimized for a Real-space Cutoff    1.50 Angstroem

   l    n(q)    QCUT    max X(q) W(low)/X(q) W(high)/X(q)  e(spline) 
   0      8     8.731     6.651    0.16E-04    0.15E-04    0.77E-08
   0      8     8.731    90.285    0.16E-03    0.90E-04    0.16E-06
   1      7     8.731     4.328    0.47E-04    0.36E-04    0.45E-07
   1      7     8.731    54.583    0.13E-03    0.39E-03    0.20E-06
 Optimization of the real space projectors (new method)

 maximal supplied QI-value         = 19.84
 optimisation between [QCUT,QGAM] = [  8.73, 17.66] = [ 21.34, 87.33] Ry 
 Optimized for a Real-space Cutoff    1.46 Angstroem

   l    n(q)    QCUT    max X(q) W(low)/X(q) W(high)/X(q)  e(spline) 
   0      8     8.731     8.708    0.16E-04    0.11E-04    0.68E-08
   0      8     8.731   106.241    0.24E-03    0.77E-04    0.13E-06
   1      7     8.731     5.901    0.34E-04    0.38E-04    0.36E-07
   1      7     8.731    73.241    0.12E-03    0.39E-03    0.15E-06

 ----------------------------------------------------------------------------- 
|                                                                             |
|  ADVICE TO THIS USER RUNNING 'VASP/VAMP'   (HEAR YOUR MASTER'S VOICE ...):  |
|                                                                             |
|      You enforced a specific xc-type in the INCAR file,                     |
|      a different type was found on the POTCAR file                          |
|          I HOPE YOU KNOW, WHAT YOU ARE  DOING                               |
|                                                                             |
 ----------------------------------------------------------------------------- 

  PAW_PBE P 17Jan2003                   :
 energy of atom  1       EATOM= -176.0430
 kinetic energy error for atom=    0.0040 (will be added to EATOM!!)
 PAW_PBE Si 05Jan2001                   :
 energy of atom  2       EATOM= -103.0669
 kinetic energy error for atom=    0.0021 (will be added to EATOM!!)
 
 
 POSCAR: Si12                                    
  positions in direct lattice
  No initial velocities read in
 exchange correlation table for  LEXCH =       42
   RHO(1)=    0.500       N(1)  =     2000
   RHO(2)=  100.500       N(2)  =     4000
 


--------------------------------------------------------------------------------------------------------


 ion  position               nearest neighbor table
   1  0.114  0.228  0.233-  15 2.28  21 2.29  21 2.29
   2  0.114  0.428  0.515-  16 2.28  22 2.29  22 2.29
   3  0.458  0.916  0.209-  21 2.28  13 2.30  13 2.30
   4  0.458  0.116  0.491-  22 2.28  14 2.30  14 2.30  20 2.82
   5  0.311  0.622  0.084-  17 2.28  23 2.30  23 2.30
   6  0.311  0.622  0.366-  18 2.28  16 2.82
   7  0.999  0.998  0.086-  19 2.29  19 2.29  13 2.32
   8  0.999  0.998  0.368-  24 2.01  14 2.17  20 2.29  20 2.29
   9  0.655  0.310  0.060-  19 2.28  17 2.29  17 2.29
  10  0.655  0.310  0.342-  20 2.28  18 2.29  18 2.29
  11  0.770  0.539  0.207-  15 2.29  15 2.29  23 2.32
  12  0.770  0.739  0.489-  16 2.29  16 2.29  24 2.32
  13  0.940  0.879  0.158-   3 2.30   3 2.30   7 2.32  23 2.35
  14  0.940  0.079  0.440-  20 2.04   8 2.17   4 2.30   4 2.30  24 2.35  20 2.58
  15  0.205  0.410  0.186-   1 2.28  11 2.29  11 2.29  17 2.37
  16  0.205  0.610  0.468-   2 2.28  12 2.29  12 2.29   6 2.82
  17  0.202  0.404  0.100-   5 2.28   9 2.29   9 2.29  15 2.37
  18  0.202  0.404  0.382-   6 2.28  10 2.29  10 2.29  22 3.04
  19  0.564  0.128  0.108-   9 2.28   7 2.29   7 2.29  21 2.37
  20  0.564  0.128  0.390-  14 2.04  10 2.28   8 2.29   8 2.29  14 2.58   4 2.82
  21  0.567  0.134  0.194-   3 2.28   1 2.29   1 2.29  19 2.37
  22  0.567  0.334  0.476-   4 2.28   2 2.29   2 2.29  18 3.04
  23  0.829  0.658  0.136-   5 2.30   5 2.30  11 2.32  13 2.35
  24  0.829  0.858  0.418-   8 2.01  12 2.32  14 2.35
 
  LATTYP: Found a base centered orthorhombic cell.
 ALAT       =     3.5404000000
 B/A-ratio  =     5.8153587165
 C/A-ratio  =     7.7678875268
  
  Lattice vectors:
  
 A1 = (   1.7702000000,  10.2943480000,   0.0000000000)
 A2 = (   1.7702000000, -10.2943480000,   0.0000000000)
 A3 = (   0.0000000000,   0.0000000000, -27.5014290000)


Analysis of symmetry for initial positions (statically):
=====================================================================
 Subroutine PRICEL returns:
 Original cell was already a primitive cell.
 

 Routine SETGRP: Setting up the symmetry group for a 
 base centered orthorhombic supercell.


 Subroutine GETGRP returns: Found  1 space group operations
 (whereof  1 operations were pure point group operations)
 out of a pool of  8 trial point group operations.


The static configuration has the point symmetry C_1 .


Analysis of symmetry for dynamics (positions and initial velocities):
=====================================================================
 Subroutine PRICEL returns:
 Original cell was already a primitive cell.
 

 Routine SETGRP: Setting up the symmetry group for a 
 base centered orthorhombic supercell.


 Subroutine GETGRP returns: Found  1 space group operations
 (whereof  1 operations were pure point group operations)
 out of a pool of  8 trial point group operations.


The dynamic configuration has the point symmetry C_1 .
 
 
 KPOINTS: pymatgen generated KPOINTS with grid den

Automatic generation of k-mesh.
Space group operators:
 irot       det(A)        alpha          n_x          n_y          n_z        tau_x        tau_y        tau_z
    1     1.000000     0.000000     1.000000     0.000000     0.000000     0.000000     0.000000     0.000000
 
 Subroutine IBZKPT returns following result:
 ===========================================
 
 Found     54 irreducible k-points:
 
 Following reciprocal coordinates:
            Coordinates               Weight
  0.000000  0.000000  0.000000      1.000000
  0.076923 -0.000000  0.000000      2.000000
  0.153846 -0.000000  0.000000      2.000000
  0.230769 -0.000000  0.000000      2.000000
  0.307692 -0.000000  0.000000      2.000000
  0.384615 -0.000000  0.000000      2.000000
  0.461538 -0.000000  0.000000      2.000000
  0.000000  0.250000  0.000000      2.000000
  0.076923  0.250000  0.000000      2.000000
  0.153846  0.250000  0.000000      2.000000
  0.230769  0.250000  0.000000      2.000000
  0.307692  0.250000  0.000000      2.000000
  0.384615  0.250000  0.000000      2.000000
  0.461538  0.250000  0.000000      2.000000
 -0.461538  0.250000  0.000000      2.000000
 -0.384615  0.250000  0.000000      2.000000
 -0.307692  0.250000  0.000000      2.000000
 -0.230769  0.250000  0.000000      2.000000
 -0.153846  0.250000  0.000000      2.000000
 -0.076923  0.250000  0.000000      2.000000
  0.000000  0.500000  0.000000      1.000000
  0.076923  0.500000  0.000000      2.000000
  0.153846  0.500000  0.000000      2.000000
  0.230769  0.500000  0.000000      2.000000
  0.307692  0.500000  0.000000      2.000000
  0.384615  0.500000  0.000000      2.000000
  0.461538  0.500000  0.000000      2.000000
  0.000000  0.000000  0.500000      1.000000
  0.076923 -0.000000  0.500000      2.000000
  0.153846 -0.000000  0.500000      2.000000
  0.230769 -0.000000  0.500000      2.000000
  0.307692 -0.000000  0.500000      2.000000
  0.384615 -0.000000  0.500000      2.000000
  0.461538 -0.000000  0.500000      2.000000
  0.000000  0.250000  0.500000      2.000000
  0.076923  0.250000  0.500000      2.000000
  0.153846  0.250000  0.500000      2.000000
  0.230769  0.250000  0.500000      2.000000
  0.307692  0.250000  0.500000      2.000000
  0.384615  0.250000  0.500000      2.000000
  0.461538  0.250000  0.500000      2.000000
 -0.461538  0.250000  0.500000      2.000000
 -0.384615  0.250000  0.500000      2.000000
 -0.307692  0.250000  0.500000      2.000000
 -0.230769  0.250000  0.500000      2.000000
 -0.153846  0.250000  0.500000      2.000000
 -0.076923  0.250000  0.500000      2.000000
  0.000000  0.500000  0.500000      1.000000
  0.076923  0.500000  0.500000      2.000000
  0.153846  0.500000  0.500000      2.000000
  0.230769  0.500000  0.500000      2.000000
  0.307692  0.500000  0.500000      2.000000
  0.384615  0.500000  0.500000      2.000000
  0.461538  0.500000  0.500000      2.000000
 
 Following cartesian coordinates:
            Coordinates               Weight
  0.000000  0.000000  0.000000      1.000000
  0.021727  0.003736  0.000000      2.000000
  0.043454  0.007472  0.000000      2.000000
  0.065182  0.011209  0.000000      2.000000
  0.086909  0.014945  0.000000      2.000000
  0.108636  0.018681  0.000000      2.000000
  0.130363  0.022417  0.000000      2.000000
  0.000000  0.024285  0.000000      2.000000
  0.021727  0.028021  0.000000      2.000000
  0.043454  0.031758  0.000000      2.000000
  0.065182  0.035494  0.000000      2.000000
  0.086909  0.039230  0.000000      2.000000
  0.108636  0.042966  0.000000      2.000000
  0.130363  0.046702  0.000000      2.000000
 -0.130363  0.001868  0.000000      2.000000
 -0.108636  0.005604  0.000000      2.000000
 -0.086909  0.009340  0.000000      2.000000
 -0.065182  0.013077  0.000000      2.000000
 -0.043454  0.016813  0.000000      2.000000
 -0.021727  0.020549  0.000000      2.000000
  0.000000  0.048570  0.000000      1.000000
  0.021727  0.052307  0.000000      2.000000
  0.043454  0.056043  0.000000      2.000000
  0.065182  0.059779  0.000000      2.000000
  0.086909  0.063515  0.000000      2.000000
  0.108636  0.067251  0.000000      2.000000
  0.130363  0.070987  0.000000      2.000000
  0.000000  0.000000  0.018181      1.000000
  0.021727  0.003736  0.018181      2.000000
  0.043454  0.007472  0.018181      2.000000
  0.065182  0.011209  0.018181      2.000000
  0.086909  0.014945  0.018181      2.000000
  0.108636  0.018681  0.018181      2.000000
  0.130363  0.022417  0.018181      2.000000
  0.000000  0.024285  0.018181      2.000000
  0.021727  0.028021  0.018181      2.000000
  0.043454  0.031758  0.018181      2.000000
  0.065182  0.035494  0.018181      2.000000
  0.086909  0.039230  0.018181      2.000000
  0.108636  0.042966  0.018181      2.000000
  0.130363  0.046702  0.018181      2.000000
 -0.130363  0.001868  0.018181      2.000000
 -0.108636  0.005604  0.018181      2.000000
 -0.086909  0.009340  0.018181      2.000000
 -0.065182  0.013077  0.018181      2.000000
 -0.043454  0.016813  0.018181      2.000000
 -0.021727  0.020549  0.018181      2.000000
  0.000000  0.048570  0.018181      1.000000
  0.021727  0.052307  0.018181      2.000000
  0.043454  0.056043  0.018181      2.000000
  0.065182  0.059779  0.018181      2.000000
  0.086909  0.063515  0.018181      2.000000
  0.108636  0.067251  0.018181      2.000000
  0.130363  0.070987  0.018181      2.000000
 


--------------------------------------------------------------------------------------------------------




 Dimension of arrays:
   k-points           NKPTS =     54   k-points in BZ     NKDIM =     54   number of bands    NBANDS=     68
   number of dos      NEDOS =    301   number of ions     NIONS =     24
   non local maximal  LDIM  =      4   non local SUM 2l+1 LMDIM =      8
   total plane-waves  NPLWV = 192000
   max r-space proj   IRMAX =   2772   max aug-charges    IRDMAX=   6603
   dimension x,y,z NGX =    20 NGY =   60 NGZ =  160
   dimension x,y,z NGXF=    40 NGYF=  120 NGZF=  320
   support grid    NGXF=    40 NGYF=  120 NGZF=  320
   ions per type =              12  12
 NGX,Y,Z   is equivalent  to a cutoff of   9.39,  9.55,  9.67 a.u.
 NGXF,Y,Z  is equivalent  to a cutoff of  18.78, 19.10, 19.34 a.u.


 I would recommend the setting:
   dimension x,y,z NGX =    20 NGY =   59 NGZ =  155
 SYSTEM =  unknown system                          
 POSCAR =  Si12                                    

 Startparameter for this run:
   NWRITE =      2    write-flag & timer
   PREC   = accura    normal or accurate (medium, high low for compatibility)
   ISTART =      0    job   : 0-new  1-cont  2-samecut
   ICHARG =      2    charge: 1-file 2-atom 10-const
   ISPIN  =      1    spin polarized calculation?
   LNONCOLLINEAR =      F non collinear calculations
   LSORBIT =      F    spin-orbit coupling
   INIWAV =      1    electr: 0-lowe 1-rand  2-diag
   LASPH  =      F    aspherical Exc in radial PAW
   METAGGA=      F    non-selfconsistent MetaGGA calc.

 Electronic Relaxation 1
   ENCUT  =  300.0 eV  22.05 Ry    4.70 a.u.   5.00 14.75 38.84*2*pi/ulx,y,z
   ENINI  =  300.0     initial cutoff
   ENAUG  =  342.9 eV  augmentation charge cutoff
   NELM   =     60;   NELMIN=  2; NELMDL= -5     # of ELM steps 
   EDIFF  = 0.1E-05   stopping-criterion for ELM
   LREAL  =      T    real-space projection
   NLSPLINE    = F    spline interpolate recip. space projectors
   LCOMPAT=      F    compatible to vasp.4.4
   GGA_COMPAT  = T    GGA compatible to vasp.4.4-vasp.4.6
   LMAXPAW     = -100 max onsite density
   LMAXMIX     =    2 max onsite mixed and CHGCAR
   VOSKOWN=      0    Vosko Wilk Nusair interpolation
   ROPT   =   -0.00025  -0.00025
 Ionic relaxation
   EDIFFG = 0.1E-04   stopping-criterion for IOM
   NSW    =      0    number of steps for IOM
   NBLOCK =      1;   KBLOCK =      1    inner block; outer block 
   IBRION =     -1    ionic relax: 0-MD 1-quasi-New 2-CG
   NFREE  =      1    steps in history (QN), initial steepest desc. (CG)
   ISIF   =      3    stress and relaxation
   IWAVPR =     10    prediction:  0-non 1-charg 2-wave 3-comb
   ISYM   =      2    0-nonsym 1-usesym 2-fastsym
   LCORR  =      T    Harris-Foulkes like correction to forces

   POTIM  = 0.5000    time-step for ionic-motion
   TEIN   =    0.0    initial temperature
   TEBEG  =    0.0;   TEEND  =   0.0 temperature during run
   SMASS  =  -3.00    Nose mass-parameter (am)
   estimated Nose-frequenzy (Omega)   =  0.10E-29 period in steps =****** mass=  -0.286E-27a.u.
   SCALEE = 1.0000    scale energy and forces
   NPACO  =    256;   APACO  = 16.0  distance and # of slots for P.C.
   PSTRESS=    0.0 pullay stress

  Mass of Ions in am
   POMASS =  30.97 28.09
  Ionic Valenz
   ZVAL   =   5.00  4.00
  Atomic Wigner-Seitz radii
   RWIGS  =  -1.00 -1.00
  virtual crystal weights 
   VCA    =   1.00  1.00
   NELECT =     108.0000    total number of electrons
   NUPDOWN=      -1.0000    fix difference up-down

 DOS related values:
   EMIN   =  10.00;   EMAX   =-10.00  energy-range for DOS
   EFERMI =   0.00
   ISMEAR =     0;   SIGMA  =   0.10  broadening in eV -4-tet -1-fermi 0-gaus

 Electronic relaxation 2 (details)
   IALGO  =     38    algorithm
   LDIAG  =      T    sub-space diagonalisation (order eigenvalues)
   LSUBROT=      F    optimize rotation matrix (better conditioning)
   TURBO    =      0    0=normal 1=particle mesh
   IRESTART =      0    0=no restart 2=restart with 2 vectors
   NREBOOT  =      0    no. of reboots
   NMIN     =      0    reboot dimension
   EREF     =   0.00    reference energy to select bands
   IMIX   =      4    mixing-type and parameters
     AMIX     =   0.40;   BMIX     =  1.00
     AMIX_MAG =   1.60;   BMIX_MAG =  1.00
     AMIN     =   0.10
     WC   =   100.;   INIMIX=   1;  MIXPRE=   1;  MAXMIX= -45

 Intra band minimization:
   WEIMIN = 0.0000     energy-eigenvalue tresh-hold
   EBREAK =  0.37E-08  absolut break condition
   DEPER  =   0.30     relativ break condition  

   TIME   =   0.40     timestep for ELM

  volume/ion in A,a.u.               =      41.76       281.83
  Fermi-wavevector in a.u.,A,eV,Ry     =   0.779018  1.472130  8.256946  0.606868
  Thomas-Fermi vector in A             =   1.882034
 
 Write flags
   LWAVE  =      F    write WAVECAR
   LCHARG =      F    write CHGCAR
   LVTOT  =      F    write LOCPOT, total local potential
   LVHAR  =      F    write LOCPOT, Hartree potential only
   LELF   =      F    write electronic localiz. function (ELF)
   LORBIT =      0    0 simple, 1 ext, 2 COOP (PROOUT)


 Dipole corrections
   LMONO  =      F    monopole corrections only (constant potential shift)
   LDIPOL =      F    correct potential (dipole corrections)
   IDIPOL =      0    1-x, 2-y, 3-z, 4-all directions 
   EPSILON=  1.0000000 bulk dielectric constant

 Exchange correlation treatment:
   GGA     =    BO    GGA type
   LEXCH   =    42    internal setting for exchange type
   VOSKOWN=      0    Vosko Wilk Nusair interpolation
   LHFCALC =     F    Hartree Fock is set to
   LHFONE  =     F    Hartree Fock one center treatment
   AEXX    =    0.0000 exact exchange contribution

 vdW DFT:
   LUSE_VDW   =     T    switch on vdW DFT
   Zab_VDW    =-.8491    correlation parameter
   PARAM1     =0.1833
   PARAM2     =0.2200
   PARAM3     =0.0000

 Linear response parameters
   LEPSILON=     F    determine dielectric tensor
   LRPA    =     F    only Hartree local field effects (RPA)
   LNABLA  =     F    use nabla operator in PAW spheres
   LVEL    =     F    velocity operator in full k-point grid
   LINTERFAST=   F  fast interpolation
   KINTER  =     0    interpolate to denser k-point grid
   CSHIFT  =0.1000    complex shift for real part using Kramers Kronig
   OMEGAMAX=  -1.0    maximum frequency
   DEG_THRESHOLD= 0.2000000E-02 threshold for treating states as degnerate
   RTIME   =    0.100 relaxation time in fs

 Orbital magnetization related:
   ORBITALMAG=     F  switch on orbital magnetization
   LCHIMAG   =     F  perturbation theory with respect to B field
   DQ        =  0.001000  dq finite difference perturbation B field



--------------------------------------------------------------------------------------------------------


 Static calculation
 charge density and potential will be updated during run
 non-spin polarized calculation
 Variant of blocked Davidson
 Davidson routine will perform the subspace rotation
 perform sub-space diagonalisation
    after iterative eigenvector-optimisation
 modified Broyden-mixing scheme, WC =      100.0
 initial mixing is a Kerker type mixing with AMIX =  0.4000 and BMIX =      1.0000
 Hartree-type preconditioning will be used
 using additional bands           14
 real space projection scheme for non local part
 use partial core corrections
 calculate Harris-corrections to forces 
   (improved forces if not selfconsistent)
 use gradient corrections 
 use of overlap-Matrix (Vanderbilt PP)
 Gauss-broadening in eV      SIGMA  =   0.10


--------------------------------------------------------------------------------------------------------


  energy-cutoff  :      300.00
  volume of cell :     1002.32
      direct lattice vectors                 reciprocal lattice vectors
     3.540400000  0.000000000  0.000000000     0.282453960  0.048570342  0.000000000
    -1.770200000 10.294348000  0.000000000     0.000000000  0.097140683  0.000000000
     0.000000000  0.000000000 27.501429000     0.000000000  0.000000000  0.036361747

  length of vectors
     3.540400000 10.445439617 27.501429000     0.286599577  0.097140683  0.036361747


 
 k-points in units of 2pi/SCALE and weight: pymatgen generated KPOINTS with grid den
   0.00000000  0.00000000  0.00000000       0.010
   0.02172723  0.00373618  0.00000000       0.019
   0.04345446  0.00747236  0.00000000       0.019
   0.06518168  0.01120854  0.00000000       0.019
   0.08690891  0.01494472  0.00000000       0.019
   0.10863614  0.01868090  0.00000000       0.019
   0.13036337  0.02241708  0.00000000       0.019
   0.00000000  0.02428517  0.00000000       0.019
   0.02172723  0.02802135  0.00000000       0.019
   0.04345446  0.03175753  0.00000000       0.019
   0.06518168  0.03549371  0.00000000       0.019
   0.08690891  0.03922989  0.00000000       0.019
   0.10863614  0.04296607  0.00000000       0.019
   0.13036337  0.04670225  0.00000000       0.019
  -0.13036337  0.00186809  0.00000000       0.019
  -0.10863614  0.00560427  0.00000000       0.019
  -0.08690891  0.00934045  0.00000000       0.019
  -0.06518168  0.01307663  0.00000000       0.019
  -0.04345446  0.01681281  0.00000000       0.019
  -0.02172723  0.02054899  0.00000000       0.019
   0.00000000  0.04857034  0.00000000       0.010
   0.02172723  0.05230652  0.00000000       0.019
   0.04345446  0.05604270  0.00000000       0.019
   0.06518168  0.05977888  0.00000000       0.019
   0.08690891  0.06351506  0.00000000       0.019
   0.10863614  0.06725124  0.00000000       0.019
   0.13036337  0.07098742  0.00000000       0.019
   0.00000000  0.00000000  0.01818087       0.010
   0.02172723  0.00373618  0.01818087       0.019
   0.04345446  0.00747236  0.01818087       0.019
   0.06518168  0.01120854  0.01818087       0.019
   0.08690891  0.01494472  0.01818087       0.019
   0.10863614  0.01868090  0.01818087       0.019
   0.13036337  0.02241708  0.01818087       0.019
   0.00000000  0.02428517  0.01818087       0.019
   0.02172723  0.02802135  0.01818087       0.019
   0.04345446  0.03175753  0.01818087       0.019
   0.06518168  0.03549371  0.01818087       0.019
   0.08690891  0.03922989  0.01818087       0.019
   0.10863614  0.04296607  0.01818087       0.019
   0.13036337  0.04670225  0.01818087       0.019
  -0.13036337  0.00186809  0.01818087       0.019
  -0.10863614  0.00560427  0.01818087       0.019
  -0.08690891  0.00934045  0.01818087       0.019
  -0.06518168  0.01307663  0.01818087       0.019
  -0.04345446  0.01681281  0.01818087       0.019
  -0.02172723  0.02054899  0.01818087       0.019
   0.00000000  0.04857034  0.01818087       0.010
   0.02172723  0.05230652  0.01818087       0.019
   0.04345446  0.05604270  0.01818087       0.019
   0.06518168  0.05977888  0.01818087       0.019
   0.08690891  0.06351506  0.01818087       0.019
   0.10863614  0.06725124  0.01818087       0.019
   0.13036337  0.07098742  0.01818087       0.019
 
 k-points in reciprocal lattice and weights: pymatgen generated KPOINTS with grid den
   0.00000000  0.00000000  0.00000000       0.010
   0.07692308 -0.00000000  0.00000000       0.019
   0.15384615 -0.00000000  0.00000000       0.019
   0.23076923 -0.00000000  0.00000000       0.019
   0.30769231 -0.00000000  0.00000000       0.019
   0.38461538 -0.00000000  0.00000000       0.019
   0.46153846 -0.00000000  0.00000000       0.019
   0.00000000  0.25000000  0.00000000       0.019
   0.07692308  0.25000000  0.00000000       0.019
   0.15384615  0.25000000  0.00000000       0.019
   0.23076923  0.25000000  0.00000000       0.019
   0.30769231  0.25000000  0.00000000       0.019
   0.38461538  0.25000000  0.00000000       0.019
   0.46153846  0.25000000  0.00000000       0.019
  -0.46153846  0.25000000  0.00000000       0.019
  -0.38461538  0.25000000  0.00000000       0.019
  -0.30769231  0.25000000  0.00000000       0.019
  -0.23076923  0.25000000  0.00000000       0.019
  -0.15384615  0.25000000  0.00000000       0.019
  -0.07692308  0.25000000  0.00000000       0.019
   0.00000000  0.50000000  0.00000000       0.010
   0.07692308  0.50000000  0.00000000       0.019
   0.15384615  0.50000000  0.00000000       0.019
   0.23076923  0.50000000  0.00000000       0.019
   0.30769231  0.50000000  0.00000000       0.019
   0.38461538  0.50000000  0.00000000       0.019
   0.46153846  0.50000000  0.00000000       0.019
   0.00000000  0.00000000  0.50000000       0.010
   0.07692308 -0.00000000  0.50000000       0.019
   0.15384615 -0.00000000  0.50000000       0.019
   0.23076923 -0.00000000  0.50000000       0.019
   0.30769231 -0.00000000  0.50000000       0.019
   0.38461538 -0.00000000  0.50000000       0.019
   0.46153846 -0.00000000  0.50000000       0.019
   0.00000000  0.25000000  0.50000000       0.019
   0.07692308  0.25000000  0.50000000       0.019
   0.15384615  0.25000000  0.50000000       0.019
   0.23076923  0.25000000  0.50000000       0.019
   0.30769231  0.25000000  0.50000000       0.019
   0.38461538  0.25000000  0.50000000       0.019
   0.46153846  0.25000000  0.50000000       0.019
  -0.46153846  0.25000000  0.50000000       0.019
  -0.38461538  0.25000000  0.50000000       0.019
  -0.30769231  0.25000000  0.50000000       0.019
  -0.23076923  0.25000000  0.50000000       0.019
  -0.15384615  0.25000000  0.50000000       0.019
  -0.07692308  0.25000000  0.50000000       0.019
   0.00000000  0.50000000  0.50000000       0.010
   0.07692308  0.50000000  0.50000000       0.019
   0.15384615  0.50000000  0.50000000       0.019
   0.23076923  0.50000000  0.50000000       0.019
   0.30769231  0.50000000  0.50000000       0.019
   0.38461538  0.50000000  0.50000000       0.019
   0.46153846  0.50000000  0.50000000       0.019
 
 position of ions in fractional coordinates (direct lattice) 
   0.11402300  0.22804500  0.23316207
   0.11402300  0.42804500  0.51499159
   0.45808900  0.91617900  0.20939482
   0.45808900  0.11617900  0.49122434
   0.31085400  0.62170900  0.08414979
   0.31085400  0.62170900  0.36597930
   0.99923000  0.99846000  0.08631254
   0.99923000  0.99846000  0.36814206
   0.65492700  0.30985400  0.06041748
   0.65492700  0.30985400  0.34224700
   0.76973800  0.53947500  0.20725292
   0.76973800  0.73947500  0.48908244
   0.93971600  0.87943300  0.15783749
   0.93971600  0.07943300  0.43966701
   0.20515200  0.41030300  0.18578822
   0.20515200  0.61030300  0.46761774
   0.20184900  0.40369900  0.09969156
   0.20184900  0.40369900  0.38152107
   0.56380500  0.12761000  0.10779021
   0.56380500  0.12761000  0.38961973
   0.56710600  0.13421200  0.19387616
   0.56710600  0.33421200  0.47570568
   0.82923400  0.65846800  0.13571444
   0.82923400  0.85846800  0.41754396
 
 position of ions in cartesian coordinates  (Angst):
   0.00000177  2.34757459  6.41229012
  -0.35403823  4.40644419 14.16300462
  -0.00000177  9.43146546  5.75865686
   1.41615823  1.19598706 13.50937136
  -0.00000177  6.40008880  2.31423934
  -0.00000177  6.40008880 10.06495384
   1.77020000 10.27849470  2.37371832
   1.77020000 10.27849470 10.12443282
   1.77020000  3.18974491  1.66156717
   1.77020000  3.18974491  9.41228167
   1.77020177  5.55354339  5.69975143
   1.41616177  7.61241299 13.45046593
   1.77019823  9.05318934  4.34075665
   3.18635823  0.81771094 12.09147115
   0.00000177  4.22380187  5.10944151
  -0.35403823  6.28267147 12.86015601
  -0.00000177  4.15581799  2.74166024
  -0.00000177  4.15581799 10.49237474
   1.77020000  1.31366175  2.96438477
   1.77020000  1.31366175 10.71509927
   1.77020000  1.38162503  5.33187152
   1.41616000  3.44049463 13.08258602
   1.77020000  6.77849874  3.73234107
   1.41616000  8.83736834 11.48305557
 


--------------------------------------------------------------------------------------------------------


 k-point  1 :   0.0000 0.0000 0.0000  plane waves:   11717
 k-point  2 :   0.0769-0.0000 0.0000  plane waves:   11762
 k-point  3 :   0.1538-0.0000 0.0000  plane waves:   11805
 k-point  4 :   0.2308-0.0000 0.0000  plane waves:   11824
 k-point  5 :   0.3077-0.0000 0.0000  plane waves:   11875
 k-point  6 :   0.3846-0.0000 0.0000  plane waves:   11864
 k-point  7 :   0.4615-0.0000 0.0000  plane waves:   11883
 k-point  8 :   0.0000 0.2500 0.0000  plane waves:   11683
 k-point  9 :   0.0769 0.2500 0.0000  plane waves:   11756
 k-point 10 :   0.1538 0.2500 0.0000  plane waves:   11807
 k-point 11 :   0.2308 0.2500 0.0000  plane waves:   11853
 k-point 12 :   0.3077 0.2500 0.0000  plane waves:   11866
 k-point 13 :   0.3846 0.2500 0.0000  plane waves:   11889
 k-point 14 :   0.4615 0.2500 0.0000  plane waves:   11885
 k-point 15 :  -0.4615 0.2500 0.0000  plane waves:   11886
 k-point 16 :  -0.3846 0.2500 0.0000  plane waves:   11867
 k-point 17 :  -0.3077 0.2500 0.0000  plane waves:   11849
 k-point 18 :  -0.2308 0.2500 0.0000  plane waves:   11827
 k-point 19 :  -0.1538 0.2500 0.0000  plane waves:   11801
 k-point 20 :  -0.0769 0.2500 0.0000  plane waves:   11757
 k-point 21 :   0.0000 0.5000 0.0000  plane waves:   11710
 k-point 22 :   0.0769 0.5000 0.0000  plane waves:   11762
 k-point 23 :   0.1538 0.5000 0.0000  plane waves:   11782
 k-point 24 :   0.2308 0.5000 0.0000  plane waves:   11841
 k-point 25 :   0.3077 0.5000 0.0000  plane waves:   11876
 k-point 26 :   0.3846 0.5000 0.0000  plane waves:   11889
 k-point 27 :   0.4615 0.5000 0.0000  plane waves:   11881
 k-point 28 :   0.0000 0.0000 0.5000  plane waves:   11698
 k-point 29 :   0.0769-0.0000 0.5000  plane waves:   11752
 k-point 30 :   0.1538-0.0000 0.5000  plane waves:   11800
 k-point 31 :   0.2308-0.0000 0.5000  plane waves:   11834
 k-point 32 :   0.3077-0.0000 0.5000  plane waves:   11850
 k-point 33 :   0.3846-0.0000 0.5000  plane waves:   11888
 k-point 34 :   0.4615-0.0000 0.5000  plane waves:   11896
 k-point 35 :   0.0000 0.2500 0.5000  plane waves:   11714
 k-point 36 :   0.0769 0.2500 0.5000  plane waves:   11754
 k-point 37 :   0.1538 0.2500 0.5000  plane waves:   11802
 k-point 38 :   0.2308 0.2500 0.5000  plane waves:   11840
 k-point 39 :   0.3077 0.2500 0.5000  plane waves:   11858
 k-point 40 :   0.3846 0.2500 0.5000  plane waves:   11896
 k-point 41 :   0.4615 0.2500 0.5000  plane waves:   11886
 k-point 42 :  -0.4615 0.2500 0.5000  plane waves:   11852
 k-point 43 :  -0.3846 0.2500 0.5000  plane waves:   11838
 k-point 44 :  -0.3077 0.2500 0.5000  plane waves:   11842
 k-point 45 :  -0.2308 0.2500 0.5000  plane waves:   11840
 k-point 46 :  -0.1538 0.2500 0.5000  plane waves:   11804
 k-point 47 :  -0.0769 0.2500 0.5000  plane waves:   11748
 k-point 48 :   0.0000 0.5000 0.5000  plane waves:   11724
 k-point 49 :   0.0769 0.5000 0.5000  plane waves:   11748
 k-point 50 :   0.1538 0.5000 0.5000  plane waves:   11814
 k-point 51 :   0.2308 0.5000 0.5000  plane waves:   11832
 k-point 52 :   0.3077 0.5000 0.5000  plane waves:   11868
 k-point 53 :   0.3846 0.5000 0.5000  plane waves:   11892
 k-point 54 :   0.4615 0.5000 0.5000  plane waves:   11878

 maximum and minimum number of plane-waves per node :      5964     5832

 maximum number of plane-waves:     11896
 maximum index in each direction: 
   IXMAX=    5   IYMAX=   14   IZMAX=   38
   IXMIN=   -5   IYMIN=  -15   IZMIN=  -39

 WARNING: aliasing errors must be expected set NGX to  22 to avoid them
 NGY is ok and might be reduce to  60
 NGZ is ok and might be reduce to 156
 aliasing errors are usually negligible using standard VASP settings
 and one can safely disregard these warnings

 real space projection operators:
  total allocation   :       3793.25 KBytes
  max/ min on nodes  :       1899.38       1893.88


 parallel 3D FFT for wavefunctions:
    minimum data exchange during FFTs selected (reduces bandwidth)
 parallel 3D FFT for charge:
    minimum data exchange during FFTs selected (reduces bandwidth)


 total amount of memory used by VASP on root node   146493. kBytes
========================================================================

   base      :      30000. kBytes
   nonlr-proj:       3452. kBytes
   fftplans  :       9347. kBytes
   grid      :      14649. kBytes
   one-center:         36. kBytes
   wavefun   :      89009. kBytes
 
     INWAV:  cpu time    0.00: real time    0.00
 Broyden mixing: mesh for mixing (old mesh)
   NGX =  9   NGY = 29   NGZ = 77
  (NGX  = 40   NGY  =120   NGZ  =320)
  gives a total of  20097 points

 initial charge density was supplied:
 charge density of overlapping atoms calculated
 number of electron     108.0000000 magnetization 
 keeping initial charge density in first step


--------------------------------------------------------------------------------------------------------


 Maximum index for non-local projection operator         1333
 Maximum index for augmentation-charges          822 (set IRDMAX)


--------------------------------------------------------------------------------------------------------


 First call to EWALD:  gamma=   0.177
 Maximum number of real-space cells 7x 3x 1
 Maximum number of reciprocal cells 1x 3x 7

 FEWALD executed in parallel
    FEWALD:  cpu time    0.01: real time    0.01


----------------------------------------- Iteration    1(   1)  ---------------------------------------


vdW kernel read from vdw_kernel.bindat
  0.0000  0.2424  0.5071  0.7962  1.1119  1.4567  1.8333  2.2446  2.6937  3.1842
  3.7199  4.3049  4.9438  5.6415  6.4036  7.2358  8.1446  9.1372 10.2212 11.4050
 12.6979 14.1099 15.6519 17.3360 19.1751 21.1837 23.3773 25.7729 28.3892 31.2465
 34.3669 37.7748 41.4965 45.5611 50.0000
 
    POTLOK:  cpu time   14.14: real time   14.14
    SETDIJ:  cpu time    0.01: real time    0.01
     EDDAV:  cpu time   57.50: real time   57.52
       DOS:  cpu time    0.01: real time    0.01
    --------------------------------------------
      LOOP:  cpu time   71.66: real time   71.68

 eigenvalue-minimisations  :  7368
 total energy-change (2. order) : 0.4894977E+03  (-0.2866041E+04)
 number of electron     108.0000000 magnetization 
 augmentation part      108.0000000 magnetization 

 Free energy of the ion-electron system (eV)
  ---------------------------------------------------
  alpha Z        PSCENC =        36.80884744
  Ewald energy   TEWEN  =     11927.23708542
  -Hartree energ DENC   =    -14976.12485142
  -exchange      EXHF   =         0.00000000
  -V(xc)+E(xc)   XCENC  =       -87.83189841
  PAW double counting   =      1056.43050070     -732.41190547
  entropy T*S    EENTRO =        -0.04217480
  eigenvalues    EBANDS =       -88.60918417
  atomic energy  EATOM  =      3354.04126044
  ---------------------------------------------------
  free energy    TOTEN  =       489.49767973 eV

  energy without entropy =      489.53985453  energy(sigma->0) =      489.51876713


--------------------------------------------------------------------------------------------------------




----------------------------------------- Iteration    1(   2)  ---------------------------------------


     EDDAV:  cpu time   71.19: real time   71.20
       DOS:  cpu time    0.01: real time    0.01
    --------------------------------------------
      LOOP:  cpu time   71.21: real time   71.22

 eigenvalue-minimisations  :  9700
 total energy-change (2. order) :-0.5564532E+03  (-0.5410538E+03)
 number of electron     108.0000000 magnetization 
 augmentation part      108.0000000 magnetization 

 Free energy of the ion-electron system (eV)
  ---------------------------------------------------
  alpha Z        PSCENC =        36.80884744
  Ewald energy   TEWEN  =     11927.23708542
  -Hartree energ DENC   =    -14976.12485142
  -exchange      EXHF   =         0.00000000
  -V(xc)+E(xc)   XCENC  =       -87.83189841
  PAW double counting   =      1056.43050070     -732.41190547
  entropy T*S    EENTRO =        -0.02301388
  eigenvalues    EBANDS =      -645.08156276
  atomic energy  EATOM  =      3354.04126044
  ---------------------------------------------------
  free energy    TOTEN  =       -66.95553793 eV

  energy without entropy =      -66.93252405  energy(sigma->0) =      -66.94403099


--------------------------------------------------------------------------------------------------------




----------------------------------------- Iteration    1(   3)  ---------------------------------------


     EDDAV:  cpu time   66.28: real time   66.29
       DOS:  cpu time    0.01: real time    0.01
    --------------------------------------------
      LOOP:  cpu time   66.30: real time   66.31

 eigenvalue-minimisations  :  8788
 total energy-change (2. order) :-0.5575222E+02  (-0.5493746E+02)
 number of electron     108.0000000 magnetization 
 augmentation part      108.0000000 magnetization 

 Free energy of the ion-electron system (eV)
  ---------------------------------------------------
  alpha Z        PSCENC =        36.80884744
  Ewald energy   TEWEN  =     11927.23708542
  -Hartree energ DENC   =    -14976.12485142
  -exchange      EXHF   =         0.00000000
  -V(xc)+E(xc)   XCENC  =       -87.83189841
  PAW double counting   =      1056.43050070     -732.41190547
  entropy T*S    EENTRO =        -0.01902455
  eigenvalues    EBANDS =      -700.83776982
  atomic energy  EATOM  =      3354.04126044
  ---------------------------------------------------
  free energy    TOTEN  =      -122.70775566 eV

  energy without entropy =     -122.68873111  energy(sigma->0) =     -122.69824339


--------------------------------------------------------------------------------------------------------




----------------------------------------- Iteration    1(   4)  ---------------------------------------


     EDDAV:  cpu time   78.66: real time   78.68
       DOS:  cpu time    0.01: real time    0.01
    --------------------------------------------
      LOOP:  cpu time   78.68: real time   78.70

 eigenvalue-minimisations  : 10912
 total energy-change (2. order) :-0.2568797E+01  (-0.2549900E+01)
 number of electron     108.0000000 magnetization 
 augmentation part      108.0000000 magnetization 

 Free energy of the ion-electron system (eV)
  ---------------------------------------------------
  alpha Z        PSCENC =        36.80884744
  Ewald energy   TEWEN  =     11927.23708542
  -Hartree energ DENC   =    -14976.12485142
  -exchange      EXHF   =         0.00000000
  -V(xc)+E(xc)   XCENC  =       -87.83189841
  PAW double counting   =      1056.43050070     -732.41190547
  entropy T*S    EENTRO =        -0.02228378
  eigenvalues    EBANDS =      -703.40330809
  atomic energy  EATOM  =      3354.04126044
  ---------------------------------------------------
  free energy    TOTEN  =      -125.27655316 eV

  energy without entropy =     -125.25426938  energy(sigma->0) =     -125.26541127


--------------------------------------------------------------------------------------------------------




----------------------------------------- Iteration    1(   5)  ---------------------------------------


     EDDAV:  cpu time   74.38: real time   74.40
       DOS:  cpu time    0.01: real time    0.01
    CHARGE:  cpu time    3.99: real time    3.99
    MIXING:  cpu time    0.01: real time    0.01
    --------------------------------------------
      LOOP:  cpu time   78.40: real time   78.41

 eigenvalue-minimisations  : 10136
 total energy-change (2. order) :-0.6212598E-01  (-0.6204565E-01)
 number of electron     107.9999995 magnetization 
 augmentation part       -9.5503798 magnetization 

 Broyden mixing:
  rms(total) = 0.98055E+00    rms(broyden)= 0.98035E+00
  rms(prec ) = 0.10463E+01
  weight for this iteration     100.00

 Free energy of the ion-electron system (eV)
  ---------------------------------------------------
  alpha Z        PSCENC =        36.80884744
  Ewald energy   TEWEN  =     11927.23708542
  -Hartree energ DENC   =    -14976.12485142
  -exchange      EXHF   =         0.00000000
  -V(xc)+E(xc)   XCENC  =       -87.83189841
  PAW double counting   =      1056.43050070     -732.41190547
  entropy T*S    EENTRO =        -0.02239424
  eigenvalues    EBANDS =      -703.46532361
  atomic energy  EATOM  =      3354.04126044
  ---------------------------------------------------
  free energy    TOTEN  =      -125.33867914 eV

  energy without entropy =     -125.31628490  energy(sigma->0) =     -125.32748202


--------------------------------------------------------------------------------------------------------




----------------------------------------- Iteration    1(   6)  ---------------------------------------


    POTLOK:  cpu time   12.75: real time   12.75
    SETDIJ:  cpu time    0.01: real time    0.01
     EDDAV:  cpu time   65.05: real time   65.06
       DOS:  cpu time    0.01: real time    0.01
    CHARGE:  cpu time    3.86: real time    3.86
    MIXING:  cpu time    0.01: real time    0.01
    --------------------------------------------
      LOOP:  cpu time   81.69: real time   81.71

 eigenvalue-minimisations  :  8616
 total energy-change (2. order) : 0.2032640E+01  (-0.5503890E+00)
 number of electron     107.9999995 magnetization 
 augmentation part       -9.4107026 magnetization 

 Broyden mixing:
  rms(total) = 0.54700E+00    rms(broyden)= 0.54698E+00
  rms(prec ) = 0.57852E+00
  weight for this iteration     100.00

 eigenvalues of (default mixing * dielectric matrix)
  average eigenvalue GAMMA=   1.9322
  1.9322

 Free energy of the ion-electron system (eV)
  ---------------------------------------------------
  alpha Z        PSCENC =        36.80884744
  Ewald energy   TEWEN  =     11927.23708542
  -Hartree energ DENC   =    -15014.85560412
  -exchange      EXHF   =         0.00000000
  -V(xc)+E(xc)   XCENC  =       -84.89062553
  PAW double counting   =      1112.44363305     -789.96760652
  entropy T*S    EENTRO =        -0.02107670
  eigenvalues    EBANDS =      -664.10195282
  atomic energy  EATOM  =      3354.04126044
  ---------------------------------------------------
  free energy    TOTEN  =      -123.30603933 eV

  energy without entropy =     -123.28496263  energy(sigma->0) =     -123.29550098


--------------------------------------------------------------------------------------------------------




----------------------------------------- Iteration    1(   7)  ---------------------------------------


    POTLOK:  cpu time   12.12: real time   12.12
    SETDIJ:  cpu time    0.01: real time    0.01
     EDDAV:  cpu time   66.36: real time   66.37
       DOS:  cpu time    0.01: real time    0.01
    CHARGE:  cpu time    3.85: real time    3.85
    MIXING:  cpu time    0.01: real time    0.01
    --------------------------------------------
      LOOP:  cpu time   82.36: real time   82.38

 eigenvalue-minimisations  :  8864
 total energy-change (2. order) : 0.2118130E+00  (-0.3925863E+00)
 number of electron     107.9999995 magnetization 
 augmentation part       -9.3164392 magnetization 

 Broyden mixing:
  rms(total) = 0.20387E+00    rms(broyden)= 0.20385E+00
  rms(prec ) = 0.22879E+00
  weight for this iteration     100.00

 eigenvalues of (default mixing * dielectric matrix)
  average eigenvalue GAMMA=   1.5234
  0.8644  2.1825

 Free energy of the ion-electron system (eV)
  ---------------------------------------------------
  alpha Z        PSCENC =        36.80884744
  Ewald energy   TEWEN  =     11927.23708542
  -Hartree energ DENC   =    -15048.11230586
  -exchange      EXHF   =         0.00000000
  -V(xc)+E(xc)   XCENC  =       -81.88006024
  PAW double counting   =      1156.59593168     -835.35809373
  entropy T*S    EENTRO =        -0.03032337
  eigenvalues    EBANDS =      -632.39656815
  atomic energy  EATOM  =      3354.04126044
  ---------------------------------------------------
  free energy    TOTEN  =      -123.09422636 eV

  energy without entropy =     -123.06390299  energy(sigma->0) =     -123.07906468


--------------------------------------------------------------------------------------------------------




----------------------------------------- Iteration    1(   8)  ---------------------------------------


    POTLOK:  cpu time   12.93: real time   12.93
    SETDIJ:  cpu time    0.01: real time    0.02
     EDDAV:  cpu time   74.17: real time   74.19
       DOS:  cpu time    0.01: real time    0.01
    CHARGE:  cpu time    4.30: real time    4.30
    MIXING:  cpu time    0.01: real time    0.01
    --------------------------------------------
      LOOP:  cpu time   91.45: real time   91.47

 eigenvalue-minimisations  :  9176
 total energy-change (2. order) : 0.2305471E-01  (-0.8314148E-01)
 number of electron     107.9999995 magnetization 
 augmentation part       -9.3061605 magnetization 

 Broyden mixing:
  rms(total) = 0.97003E-01    rms(broyden)= 0.96995E-01
  rms(prec ) = 0.10393E+00
  weight for this iteration     100.00

 eigenvalues of (default mixing * dielectric matrix)
  average eigenvalue GAMMA=   1.5414
  2.4205  1.5063  0.6974

 Free energy of the ion-electron system (eV)
  ---------------------------------------------------
  alpha Z        PSCENC =        36.80884744
  Ewald energy   TEWEN  =     11927.23708542
  -Hartree energ DENC   =    -15054.82165637
  -exchange      EXHF   =         0.00000000
  -V(xc)+E(xc)   XCENC  =       -81.03348507
  PAW double counting   =      1162.83046047     -841.78645908
  entropy T*S    EENTRO =        -0.02673193
  eigenvalues    EBANDS =      -626.32049298
  atomic energy  EATOM  =      3354.04126044
  ---------------------------------------------------
  free energy    TOTEN  =      -123.07117165 eV

  energy without entropy =     -123.04443972  energy(sigma->0) =     -123.05780568


--------------------------------------------------------------------------------------------------------




----------------------------------------- Iteration    1(   9)  ---------------------------------------


    POTLOK:  cpu time   13.50: real time   13.50
    SETDIJ:  cpu time    0.02: real time    0.02
     EDDAV:  cpu time   72.55: real time   72.57
       DOS:  cpu time    0.01: real time    0.01
    CHARGE:  cpu time    4.29: real time    4.29
    MIXING:  cpu time    0.01: real time    0.01
    --------------------------------------------
      LOOP:  cpu time   90.37: real time   90.39

 eigenvalue-minimisations  :  8872
 total energy-change (2. order) : 0.2481765E-01  (-0.1295802E-01)
 number of electron     107.9999995 magnetization 
 augmentation part       -9.3104255 magnetization 

 Broyden mixing:
  rms(total) = 0.37937E-01    rms(broyden)= 0.37935E-01
  rms(prec ) = 0.41953E-01
  weight for this iteration     100.00

 eigenvalues of (default mixing * dielectric matrix)
  average eigenvalue GAMMA=   1.4682
  2.5790  1.6983  0.8179  0.7777

 Free energy of the ion-electron system (eV)
  ---------------------------------------------------
  alpha Z        PSCENC =        36.80884744
  Ewald energy   TEWEN  =     11927.23708542
  -Hartree energ DENC   =    -15060.45204765
  -exchange      EXHF   =         0.00000000
  -V(xc)+E(xc)   XCENC  =       -80.68561959
  PAW double counting   =      1160.19009751     -839.08518745
  entropy T*S    EENTRO =        -0.02589120
  eigenvalues    EBANDS =      -621.07489892
  atomic energy  EATOM  =      3354.04126044
  ---------------------------------------------------
  free energy    TOTEN  =      -123.04635400 eV

  energy without entropy =     -123.02046279  energy(sigma->0) =     -123.03340839


--------------------------------------------------------------------------------------------------------




----------------------------------------- Iteration    1(  10)  ---------------------------------------


    POTLOK:  cpu time   13.91: real time   13.91
    SETDIJ:  cpu time    0.01: real time    0.01
     EDDAV:  cpu time   74.11: real time   74.12
       DOS:  cpu time    0.01: real time    0.01
    CHARGE:  cpu time    4.34: real time    4.34
    MIXING:  cpu time    0.01: real time    0.01
    --------------------------------------------
      LOOP:  cpu time   92.40: real time   92.42

 eigenvalue-minimisations  :  8976
 total energy-change (2. order) : 0.1368351E-01  (-0.3479526E-02)
 number of electron     107.9999995 magnetization 
 augmentation part       -9.3138660 magnetization 

 Broyden mixing:
  rms(total) = 0.14580E-01    rms(broyden)= 0.14578E-01
  rms(prec ) = 0.16806E-01
  weight for this iteration     100.00

 eigenvalues of (default mixing * dielectric matrix)
  average eigenvalue GAMMA=   1.4006
  2.6110  1.5865  1.3263  0.7530  0.7261

 Free energy of the ion-electron system (eV)
  ---------------------------------------------------
  alpha Z        PSCENC =        36.80884744
  Ewald energy   TEWEN  =     11927.23708542
  -Hartree energ DENC   =    -15061.21757404
  -exchange      EXHF   =         0.00000000
  -V(xc)+E(xc)   XCENC  =       -80.57534389
  PAW double counting   =      1158.02994175     -836.86719943
  entropy T*S    EENTRO =        -0.02623282
  eigenvalues    EBANDS =      -620.46345535
  atomic energy  EATOM  =      3354.04126044
  ---------------------------------------------------
  free energy    TOTEN  =      -123.03267048 eV

  energy without entropy =     -123.00643766  energy(sigma->0) =     -123.01955407


--------------------------------------------------------------------------------------------------------




----------------------------------------- Iteration    1(  11)  ---------------------------------------


    POTLOK:  cpu time   14.15: real time   14.15
    SETDIJ:  cpu time    0.02: real time    0.02
     EDDAV:  cpu time   73.31: real time   73.32
       DOS:  cpu time    0.01: real time    0.01
    CHARGE:  cpu time    4.40: real time    4.40
    MIXING:  cpu time    0.01: real time    0.01
    --------------------------------------------
      LOOP:  cpu time   91.89: real time   91.91

 eigenvalue-minimisations  :  8880
 total energy-change (2. order) : 0.7090325E-02  (-0.5851209E-03)
 number of electron     107.9999995 magnetization 
 augmentation part       -9.3139777 magnetization 

 Broyden mixing:
  rms(total) = 0.74318E-02    rms(broyden)= 0.74309E-02
  rms(prec ) = 0.89417E-02
  weight for this iteration     100.00

 eigenvalues of (default mixing * dielectric matrix)
  average eigenvalue GAMMA=   1.4098
  2.6478  1.6674  1.6674  0.9420  0.8719  0.6623

 Free energy of the ion-electron system (eV)
  ---------------------------------------------------
  alpha Z        PSCENC =        36.80884744
  Ewald energy   TEWEN  =     11927.23708542
  -Hartree energ DENC   =    -15062.53146968
  -exchange      EXHF   =         0.00000000
  -V(xc)+E(xc)   XCENC  =       -80.54427075
  PAW double counting   =      1157.21221236     -836.02495963
  entropy T*S    EENTRO =        -0.02637275
  eigenvalues    EBANDS =      -619.19791301
  atomic energy  EATOM  =      3354.04126044
  ---------------------------------------------------
  free energy    TOTEN  =      -123.02558016 eV

  energy without entropy =     -122.99920740  energy(sigma->0) =     -123.01239378


--------------------------------------------------------------------------------------------------------




----------------------------------------- Iteration    1(  12)  ---------------------------------------


    POTLOK:  cpu time   13.69: real time   13.70
    SETDIJ:  cpu time    0.02: real time    0.02
     EDDAV:  cpu time   75.56: real time   75.58
       DOS:  cpu time    0.01: real time    0.01
    CHARGE:  cpu time    4.40: real time    4.40
    MIXING:  cpu time    0.01: real time    0.01
    --------------------------------------------
      LOOP:  cpu time   93.69: real time   93.71

 eigenvalue-minimisations  :  9200
 total energy-change (2. order) : 0.5696323E-02  (-0.1400859E-03)
 number of electron     107.9999995 magnetization 
 augmentation part       -9.3136267 magnetization 

 Broyden mixing:
  rms(total) = 0.35545E-02    rms(broyden)= 0.35540E-02
  rms(prec ) = 0.48307E-02
  weight for this iteration     100.00

 eigenvalues of (default mixing * dielectric matrix)
  average eigenvalue GAMMA=   1.4481
  2.7101  2.1757  1.4343  1.4343  0.8581  0.8581  0.6662

 Free energy of the ion-electron system (eV)
  ---------------------------------------------------
  alpha Z        PSCENC =        36.80884744
  Ewald energy   TEWEN  =     11927.23708542
  -Hartree energ DENC   =    -15063.67620946
  -exchange      EXHF   =         0.00000000
  -V(xc)+E(xc)   XCENC  =       -80.53076781
  PAW double counting   =      1156.44557620     -835.23716683
  entropy T*S    EENTRO =        -0.02628312
  eigenvalues    EBANDS =      -618.08222612
  atomic energy  EATOM  =      3354.04126044
  ---------------------------------------------------
  free energy    TOTEN  =      -123.01988383 eV

  energy without entropy =     -122.99360071  energy(sigma->0) =     -123.00674227


--------------------------------------------------------------------------------------------------------




----------------------------------------- Iteration    1(  13)  ---------------------------------------


    POTLOK:  cpu time   13.19: real time   13.19
    SETDIJ:  cpu time    0.01: real time    0.02
     EDDAV:  cpu time   76.01: real time   76.03
       DOS:  cpu time    0.01: real time    0.01
    CHARGE:  cpu time    4.34: real time    4.34
    MIXING:  cpu time    0.01: real time    0.01
    --------------------------------------------
      LOOP:  cpu time   93.58: real time   93.60

 eigenvalue-minimisations  :  9320
 total energy-change (2. order) : 0.3747490E-02  (-0.2908494E-04)
 number of electron     107.9999995 magnetization 
 augmentation part       -9.3137438 magnetization 

 Broyden mixing:
  rms(total) = 0.18061E-02    rms(broyden)= 0.18059E-02
  rms(prec ) = 0.29014E-02
  weight for this iteration     100.00

 eigenvalues of (default mixing * dielectric matrix)
  average eigenvalue GAMMA=   1.4650
  2.7951  2.3999  1.6781  1.2282  1.2282  0.6685  0.8609  0.8609

 Free energy of the ion-electron system (eV)
  ---------------------------------------------------
  alpha Z        PSCENC =        36.80884744
  Ewald energy   TEWEN  =     11927.23708542
  -Hartree energ DENC   =    -15064.65609317
  -exchange      EXHF   =         0.00000000
  -V(xc)+E(xc)   XCENC  =       -80.52601774
  PAW double counting   =      1155.86299555     -834.63974903
  entropy T*S    EENTRO =        -0.02621131
  eigenvalues    EBANDS =      -617.11825397
  atomic energy  EATOM  =      3354.04126044
  ---------------------------------------------------
  free energy    TOTEN  =      -123.01613634 eV

  energy without entropy =     -122.98992503  energy(sigma->0) =     -123.00303069


--------------------------------------------------------------------------------------------------------




----------------------------------------- Iteration    1(  14)  ---------------------------------------


    POTLOK:  cpu time   14.02: real time   14.02
    SETDIJ:  cpu time    0.02: real time    0.02
     EDDAV:  cpu time   75.75: real time   75.77
       DOS:  cpu time    0.01: real time    0.01
    CHARGE:  cpu time    4.42: real time    4.42
    MIXING:  cpu time    0.01: real time    0.01
    --------------------------------------------
      LOOP:  cpu time   94.23: real time   94.25

 eigenvalue-minimisations  :  9248
 total energy-change (2. order) : 0.1407765E-02  (-0.1198971E-04)
 number of electron     107.9999995 magnetization 
 augmentation part       -9.3134137 magnetization 

 Broyden mixing:
  rms(total) = 0.10606E-02    rms(broyden)= 0.10605E-02
  rms(prec ) = 0.18374E-02
  weight for this iteration     100.00

 eigenvalues of (default mixing * dielectric matrix)
  average eigenvalue GAMMA=   1.5037
  3.0231  2.5780  1.5392  1.5392  1.2426  1.2426  0.6710  0.8487  0.8487

 Free energy of the ion-electron system (eV)
  ---------------------------------------------------
  alpha Z        PSCENC =        36.80884744
  Ewald energy   TEWEN  =     11927.23708542
  -Hartree energ DENC   =    -15065.59752255
  -exchange      EXHF   =         0.00000000
  -V(xc)+E(xc)   XCENC  =       -80.51870330
  PAW double counting   =      1155.71451107     -834.48763547
  entropy T*S    EENTRO =        -0.02621603
  eigenvalues    EBANDS =      -616.18635561
  atomic energy  EATOM  =      3354.04126044
  ---------------------------------------------------
  free energy    TOTEN  =      -123.01472858 eV

  energy without entropy =     -122.98851255  energy(sigma->0) =     -123.00162056


--------------------------------------------------------------------------------------------------------




----------------------------------------- Iteration    1(  15)  ---------------------------------------


    POTLOK:  cpu time   13.23: real time   13.24
    SETDIJ:  cpu time    0.02: real time    0.02
     EDDAV:  cpu time   72.66: real time   72.68
       DOS:  cpu time    0.01: real time    0.01
    CHARGE:  cpu time    4.36: real time    4.37
    MIXING:  cpu time    0.01: real time    0.01
    --------------------------------------------
      LOOP:  cpu time   90.31: real time   90.32

 eigenvalue-minimisations  :  8368
 total energy-change (2. order) : 0.2962080E-03  (-0.4450017E-05)
 number of electron     107.9999995 magnetization 
 augmentation part       -9.3133498 magnetization 

 Broyden mixing:
  rms(total) = 0.61809E-03    rms(broyden)= 0.61807E-03
  rms(prec ) = 0.11483E-02
  weight for this iteration     100.00

 eigenvalues of (default mixing * dielectric matrix)
  average eigenvalue GAMMA=   1.5914
  3.6100  2.6583  1.9401  1.9401  1.2169  1.2169  0.6713  0.9687  0.8457  0.8457

 Free energy of the ion-electron system (eV)
  ---------------------------------------------------
  alpha Z        PSCENC =        36.80884744
  Ewald energy   TEWEN  =     11927.23708542
  -Hartree energ DENC   =    -15066.29218756
  -exchange      EXHF   =         0.00000000
  -V(xc)+E(xc)   XCENC  =       -80.51449346
  PAW double counting   =      1155.64775006     -834.41932923
  entropy T*S    EENTRO =        -0.02621361
  eigenvalues    EBANDS =      -615.49715188
  atomic energy  EATOM  =      3354.04126044
  ---------------------------------------------------
  free energy    TOTEN  =      -123.01443237 eV

  energy without entropy =     -122.98821876  energy(sigma->0) =     -123.00132556


--------------------------------------------------------------------------------------------------------




----------------------------------------- Iteration    1(  16)  ---------------------------------------


    POTLOK:  cpu time   13.75: real time   13.76
    SETDIJ:  cpu time    0.02: real time    0.02
     EDDAV:  cpu time   70.92: real time   70.93
       DOS:  cpu time    0.01: real time    0.01
    CHARGE:  cpu time    4.39: real time    4.39
    MIXING:  cpu time    0.01: real time    0.01
    --------------------------------------------
      LOOP:  cpu time   89.10: real time   89.12

 eigenvalue-minimisations  :  8208
 total energy-change (2. order) :-0.4912591E-03  (-0.9598964E-05)
 number of electron     107.9999995 magnetization 
 augmentation part       -9.3132431 magnetization 

 Broyden mixing:
  rms(total) = 0.37671E-03    rms(broyden)= 0.37669E-03
  rms(prec ) = 0.63559E-03
  weight for this iteration     100.00

 eigenvalues of (default mixing * dielectric matrix)
  average eigenvalue GAMMA=   1.7123
  4.7725  2.7864  2.3653  1.6068  1.6068  1.1862  1.1862  0.6715  0.9573  0.8479
  0.8479

 Free energy of the ion-electron system (eV)
  ---------------------------------------------------
  alpha Z        PSCENC =        36.80884744
  Ewald energy   TEWEN  =     11927.23708542
  -Hartree energ DENC   =    -15066.97997418
  -exchange      EXHF   =         0.00000000
  -V(xc)+E(xc)   XCENC  =       -80.51055786
  PAW double counting   =      1155.66207653     -834.43419331
  entropy T*S    EENTRO =        -0.02620096
  eigenvalues    EBANDS =      -614.81326717
  atomic energy  EATOM  =      3354.04126044
  ---------------------------------------------------
  free energy    TOTEN  =      -123.01492363 eV

  energy without entropy =     -122.98872267  energy(sigma->0) =     -123.00182315


--------------------------------------------------------------------------------------------------------




----------------------------------------- Iteration    1(  17)  ---------------------------------------


    POTLOK:  cpu time   13.57: real time   13.57
    SETDIJ:  cpu time    0.02: real time    0.02
     EDDAV:  cpu time   69.06: real time   69.08
       DOS:  cpu time    0.01: real time    0.01
    CHARGE:  cpu time    4.35: real time    4.35
    MIXING:  cpu time    0.02: real time    0.02
    --------------------------------------------
      LOOP:  cpu time   87.03: real time   87.05

 eigenvalue-minimisations  :  7920
 total energy-change (2. order) :-0.3505935E-03  (-0.1468189E-04)
 number of electron     107.9999995 magnetization 
 augmentation part       -9.3131527 magnetization 

 Broyden mixing:
  rms(total) = 0.21131E-03    rms(broyden)= 0.21130E-03
  rms(prec ) = 0.36402E-03
  weight for this iteration     100.00

 eigenvalues of (default mixing * dielectric matrix)
  average eigenvalue GAMMA=   1.8031
  5.8594  2.8543  2.4678  1.9183  1.6726  1.2132  1.2132  0.6715  1.0983  0.8507
  0.8507  0.9668

 Free energy of the ion-electron system (eV)
  ---------------------------------------------------
  alpha Z        PSCENC =        36.80884744
  Ewald energy   TEWEN  =     11927.23708542
  -Hartree energ DENC   =    -15067.37123171
  -exchange      EXHF   =         0.00000000
  -V(xc)+E(xc)   XCENC  =       -80.50863579
  PAW double counting   =      1155.69518736     -834.46807878
  entropy T*S    EENTRO =        -0.02620238
  eigenvalues    EBANDS =      -614.42350623
  atomic energy  EATOM  =      3354.04126044
  ---------------------------------------------------
  free energy    TOTEN  =      -123.01527422 eV

  energy without entropy =     -122.98907184  energy(sigma->0) =     -123.00217303


--------------------------------------------------------------------------------------------------------




----------------------------------------- Iteration    1(  18)  ---------------------------------------


    POTLOK:  cpu time   13.63: real time   13.64
    SETDIJ:  cpu time    0.02: real time    0.02
     EDDAV:  cpu time   66.43: real time   66.45
       DOS:  cpu time    0.01: real time    0.01
    CHARGE:  cpu time    4.40: real time    4.40
    MIXING:  cpu time    0.02: real time    0.02
    --------------------------------------------
      LOOP:  cpu time   84.52: real time   84.54

 eigenvalue-minimisations  :  7480
 total energy-change (2. order) :-0.5120946E-04  (-0.4608685E-05)
 number of electron     107.9999995 magnetization 
 augmentation part       -9.3131704 magnetization 

 Broyden mixing:
  rms(total) = 0.12654E-03    rms(broyden)= 0.12653E-03
  rms(prec ) = 0.23165E-03
  weight for this iteration     100.00

 eigenvalues of (default mixing * dielectric matrix)
  average eigenvalue GAMMA=   1.8380
  6.1714  2.9750  2.6466  2.1091  1.5971  1.5971  1.1732  1.1732  0.6716  1.1271
  0.8510  0.8510  0.9504

 Free energy of the ion-electron system (eV)
  ---------------------------------------------------
  alpha Z        PSCENC =        36.80884744
  Ewald energy   TEWEN  =     11927.23708542
  -Hartree energ DENC   =    -15067.55052790
  -exchange      EXHF   =         0.00000000
  -V(xc)+E(xc)   XCENC  =       -80.50802554
  PAW double counting   =      1155.69531805     -834.46803652
  entropy T*S    EENTRO =        -0.02620568
  eigenvalues    EBANDS =      -614.24504116
  atomic energy  EATOM  =      3354.04126044
  ---------------------------------------------------
  free energy    TOTEN  =      -123.01532543 eV

  energy without entropy =     -122.98911976  energy(sigma->0) =     -123.00222259


--------------------------------------------------------------------------------------------------------




----------------------------------------- Iteration    1(  19)  ---------------------------------------


    POTLOK:  cpu time   13.45: real time   13.45
    SETDIJ:  cpu time    0.02: real time    0.02
     EDDAV:  cpu time   60.88: real time   60.89
       DOS:  cpu time    0.01: real time    0.01
    CHARGE:  cpu time    4.40: real time    4.40
    MIXING:  cpu time    0.02: real time    0.02
    --------------------------------------------
      LOOP:  cpu time   78.78: real time   78.79

 eigenvalue-minimisations  :  6632
 total energy-change (2. order) :-0.4358355E-04  (-0.1519290E-05)
 number of electron     107.9999995 magnetization 
 augmentation part       -9.3131732 magnetization 

 Broyden mixing:
  rms(total) = 0.84377E-04    rms(broyden)= 0.84375E-04
  rms(prec ) = 0.15158E-03
  weight for this iteration     100.00

 eigenvalues of (default mixing * dielectric matrix)
  average eigenvalue GAMMA=   1.8664
  6.7191  3.1685  2.6792  2.2302  1.8358  1.4597  0.6716  1.1835  1.1835  1.1880
  1.1880  0.8514  0.8514  0.9191

 Free energy of the ion-electron system (eV)
  ---------------------------------------------------
  alpha Z        PSCENC =        36.80884744
  Ewald energy   TEWEN  =     11927.23708542
  -Hartree energ DENC   =    -15067.64007245
  -exchange      EXHF   =         0.00000000
  -V(xc)+E(xc)   XCENC  =       -80.50786635
  PAW double counting   =      1155.69439492     -834.46705754
  entropy T*S    EENTRO =        -0.02620441
  eigenvalues    EBANDS =      -614.15575650
  atomic energy  EATOM  =      3354.04126044
  ---------------------------------------------------
  free energy    TOTEN  =      -123.01536902 eV

  energy without entropy =     -122.98916461  energy(sigma->0) =     -123.00226681


--------------------------------------------------------------------------------------------------------




----------------------------------------- Iteration    1(  20)  ---------------------------------------


    POTLOK:  cpu time   13.85: real time   13.86
    SETDIJ:  cpu time    0.02: real time    0.02
     EDDAV:  cpu time   62.04: real time   62.05
       DOS:  cpu time    0.01: real time    0.01
    CHARGE:  cpu time    4.35: real time    4.35
    MIXING:  cpu time    0.02: real time    0.02
    --------------------------------------------
      LOOP:  cpu time   80.29: real time   80.31

 eigenvalue-minimisations  :  6872
 total energy-change (2. order) :-0.2372235E-04  (-0.2734003E-05)
 number of electron     107.9999995 magnetization 
 augmentation part       -9.3131659 magnetization 

 Broyden mixing:
  rms(total) = 0.60673E-04    rms(broyden)= 0.60670E-04
  rms(prec ) = 0.98603E-04
  weight for this iteration     100.00

 eigenvalues of (default mixing * dielectric matrix)
  average eigenvalue GAMMA=   1.9478
  6.8990  3.9064  2.8096  2.4708  1.8315  1.8315  1.4187  1.4187  1.1584  1.1584
  0.6716  0.8514  0.8514  0.9694  0.9694

 Free energy of the ion-electron system (eV)
  ---------------------------------------------------
  alpha Z        PSCENC =        36.80884744
  Ewald energy   TEWEN  =     11927.23708542
  -Hartree energ DENC   =    -15067.68851956
  -exchange      EXHF   =         0.00000000
  -V(xc)+E(xc)   XCENC  =       -80.50793062
  PAW double counting   =      1155.69214515     -834.46477059
  entropy T*S    EENTRO =        -0.02620403
  eigenvalues    EBANDS =      -614.10730641
  atomic energy  EATOM  =      3354.04126044
  ---------------------------------------------------
  free energy    TOTEN  =      -123.01539274 eV

  energy without entropy =     -122.98918871  energy(sigma->0) =     -123.00229072


--------------------------------------------------------------------------------------------------------




----------------------------------------- Iteration    1(  21)  ---------------------------------------


    POTLOK:  cpu time   13.90: real time   13.91
    SETDIJ:  cpu time    0.02: real time    0.02
     EDDAV:  cpu time   57.07: real time   57.08
       DOS:  cpu time    0.01: real time    0.01
    CHARGE:  cpu time    4.37: real time    4.37
    MIXING:  cpu time    0.02: real time    0.02
    --------------------------------------------
      LOOP:  cpu time   75.39: real time   75.41

 eigenvalue-minimisations  :  6160
 total energy-change (2. order) : 0.4068725E-04  (-0.1398879E-05)
 number of electron     107.9999995 magnetization 
 augmentation part       -9.3131694 magnetization 

 Broyden mixing:
  rms(total) = 0.31099E-04    rms(broyden)= 0.31098E-04
  rms(prec ) = 0.46951E-04
  weight for this iteration     100.00

 eigenvalues of (default mixing * dielectric matrix)
  average eigenvalue GAMMA=   2.0412
  7.3972  5.2485  2.9021  2.6027  2.0760  1.7769  1.3910  1.3910  1.1774  1.1774
  0.6716  1.2085  0.8516  0.8516  0.9248  1.0112

 Free energy of the ion-electron system (eV)
  ---------------------------------------------------
  alpha Z        PSCENC =        36.80884744
  Ewald energy   TEWEN  =     11927.23708542
  -Hartree energ DENC   =    -15067.70938957
  -exchange      EXHF   =         0.00000000
  -V(xc)+E(xc)   XCENC  =       -80.50804479
  PAW double counting   =      1155.68923665     -834.46180813
  entropy T*S    EENTRO =        -0.02620403
  eigenvalues    EBANDS =      -614.08633548
  atomic energy  EATOM  =      3354.04126044
  ---------------------------------------------------
  free energy    TOTEN  =      -123.01535205 eV

  energy without entropy =     -122.98914802  energy(sigma->0) =     -123.00225003


--------------------------------------------------------------------------------------------------------




----------------------------------------- Iteration    1(  22)  ---------------------------------------


    POTLOK:  cpu time   13.47: real time   13.47
    SETDIJ:  cpu time    0.02: real time    0.02
     EDDAV:  cpu time   57.82: real time   57.83
       DOS:  cpu time    0.01: real time    0.01
    CHARGE:  cpu time    4.33: real time    4.33
    MIXING:  cpu time    0.02: real time    0.02
    --------------------------------------------
      LOOP:  cpu time   75.67: real time   75.68

 eigenvalue-minimisations  :  6280
 total energy-change (2. order) : 0.5402003E-04  (-0.6013717E-06)
 number of electron     107.9999995 magnetization 
 augmentation part       -9.3131680 magnetization 

 Broyden mixing:
  rms(total) = 0.19449E-04    rms(broyden)= 0.19447E-04
  rms(prec ) = 0.25051E-04
  weight for this iteration     100.00

 eigenvalues of (default mixing * dielectric matrix)
  average eigenvalue GAMMA=   2.0859
  7.6516  6.0632  3.0248  2.6709  2.1322  1.6029  1.6029  1.6629  0.6716  1.1808
  1.1808  1.1962  1.1962  0.8510  0.8510  1.0007  0.9203

 Free energy of the ion-electron system (eV)
  ---------------------------------------------------
  alpha Z        PSCENC =        36.80884744
  Ewald energy   TEWEN  =     11927.23708542
  -Hartree energ DENC   =    -15067.72491640
  -exchange      EXHF   =         0.00000000
  -V(xc)+E(xc)   XCENC  =       -80.50801482
  PAW double counting   =      1155.68923473     -834.46181903
  entropy T*S    EENTRO =        -0.02620388
  eigenvalues    EBANDS =      -614.07077195
  atomic energy  EATOM  =      3354.04126044
  ---------------------------------------------------
  free energy    TOTEN  =      -123.01529803 eV

  energy without entropy =     -122.98909415  energy(sigma->0) =     -123.00219609


--------------------------------------------------------------------------------------------------------




----------------------------------------- Iteration    1(  23)  ---------------------------------------


    POTLOK:  cpu time   13.18: real time   13.18
    SETDIJ:  cpu time    0.02: real time    0.02
     EDDAV:  cpu time   58.38: real time   58.39
       DOS:  cpu time    0.01: real time    0.01
    CHARGE:  cpu time    4.43: real time    4.43
    MIXING:  cpu time    0.02: real time    0.02
    --------------------------------------------
      LOOP:  cpu time   76.04: real time   76.06

 eigenvalue-minimisations  :  6152
 total energy-change (2. order) : 0.1707267E-04  (-0.6054859E-06)
 number of electron     107.9999995 magnetization 
 augmentation part       -9.3131680 magnetization 

 Broyden mixing:
  rms(total) = 0.99664E-05    rms(broyden)= 0.99644E-05
  rms(prec ) = 0.12266E-04
  weight for this iteration     100.00

 eigenvalues of (default mixing * dielectric matrix)
  average eigenvalue GAMMA=   2.1714
  8.7165  6.6550  3.2167  2.7316  2.4017  1.9010  1.6351  1.3919  1.3919  0.6716
  1.2177  1.2177  1.1724  1.1724  0.8515  0.8515  0.9444  0.9444

 Free energy of the ion-electron system (eV)
  ---------------------------------------------------
  alpha Z        PSCENC =        36.80884744
  Ewald energy   TEWEN  =     11927.23708542
  -Hartree energ DENC   =    -15067.72274742
  -exchange      EXHF   =         0.00000000
  -V(xc)+E(xc)   XCENC  =       -80.50804221
  PAW double counting   =      1155.68917244     -834.46175615
  entropy T*S    EENTRO =        -0.02620379
  eigenvalues    EBANDS =      -614.07289714
  atomic energy  EATOM  =      3354.04126044
  ---------------------------------------------------
  free energy    TOTEN  =      -123.01528096 eV

  energy without entropy =     -122.98907717  energy(sigma->0) =     -123.00217906


[...]
     31      -4.1000      2.00000
     32      -3.9878      2.00000
     33      -3.7453      2.00000
     34      -3.6382      2.00000
     35      -3.4042      2.00000
     36      -3.2495      2.00000
     37      -3.2090      2.00000
     38      -3.0599      2.00000
     39      -2.8414      2.00000
     40      -2.6758      2.00000
     41      -2.6218      2.00000
     42      -2.5414      2.00000
     43      -2.5221      2.00000
     44      -2.3186      2.00000
     45      -2.0082      2.00000
     46      -1.9159      2.00000
     47      -1.7694      2.00000
     48      -1.4407      2.00000
     49      -1.3722      2.00000
     50      -1.1166      2.00000
     51      -1.0204      2.00000
     52      -0.5199      2.00000
     53      -0.2549      2.00000
     54      -0.0424      1.99948
     55       0.5127      0.00001
     56       0.8072      0.00000
     57       1.1973      0.00000
     58       1.3665      0.00000
     59       1.4848      0.00000
     60       1.6043      0.00000
     61       2.0866      0.00000
     62       2.2368      0.00000
     63       2.4795      0.00000
     64       2.6104      0.00000
     65       2.7054      0.00000
     66       2.8118      0.00000
     67       3.0527      0.00000
     68       3.1979      0.00000

 k-point    52 :       0.3077    0.5000    0.5000
  band No.  band energies     occupation 
      1     -14.3022      2.00000
      2     -12.5029      2.00000
      3     -12.1647      2.00000
      4     -12.1086      2.00000
      5     -11.6346      2.00000
      6     -11.5531      2.00000
      7     -11.3034      2.00000
      8     -11.0117      2.00000
      9     -10.8054      2.00000
     10     -10.7732      2.00000
     11     -10.3910      2.00000
     12      -9.7015      2.00000
     13      -8.9182      2.00000
     14      -8.6795      2.00000
     15      -7.8861      2.00000
     16      -7.7666      2.00000
     17      -7.5415      2.00000
     18      -7.0621      2.00000
     19      -6.9586      2.00000
     20      -6.7150      2.00000
     21      -6.3844      2.00000
     22      -6.1900      2.00000
     23      -6.0960      2.00000
     24      -5.9136      2.00000
     25      -5.3575      2.00000
     26      -5.1052      2.00000
     27      -4.9080      2.00000
     28      -4.8730      2.00000
     29      -4.4966      2.00000
     30      -4.4403      2.00000
     31      -4.3602      2.00000
     32      -4.2554      2.00000
     33      -4.0822      2.00000
     34      -3.7310      2.00000
     35      -3.4436      2.00000
     36      -3.2591      2.00000
     37      -3.1368      2.00000
     38      -3.0603      2.00000
     39      -2.9589      2.00000
     40      -2.8946      2.00000
     41      -2.7390      2.00000
     42      -2.5521      2.00000
     43      -2.4210      2.00000
     44      -2.3489      2.00000
     45      -2.2059      2.00000
     46      -1.9500      2.00000
     47      -1.8898      2.00000
     48      -1.7489      2.00000
     49      -1.6129      2.00000
     50      -1.3769      2.00000
     51      -1.2665      2.00000
     52      -0.8493      2.00000
     53      -0.6294      2.00000
     54      -0.3704      2.00000
     55       0.1634      1.42452
     56       0.5384      0.00000
     57       0.9951      0.00000
     58       1.2787      0.00000
     59       1.3376      0.00000
     60       1.4727      0.00000
     61       1.9112      0.00000
     62       2.1799      0.00000
     63       2.2486      0.00000
     64       2.4411      0.00000
     65       2.4613      0.00000
     66       2.5568      0.00000
     67       2.7173      0.00000
     68       2.9781      0.00000

 k-point    53 :       0.3846    0.5000    0.5000
  band No.  band energies     occupation 
      1     -13.9677      2.00000
      2     -12.0271      2.00000
      3     -11.8462      2.00000
      4     -11.6676      2.00000
      5     -11.2690      2.00000
      6     -11.2371      2.00000
      7     -10.9563      2.00000
      8     -10.7665      2.00000
      9     -10.6152      2.00000
     10     -10.5952      2.00000
     11     -10.4575      2.00000
     12      -9.6954      2.00000
     13      -8.9401      2.00000
     14      -8.9021      2.00000
     15      -8.2434      2.00000
     16      -8.0354      2.00000
     17      -7.6794      2.00000
     18      -7.6108      2.00000
     19      -7.3739      2.00000
     20      -7.1841      2.00000
     21      -6.8894      2.00000
     22      -6.7189      2.00000
     23      -6.6533      2.00000
     24      -6.4918      2.00000
     25      -5.2988      2.00000
     26      -5.2146      2.00000
     27      -4.8281      2.00000
     28      -4.6722      2.00000
     29      -4.5181      2.00000
     30      -4.3813      2.00000
     31      -4.2040      2.00000
     32      -4.1232      2.00000
     33      -4.0353      2.00000
     34      -3.7880      2.00000
     35      -3.6119      2.00000
     36      -3.5312      2.00000
     37      -3.1883      2.00000
     38      -3.1727      2.00000
     39      -3.1249      2.00000
     40      -2.9688      2.00000
     41      -2.8663      2.00000
     42      -2.7091      2.00000
     43      -2.4725      2.00000
     44      -2.3105      2.00000
     45      -2.2789      2.00000
     46      -2.1023      2.00000
     47      -2.0539      2.00000
     48      -1.8714      2.00000
     49      -1.7179      2.00000
     50      -1.6491      2.00000
     51      -1.4194      2.00000
     52      -1.1807      2.00000
     53      -0.7424      2.00000
     54      -0.6521      2.00000
     55      -0.0048      1.99670
     56       0.3707      0.01767
     57       0.9519      0.00000
     58       1.2682      0.00000
     59       1.4324      0.00000
     60       1.5614      0.00000
     61       1.7450      0.00000
     62       1.8427      0.00000
     63       2.0822      0.00000
     64       2.1586      0.00000
     65       2.2640      0.00000
     66       2.3291      0.00000
     67       2.5016      0.00000
     68       2.5922      0.00000

 k-point    54 :       0.4615    0.5000    0.5000
  band No.  band energies     occupation 
      1     -13.7260      2.00000
      2     -11.7785      2.00000
      3     -11.4840      2.00000
      4     -11.1698      2.00000
      5     -10.9486      2.00000
      6     -10.9340      2.00000
      7     -10.8477      2.00000
      8     -10.7222      2.00000
      9     -10.6754      2.00000
     10     -10.6147      2.00000
     11     -10.5934      2.00000
     12      -9.7360      2.00000
     13      -9.0902      2.00000
     14      -8.6633      2.00000
     15      -8.4321      2.00000
     16      -8.1888      2.00000
     17      -8.1142      2.00000
     18      -7.7464      2.00000
     19      -7.5497      2.00000
     20      -7.4917      2.00000
     21      -7.2822      2.00000
     22      -7.2318      2.00000
     23      -7.1734      2.00000
     24      -6.7158      2.00000
     25      -5.0402      2.00000
     26      -4.9449      2.00000
     27      -4.7039      2.00000
     28      -4.4812      2.00000
     29      -4.4125      2.00000
     30      -4.2624      2.00000
     31      -4.2288      2.00000
     32      -4.0700      2.00000
     33      -3.9433      2.00000
     34      -3.8072      2.00000
     35      -3.7703      2.00000
     36      -3.5794      2.00000
     37      -3.5330      2.00000
     38      -3.3430      2.00000
     39      -3.2599      2.00000
     40      -3.1477      2.00000
     41      -3.0179      2.00000
     42      -2.7050      2.00000
     43      -2.5965      2.00000
     44      -2.3804      2.00000
     45      -2.3278      2.00000
     46      -2.1677      2.00000
     47      -2.1043      2.00000
     48      -1.8802      2.00000
     49      -1.7188      2.00000
     50      -1.5903      2.00000
     51      -1.5234      2.00000
     52      -1.3635      2.00000
     53      -0.9171      2.00000
     54      -0.7135      2.00000
     55      -0.0269      1.99885
     56       0.3162      0.10930
     57       0.9926      0.00000
     58       1.3376      0.00000
     59       1.4179      0.00000
     60       1.6098      0.00000
     61       1.6551      0.00000
     62       1.7029      0.00000
     63       1.8808      0.00000
     64       2.0119      0.00000
     65       2.0640      0.00000
     66       2.3209      0.00000
     67       2.3793      0.00000
     68       2.4532      0.00000


--------------------------------------------------------------------------------------------------------


 soft charge-density along one line, spin component           1
         0         1         2         3         4         5         6         7         8         9
 total charge-density along one line
 
 pseudopotential strength for first ion, spin component:           1
 29.768   0.008  -0.000  -0.024  -0.000  -0.000  -0.001   0.000
  0.008   0.009  -0.000  -0.000   0.000   0.000   0.000  -0.000
 -0.000  -0.000   6.547  -0.001   0.000  -0.003   0.000  -0.000
 -0.024  -0.000  -0.001   6.541   0.000   0.000  -0.002  -0.000
 -0.000   0.000   0.000   0.000   6.548  -0.000  -0.000  -0.003
 -0.000   0.000  -0.003   0.000  -0.000   0.015  -0.000   0.000
 -0.001   0.000   0.000  -0.002  -0.000  -0.000   0.015   0.000
  0.000  -0.000  -0.000  -0.000  -0.003   0.000   0.000   0.015
 total augmentation occupancy for first ion, spin component:           1
  1.819  -0.345   0.007   0.258   0.000   0.005   0.113  -0.001
 -0.345   1.317   0.026   0.868  -0.000   0.003  -0.433   0.000
  0.007   0.026   1.139   0.012   0.000  -0.504   0.015  -0.000
  0.258   0.868   0.012   1.290   0.000   0.015  -0.419  -0.001
  0.000  -0.000   0.000   0.000   1.142  -0.000  -0.000  -0.527
  0.005   0.003  -0.504   0.015  -0.000   0.293  -0.016   0.000
  0.113  -0.433   0.015  -0.419  -0.000  -0.016   0.228   0.000
 -0.001   0.000  -0.000  -0.001  -0.527   0.000   0.000   0.326


------------------------ aborting loop because EDIFF is reached ----------------------------------------


    CHARGE:  cpu time    4.40: real time    4.40
    FORLOC:  cpu time    0.07: real time    0.07
    FORNL :  cpu time   20.47: real time   20.48
    STRESS:  cpu time   62.10: real time   62.11
    FORCOR:  cpu time   14.01: real time   14.01
    FORHAR:  cpu time    0.15: real time    0.15
    MIXING:  cpu time    0.02: real time    0.02
    OFIELD:  cpu time    0.00: real time    0.00

  FORCE on cell =-STRESS in cart. coord.  units (eV):
  Direction    XX          YY          ZZ          XY          YZ          ZX
  --------------------------------------------------------------------------------------
  Alpha Z    36.80885    36.80885    36.80885
  Ewald   14372.02556 13970.16430-16414.96017    -1.42284   -32.76561    -4.33525
  Hartree 14901.69544 14594.46420-14428.43557    -0.36093    -3.81414    -2.93834
  E(xc)    -356.71035  -356.57182  -354.88562     0.05770    -0.03115    -0.18722
  Local  -30822.72457-30121.45363 29261.99545     1.86416    32.83964     4.93485
  n-local  1149.49148  1154.96248  1142.14576    -0.50069    -5.85219     4.13664
  augment  -201.46345  -202.62718  -204.01294     0.08095    -0.24983    -0.23487
  Kinetic   926.88386   929.66991   970.80667    -1.71572    12.41179    -1.91202
  Fock        0.00000     0.00000     0.00000     0.00000     0.00000     0.00000
  -------------------------------------------------------------------------------------
  Total       6.00682     5.41711     9.46243    -1.99737     2.53851    -0.53622
  in kB       9.60171     8.65908    15.12540    -3.19273     4.05773    -0.85713
  external pressure =       11.13 kB  Pullay stress =        0.00 kB


 VOLUME and BASIS-vectors are now :
 -----------------------------------------------------------------------------
  energy-cutoff  :      300.00
  volume of cell :     1002.32
      direct lattice vectors                 reciprocal lattice vectors
     3.540400000  0.000000000  0.000000000     0.282453960  0.048570342  0.000000000
    -1.770200000 10.294348000  0.000000000     0.000000000  0.097140683  0.000000000
     0.000000000  0.000000000 27.501429000     0.000000000  0.000000000  0.036361747

  length of vectors
     3.540400000 10.445439617 27.501429000     0.286599577  0.097140683  0.036361747


 FORCES acting on ions
    electron-ion (+dipol)            ewald-force                    non-local-force                 convergence-correction
 -----------------------------------------------------------------------------------------------
   0.381E-01 0.446E+01 0.291E+02   0.439E-02 -.434E+01 -.243E+02   -.234E-01 -.173E+00 -.477E+01   -.341E-06 0.483E-05 -.839E-05
   0.879E-01 -.142E+02 -.566E+03   -.231E+00 0.146E+02 0.570E+03   0.219E-01 -.804E-01 -.364E+01   -.994E-06 -.218E-04 -.461E-05
   0.148E-01 0.647E+02 0.509E+02   -.581E-02 -.661E+02 -.468E+02   -.777E-02 0.146E+01 -.404E+01   0.701E-07 0.323E-05 0.111E-05
   0.108E+01 0.484E+02 -.558E+03   -.949E+00 -.498E+02 0.562E+03   -.580E+00 0.153E+01 -.330E+01   0.472E-05 0.535E-05 0.208E-04
   -.241E-02 -.570E+02 0.526E+03   0.817E-04 0.586E+02 -.530E+03   0.111E-02 -.154E+01 0.429E+01   0.962E-07 -.224E-04 -.482E-05
   -.451E+00 -.559E+02 -.758E+02   -.292E+00 0.579E+02 0.729E+02   0.341E+00 -.251E+01 0.459E+01   0.564E-06 -.568E-05 0.758E-05
   0.505E-02 0.539E+02 0.526E+03   0.260E-04 -.558E+02 -.531E+03   -.769E-03 0.189E+01 0.417E+01   -.281E-07 0.194E-04 0.712E-05
   -.115E+02 0.731E+02 -.178E+02   0.117E+02 -.740E+02 0.160E+02   0.139E+01 0.155E+01 -.314E+01   -.793E-05 -.526E-05 0.218E-04
   -.479E-03 0.158E+01 0.572E+03   -.869E-04 -.179E+01 -.577E+03   0.167E-02 0.205E+00 0.478E+01   -.450E-07 0.889E-06 -.143E-04
   0.410E+00 -.306E+02 -.229E+02   -.710E-01 0.311E+02 0.193E+02   -.383E-01 -.893E+00 0.315E+01   0.331E-05 0.153E-04 -.120E-04
   -.513E-02 -.637E+02 0.566E+02   0.737E-03 0.656E+02 -.525E+02   0.397E-02 -.190E+01 -.401E+01   0.891E-07 -.266E-05 -.151E-05
   0.103E+00 -.358E+02 -.506E+03   0.318E+00 0.376E+02 0.511E+03   0.129E+00 -.142E+01 -.491E+01   -.131E-05 0.516E-05 0.803E-05
   -.742E-02 0.315E+02 0.209E+03   0.319E-03 -.336E+02 -.210E+03   0.103E-01 0.215E+01 0.406E+00   -.275E-07 0.371E-05 0.504E-05
   -.105E+02 0.169E+02 -.317E+03   0.778E+01 -.169E+02 0.315E+03   0.527E+01 -.324E-01 0.763E+01   -.204E-05 0.116E-07 0.792E-05
   0.454E-03 -.131E+02 0.138E+03   0.391E-04 0.133E+02 -.140E+03   -.230E-02 -.261E+00 0.255E+01   -.610E-07 -.633E-05 -.183E-05
   0.175E+01 -.140E+02 -.303E+03   -.175E+01 0.143E+02 0.303E+03   0.354E-01 0.230E-02 -.190E+01   0.946E-06 0.585E-05 0.525E-05
   -.502E-03 -.538E+01 0.345E+03   0.720E-04 0.586E+01 -.343E+03   -.173E-04 -.474E+00 -.253E+01   0.390E-07 -.104E-04 -.135E-04
   0.606E+00 -.366E+02 -.143E+03   -.495E+00 0.379E+02 0.142E+03   0.592E+00 -.116E+01 0.964E+00   -.893E-07 0.884E-06 0.327E-05
   0.272E-02 0.949E+01 0.335E+03   -.224E-04 -.976E+01 -.333E+03   -.215E-02 0.241E+00 -.260E+01   -.863E-08 0.101E-04 -.497E-05
   0.142E+02 -.297E+01 -.119E+03   -.118E+02 0.278E+01 0.122E+03   -.518E+01 0.270E+01 -.688E+01   0.557E-05 -.864E-05 0.167E-04
   -.472E-01 0.102E+02 0.128E+03   -.959E-03 -.104E+02 -.130E+03   0.448E-01 0.287E+00 0.250E+01   0.544E-07 0.305E-05 -.309E-05
   -.126E+01 -.157E+02 -.334E+03   0.659E+00 0.159E+02 0.333E+03   -.542E-01 0.327E+00 0.751E+00   0.298E-06 -.136E-04 0.820E-05
   0.124E-02 -.309E+02 0.254E+03   -.306E-04 0.330E+02 -.253E+03   0.131E-02 -.211E+01 -.368E+00   -.345E-07 -.230E-05 0.469E-05
   0.158E+01 0.685E+02 -.205E+03   -.486E+01 -.656E+02 0.204E+03   0.194E+01 -.653E+01 0.343E+01   -.522E-06 0.153E-04 0.223E-05
 -----------------------------------------------------------------------------------------------
   -.389E+01 0.673E+01 0.287E+01   -.160E-13 0.568E-13 0.227E-12   0.390E+01 -.673E+01 -.286E+01   0.232E-05 -.597E-05 0.506E-04
 
 
 POSITION                                       TOTAL-FORCE (eV/Angst)
 -----------------------------------------------------------------------------------
      0.00000      2.34757      6.41229         0.018895     -0.057095      0.019480
     -0.35404      4.40644     14.16300        -0.121391      0.386307      0.381920
     -0.00000      9.43147      5.75866         0.001063     -0.005866      0.078870
      1.41616      1.19599     13.50937        -0.452634      0.089108      0.916884
     -0.00000      6.40009      2.31424        -0.001427      0.001615      0.006579
     -0.00000      6.40009     10.06495        -0.401968     -0.589379      1.691338
      1.77020     10.27849      2.37372         0.004100     -0.016568     -0.003544
      1.77020     10.27849     10.12443         1.588731      0.567591     -4.948928
      1.77020      3.18974      1.66157         0.000902     -0.000842      0.011295
      1.77020      3.18974      9.41228         0.300409     -0.456167     -0.459815
      1.77020      5.55354      5.69975        -0.000624      0.006657      0.093246
      1.41616      7.61241     13.45047         0.549289      0.347900      0.138466
      1.77020      9.05319      4.34076         0.003028     -0.004910     -0.002041
      3.18636      0.81771     12.09147         2.537303     -0.066499      5.593811
      0.00000      4.22380      5.10944        -0.002007     -0.006167      0.060964
     -0.35404      6.28267     12.86016         0.035636      0.317071     -1.320173
     -0.00000      4.15582      2.74166        -0.000650      0.001057     -0.016036
     -0.00000      4.15582     10.49237         0.702973      0.143276      0.400687
      1.77020      1.31366      2.96438         0.000339     -0.024002      0.011545
      1.77020      1.31366     10.71510        -2.766141      2.499602     -4.348611
      1.77020      1.38163      5.33187        -0.003560      0.020339     -0.037130
      1.41616      3.44049     13.08259        -0.659268      0.478468     -0.716424
      1.77020      6.77850      3.73234         0.002322      0.006884     -0.002472
      1.41616      8.83737     11.48306        -1.335319     -3.638382      2.450089
 -----------------------------------------------------------------------------------
    total drift:                                0.004880      0.000354      0.003502


--------------------------------------------------------------------------------------------------------



  FREE ENERGIE OF THE ION-ELECTRON SYSTEM (eV)
  ---------------------------------------------------
  free  energy   TOTEN  =      -123.01526288 eV

  energy  without entropy=     -122.98905930  energy(sigma->0) =     -123.00216109
 


--------------------------------------------------------------------------------------------------------


    POTLOK:  cpu time   14.22: real time   14.23


--------------------------------------------------------------------------------------------------------


     LOOP+:  cpu time 2178.88: real time 2179.36
    4ORBIT:  cpu time    0.00: real time    0.00

 total amount of memory used by VASP on root node   146493. kBytes
========================================================================

   base      :      30000. kBytes
   nonlr-proj:       3452. kBytes
   fftplans  :       9347. kBytes
   grid      :      14649. kBytes
   one-center:         36. kBytes
   wavefun   :      89009. kBytes
 
  
  
 General timing and accounting informations for this job:
 ========================================================
  
                  Total CPU time used (sec):     2194.048
                            User time (sec):     2168.628
                          System time (sec):       25.420
                         Elapsed time (sec):     2195.590
  
                   Maximum memory used (kb):      335004.
                   Average memory used (kb):           0.
  
                          Minor page faults:      7463224
                          Major page faults:           18
                 Voluntary context switches:         1751
