<?xml version="1.0" encoding="ISO-8859-1"?>
<modeling>
 <generator>
  <i name="program" type="string">vasp </i>
  <i name="version" type="string">5.4.1  </i>
  <i name="subversion" type="string">24Jun15 (build May 10 2016 14:40:36) complex                          parallel </i>
  <i name="platform" type="string">IFC91_ompi </i>
  <i name="date" type="string">2017 02 28 </i>
  <i name="time" type="string">15:59:28 </i>
 </generator>
 <incar>
  <i type="string" name="PREC">accurate</i>
  <i type="string" name="ALGO"> Fast</i>
  <i type="int" name="ISPIN">     2</i>
  <i type="int" name="IBRION">     2</i>
  <i name="EDIFF">      0.00010000</i>
  <i type="int" name="NSW">    50</i>
  <i type="int" name="ISIF">     3</i>
  <i name="ENCUT">    500.00000000</i>
  <v name="MAGMOM">      6.00000000      6.00000000      6.00000000      6.00000000      0.50000000      0.50000000      0.50000000      0.50000000      0.50000000      0.50000000      0.50000000      0.50000000</v>
  <i type="string" name="LREAL"> Auto</i>
  <i type="int" name="ISMEAR">     1</i>
  <i name="SIGMA">      0.10000000</i>
  <i type="logical" name="LCHARG"> T  </i>
  <i type="logical" name="LVTOT"> T  </i>
  <i type="logical" name="LVHAR"> T  </i>
  <i type="logical" name="LAECHG"> T  </i>
  <v type="int" name="KPOINT_BSE">    -1     0     0     0</v>
  <i type="string" name="GGA"> Bo</i>
  <i name="PARAM1">      0.18333333</i>
  <i name="PARAM2">      0.22000000</i>
  <i type="logical" name="LUSE_VDW"> T  </i>
  <i name="AGGAC">      0.00000000</i>
 </incar>
 <kpoints>
  <generation param="Monkhorst-Pack">
   <v type="int" name="divisions">       6        4        4 </v>
   <v name="usershift">      0.00000000       0.00000000       0.00000000 </v>
   <v name="genvec1">      0.16666667      -0.00000000       0.00000000 </v>
   <v name="genvec2">      0.00000000       0.25000000       0.00000000 </v>
   <v name="genvec3">      0.00000000       0.00000000       0.25000000 </v>
   <v name="shift">      0.50000000       0.50000000       0.50000000 </v>
  </generation>
  <varray name="kpointlist" >
   <v>       0.08333333       0.12500000       0.12500000 </v>
   <v>       0.25000000       0.12500000       0.12500000 </v>
   <v>       0.41666667       0.12500000       0.12500000 </v>
   <v>      -0.41666667       0.12500000       0.12500000 </v>
   <v>      -0.25000000       0.12500000       0.12500000 </v>
   <v>      -0.08333333       0.12500000       0.12500000 </v>
   <v>       0.08333333       0.37500000       0.12500000 </v>
   <v>       0.25000000       0.37500000       0.12500000 </v>
   <v>       0.41666667       0.37500000       0.12500000 </v>
   <v>      -0.41666667       0.37500000       0.12500000 </v>
   <v>      -0.25000000       0.37500000       0.12500000 </v>
   <v>      -0.08333333       0.37500000       0.12500000 </v>
   <v>       0.08333333      -0.37500000       0.12500000 </v>
   <v>       0.25000000      -0.37500000       0.12500000 </v>
   <v>       0.41666667      -0.37500000       0.12500000 </v>
   <v>      -0.41666667      -0.37500000       0.12500000 </v>
   <v>      -0.25000000      -0.37500000       0.12500000 </v>
   <v>      -0.08333333      -0.37500000       0.12500000 </v>
   <v>       0.08333333      -0.12500000       0.12500000 </v>
   <v>       0.25000000      -0.12500000       0.12500000 </v>
   <v>       0.41666667      -0.12500000       0.12500000 </v>
   <v>      -0.41666667      -0.12500000       0.12500000 </v>
   <v>      -0.25000000      -0.12500000       0.12500000 </v>
   <v>      -0.08333333      -0.12500000       0.12500000 </v>
   <v>       0.08333333       0.12500000       0.37500000 </v>
   <v>       0.25000000       0.12500000       0.37500000 </v>
   <v>       0.41666667       0.12500000       0.37500000 </v>
   <v>      -0.41666667       0.12500000       0.37500000 </v>
   <v>      -0.25000000       0.12500000       0.37500000 </v>
   <v>      -0.08333333       0.12500000       0.37500000 </v>
   <v>       0.08333333       0.37500000       0.37500000 </v>
   <v>       0.25000000       0.37500000       0.37500000 </v>
   <v>       0.41666667       0.37500000       0.37500000 </v>
   <v>      -0.41666667       0.37500000       0.37500000 </v>
   <v>      -0.25000000       0.37500000       0.37500000 </v>
   <v>      -0.08333333       0.37500000       0.37500000 </v>
   <v>       0.08333333      -0.37500000       0.37500000 </v>
   <v>       0.25000000      -0.37500000       0.37500000 </v>
   <v>       0.41666667      -0.37500000       0.37500000 </v>
   <v>      -0.41666667      -0.37500000       0.37500000 </v>
   <v>      -0.25000000      -0.37500000       0.37500000 </v>
   <v>      -0.08333333      -0.37500000       0.37500000 </v>
   <v>       0.08333333      -0.12500000       0.37500000 </v>
   <v>       0.25000000      -0.12500000       0.37500000 </v>
   <v>       0.41666667      -0.12500000       0.37500000 </v>
   <v>      -0.41666667      -0.12500000       0.37500000 </v>
   <v>      -0.25000000      -0.12500000       0.37500000 </v>
   <v>      -0.08333333      -0.12500000       0.37500000 </v>
  </varray>
  <varray name="weights" >
   <v>       0.02083333 </v>
   <v>       0.02083333 </v>
   <v>       0.02083333 </v>
   <v>       0.02083333 </v>
   <v>       0.02083333 </v>
   <v>       0.02083333 </v>
   <v>       0.02083333 </v>
   <v>       0.02083333 </v>
   <v>       0.02083333 </v>
   <v>       0.02083333 </v>
   <v>       0.02083333 </v>
   <v>       0.02083333 </v>
   <v>       0.02083333 </v>
   <v>       0.02083333 </v>
   <v>       0.02083333 </v>
   <v>       0.02083333 </v>
   <v>       0.02083333 </v>
   <v>       0.02083333 </v>
   <v>       0.02083333 </v>
   <v>       0.02083333 </v>
   <v>       0.02083333 </v>
   <v>       0.02083333 </v>
   <v>       0.02083333 </v>
   <v>       0.02083333 </v>
   <v>       0.02083333 </v>
   <v>       0.02083333 </v>
   <v>       0.02083333 </v>
   <v>       0.02083333 </v>
   <v>       0.02083333 </v>
   <v>       0.02083333 </v>
   <v>       0.02083333 </v>
   <v>       0.02083333 </v>
   <v>       0.02083333 </v>
   <v>       0.02083333 </v>
   <v>       0.02083333 </v>
   <v>       0.02083333 </v>
   <v>       0.02083333 </v>
   <v>       0.02083333 </v>
   <v>       0.02083333 </v>
   <v>       0.02083333 </v>
   <v>       0.02083333 </v>
   <v>       0.02083333 </v>
   <v>       0.02083333 </v>
   <v>       0.02083333 </v>
   <v>       0.02083333 </v>
   <v>       0.02083333 </v>
   <v>       0.02083333 </v>
   <v>       0.02083333 </v>
  </varray>
 </kpoints>
 <parameters>
  <separator name="general" >
   <i type="string" name="SYSTEM">unknown system</i>
   <i type="logical" name="LCOMPAT"> F  </i>
  </separator>
  <separator name="electronic" >
   <i type="string" name="PREC">accura</i>
   <i name="ENMAX">    500.00000000</i>
   <i name="ENAUG">    605.39200000</i>
   <i name="EDIFF">      0.00010000</i>
   <i type="int" name="IALGO">    68</i>
   <i type="int" name="IWAVPR">    11</i>
   <i type="int" name="NBANDS">    72</i>
   <i name="NELECT">     96.00000000</i>
   <i type="int" name="TURBO">     0</i>
   <i type="int" name="IRESTART">     0</i>
   <i type="int" name="NREBOOT">     0</i>
   <i type="int" name="NMIN">     0</i>
   <i name="EREF">      0.00000000</i>
   <separator name="electronic smearing" >
    <i type="int" name="ISMEAR">     1</i>
    <i name="SIGMA">      0.10000000</i>
    <i name="KSPACING">      0.50000000</i>
    <i type="logical" name="KGAMMA"> T  </i>
   </separator>
   <separator name="electronic projectors" >
    <i type="logical" name="LREAL"> T  </i>
    <v name="ROPT">     -0.00025000     -0.00025000</v>
    <i type="int" name="LMAXPAW">  -100</i>
    <i type="int" name="LMAXMIX">     2</i>
    <i type="logical" name="NLSPLINE"> F  </i>
   </separator>
   <separator name="electronic startup" >
    <i type="int" name="ISTART">     1</i>
    <i type="int" name="ICHARG">     0</i>
    <i type="int" name="INIWAV">     1</i>
   </separator>
   <separator name="electronic spin" >
    <i type="int" name="ISPIN">     2</i>
    <i type="logical" name="LNONCOLLINEAR"> F  </i>
    <v name="MAGMOM">      6.00000000      6.00000000      6.00000000      6.00000000      0.50000000      0.50000000      0.50000000      0.50000000      0.50000000      0.50000000      0.50000000      0.50000000</v>
    <i name="NUPDOWN">     -1.00000000</i>
    <i type="logical" name="LSORBIT"> F  </i>
    <v name="SAXIS">      0.00000000      0.00000000      1.00000000</v>
    <i type="logical" name="LSPIRAL"> F  </i>
    <v name="QSPIRAL">      0.00000000      0.00000000      0.00000000</v>
    <i type="logical" name="LZEROZ"> F  </i>
   </separator>
   <separator name="electronic exchange-correlation" >
    <i type="logical" name="LASPH"> F  </i>
    <i type="logical" name="LMETAGGA"> F  </i>
   </separator>
   <separator name="electronic convergence" >
    <i type="int" name="NELM">    60</i>
    <i type="int" name="NELMDL">     0</i>
    <i type="int" name="NELMIN">     2</i>
    <i name="ENINI">    500.00000000</i>
    <separator name="electronic convergence detail" >
     <i type="logical" name="LDIAG"> T  </i>
     <i type="logical" name="LSUBROT"> F  </i>
     <i name="WEIMIN">      0.00100000</i>
     <i name="EBREAK">      0.00000035</i>
     <i name="DEPER">      0.30000000</i>
     <i type="int" name="NRMM">     4</i>
     <i name="TIME">      0.40000000</i>
    </separator>
   </separator>
   <separator name="electronic mixer" >
    <i name="AMIX">      0.40000000</i>
    <i name="BMIX">      1.00000000</i>
    <i name="AMIN">      0.10000000</i>
    <i name="AMIX_MAG">      1.60000000</i>
    <i name="BMIX_MAG">      1.00000000</i>
    <separator name="electronic mixer details" >
     <i type="int" name="IMIX">     4</i>
     <i type="logical" name="MIXFIRST"> F  </i>
     <i type="int" name="MAXMIX">   -45</i>
     <i name="WC">    100.00000000</i>
     <i type="int" name="INIMIX">     1</i>
     <i type="int" name="MIXPRE">     1</i>
     <i type="int" name="MREMOVE">     5</i>
    </separator>
   </separator>
   <separator name="electronic dipolcorrection" >
    <i type="logical" name="LDIPOL"> F  </i>
    <i type="logical" name="LMONO"> F  </i>
    <i type="int" name="IDIPOL">     0</i>
    <i name="EPSILON">      1.00000000</i>
    <v name="DIPOL">   -100.00000000   -100.00000000   -100.00000000</v>
    <i name="EFIELD">      0.00000000</i>
   </separator>
  </separator>
  <separator name="grids" >
   <i type="int" name="NGX">    36</i>
   <i type="int" name="NGY">    42</i>
   <i type="int" name="NGZ">    48</i>
   <i type="int" name="NGXF">    72</i>
   <i type="int" name="NGYF">    84</i>
   <i type="int" name="NGZF">    96</i>
   <i type="logical" name="ADDGRID"> F  </i>
  </separator>
  <separator name="ionic" >
   <i type="int" name="NSW">    50</i>
   <i type="int" name="IBRION">     2</i>
   <i type="int" name="ISIF">     3</i>
   <i name="PSTRESS">      0.00000000</i>
   <i name="EDIFFG">      0.00100000</i>
   <i type="int" name="NFREE">     1</i>
   <i name="POTIM">      0.50000000</i>
   <i name="SMASS">     -3.00000000</i>
   <i name="SCALEE">      1.00000000</i>
  </separator>
  <separator name="ionic md" >
   <i name="TEBEG">      0.00010000</i>
   <i name="TEEND">      0.00010000</i>
   <i type="int" name="NBLOCK">     1</i>
   <i type="int" name="KBLOCK">    50</i>
   <i type="int" name="NPACO">   256</i>
   <i name="APACO">     16.00000000</i>
  </separator>
  <separator name="symmetry" >
   <i type="int" name="ISYM">     2</i>
   <i name="SYMPREC">      0.00001000</i>
  </separator>
  <separator name="dos" >
   <i type="logical" name="LORBIT"> F  </i>
   <v name="RWIGS">     -1.00000000     -1.00000000</v>
   <i type="int" name="NEDOS">   301</i>
   <i name="EMIN">     10.00000000</i>
   <i name="EMAX">    -10.00000000</i>
   <i name="EFERMI">      0.00000000</i>
  </separator>
  <separator name="writing" >
   <i type="int" name="NWRITE">     2</i>
   <i type="logical" name="LWAVE"> T  </i>
   <i type="logical" name="LCHARG"> T  </i>
   <i type="logical" name="LPARD"> F  </i>
   <i type="logical" name="LVTOT"> F  </i>
   <i type="logical" name="LVHAR"> T  </i>
   <i type="logical" name="LELF"> F  </i>
   <i type="logical" name="LOPTICS"> F  </i>
   <v name="STM">      0.00000000      0.00000000      0.00000000      0.00000000      0.00000000      0.00000000      0.00000000</v>
  </separator>
  <separator name="performance" >
   <i type="int" name="NPAR">     4</i>
   <i type="int" name="NSIM">     4</i>
   <i type="int" name="NBLK">    -1</i>
   <i type="logical" name="LPLANE"> T  </i>
   <i type="logical" name="LSCALAPACK"> T  </i>
   <i type="logical" name="LSCAAWARE"> F  </i>
   <i type="logical" name="LSCALU"> F  </i>
   <i type="logical" name="LASYNC"> F  </i>
   <i type="logical" name="LORBITALREAL"> F  </i>
  </separator>
  <separator name="miscellaneous" >
   <i type="int" name="IDIOT">     3</i>
   <i type="logical" name="LMUSIC"> F  </i>
   <v name="POMASS">    183.85000000     16.00000000</v>
   <v name="DARWINR">      0.00000000      0.00000000</v>
   <v name="DARWINV">      1.00000000      1.00000000</v>
   <i type="logical" name="LCORR"> T  </i>
  </separator>
  <i type="logical" name="GGA_COMPAT"> T  </i>
  <i type="logical" name="LBERRY"> F  </i>
  <i type="int" name="ICORELEVEL">     0</i>
  <i type="logical" name="LDAU"> F  </i>
  <i type="int" name="I_CONSTRAINED_M">     0</i>
  <separator name="electronic exchange-correlation" >
   <i type="string" name="GGA">BO</i>
   <i type="int" name="VOSKOWN">     0</i>
   <i type="logical" name="LHFCALC"> F  </i>
   <i type="string" name="PRECFOCK"></i>
   <i type="logical" name="LSYMGRAD"> F  </i>
   <i type="logical" name="LHFONE"> F  </i>
   <i type="logical" name="LRHFCALC"> F  </i>
   <i type="logical" name="LTHOMAS"> F  </i>
   <i type="logical" name="LMODELHF"> F  </i>
   <i name="ENCUT4O">     -1.00000000</i>
   <i type="int" name="EXXOEP">     0</i>
   <i type="int" name="FOURORBIT">     0</i>
   <i name="AEXX">      0.00000000</i>
   <i name="HFALPHA">      0.00000000</i>
   <i name="MCALPHA">      0.00000000</i>
   <i name="ALDAX">      1.00000000</i>
   <i name="AGGAX">      1.00000000</i>
   <i name="ALDAC">      1.00000000</i>
   <i name="AGGAC">      0.00000000</i>
   <i type="int" name="NKREDX">     1</i>
   <i type="int" name="NKREDY">     1</i>
   <i type="int" name="NKREDZ">     1</i>
   <i type="logical" name="SHIFTRED"> F  </i>
   <i type="logical" name="ODDONLY"> F  </i>
   <i type="logical" name="EVENONLY"> F  </i>
   <i type="int" name="LMAXFOCK">     0</i>
   <i type="int" name="NMAXFOCKAE">     0</i>
   <i type="logical" name="LFOCKAEDFT"> F  </i>
   <i name="HFSCREEN">      0.00000000</i>
   <i name="HFSCREENC">      0.00000000</i>
   <i type="int" name="NBANDSGWLOW">     0</i>
  </separator>
  <separator name="vdW DFT" >
   <i type="logical" name="LUSE_VDW"> T  </i>
   <i name="Zab_VDW">     -0.84910000</i>
   <i name="PARAM1">      0.18333333</i>
   <i name="PARAM2">      0.22000000</i>
   <i name="PARAM3">      0.00000000</i>
  </separator>
  <separator name="model GW" >
   <i type="int" name="MODEL_GW">     0</i>
   <i name="MODEL_EPS0">      7.46810938</i>
   <i name="MODEL_ALPHA">      1.00000000</i>
  </separator>
  <separator name="linear response parameters" >
   <i type="logical" name="LEPSILON"> F  </i>
   <i type="logical" name="LRPA"> F  </i>
   <i type="logical" name="LNABLA"> F  </i>
   <i type="logical" name="LVEL"> F  </i>
   <i type="int" name="KINTER">     0</i>
   <i name="CSHIFT">      0.10000000</i>
   <i name="OMEGAMAX">     -1.00000000</i>
   <i name="DEG_THRESHOLD">      0.00200000</i>
  </separator>
  <separator name="orbital magnetization" >
   <i type="logical" name="NUCIND"> F  </i>
   <v name="MAGPOS">      0.00000000      0.00000000      0.00000000</v>
   <i type="logical" name="LNICSALL"> T  </i>
   <i type="logical" name="ORBITALMAG"> F  </i>
   <i type="logical" name="LMAGBLOCH"> F  </i>
   <i type="logical" name="LCHIMAG"> F  </i>
   <i type="logical" name="LGAUGE"> T  </i>
   <i type="int" name="MAGATOM">     0</i>
   <v name="MAGDIPOL">      0.00000000      0.00000000      0.00000000</v>
   <v name="AVECCONST">      0.00000000      0.00000000      0.00000000</v>
  </separator>
  <separator name="response functions" >
   <i type="logical" name="LADDER"> F  </i>
   <i type="logical" name="LFXC"> F  </i>
   <i type="logical" name="LHARTREE"> T  </i>
   <i type="int" name="IBSE">     0</i>
   <v type="int" name="KPOINT">    -1     0     0     0</v>
   <i type="logical" name="LTCTE"> F  </i>
   <i type="logical" name="LTETE"> F  </i>
   <i type="logical" name="LTRIPLET"> F  </i>
   <i type="logical" name="LFXCEPS"> F  </i>
   <i type="logical" name="LFXHEG"> F  </i>
   <i type="int" name="NATURALO">     0</i>
   <i type="logical" name="L2ORDER"> F  </i>
   <i type="logical" name="LUSEW"> F  </i>
   <i name="ENCUTGW">     -2.00000000</i>
   <i name="ENCUTGWSOFT">     -2.00000000</i>
   <i name="ENCUTLF">     -1.00000000</i>
   <i type="int" name="LMAXMP2">    -1</i>
   <i name="SCISSOR">      0.00000000</i>
   <i type="int" name="NOMEGA">     0</i>
   <i type="int" name="NOMEGAR">     0</i>
   <i type="int" name="NBANDSGW">    -1</i>
   <i type="int" name="NBANDSO">    -1</i>
   <i type="int" name="NBANDSV">    -1</i>
   <i type="int" name="NELM">     1</i>
   <i type="int" name="NELMHF">     1</i>
   <i type="int" name="DIM">     3</i>
   <i type="int" name="ANTIRES">     0</i>
   <i name="OMEGAMAX">    -30.00000000</i>
   <i name="OMEGAMIN">    -30.00000000</i>
   <i name="OMEGATL">   -200.00000000</i>
   <i type="int" name="OMEGAGRID">     0</i>
   <i name="CSHIFT">     -0.10000000</i>
   <i type="logical" name="SELFENERGY"> F  </i>
   <i type="logical" name="LSPECTRAL"> F  </i>
   <i type="logical" name="LSPECTRALGW"> F  </i>
   <i type="logical" name="LSINGLES"> F  </i>
   <i type="logical" name="LFERMIGW"> F  </i>
   <i type="logical" name="ODDONLYGW"> F  </i>
   <i type="logical" name="EVENONLYGW"> F  </i>
   <i type="int" name="NKREDLFX">     1</i>
   <i type="int" name="NKREDLFY">     1</i>
   <i type="int" name="NKREDLFZ">     1</i>
   <i type="int" name="MAXMEM">  1800</i>
   <i type="int" name="TELESCOPE">     0</i>
   <i type="int" name="TAUPAR">     1</i>
   <i type="int" name="OMEGAPAR">    -1</i>
   <i name="LAMBDA">      1.00000000</i>
  </separator>
  <separator name="External order field" >
   <i name="OFIELD_KAPPA">      0.00000000</i>
   <v name="OFIELD_K">      0.00000000      0.00000000      0.00000000</v>
   <i name="OFIELD_Q6_NEAR">      0.00000000</i>
   <i name="OFIELD_Q6_FAR">      0.00000000</i>
   <i name="OFIELD_A">      0.00000000</i>
  </separator>
 </parameters>
 <atominfo>
  <atoms>      12 </atoms>
  <types>       2 </types>
  <array name="atoms" >
   <dimension dim="1">ion</dimension>
   <field type="string">element</field>
   <field type="int">atomtype</field>
   <set>
    <rc><c>W </c><c>   1</c></rc>
    <rc><c>W </c><c>   1</c></rc>
    <rc><c>W </c><c>   1</c></rc>
    <rc><c>W </c><c>   1</c></rc>
    <rc><c>O </c><c>   2</c></rc>
    <rc><c>O </c><c>   2</c></rc>
    <rc><c>O </c><c>   2</c></rc>
    <rc><c>O </c><c>   2</c></rc>
    <rc><c>O </c><c>   2</c></rc>
    <rc><c>O </c><c>   2</c></rc>
    <rc><c>O </c><c>   2</c></rc>
    <rc><c>O </c><c>   2</c></rc>
   </set>
  </array>
  <array name="atomtypes" >
   <dimension dim="1">type</dimension>
   <field type="int">atomspertype</field>
   <field type="string">element</field>
   <field>mass</field>
   <field>valence</field>
   <field type="string">pseudopotential</field>
   <set>
    <rc><c>   4</c><c>W </c><c>    183.85000000</c><c>     12.00000000</c><c> PAW_PBE W_pv 06Sep2000                 </c></rc>
    <rc><c>   8</c><c>O </c><c>     16.00000000</c><c>      6.00000000</c><c> PAW_PBE O 08Apr2002                    </c></rc>
   </set>
  </array>
 </atominfo>
 <structure name="initialpos" >
  <crystal>
   <varray name="basis" >
    <v>       4.77047900       0.00000300      -0.00000600 </v>
    <v>      -0.00000400       4.78048900      -3.25529000 </v>
    <v>      -0.00000200      -0.02403400       6.56583900 </v>
   </varray>
   <i name="volume">    149.36218752 </i>
   <varray name="rec_basis" >
    <v>       0.20962256       0.00000022       0.00000006 </v>
    <v>      -0.00000013       0.20970634       0.00076762 </v>
    <v>       0.00000013       0.10397071       0.15268404 </v>
   </varray>
  </crystal>
  <varray name="positions" >
   <v>       0.50000000       0.50000000       0.24999600 </v>
   <v>       0.99999800       0.99999700       0.24999800 </v>
   <v>       0.50000000       0.50000000       0.75000400 </v>
   <v>       0.00000200       0.00000300       0.75000200 </v>
   <v>       0.19721700       0.80234800       0.40103400 </v>
   <v>       0.69721700       0.69765300       0.09896700 </v>
   <v>       0.80278300       0.19765200       0.59896600 </v>
   <v>       0.30278300       0.30234700       0.90103300 </v>
   <v>       0.80278300       0.19765300       0.09896700 </v>
   <v>       0.30278300       0.30234700       0.40103400 </v>
   <v>       0.19721700       0.80234700       0.90103300 </v>
   <v>       0.69721700       0.69765300       0.59896600 </v>
  </varray>
 </structure>
 <calculation>
  <scstep>
   <time name="dav">   12.90   12.91</time>
   <time name="total">   15.72   15.76</time>
   <energy>
    <i name="alphaZ">    672.38973230 </i>
    <i name="ewald">  -6823.27998250 </i>
    <i name="hartreedc">  -1673.81292028 </i>
    <i name="XCdc">    356.46529115 </i>
    <i name="pawpsdc">   5589.59590986 </i>
    <i name="pawaedc">  -5588.24081385 </i>
    <i name="eentropy">     -0.00060821 </i>
    <i name="bandstr">  -1170.00202372 </i>
    <i name="atom">   8533.56017228 </i>
    <i name="e_fr_energy">   -103.32524297 </i>
    <i name="e_wo_entrp">   -103.32463476 </i>
    <i name="e_0_energy">   -103.32504023 </i>
   </energy>
  </scstep>
  <scstep>
   <time name="diag">    2.22    2.22</time>
   <time name="diis">    7.43    7.44</time>
   <time name="orth">    0.18    0.18</time>
   <time name="total">   12.19   12.21</time>
   <energy>
    <i name="e_fr_energy">   -101.21861287 </i>
    <i name="e_wo_entrp">   -101.22240651 </i>
    <i name="e_0_energy">   -101.21987742 </i>
   </energy>
  </scstep>
  <scstep>
   <time name="diag">    2.07    2.07</time>
   <time name="diis">    7.33    7.34</time>
   <time name="orth">    0.17    0.17</time>
   <time name="total">   12.00   12.04</time>
   <energy>
    <i name="e_fr_energy">   -100.64864123 </i>
    <i name="e_wo_entrp">   -100.65066790 </i>
    <i name="e_0_energy">   -100.64931679 </i>
   </energy>
  </scstep>
  <scstep>
   <time name="diag">    2.19    2.19</time>
   <time name="diis">    7.33    7.34</time>
   <time name="orth">    0.18    0.18</time>
   <time name="total">   12.03   12.04</time>
   <energy>
    <i name="e_fr_energy">   -100.71786100 </i>
    <i name="e_wo_entrp">   -100.71961018 </i>
    <i name="e_0_energy">   -100.71844406 </i>
   </energy>
  </scstep>
  <scstep>
   <time name="diag">    2.02    2.03</time>
   <time name="diis">    8.12    8.13</time>
   <time name="orth">    0.18    0.18</time>
   <time name="total">   12.68   12.70</time>
   <energy>
    <i name="e_fr_energy">   -100.68019268 </i>
    <i name="e_wo_entrp">   -100.68207649 </i>
    <i name="e_0_energy">   -100.68082062 </i>
   </energy>
  </scstep>
  <scstep>
   <time name="diag">    2.18    2.19</time>
   <time name="diis">    7.53    7.54</time>
   <time name="orth">    0.18    0.18</time>
   <time name="total">   12.25   12.83</time>
   <energy>
    <i name="e_fr_energy">   -100.67191438 </i>
    <i name="e_wo_entrp">   -100.67378473 </i>
    <i name="e_0_energy">   -100.67253783 </i>
   </energy>
  </scstep>
  <scstep>
   <time name="diag">    2.02    2.02</time>
   <time name="diis">    6.54    6.55</time>
   <time name="orth">    0.18    0.18</time>
   <time name="total">   11.17   11.20</time>
   <energy>
    <i name="e_fr_energy">   -100.67669320 </i>
    <i name="e_wo_entrp">   -100.67854980 </i>
    <i name="e_0_energy">   -100.67731206 </i>
   </energy>
  </scstep>
  <scstep>
   <time name="diag">    2.16    2.16</time>
   <time name="diis">    5.07    5.07</time>
   <time name="orth">    0.17    0.17</time>
   <time name="total">    9.79    9.81</time>
   <energy>
    <i name="e_fr_energy">   -100.67892174 </i>
    <i name="e_wo_entrp">   -100.68078045 </i>
    <i name="e_0_energy">   -100.67954131 </i>
   </energy>
  </scstep>
  <scstep>
   <time name="diag">    2.20    2.20</time>
   <time name="diis">    4.90    4.90</time>
   <time name="orth">    0.17    0.17</time>
   <time name="total">    9.61    9.63</time>
   <energy>
    <i name="e_fr_energy">   -100.67982726 </i>
    <i name="e_wo_entrp">   -100.68169173 </i>
    <i name="e_0_energy">   -100.68044875 </i>
   </energy>
  </scstep>
  <scstep>
   <time name="diag">    2.20    2.20</time>
   <time name="diis">    4.73    4.73</time>
   <time name="orth">    0.17    0.17</time>
   <time name="total">    9.45    9.47</time>
   <energy>
    <i name="e_fr_energy">   -100.67896064 </i>
    <i name="e_wo_entrp">   -100.68082375 </i>
    <i name="e_0_energy">   -100.67958168 </i>
   </energy>
  </scstep>
  <scstep>
   <time name="diag">    2.19    2.20</time>
   <time name="diis">    3.96    3.96</time>
   <time name="orth">    0.17    0.17</time>
   <time name="total">    8.02    8.05</time>
   <energy>
    <i name="alphaZ">    672.38973230 </i>
    <i name="ewald">  -6823.27998250 </i>
    <i name="hartreedc">  -1763.01609933 </i>
    <i name="XCdc">    362.23422789 </i>
    <i name="pawpsdc">   5763.20126008 </i>
    <i name="pawaedc">  -5763.44870811 </i>
    <i name="eentropy">      0.00186412 </i>
    <i name="bandstr">  -1082.32136015 </i>
    <i name="atom">   8533.56017228 </i>
    <i name="e_fr_energy">   -100.67889343 </i>
    <i name="e_wo_entrp">   -100.68075755 </i>
    <i name="e_0_energy">   -100.67951481 </i>
   </energy>
  </scstep>
  <structure>
   <crystal>
    <varray name="basis" >
     <v>       4.77047900       0.00000300      -0.00000600 </v>
     <v>      -0.00000400       4.78048900      -3.25529000 </v>
     <v>      -0.00000200      -0.02403400       6.56583900 </v>
    </varray>
    <i name="volume">    149.36218752 </i>
    <varray name="rec_basis" >
     <v>       0.20962256       0.00000022       0.00000006 </v>
     <v>      -0.00000013       0.20970634       0.00076762 </v>
     <v>       0.00000013       0.10397071       0.15268404 </v>
    </varray>
   </crystal>
   <varray name="positions" >
    <v>       0.50000000       0.50000000       0.24999600 </v>
    <v>       0.99999800       0.99999700       0.24999800 </v>
    <v>       0.50000000       0.50000000       0.75000400 </v>
    <v>       0.00000200       0.00000300       0.75000200 </v>
    <v>       0.19721700       0.80234800       0.40103400 </v>
    <v>       0.69721700       0.69765300       0.09896700 </v>
    <v>       0.80278300       0.19765200       0.59896600 </v>
    <v>       0.30278300       0.30234700       0.90103300 </v>
    <v>       0.80278300       0.19765300       0.09896700 </v>
    <v>       0.30278300       0.30234700       0.40103400 </v>
    <v>       0.19721700       0.80234700       0.90103300 </v>
    <v>       0.69721700       0.69765300       0.59896600 </v>
   </varray>
  </structure>
  <varray name="forces" >
   <v>      -0.00003807       0.00004138       0.00119239 </v>
   <v>       0.00038073       0.00053894       0.00013752 </v>
   <v>       0.00003807      -0.00004138      -0.00119239 </v>
   <v>      -0.00038073      -0.00053894      -0.00013752 </v>
   <v>      -0.32407873       0.32847345       0.01899900 </v>
   <v>      -0.32427184      -0.32873679      -0.01907336 </v>
   <v>       0.32407873      -0.32847345      -0.01899900 </v>
   <v>       0.32427184       0.32873679       0.01907336 </v>
   <v>       0.32408446      -0.32851662      -0.01914562 </v>
   <v>       0.32421292       0.32859720       0.01901231 </v>
   <v>      -0.32408446       0.32851662       0.01914562 </v>
   <v>      -0.32421292      -0.32859720      -0.01901231 </v>
  </varray>
  <varray name="stress" >
   <v>    -121.48727214       0.00080176       0.00206593 </v>
   <v>       0.00080192    -121.59245668      -1.74663030 </v>
   <v>       0.00206568      -1.74663010    -125.36901543 </v>
  </varray>
  <energy>
   <i name="e_fr_energy">   -100.67889343 </i>
   <i name="e_wo_entrp">   -100.67951481 </i>
   <i name="e_0_energy">      0.00186412 </i>
  </energy>
  <time name="totalsc">  148.93  149.95</time>
 </calculation>
 <calculation>
  <scstep>
   <time name="dav">   13.16   13.17</time>
   <time name="total">   15.62   15.64</time>
   <energy>
    <i name="alphaZ">    738.10084376 </i>
    <i name="ewald">  -7061.23042902 </i>
    <i name="hartreedc">  -1808.30684023 </i>
    <i name="XCdc">    374.41458879 </i>
    <i name="pawpsdc">   5763.21408184 </i>
    <i name="pawaedc">  -5763.46199382 </i>
    <i name="eentropy">     -0.00195890 </i>
    <i name="bandstr">   -882.64632136 </i>
    <i name="atom">   8533.56017228 </i>
    <i name="e_fr_energy">   -106.35785665 </i>
    <i name="e_wo_entrp">   -106.35589775 </i>
    <i name="e_0_energy">   -106.35720369 </i>
   </energy>
  </scstep>
  <scstep>
   <time name="diag">    2.20    2.20</time>
   <time name="diis">    7.49    7.50</time>
   <time name="orth">    0.18    0.18</time>
   <time name="total">   12.28   12.30</time>
   <energy>
    <i name="e_fr_energy">   -101.82102355 </i>
    <i name="e_wo_entrp">   -101.81819105 </i>
    <i name="e_0_energy">   -101.82007938 </i>
   </energy>
  </scstep>
  <scstep>
   <time name="diag">    2.04    2.04</time>
   <time name="diis">    7.50    7.51</time>
   <time name="orth">    0.17    0.17</time>
   <time name="total">   12.04   12.06</time>
   <energy>
    <i name="e_fr_energy">   -100.58621246 </i>
    <i name="e_wo_entrp">   -100.58486983 </i>
    <i name="e_0_energy">   -100.58576492 </i>
   </energy>
  </scstep>
  <scstep>
   <time name="diag">    2.09    2.09</time>
   <time name="diis">    7.75    7.76</time>
   <time name="orth">    0.18    0.18</time>
   <time name="total">   12.61   12.64</time>
   <energy>
    <i name="e_fr_energy">   -100.64864690 </i>
    <i name="e_wo_entrp">   -100.64929438 </i>
    <i name="e_0_energy">   -100.64886273 </i>
   </energy>
  </scstep>
  <scstep>
   <time name="diag">    2.17    2.17</time>
   <time name="diis">    7.93    7.94</time>
   <time name="orth">    0.17    0.17</time>
   <time name="total">   12.64   12.66</time>
   <energy>
    <i name="e_fr_energy">   -100.74650171 </i>
    <i name="e_wo_entrp">   -100.74760661 </i>
    <i name="e_0_energy">   -100.74687001 </i>
   </energy>
  </scstep>
  <scstep>
   <time name="diag">    2.05    2.05</time>
   <time name="diis">    7.67    7.68</time>
   <time name="orth">    0.18    0.18</time>
   <time name="total">   12.24   12.27</time>
   <energy>
    <i name="e_fr_energy">   -100.85523480 </i>
    <i name="e_wo_entrp">   -100.85685188 </i>
    <i name="e_0_energy">   -100.85577383 </i>
   </energy>
  </scstep>
  <scstep>
   <time name="diag">    2.00    2.01</time>
   <time name="diis">    7.83    7.84</time>
   <time name="orth">    0.17    0.17</time>
   <time name="total">   12.35   12.69</time>
   <energy>
    <i name="e_fr_energy">   -100.86303117 </i>
    <i name="e_wo_entrp">   -100.86469411 </i>
    <i name="e_0_energy">   -100.86358548 </i>
   </energy>
  </scstep>
  <scstep>
   <time name="diag">    2.15    2.15</time>
   <time name="diis">    5.49    5.49</time>
   <time name="orth">    0.17    0.17</time>
   <time name="total">   10.04   10.05</time>
   <energy>
    <i name="e_fr_energy">   -100.86483040 </i>
    <i name="e_wo_entrp">   -100.86649360 </i>
    <i name="e_0_energy">   -100.86538480 </i>
   </energy>
  </scstep>
  <scstep>
   <time name="diag">    2.18    2.18</time>
   <time name="diis">    5.22    5.23</time>
   <time name="orth">    0.17    0.17</time>
   <time name="total">    9.84    9.85</time>
   <energy>
    <i name="e_fr_energy">   -100.86906003 </i>
    <i name="e_wo_entrp">   -100.87072139 </i>
    <i name="e_0_energy">   -100.86961382 </i>
   </energy>
  </scstep>
  <scstep>
   <time name="diag">    2.22    2.22</time>
   <time name="diis">    4.88    4.88</time>
   <time name="orth">    0.17    0.17</time>
   <time name="total">    9.55    9.56</time>
   <energy>
    <i name="e_fr_energy">   -100.86964106 </i>
    <i name="e_wo_entrp">   -100.87130615 </i>
    <i name="e_0_energy">   -100.87019609 </i>
   </energy>
  </scstep>
  <scstep>
   <time name="diag">    2.20    2.20</time>
   <time name="diis">    4.31    4.31</time>
   <time name="orth">    0.17    0.17</time>
   <time name="total">    8.96    8.98</time>
   <energy>
    <i name="e_fr_energy">   -100.86999810 </i>
    <i name="e_wo_entrp">   -100.87166591 </i>
    <i name="e_0_energy">   -100.87055404 </i>
   </energy>
  </scstep>
  <scstep>
   <time name="diag">    2.17    2.17</time>
   <time name="diis">    4.11    4.11</time>
   <time name="orth">    0.18    0.18</time>
   <time name="total">    8.73    8.75</time>
   <energy>
    <i name="e_fr_energy">   -100.86987117 </i>
    <i name="e_wo_entrp">   -100.87153988 </i>
    <i name="e_0_energy">   -100.87042740 </i>
   </energy>
  </scstep>
  <scstep>
   <time name="diag">    2.14    2.14</time>
   <time name="diis">    4.02    4.02</time>
   <time name="orth">    0.18    0.18</time>
   <time name="total">    8.05    8.06</time>
   <energy>
    <i name="alphaZ">    738.10084376 </i>
    <i name="ewald">  -7061.23042902 </i>
    <i name="hartreedc">  -1660.97523566 </i>
    <i name="XCdc">    365.61993717 </i>
    <i name="pawpsdc">   5909.72527783 </i>
    <i name="pawaedc">  -5912.68971573 </i>
    <i name="eentropy">      0.00166900 </i>
    <i name="bandstr">  -1012.98232952 </i>
    <i name="atom">   8533.56017228 </i>
    <i name="e_fr_energy">   -100.86980989 </i>
    <i name="e_wo_entrp">   -100.87147889 </i>
    <i name="e_0_energy">   -100.87036622 </i>
   </energy>
  </scstep>
  <structure>
   <crystal>
    <varray name="basis" >
     <v>       4.55327250       0.00000286      -0.00000600 </v>
     <v>      -0.00000382       4.56263828      -3.25529000 </v>
     <v>      -0.00000191      -0.02293875       6.56583900 </v>
    </varray>
    <i name="volume">    136.06487803 </i>
    <varray name="rec_basis" >
     <v>       0.21962226       0.00000023       0.00000006 </v>
     <v>      -0.00000014       0.21971911       0.00076762 </v>
     <v>       0.00000013       0.10893496       0.15268404 </v>
    </varray>
   </crystal>
   <varray name="positions" >
    <v>       0.49999962       0.50000046       0.25000499 </v>
    <v>       0.00000185       0.00000246       0.25000172 </v>
    <v>       0.50000038       0.49999954       0.74999501 </v>
    <v>      -0.00000185      -0.00000246       0.74999828 </v>
    <v>       0.19393968       0.80567180       0.40282151 </v>
    <v>       0.69393772       0.69432653       0.09717762 </v>
    <v>       0.80606032       0.19432820       0.59717849 </v>
    <v>       0.30606228       0.30567347       0.90282238 </v>
    <v>       0.80606038       0.19432876       0.09717820 </v>
    <v>       0.30606169       0.30567205       0.40282223 </v>
    <v>       0.19393962       0.80567124       0.90282180 </v>
    <v>       0.69393831       0.69432795       0.59717777 </v>
   </varray>
  </structure>
  <varray name="forces" >
   <v>       0.00006743      -0.00008685      -0.00151524 </v>
   <v>      -0.00058929      -0.00073626      -0.00017440 </v>
   <v>      -0.00006743       0.00008685       0.00151524 </v>
   <v>       0.00058929       0.00073626       0.00017440 </v>
   <v>      -0.38853179       0.38704761       0.03176256 </v>
   <v>      -0.38839263      -0.38687878      -0.03169849 </v>
   <v>       0.38853179      -0.38704761      -0.03176256 </v>
   <v>       0.38839263       0.38687878       0.03169849 </v>
   <v>       0.38853068      -0.38705444      -0.03168577 </v>
   <v>       0.38854818       0.38711973       0.03169206 </v>
   <v>      -0.38853068       0.38705444       0.03168577 </v>
   <v>      -0.38854818      -0.38711973      -0.03169206 </v>
  </varray>
  <varray name="stress" >
   <v>     118.73174526      -0.00115032       0.00228318 </v>
   <v>      -0.00114970     119.71517182      -2.61663326 </v>
   <v>       0.00228283      -2.61663329      31.76712647 </v>
  </varray>
  <energy>
   <i name="e_fr_energy">   -100.86980989 </i>
   <i name="e_wo_entrp">   -100.87036622 </i>
   <i name="e_0_energy">      0.00166900 </i>
  </energy>
  <time name="totalsc">  166.43  167.02</time>
 </calculation>
 <calculation>
  <scstep>
   <time name="dav">   12.76   12.77</time>
   <time name="total">   15.26   15.28</time>
   <energy>
    <i name="alphaZ">    711.28047494 </i>
    <i name="ewald">  -6965.70525742 </i>
    <i name="hartreedc">  -1644.04387601 </i>
    <i name="XCdc">    360.86844818 </i>
    <i name="pawpsdc">   5909.71383947 </i>
    <i name="pawaedc">  -5912.67835116 </i>
    <i name="eentropy">     -0.00100755 </i>
    <i name="bandstr">  -1094.90729821 </i>
    <i name="atom">   8533.56017228 </i>
    <i name="e_fr_energy">   -101.91285547 </i>
    <i name="e_wo_entrp">   -101.91184792 </i>
    <i name="e_0_energy">   -101.91251962 </i>
   </energy>
  </scstep>
  <scstep>
   <time name="diag">    2.19    2.19</time>
   <time name="diis">    7.81    7.82</time>
   <time name="orth">    0.18    0.18</time>
   <time name="total">   12.58   12.61</time>
   <energy>
    <i name="e_fr_energy">   -101.35672961 </i>
    <i name="e_wo_entrp">   -101.35593258 </i>
    <i name="e_0_energy">   -101.35646393 </i>
   </energy>
  </scstep>
  <scstep>
   <time name="diag">    2.03    2.04</time>
   <time name="diis">    7.59    7.60</time>
   <time name="orth">    0.18    0.18</time>
   <time name="total">   13.16   13.20</time>
   <energy>
    <i name="e_fr_energy">   -101.16098482 </i>
    <i name="e_wo_entrp">   -101.16089105 </i>
    <i name="e_0_energy">   -101.16095356 </i>
   </energy>
  </scstep>
  <scstep>
   <time name="diag">    2.15    2.15</time>
   <time name="diis">    7.66    7.67</time>
   <time name="orth">    0.18    0.18</time>
   <time name="total">   12.45   12.48</time>
   <energy>
    <i name="e_fr_energy">   -101.11846462 </i>
    <i name="e_wo_entrp">   -101.11899529 </i>
    <i name="e_0_energy">   -101.11864151 </i>
   </energy>
  </scstep>
  <scstep>
   <time name="diag">    2.00    2.01</time>
   <time name="diis">    7.87    7.87</time>
   <time name="orth">    0.18    0.18</time>
   <time name="total">   12.48   12.53</time>
   <energy>
    <i name="e_fr_energy">   -101.07544685 </i>
    <i name="e_wo_entrp">   -101.07620206 </i>
    <i name="e_0_energy">   -101.07569859 </i>
   </energy>
  </scstep>
  <scstep>
   <time name="diag">    2.12    2.12</time>
   <time name="diis">    7.18    7.19</time>
   <time name="orth">    0.17    0.17</time>
   <time name="total">   11.72   11.73</time>
   <energy>
    <i name="e_fr_energy">   -101.03504051 </i>
    <i name="e_wo_entrp">   -101.03600656 </i>
    <i name="e_0_energy">   -101.03536253 </i>
   </energy>
  </scstep>
  <scstep>
   <time name="diag">    2.24    2.24</time>
   <time name="diis">    5.34    5.34</time>
   <time name="orth">    0.17    0.17</time>
   <time name="total">   10.16   10.18</time>
   <energy>
    <i name="e_fr_energy">   -101.03237590 </i>
    <i name="e_wo_entrp">   -101.03334879 </i>
    <i name="e_0_energy">   -101.03270019 </i>
   </energy>
  </scstep>
  <scstep>
   <time name="diag">    2.20    2.21</time>
   <time name="diis">    4.80    4.80</time>
   <time name="orth">    0.17    0.17</time>
   <time name="total">    9.67    9.68</time>
   <energy>
    <i name="e_fr_energy">   -101.03044112 </i>
    <i name="e_wo_entrp">   -101.03140375 </i>
    <i name="e_0_energy">   -101.03076200 </i>
   </energy>
  </scstep>
  <scstep>
   <time name="diag">    2.16    2.17</time>
   <time name="diis">    4.59    4.60</time>
   <time name="orth">    0.18    0.18</time>
   <time name="total">    9.49    9.51</time>
   <energy>
    <i name="e_fr_energy">   -101.02918139 </i>
    <i name="e_wo_entrp">   -101.03013773 </i>
    <i name="e_0_energy">   -101.02950017 </i>
   </energy>
  </scstep>
  <scstep>
   <time name="diag">    2.04    2.04</time>
   <time name="diis">    4.07    4.07</time>
   <time name="orth">    0.18    0.18</time>
   <time name="total">    8.75    8.76</time>
   <energy>
    <i name="e_fr_energy">   -101.02879457 </i>
    <i name="e_wo_entrp">   -101.02975249 </i>
    <i name="e_0_energy">   -101.02911388 </i>
   </energy>
  </scstep>
  <scstep>
   <time name="diag">    2.03    2.03</time>
   <time name="diis">    3.96    3.97</time>
   <time name="orth">    0.18    0.18</time>
   <time name="total">    7.85    7.87</time>
   <energy>
    <i name="alphaZ">    711.28047494 </i>
    <i name="ewald">  -6965.70525742 </i>
    <i name="hartreedc">  -1701.42444682 </i>
    <i name="XCdc">    364.24875903 </i>
    <i name="pawpsdc">   5848.50642187 </i>
    <i name="pawaedc">  -5850.35458696 </i>
    <i name="eentropy">      0.00095859 </i>
    <i name="bandstr">  -1041.14120205 </i>
    <i name="atom">   8533.56017228 </i>
    <i name="e_fr_energy">   -101.02870654 </i>
    <i name="e_wo_entrp">   -101.02966513 </i>
    <i name="e_0_energy">   -101.02902607 </i>
   </energy>
  </scstep>
  <structure>
   <crystal>
    <varray name="basis" >
     <v>       4.63828510       0.00000292      -0.00000600 </v>
     <v>      -0.00000389       4.64790302      -3.25529000 </v>
     <v>      -0.00000194      -0.02336742       6.56583900 </v>
    </varray>
    <i name="volume">    141.19549857 </i>
    <varray name="rec_basis" >
     <v>       0.21559692       0.00000023       0.00000006 </v>
     <v>      -0.00000013       0.21568841       0.00076762 </v>
     <v>       0.00000013       0.10693658       0.15268404 </v>
    </varray>
   </crystal>
   <varray name="positions" >
    <v>       0.49999977       0.50000027       0.25000147 </v>
    <v>       0.00000027       0.00000022       0.25000021 </v>
    <v>       0.50000023       0.49999973       0.74999853 </v>
    <v>      -0.00000027      -0.00000022       0.74999979 </v>
    <v>       0.19528358       0.80430880       0.40209110 </v>
    <v>       0.69528242       0.69569063       0.09790878 </v>
    <v>       0.80471642       0.19569120       0.59790890 </v>
    <v>       0.30471758       0.30430937       0.90209122 </v>
    <v>       0.80471645       0.19569194       0.09790911 </v>
    <v>       0.30471722       0.30430853       0.40209153 </v>
    <v>       0.19528355       0.80430806       0.90209089 </v>
    <v>       0.69528278       0.69569147       0.59790847 </v>
   </varray>
  </structure>
  <varray name="forces" >
   <v>       0.00001262      -0.00002845      -0.00037352 </v>
   <v>      -0.00011713      -0.00014464      -0.00004333 </v>
   <v>      -0.00001262       0.00002845       0.00037352 </v>
   <v>       0.00011713       0.00014464       0.00004333 </v>
   <v>      -0.35306616       0.35529593       0.01762144 </v>
   <v>      -0.35297218      -0.35521273      -0.01758676 </v>
   <v>       0.35306616      -0.35529593      -0.01762144 </v>
   <v>       0.35297218       0.35521273       0.01758676 </v>
   <v>       0.35307131      -0.35531949      -0.01758473 </v>
   <v>       0.35300886       0.35526967       0.01755763 </v>
   <v>      -0.35307131       0.35531949       0.01758473 </v>
   <v>      -0.35300886      -0.35526967      -0.01755763 </v>
  </varray>
  <varray name="stress" >
   <v>      12.77752753      -0.00082560       0.00233078 </v>
   <v>      -0.00082507      12.51574563      -1.36843942 </v>
   <v>       0.00233078      -1.36843931     -37.91315986 </v>
  </varray>
  <energy>
   <i name="e_fr_energy">   -101.02870654 </i>
   <i name="e_wo_entrp">   -101.02902607 </i>
   <i name="e_0_energy">      0.00095859 </i>
  </energy>
  <time name="totalsc">  145.11  145.68</time>
 </calculation>
 <calculation>
  <scstep>
   <time name="dav">   13.20   13.21</time>
   <time name="total">   15.65   15.69</time>
   <energy>
    <i name="alphaZ">    711.78819011 </i>
    <i name="ewald">  -6961.84556425 </i>
    <i name="hartreedc">  -1707.13715069 </i>
    <i name="XCdc">    364.35650868 </i>
    <i name="pawpsdc">   5848.51312140 </i>
    <i name="pawaedc">  -5850.36184714 </i>
    <i name="eentropy">     -0.00097153 </i>
    <i name="bandstr">  -1039.90076924 </i>
    <i name="atom">   8533.56017228 </i>
    <i name="e_fr_energy">   -101.02831039 </i>
    <i name="e_wo_entrp">   -101.02733887 </i>
    <i name="e_0_energy">   -101.02798655 </i>
   </energy>
  </scstep>
  <scstep>
   <time name="diag">    2.06    2.06</time>
   <time name="diis">    7.66    7.67</time>
   <time name="orth">    0.17    0.17</time>
   <time name="total">   12.21   12.25</time>
   <energy>
    <i name="e_fr_energy">   -101.07149966 </i>
    <i name="e_wo_entrp">   -101.07085826 </i>
    <i name="e_0_energy">   -101.07128586 </i>
   </energy>
  </scstep>
  <scstep>
   <time name="diag">    2.20    2.20</time>
   <time name="diis">    7.78    7.79</time>
   <time name="orth">    0.18    0.18</time>
   <time name="total">   12.53   12.55</time>
   <energy>
    <i name="e_fr_energy">   -101.06500860 </i>
    <i name="e_wo_entrp">   -101.06449309 </i>
    <i name="e_0_energy">   -101.06483676 </i>
   </energy>
  </scstep>
  <scstep>
   <time name="diag">    2.21    2.21</time>
   <time name="diis">    7.38    7.38</time>
   <time name="orth">    0.18    0.18</time>
   <time name="total">   12.24   12.26</time>
   <energy>
    <i name="e_fr_energy">   -101.06668479 </i>
    <i name="e_wo_entrp">   -101.06641697 </i>
    <i name="e_0_energy">   -101.06659552 </i>
   </energy>
  </scstep>
  <scstep>
   <time name="diag">    2.01    2.02</time>
   <time name="diis">    5.44    5.44</time>
   <time name="orth">    0.18    0.18</time>
   <time name="total">   10.01   10.03</time>
   <energy>
    <i name="e_fr_energy">   -101.06768287 </i>
    <i name="e_wo_entrp">   -101.06743276 </i>
    <i name="e_0_energy">   -101.06759950 </i>
   </energy>
  </scstep>
  <scstep>
   <time name="diag">    2.13    2.13</time>
   <time name="diis">    4.88    4.89</time>
   <time name="orth">    0.17    0.17</time>
   <time name="total">    9.43    9.44</time>
   <energy>
    <i name="e_fr_energy">   -101.06819328 </i>
    <i name="e_wo_entrp">   -101.06795396 </i>
    <i name="e_0_energy">   -101.06811351 </i>
   </energy>
  </scstep>
  <scstep>
   <time name="diag">    2.20    2.20</time>
   <time name="diis">    4.65    4.66</time>
   <time name="orth">    0.18    0.18</time>
   <time name="total">    9.45    9.47</time>
   <energy>
    <i name="e_fr_energy">   -101.06853391 </i>
    <i name="e_wo_entrp">   -101.06830527 </i>
    <i name="e_0_energy">   -101.06845770 </i>
   </energy>
  </scstep>
  <scstep>
   <time name="diag">    2.05    2.05</time>
   <time name="diis">    4.04    4.05</time>
   <time name="orth">    0.18    0.18</time>
   <time name="total">    8.05    8.10</time>
   <energy>
    <i name="alphaZ">    711.78819011 </i>
    <i name="ewald">  -6961.84556425 </i>
    <i name="hartreedc">  -1706.72095786 </i>
    <i name="XCdc">    364.35427324 </i>
    <i name="pawpsdc">   5848.70687558 </i>
    <i name="pawaedc">  -5850.62704019 </i>
    <i name="eentropy">     -0.00022678 </i>
    <i name="bandstr">  -1040.28425780 </i>
    <i name="atom">   8533.56017228 </i>
    <i name="e_fr_energy">   -101.06853568 </i>
    <i name="e_wo_entrp">   -101.06830890 </i>
    <i name="e_0_energy">   -101.06846008 </i>
   </energy>
  </scstep>
  <structure>
   <crystal>
    <varray name="basis" >
     <v>       4.63683783       0.00000292      -0.00000600 </v>
     <v>      -0.00000389       4.64603737      -3.25529000 </v>
     <v>      -0.00000194      -0.02335804       6.56583900 </v>
    </varray>
    <i name="volume">    141.09478448 </i>
    <varray name="rec_basis" >
     <v>       0.21566422       0.00000023       0.00000006 </v>
     <v>      -0.00000013       0.21577503       0.00076762 </v>
     <v>       0.00000013       0.10697952       0.15268404 </v>
    </varray>
   </crystal>
   <varray name="positions" >
    <v>       0.49999985       0.50000003       0.24999968 </v>
    <v>      -0.00000046      -0.00000062       0.24999960 </v>
    <v>       0.50000015       0.49999997       0.75000032 </v>
    <v>       0.00000046       0.00000062       0.75000040 </v>
    <v>       0.19156681       0.80805371       0.40408089 </v>
    <v>       0.69156635       0.69194625       0.09591944 </v>
    <v>       0.80843319       0.19194629       0.59591911 </v>
    <v>       0.30843365       0.30805375       0.90408056 </v>
    <v>       0.80843328       0.19194676       0.09591934 </v>
    <v>       0.30843359       0.30805332       0.40408084 </v>
    <v>       0.19156672       0.80805324       0.90408066 </v>
    <v>       0.69156641       0.69194668       0.59591916 </v>
   </varray>
  </structure>
  <varray name="forces" >
   <v>      -0.00000448       0.00000220       0.00015008 </v>
   <v>       0.00006225       0.00008372       0.00002409 </v>
   <v>       0.00000448      -0.00000220      -0.00015008 </v>
   <v>      -0.00006225      -0.00008372      -0.00002409 </v>
   <v>       0.06311486      -0.06467711       0.00767561 </v>
   <v>       0.06309057       0.06463675      -0.00767517 </v>
   <v>      -0.06311486       0.06467711      -0.00767561 </v>
   <v>      -0.06309057      -0.06463675       0.00767517 </v>
   <v>      -0.06311379       0.06465944      -0.00768013 </v>
   <v>      -0.06309382      -0.06464357       0.00765079 </v>
   <v>       0.06311379      -0.06465944       0.00768013 </v>
   <v>       0.06309382       0.06464357      -0.00765079 </v>
  </varray>
  <varray name="stress" >
   <v>       3.90499425      -0.00064372       0.00186090 </v>
   <v>      -0.00064366       3.92382253      -1.79493337 </v>
   <v>       0.00186093      -1.79493314      -9.12985493 </v>
  </varray>
  <energy>
   <i name="e_fr_energy">   -101.06853568 </i>
   <i name="e_wo_entrp">   -101.06846008 </i>
   <i name="e_0_energy">     -0.00022678 </i>
  </energy>
  <time name="totalsc">  111.06  112.05</time>
 </calculation>
 <calculation>
  <scstep>
   <time name="dav">   12.88   12.89</time>
   <time name="total">   15.33   15.35</time>
   <energy>
    <i name="alphaZ">    711.70939849 </i>
    <i name="ewald">  -6962.58266613 </i>
    <i name="hartreedc">  -1705.69820641 </i>
    <i name="XCdc">    364.33392109 </i>
    <i name="pawpsdc">   5848.70040801 </i>
    <i name="pawaedc">  -5850.62042400 </i>
    <i name="eentropy">     -0.00023102 </i>
    <i name="bandstr">  -1040.47149037 </i>
    <i name="atom">   8533.56017228 </i>
    <i name="e_fr_energy">   -101.06911806 </i>
    <i name="e_wo_entrp">   -101.06888705 </i>
    <i name="e_0_energy">   -101.06904106 </i>
   </energy>
  </scstep>
  <scstep>
   <time name="diag">    2.15    2.15</time>
   <time name="diis">    7.33    7.34</time>
   <time name="orth">    0.18    0.18</time>
   <time name="total">   12.11   12.13</time>
   <energy>
    <i name="e_fr_energy">   -101.06980976 </i>
    <i name="e_wo_entrp">   -101.06952167 </i>
    <i name="e_0_energy">   -101.06971373 </i>
   </energy>
  </scstep>
  <scstep>
   <time name="diag">    2.20    2.20</time>
   <time name="diis">    4.91    4.92</time>
   <time name="orth">    0.18    0.18</time>
   <time name="total">    9.07    9.09</time>
   <energy>
    <i name="alphaZ">    711.70939849 </i>
    <i name="ewald">  -6962.58266613 </i>
    <i name="hartreedc">  -1705.74688081 </i>
    <i name="XCdc">    364.33490723 </i>
    <i name="pawpsdc">   5848.64485630 </i>
    <i name="pawaedc">  -5850.55661074 </i>
    <i name="eentropy">     -0.00030853 </i>
    <i name="bandstr">  -1040.43267139 </i>
    <i name="atom">   8533.56017228 </i>
    <i name="e_fr_energy">   -101.06980332 </i>
    <i name="e_wo_entrp">   -101.06949479 </i>
    <i name="e_0_energy">   -101.06970047 </i>
   </energy>
  </scstep>
  <structure>
   <crystal>
    <varray name="basis" >
     <v>       4.63706233       0.00000292      -0.00000600 </v>
     <v>      -0.00000389       4.64632677      -3.25529000 </v>
     <v>      -0.00000194      -0.02335950       6.56583900 </v>
    </varray>
    <i name="volume">    141.11040474 </i>
    <varray name="rec_basis" >
     <v>       0.21565378       0.00000023       0.00000006 </v>
     <v>      -0.00000013       0.21576159       0.00076762 </v>
     <v>       0.00000013       0.10697285       0.15268404 </v>
    </varray>
   </crystal>
   <varray name="positions" >
    <v>       0.49999984       0.50000007       0.24999996 </v>
    <v>      -0.00000035      -0.00000049       0.24999970 </v>
    <v>       0.50000016       0.49999993       0.75000004 </v>
    <v>       0.00000035       0.00000049       0.75000030 </v>
    <v>       0.19214353       0.80747257       0.40377212 </v>
    <v>       0.69214296       0.69252731       0.09622813 </v>
    <v>       0.80785647       0.19252743       0.59622788 </v>
    <v>       0.30785704       0.30747269       0.90377187 </v>
    <v>       0.80785655       0.19252794       0.09622810 </v>
    <v>       0.30785694       0.30747220       0.40377214 </v>
    <v>       0.19214345       0.80747206       0.90377190 </v>
    <v>       0.69214306       0.69252780       0.59622786 </v>
   </varray>
  </structure>
  <varray name="forces" >
   <v>      -0.00000098      -0.00000800       0.00002649 </v>
   <v>       0.00002575       0.00003622       0.00000920 </v>
   <v>       0.00000098       0.00000800      -0.00002649 </v>
   <v>      -0.00002575      -0.00003622      -0.00000920 </v>
   <v>       0.00882488      -0.00730409       0.00693372 </v>
   <v>       0.00885568       0.00731629      -0.00692553 </v>
   <v>      -0.00882488       0.00730409      -0.00693372 </v>
   <v>      -0.00885568      -0.00731629       0.00692553 </v>
   <v>      -0.00882363       0.00728414      -0.00692993 </v>
   <v>      -0.00885470      -0.00731780       0.00690313 </v>
   <v>       0.00882363      -0.00728414       0.00692993 </v>
   <v>       0.00885470       0.00731780      -0.00690313 </v>
  </varray>
  <varray name="stress" >
   <v>       4.38747440       0.00244887       0.00197524 </v>
   <v>       0.00244877       4.29233938      -1.60375610 </v>
   <v>       0.00197530      -1.60375588     -12.10684266 </v>
  </varray>
  <energy>
   <i name="e_fr_energy">   -101.06980332 </i>
   <i name="e_wo_entrp">   -101.06970047 </i>
   <i name="e_0_energy">     -0.00030853 </i>
  </energy>
  <time name="totalsc">   58.21   58.32</time>
 </calculation>
 <calculation>
  <scstep>
   <time name="dav">   13.68   13.69</time>
   <time name="total">   16.05   16.08</time>
   <energy>
    <i name="alphaZ">    709.75976001 </i>
    <i name="ewald">  -6955.48054794 </i>
    <i name="hartreedc">  -1704.51718457 </i>
    <i name="XCdc">    363.98133387 </i>
    <i name="pawpsdc">   5848.55657763 </i>
    <i name="pawaedc">  -5850.46379547 </i>
    <i name="eentropy">     -0.00019507 </i>
    <i name="bandstr">  -1046.47130818 </i>
    <i name="atom">   8533.56017228 </i>
    <i name="e_fr_energy">   -101.07518745 </i>
    <i name="e_wo_entrp">   -101.07499238 </i>
    <i name="e_0_energy">   -101.07512242 </i>
   </energy>
  </scstep>
  <scstep>
   <time name="diag">    2.08    2.08</time>
   <time name="diis">    7.54    7.55</time>
   <time name="orth">    0.18    0.18</time>
   <time name="total">   12.07   12.09</time>
   <energy>
    <i name="e_fr_energy">   -101.08001493 </i>
    <i name="e_wo_entrp">   -101.07985357 </i>
    <i name="e_0_energy">   -101.07996114 </i>
   </energy>
  </scstep>
  <scstep>
   <time name="diag">    2.03    2.03</time>
   <time name="diis">    7.48    7.48</time>
   <time name="orth">    0.17    0.17</time>
   <time name="total">   12.10   12.13</time>
   <energy>
    <i name="e_fr_energy">   -101.07906401 </i>
    <i name="e_wo_entrp">   -101.07891220 </i>
    <i name="e_0_energy">   -101.07901340 </i>
   </energy>
  </scstep>
  <scstep>
   <time name="diag">    2.20    2.20</time>
   <time name="diis">    5.37    5.37</time>
   <time name="orth">    0.18    0.18</time>
   <time name="total">   10.28   10.32</time>
   <energy>
    <i name="e_fr_energy">   -101.07622503 </i>
    <i name="e_wo_entrp">   -101.07605310 </i>
    <i name="e_0_energy">   -101.07616772 </i>
   </energy>
  </scstep>
  <scstep>
   <time name="diag">    2.06    2.06</time>
   <time name="diis">    4.61    4.61</time>
   <time name="orth">    0.18    0.18</time>
   <time name="total">    9.12    9.14</time>
   <energy>
    <i name="e_fr_energy">   -101.07312334 </i>
    <i name="e_wo_entrp">   -101.07294389 </i>
    <i name="e_0_energy">   -101.07306352 </i>
   </energy>
  </scstep>
  <scstep>
   <time name="diag">    2.17    2.17</time>
   <time name="diis">    4.54    4.54</time>
   <time name="orth">    0.18    0.18</time>
   <time name="total">    9.34    9.73</time>
   <energy>
    <i name="e_fr_energy">   -101.07018027 </i>
    <i name="e_wo_entrp">   -101.06999502 </i>
    <i name="e_0_energy">   -101.07011852 </i>
   </energy>
  </scstep>
  <scstep>
   <time name="diag">    2.02    2.02</time>
   <time name="diis">    3.54    3.56</time>
   <time name="orth">    0.17    0.17</time>
   <time name="total">    8.02    8.07</time>
   <energy>
    <i name="e_fr_energy">   -101.06985660 </i>
    <i name="e_wo_entrp">   -101.06967171 </i>
    <i name="e_0_energy">   -101.06979497 </i>
   </energy>
  </scstep>
  <scstep>
   <time name="diag">    2.00    2.00</time>
   <time name="diis">    3.15    3.16</time>
   <time name="orth">    0.18    0.18</time>
   <time name="total">    6.90    6.92</time>
   <energy>
    <i name="alphaZ">    709.75976001 </i>
    <i name="ewald">  -6955.48054794 </i>
    <i name="hartreedc">  -1708.86224232 </i>
    <i name="XCdc">    364.23794121 </i>
    <i name="pawpsdc">   5844.22377750 </i>
    <i name="pawaedc">  -5846.04782583 </i>
    <i name="eentropy">     -0.00018480 </i>
    <i name="bandstr">  -1042.46065602 </i>
    <i name="atom">   8533.56017228 </i>
    <i name="e_fr_energy">   -101.06980592 </i>
    <i name="e_wo_entrp">   -101.06962112 </i>
    <i name="e_0_energy">   -101.06974432 </i>
   </energy>
  </scstep>
  <structure>
   <crystal>
    <varray name="basis" >
     <v>       4.64349645       0.00000292      -0.00000600 </v>
     <v>      -0.00000389       4.65263404      -3.25529000 </v>
     <v>      -0.00000195      -0.02339121       6.56583900 </v>
    </varray>
    <i name="volume">    141.49802079 </i>
    <varray name="rec_basis" >
     <v>       0.21535496       0.00000023       0.00000006 </v>
     <v>      -0.00000013       0.21546909       0.00076762 </v>
     <v>       0.00000013       0.10682784       0.15268404 </v>
    </varray>
   </crystal>
   <varray name="positions" >
    <v>       0.49999983       0.50000000       0.25000010 </v>
    <v>      -0.00000011      -0.00000015       0.24999992 </v>
    <v>       0.50000017       0.50000000       0.74999990 </v>
    <v>       0.00000011       0.00000015       0.75000008 </v>
    <v>       0.19222628       0.80740414       0.40378367 </v>
    <v>       0.69222600       0.69259585       0.09621670 </v>
    <v>       0.80777372       0.19259586       0.59621633 </v>
    <v>       0.30777400       0.30740415       0.90378330 </v>
    <v>       0.80777381       0.19259619       0.09621649 </v>
    <v>       0.30777390       0.30740364       0.40378342 </v>
    <v>       0.19222619       0.80740381       0.90378351 </v>
    <v>       0.69222610       0.69259636       0.59621658 </v>
   </varray>
  </structure>
  <varray name="forces" >
   <v>       0.00000570      -0.00000137      -0.00001522 </v>
   <v>      -0.00000074      -0.00000197      -0.00000154 </v>
   <v>      -0.00000570       0.00000137       0.00001522 </v>
   <v>       0.00000074       0.00000197       0.00000154 </v>
   <v>       0.00366294      -0.00055799       0.00310716 </v>
   <v>       0.00349008       0.00037295      -0.00310101 </v>
   <v>      -0.00366294       0.00055799      -0.00310716 </v>
   <v>      -0.00349008      -0.00037295       0.00310101 </v>
   <v>      -0.00366452       0.00054495      -0.00310173 </v>
   <v>      -0.00347869      -0.00035665       0.00308641 </v>
   <v>       0.00366452      -0.00054495       0.00310173 </v>
   <v>       0.00347869       0.00035665      -0.00308641 </v>
  </varray>
  <varray name="stress" >
   <v>      -2.11801665       0.00501934       0.00168903 </v>
   <v>       0.00501922      -2.00807759      -1.36481842 </v>
   <v>       0.00168896      -1.36481866     -18.55219968 </v>
  </varray>
  <energy>
   <i name="e_fr_energy">   -101.06980592 </i>
   <i name="e_wo_entrp">   -101.06974432 </i>
   <i name="e_0_energy">     -0.00018480 </i>
  </energy>
  <time name="totalsc">  103.34  103.96</time>
 </calculation>
 <calculation>
  <scstep>
   <time name="dav">   11.83   11.84</time>
   <time name="total">   13.98   14.00</time>
   <energy>
    <i name="alphaZ">    710.34750517 </i>
    <i name="ewald">  -6957.62288540 </i>
    <i name="hartreedc">  -1709.24768613 </i>
    <i name="XCdc">    364.34518093 </i>
    <i name="pawpsdc">   5844.21117990 </i>
    <i name="pawaedc">  -5846.03647428 </i>
    <i name="eentropy">     -0.00022835 </i>
    <i name="bandstr">  -1040.62702715 </i>
    <i name="atom">   8533.56017228 </i>
    <i name="e_fr_energy">   -101.07026304 </i>
    <i name="e_wo_entrp">   -101.07003469 </i>
    <i name="e_0_energy">   -101.07018692 </i>
   </energy>
  </scstep>
  <scstep>
   <time name="diag">    1.93    1.93</time>
   <time name="diis">    6.87    6.87</time>
   <time name="orth">    0.17    0.17</time>
   <time name="total">   11.09   11.11</time>
   <energy>
    <i name="e_fr_energy">   -101.06718457 </i>
    <i name="e_wo_entrp">   -101.06694802 </i>
    <i name="e_0_energy">   -101.06710572 </i>
   </energy>
  </scstep>
  <scstep>
   <time name="diag">    1.93    1.93</time>
   <time name="diis">    4.83    4.83</time>
   <time name="orth">    0.17    0.17</time>
   <time name="total">    9.05    9.08</time>
   <energy>
    <i name="e_fr_energy">   -101.06697667 </i>
    <i name="e_wo_entrp">   -101.06673136 </i>
    <i name="e_0_energy">   -101.06689490 </i>
   </energy>
  </scstep>
  <scstep>
   <time name="diag">    1.92    1.92</time>
   <time name="diis">    3.85    3.85</time>
   <time name="orth">    0.16    0.17</time>
   <time name="total">    8.05    8.07</time>
   <energy>
    <i name="e_fr_energy">   -101.06777138 </i>
    <i name="e_wo_entrp">   -101.06753235 </i>
    <i name="e_0_energy">   -101.06769170 </i>
   </energy>
  </scstep>
  <scstep>
   <time name="diag">    1.92    1.92</time>
   <time name="diis">    3.70    3.70</time>
   <time name="orth">    0.16    0.17</time>
   <time name="total">    7.89    7.92</time>
   <energy>
    <i name="e_fr_energy">   -101.06889289 </i>
    <i name="e_wo_entrp">   -101.06865585 </i>
    <i name="e_0_energy">   -101.06881387 </i>
   </energy>
  </scstep>
  <scstep>
   <time name="diag">    1.92    1.93</time>
   <time name="diis">    3.13    3.13</time>
   <time name="orth">    0.16    0.17</time>
   <time name="total">    7.35    7.37</time>
   <energy>
    <i name="e_fr_energy">   -101.06971153 </i>
    <i name="e_wo_entrp">   -101.06947592 </i>
    <i name="e_0_energy">   -101.06963299 </i>
   </energy>
  </scstep>
  <scstep>
   <time name="diag">    1.91    1.91</time>
   <time name="diis">    2.85    2.85</time>
   <time name="orth">    0.16    0.16</time>
   <time name="total">    6.45    6.46</time>
   <energy>
    <i name="alphaZ">    710.34750517 </i>
    <i name="ewald">  -6957.62288540 </i>
    <i name="hartreedc">  -1707.92208501 </i>
    <i name="XCdc">    364.26674097 </i>
    <i name="pawpsdc">   5845.47856349 </i>
    <i name="pawaedc">  -5847.33056421 </i>
    <i name="eentropy">     -0.00023590 </i>
    <i name="bandstr">  -1041.84699281 </i>
    <i name="atom">   8533.56017228 </i>
    <i name="e_fr_energy">   -101.06978143 </i>
    <i name="e_wo_entrp">   -101.06954552 </i>
    <i name="e_0_energy">   -101.06970279 </i>
   </energy>
  </scstep>
  <structure>
   <crystal>
    <varray name="basis" >
     <v>       4.64155401       0.00000292      -0.00000600 </v>
     <v>      -0.00000389       4.65072989      -3.25529000 </v>
     <v>      -0.00000195      -0.02338163       6.56583900 </v>
    </varray>
    <i name="volume">    141.38094461 </i>
    <varray name="rec_basis" >
     <v>       0.21544509       0.00000023       0.00000006 </v>
     <v>      -0.00000013       0.21555731       0.00076762 </v>
     <v>       0.00000013       0.10687158       0.15268404 </v>
    </varray>
   </crystal>
   <varray name="positions" >
    <v>       0.49999984       0.50000002       0.25000006 </v>
    <v>      -0.00000018      -0.00000025       0.24999986 </v>
    <v>       0.50000016       0.49999998       0.74999994 </v>
    <v>       0.00000018       0.00000025       0.75000014 </v>
    <v>       0.19220133       0.80742477       0.40378017 </v>
    <v>       0.69220096       0.69257519       0.09622017 </v>
    <v>       0.80779867       0.19257523       0.59621983 </v>
    <v>       0.30779904       0.30742481       0.90377983 </v>
    <v>       0.80779876       0.19257561       0.09622001 </v>
    <v>       0.30779894       0.30742431       0.40378000 </v>
    <v>       0.19220124       0.80742439       0.90377999 </v>
    <v>       0.69220106       0.69257569       0.59622000 </v>
   </varray>
  </structure>
  <varray name="forces" >
   <v>       0.00000301      -0.00000299       0.00000899 </v>
   <v>       0.00001117       0.00001431       0.00000310 </v>
   <v>      -0.00000301       0.00000299      -0.00000899 </v>
   <v>      -0.00001117      -0.00001431      -0.00000310 </v>
   <v>       0.00310860      -0.00140272       0.00466945 </v>
   <v>       0.00312455       0.00140665      -0.00466353 </v>
   <v>      -0.00310860       0.00140272      -0.00466945 </v>
   <v>      -0.00312455      -0.00140665       0.00466353 </v>
   <v>      -0.00310931       0.00138896      -0.00466547 </v>
   <v>      -0.00311670      -0.00139488       0.00464685 </v>
   <v>       0.00310931      -0.00138896       0.00466547 </v>
   <v>       0.00311670       0.00139488      -0.00464685 </v>
  </varray>
  <varray name="stress" >
   <v>      -0.27228678       0.00173983       0.00174211 </v>
   <v>       0.00174004      -0.21420228      -1.44793157 </v>
   <v>       0.00174220      -1.44793175     -17.15195391 </v>
  </varray>
  <energy>
   <i name="e_fr_energy">   -101.06978143 </i>
   <i name="e_wo_entrp">   -101.06970279 </i>
   <i name="e_0_energy">     -0.00023590 </i>
  </energy>
  <time name="totalsc">   83.35   84.89</time>
  <eigenvalues>
   <array>
    <dimension dim="1">band</dimension>
    <dimension dim="2">kpoint</dimension>
    <dimension dim="3">spin</dimension>
    <field>eigene</field>
    <field>occ</field>
    <set>
     <set comment="spin 1">
      <set comment="kpoint 1">
       <r>  -34.6787    1.0000 </r>
       <r>  -34.6689    1.0000 </r>
       <r>  -34.6107    1.0000 </r>
       <r>  -34.6003    1.0000 </r>
       <r>  -34.5658    1.0000 </r>
       <r>  -34.5555    1.0000 </r>
       <r>  -34.4581    1.0000 </r>
       <r>  -34.4460    1.0000 </r>
       <r>  -34.4362    1.0000 </r>
       <r>  -34.4265    1.0000 </r>
       <r>  -34.4170    1.0000 </r>
       <r>  -34.4160    1.0000 </r>
       <r>  -15.3951    1.0000 </r>
       <r>  -14.5091    1.0000 </r>
       <r>  -14.5061    1.0000 </r>
       <r>  -14.3799    1.0000 </r>
       <r>  -13.8730    1.0000 </r>
       <r>  -13.7537    1.0000 </r>
       <r>  -13.7208    1.0000 </r>
       <r>  -13.5276    1.0000 </r>
       <r>   -3.8939    1.0000 </r>
       <r>   -3.3317    1.0000 </r>
       <r>   -3.0562    1.0000 </r>
       <r>   -2.8487    1.0000 </r>
       <r>   -2.4105    1.0000 </r>
       <r>   -2.3018    1.0000 </r>
       <r>   -2.1843    1.0000 </r>
       <r>   -2.1173    1.0000 </r>
       <r>   -2.1113    1.0000 </r>
       <r>   -1.4304    1.0000 </r>
       <r>   -0.7337    1.0000 </r>
       <r>   -0.4953    1.0000 </r>
       <r>   -0.4707    1.0000 </r>
       <r>   -0.2608    1.0000 </r>
       <r>   -0.0818    1.0000 </r>
       <r>    0.0321    1.0000 </r>
       <r>    0.1123    1.0000 </r>
       <r>    0.3967    1.0000 </r>
       <r>    0.5868    1.0000 </r>
       <r>    0.6945    1.0000 </r>
       <r>    1.0060    1.0000 </r>
       <r>    1.1212    1.0000 </r>
       <r>    1.3636    1.0000 </r>
       <r>    1.9653    1.0000 </r>
       <r>    4.1423    1.0000 </r>
       <r>    4.3208    1.0000 </r>
       <r>    4.4206    1.0000 </r>
       <r>    4.6877    1.0000 </r>
       <r>    4.7805    1.0000 </r>
       <r>    4.9992    1.0000 </r>
       <r>    5.0254    1.0000 </r>
       <r>    5.0782    1.0000 </r>
       <r>    5.1869    1.0007 </r>
       <r>    6.4951   -0.0000 </r>
       <r>    6.8887   -0.0000 </r>
       <r>    7.3570   -0.0000 </r>
       <r>    8.5423    0.0000 </r>
       <r>    8.6379    0.0000 </r>
       <r>    8.9356    0.0000 </r>
       <r>    9.4492    0.0000 </r>
       <r>   10.5048    0.0000 </r>
       <r>   10.6353    0.0000 </r>
       <r>   10.7478    0.0000 </r>
       <r>   11.1564    0.0000 </r>
       <r>   12.1672    0.0000 </r>
       <r>   12.6934    0.0000 </r>
       <r>   12.8313    0.0000 </r>
       <r>   12.9567    0.0000 </r>
       <r>   13.6970    0.0000 </r>
       <r>   14.9957    0.0000 </r>
       <r>   15.2790    0.0000 </r>
       <r>   16.3434    0.0000 </r>
      </set>
      <set comment="kpoint 2">
       <r>  -34.6788    1.0000 </r>
       <r>  -34.6594    1.0000 </r>
       <r>  -34.6136    1.0000 </r>
       <r>  -34.5921    1.0000 </r>
       <r>  -34.5768    1.0000 </r>
       <r>  -34.5545    1.0000 </r>
       <r>  -34.4614    1.0000 </r>
       <r>  -34.4485    1.0000 </r>
       <r>  -34.4363    1.0000 </r>
       <r>  -34.4278    1.0000 </r>
       <r>  -34.4176    1.0000 </r>
       <r>  -34.4163    1.0000 </r>
       <r>  -15.2466    1.0000 </r>
       <r>  -14.5010    1.0000 </r>
       <r>  -14.4855    1.0000 </r>
       <r>  -14.2252    1.0000 </r>
       <r>  -14.0338    1.0000 </r>
       <r>  -13.9369    1.0000 </r>
       <r>  -13.7469    1.0000 </r>
       <r>  -13.5335    1.0000 </r>
       <r>   -3.9122    1.0000 </r>
       <r>   -3.1330    1.0000 </r>
       <r>   -2.7597    1.0000 </r>
       <r>   -2.6011    1.0000 </r>
       <r>   -2.3806    1.0000 </r>
       <r>   -2.3259    1.0000 </r>
       <r>   -2.1636    1.0000 </r>
       <r>   -2.1102    1.0000 </r>
       <r>   -1.9784    1.0000 </r>
       <r>   -1.9518    1.0000 </r>
       <r>   -1.0548    1.0000 </r>
       <r>   -0.7090    1.0000 </r>
       <r>   -0.3825    1.0000 </r>
       <r>   -0.3282    1.0000 </r>
       <r>   -0.1242    1.0000 </r>
       <r>    0.0386    1.0000 </r>
       <r>    0.1468    1.0000 </r>
       <r>    0.4189    1.0000 </r>
       <r>    0.7534    1.0000 </r>
       <r>    0.8313    1.0000 </r>
       <r>    0.8630    1.0000 </r>
       <r>    1.2344    1.0000 </r>
       <r>    1.2387    1.0000 </r>
       <r>    1.7503    1.0000 </r>
       <r>    4.1228    1.0000 </r>
       <r>    4.2703    1.0000 </r>
       <r>    4.6081    1.0000 </r>
       <r>    4.7018    1.0000 </r>
       <r>    4.9294    1.0000 </r>
       <r>    5.0399    1.0000 </r>
       <r>    5.2349    1.0052 </r>
       <r>    5.3620    1.0031 </r>
       <r>    5.4729    0.2940 </r>
       <r>    5.9093   -0.0000 </r>
       <r>    6.9067   -0.0000 </r>
       <r>    7.0426   -0.0000 </r>
       <r>    8.5840    0.0000 </r>
       <r>    8.5950    0.0000 </r>
       <r>    9.2371    0.0000 </r>
       <r>   10.0540    0.0000 </r>
       <r>   10.2974    0.0000 </r>
       <r>   10.5834    0.0000 </r>
       <r>   10.7827    0.0000 </r>
       <r>   11.1241    0.0000 </r>
       <r>   11.6225    0.0000 </r>
       <r>   12.7628    0.0000 </r>
       <r>   12.9917    0.0000 </r>
       <r>   13.1560    0.0000 </r>
       <r>   13.7941    0.0000 </r>
       <r>   14.4599    0.0000 </r>
       <r>   15.3553    0.0000 </r>
       <r>   15.5025    0.0000 </r>
      </set>
      <set comment="kpoint 3">
       <r>  -34.6708    1.0000 </r>
       <r>  -34.6604    1.0000 </r>
       <r>  -34.6068    1.0000 </r>
       <r>  -34.5958    1.0000 </r>
       <r>  -34.5755    1.0000 </r>
       <r>  -34.5636    1.0000 </r>
       <r>  -34.4584    1.0000 </r>
       <r>  -34.4476    1.0000 </r>
       <r>  -34.4403    1.0000 </r>
       <r>  -34.4327    1.0000 </r>
       <r>  -34.4177    1.0000 </r>
       <r>  -34.4171    1.0000 </r>
       <r>  -14.9807    1.0000 </r>
       <r>  -14.6672    1.0000 </r>
       <r>  -14.4089    1.0000 </r>
       <r>  -14.2522    1.0000 </r>
       <r>  -14.0017    1.0000 </r>
       <r>  -13.9079    1.0000 </r>
       <r>  -13.8383    1.0000 </r>
       <r>  -13.6980    1.0000 </r>
       <r>   -3.5353    1.0000 </r>
       <r>   -3.0568    1.0000 </r>
       <r>   -2.9186    1.0000 </r>
       <r>   -2.7676    1.0000 </r>
       <r>   -2.4051    1.0000 </r>
       <r>   -2.3234    1.0000 </r>
       <r>   -2.2510    1.0000 </r>
       <r>   -2.1629    1.0000 </r>
       <r>   -1.7516    1.0000 </r>
       <r>   -1.3788    1.0000 </r>
       <r>   -1.2179    1.0000 </r>
       <r>   -0.9136    1.0000 </r>
       <r>   -0.5455    1.0000 </r>
       <r>   -0.2543    1.0000 </r>
       <r>   -0.1313    1.0000 </r>
       <r>   -0.1189    1.0000 </r>
       <r>    0.1233    1.0000 </r>
       <r>    0.3275    1.0000 </r>
       <r>    0.4903    1.0000 </r>
       <r>    0.7424    1.0000 </r>
       <r>    1.1055    1.0000 </r>
       <r>    1.2154    1.0000 </r>
       <r>    1.4133    1.0000 </r>
       <r>    1.4203    1.0000 </r>
       <r>    4.3774    1.0000 </r>
       <r>    4.4328    1.0000 </r>
       <r>    4.5915    1.0000 </r>
       <r>    4.9059    1.0000 </r>
       <r>    4.9847    1.0000 </r>
       <r>    5.0400    1.0000 </r>
       <r>    5.0720    1.0000 </r>
       <r>    5.4013    0.8494 </r>
       <r>    5.9105   -0.0000 </r>
       <r>    6.0182   -0.0000 </r>
       <r>    6.5077   -0.0000 </r>
       <r>    6.5611   -0.0000 </r>
       <r>    8.7832    0.0000 </r>
       <r>    9.1272    0.0000 </r>
       <r>    9.3464    0.0000 </r>
       <r>   10.1598    0.0000 </r>
       <r>   10.4024    0.0000 </r>
       <r>   10.4327    0.0000 </r>
       <r>   10.5617    0.0000 </r>
       <r>   10.8473    0.0000 </r>
       <r>   11.6472    0.0000 </r>
       <r>   12.3011    0.0000 </r>
       <r>   13.1822    0.0000 </r>
       <r>   13.6013    0.0000 </r>
       <r>   13.9939    0.0000 </r>
       <r>   14.0962    0.0000 </r>
       <r>   14.8117    0.0000 </r>
       <r>   15.0298    0.0000 </r>
      </set>
      <set comment="kpoint 4">
       <r>  -34.6708    1.0000 </r>
       <r>  -34.6604    1.0000 </r>
       <r>  -34.6068    1.0000 </r>
       <r>  -34.5958    1.0000 </r>
       <r>  -34.5755    1.0000 </r>
       <r>  -34.5636    1.0000 </r>
       <r>  -34.4584    1.0000 </r>
       <r>  -34.4476    1.0000 </r>
       <r>  -34.4403    1.0000 </r>
       <r>  -34.4327    1.0000 </r>
       <r>  -34.4177    1.0000 </r>
       <r>  -34.4171    1.0000 </r>
       <r>  -14.9807    1.0000 </r>
       <r>  -14.6672    1.0000 </r>
       <r>  -14.4089    1.0000 </r>
       <r>  -14.2522    1.0000 </r>
       <r>  -14.0017    1.0000 </r>
       <r>  -13.9079    1.0000 </r>
       <r>  -13.8383    1.0000 </r>
       <r>  -13.6980    1.0000 </r>
       <r>   -3.5353    1.0000 </r>
       <r>   -3.0568    1.0000 </r>
       <r>   -2.9186    1.0000 </r>
       <r>   -2.7676    1.0000 </r>
       <r>   -2.4051    1.0000 </r>
       <r>   -2.3234    1.0000 </r>
       <r>   -2.2511    1.0000 </r>
       <r>   -2.1629    1.0000 </r>
       <r>   -1.7516    1.0000 </r>
       <r>   -1.3788    1.0000 </r>
       <r>   -1.2179    1.0000 </r>
       <r>   -0.9136    1.0000 </r>
       <r>   -0.5455    1.0000 </r>
       <r>   -0.2543    1.0000 </r>
       <r>   -0.1313    1.0000 </r>
       <r>   -0.1189    1.0000 </r>
       <r>    0.1233    1.0000 </r>
       <r>    0.3275    1.0000 </r>
       <r>    0.4903    1.0000 </r>
       <r>    0.7423    1.0000 </r>
       <r>    1.1055    1.0000 </r>
       <r>    1.2154    1.0000 </r>
       <r>    1.4133    1.0000 </r>
       <r>    1.4203    1.0000 </r>
       <r>    4.3774    1.0000 </r>
       <r>    4.4328    1.0000 </r>
       <r>    4.5915    1.0000 </r>
       <r>    4.9059    1.0000 </r>
       <r>    4.9847    1.0000 </r>
       <r>    5.0400    1.0000 </r>
       <r>    5.0720    1.0000 </r>
       <r>    5.4013    0.8494 </r>
       <r>    5.9105   -0.0000 </r>
       <r>    6.0182   -0.0000 </r>
       <r>    6.5077   -0.0000 </r>
       <r>    6.5611   -0.0000 </r>
       <r>    8.7832    0.0000 </r>
       <r>    9.1272    0.0000 </r>
       <r>    9.3464    0.0000 </r>
       <r>   10.1598    0.0000 </r>
       <r>   10.4024    0.0000 </r>
       <r>   10.4327    0.0000 </r>
       <r>   10.5617    0.0000 </r>
       <r>   10.8473    0.0000 </r>
       <r>   11.6472    0.0000 </r>
       <r>   12.3011    0.0000 </r>
       <r>   13.1823    0.0000 </r>
       <r>   13.6013    0.0000 </r>
       <r>   13.9938    0.0000 </r>
       <r>   14.0962    0.0000 </r>
       <r>   14.8117    0.0000 </r>
       <r>   15.0298    0.0000 </r>
      </set>
      <set comment="kpoint 5">
       <r>  -34.6788    1.0000 </r>
       <r>  -34.6594    1.0000 </r>
       <r>  -34.6136    1.0000 </r>
       <r>  -34.5921    1.0000 </r>
       <r>  -34.5769    1.0000 </r>
       <r>  -34.5545    1.0000 </r>
       <r>  -34.4613    1.0000 </r>
       <r>  -34.4485    1.0000 </r>
       <r>  -34.4364    1.0000 </r>
       <r>  -34.4279    1.0000 </r>
       <r>  -34.4176    1.0000 </r>
       <r>  -34.4163    1.0000 </r>
       <r>  -15.2466    1.0000 </r>
       <r>  -14.5010    1.0000 </r>
       <r>  -14.4855    1.0000 </r>
       <r>  -14.2252    1.0000 </r>
       <r>  -14.0338    1.0000 </r>
       <r>  -13.9369    1.0000 </r>
       <r>  -13.7469    1.0000 </r>
       <r>  -13.5335    1.0000 </r>
       <r>   -3.9122    1.0000 </r>
       <r>   -3.1330    1.0000 </r>
       <r>   -2.7597    1.0000 </r>
       <r>   -2.6011    1.0000 </r>
       <r>   -2.3806    1.0000 </r>
       <r>   -2.3259    1.0000 </r>
       <r>   -2.1636    1.0000 </r>
       <r>   -2.1102    1.0000 </r>
       <r>   -1.9784    1.0000 </r>
       <r>   -1.9518    1.0000 </r>
       <r>   -1.0548    1.0000 </r>
       <r>   -0.7090    1.0000 </r>
       <r>   -0.3825    1.0000 </r>
       <r>   -0.3282    1.0000 </r>
       <r>   -0.1242    1.0000 </r>
       <r>    0.0386    1.0000 </r>
       <r>    0.1468    1.0000 </r>
       <r>    0.4189    1.0000 </r>
       <r>    0.7534    1.0000 </r>
       <r>    0.8313    1.0000 </r>
       <r>    0.8630    1.0000 </r>
       <r>    1.2344    1.0000 </r>
       <r>    1.2387    1.0000 </r>
       <r>    1.7503    1.0000 </r>
       <r>    4.1228    1.0000 </r>
       <r>    4.2703    1.0000 </r>
       <r>    4.6081    1.0000 </r>
       <r>    4.7018    1.0000 </r>
       <r>    4.9294    1.0000 </r>
       <r>    5.0398    1.0000 </r>
       <r>    5.2348    1.0052 </r>
[...]
       <r>     5.4522     4.7523    51.7826 </r>
       <r>     5.6420     2.3417    52.2273 </r>
       <r>     5.8319     1.3296    52.4797 </r>
       <r>     6.0218     3.5621    53.1561 </r>
       <r>     6.2117     2.3755    53.6072 </r>
       <r>     6.4015     2.6701    54.1142 </r>
       <r>     6.5914     3.3556    54.7513 </r>
       <r>     6.7813     2.7841    55.2799 </r>
       <r>     6.9712     2.2662    55.7102 </r>
       <r>     7.1611     0.7377    55.8503 </r>
       <r>     7.3509     0.4473    55.9352 </r>
       <r>     7.5408     0.1407    55.9620 </r>
       <r>     7.7307     0.2081    56.0015 </r>
       <r>     7.9206    -0.0077    56.0000 </r>
       <r>     8.1104    -0.0003    55.9999 </r>
       <r>     8.3003     0.0217    56.0041 </r>
       <r>     8.4902     0.1777    56.0378 </r>
       <r>     8.6801     2.1335    56.4429 </r>
       <r>     8.8699     3.2996    57.0694 </r>
       <r>     9.0598     2.7585    57.5932 </r>
       <r>     9.2497     3.5211    58.2618 </r>
       <r>     9.4396     3.6434    58.9536 </r>
       <r>     9.6295     2.6275    59.4525 </r>
       <r>     9.8193     1.6121    59.7586 </r>
       <r>    10.0092     2.2030    60.1769 </r>
       <r>    10.1991     4.0530    60.9464 </r>
       <r>    10.3890     2.6511    61.4498 </r>
       <r>    10.5788     2.9336    62.0068 </r>
       <r>    10.7687     4.3103    62.8253 </r>
       <r>    10.9586     2.1499    63.2335 </r>
       <r>    11.1485     2.4251    63.6939 </r>
       <r>    11.3383     1.3990    63.9596 </r>
       <r>    11.5282     0.8271    64.1166 </r>
       <r>    11.7181     1.6032    64.4211 </r>
       <r>    11.9080     0.7732    64.5679 </r>
       <r>    12.0979     2.1313    64.9725 </r>
       <r>    12.2877     0.6234    65.0909 </r>
       <r>    12.4776     1.3070    65.3391 </r>
       <r>    12.6675     1.8241    65.6854 </r>
       <r>    12.8574     2.6385    66.1864 </r>
       <r>    13.0472     1.8986    66.5469 </r>
       <r>    13.2371     2.0768    66.9412 </r>
       <r>    13.4270     2.2099    67.3608 </r>
       <r>    13.6169     1.6544    67.6750 </r>
       <r>    13.8067     0.8037    67.8276 </r>
       <r>    13.9966     2.1649    68.2386 </r>
       <r>    14.1865     2.1760    68.6518 </r>
       <r>    14.3764     1.3983    68.9173 </r>
       <r>    14.5663     1.7017    69.2404 </r>
       <r>    14.7561     1.3975    69.5058 </r>
       <r>    14.9460     2.3443    69.9509 </r>
       <r>    15.1359     2.3479    70.3967 </r>
       <r>    15.3258     2.1705    70.8088 </r>
       <r>    15.5156     2.9598    71.3708 </r>
       <r>    15.7055     1.3092    71.6194 </r>
       <r>    15.8954     0.5519    71.7242 </r>
       <r>    16.0853     0.5486    71.8283 </r>
       <r>    16.2751     0.0727    71.8422 </r>
       <r>    16.4650     0.7653    71.9875 </r>
       <r>    16.6549     0.0677    72.0003 </r>
       <r>    16.8448    -0.0017    72.0000 </r>
       <r>    17.0346    -0.0000    72.0000 </r>
       <r>    17.2245    -0.0000    72.0000 </r>
       <r>    17.4144     0.0000    72.0000 </r>
       <r>    17.6043     0.0000    72.0000 </r>
       <r>    17.7942     0.0000    72.0000 </r>
       <r>    17.9840     0.0000    72.0000 </r>
       <r>    18.1739     0.0000    72.0000 </r>
       <r>    18.3638     0.0000    72.0000 </r>
       <r>    18.5537     0.0000    72.0000 </r>
       <r>    18.7435     0.0000    72.0000 </r>
       <r>    18.9334     0.0000    72.0000 </r>
       <r>    19.1233     0.0000    72.0000 </r>
       <r>    19.3132     0.0000    72.0000 </r>
       <r>    19.5030     0.0000    72.0000 </r>
       <r>    19.6929     0.0000    72.0000 </r>
      </set>
      <set comment="spin 2">
       <r>   -37.2701     0.0000     0.0000 </r>
       <r>   -37.0802     0.0000     0.0000 </r>
       <r>   -36.8904     0.0000     0.0000 </r>
       <r>   -36.7005     0.0000     0.0000 </r>
       <r>   -36.5106     0.0000     0.0000 </r>
       <r>   -36.3207     0.0000     0.0000 </r>
       <r>   -36.1309     0.0000     0.0000 </r>
       <r>   -35.9410     0.0000     0.0000 </r>
       <r>   -35.7511     0.0000     0.0000 </r>
       <r>   -35.5612     0.0000     0.0000 </r>
       <r>   -35.3713     0.0000     0.0000 </r>
       <r>   -35.1815     0.0000     0.0000 </r>
       <r>   -34.9916     0.0000     0.0000 </r>
       <r>   -34.8017     0.0000     0.0000 </r>
       <r>   -34.6118    -0.0000    -0.0000 </r>
       <r>   -34.4220    -0.0000    -0.0000 </r>
       <r>   -34.2321    -0.0000    -0.0000 </r>
       <r>   -34.0422    -0.0151    -0.0029 </r>
       <r>   -33.8523     0.7087     0.1317 </r>
       <r>   -33.6625    24.9558     4.8702 </r>
       <r>   -33.4726    13.0720     7.3523 </r>
       <r>   -33.2827    24.6668    12.0359 </r>
       <r>   -33.0928    -0.1822    12.0013 </r>
       <r>   -32.9029    -0.0069    12.0000 </r>
       <r>   -32.7131    -0.0000    12.0000 </r>
       <r>   -32.5232     0.0000    12.0000 </r>
       <r>   -32.3333     0.0000    12.0000 </r>
       <r>   -32.1434     0.0000    12.0000 </r>
       <r>   -31.9536     0.0000    12.0000 </r>
       <r>   -31.7637     0.0000    12.0000 </r>
       <r>   -31.5738     0.0000    12.0000 </r>
       <r>   -31.3839     0.0000    12.0000 </r>
       <r>   -31.1941     0.0000    12.0000 </r>
       <r>   -31.0042     0.0000    12.0000 </r>
       <r>   -30.8143     0.0000    12.0000 </r>
       <r>   -30.6244     0.0000    12.0000 </r>
       <r>   -30.4345     0.0000    12.0000 </r>
       <r>   -30.2447     0.0000    12.0000 </r>
       <r>   -30.0548     0.0000    12.0000 </r>
       <r>   -29.8649     0.0000    12.0000 </r>
       <r>   -29.6750     0.0000    12.0000 </r>
       <r>   -29.4852     0.0000    12.0000 </r>
       <r>   -29.2953     0.0000    12.0000 </r>
       <r>   -29.1054     0.0000    12.0000 </r>
       <r>   -28.9155     0.0000    12.0000 </r>
       <r>   -28.7257     0.0000    12.0000 </r>
       <r>   -28.5358     0.0000    12.0000 </r>
       <r>   -28.3459     0.0000    12.0000 </r>
       <r>   -28.1560     0.0000    12.0000 </r>
       <r>   -27.9661     0.0000    12.0000 </r>
       <r>   -27.7763     0.0000    12.0000 </r>
       <r>   -27.5864     0.0000    12.0000 </r>
       <r>   -27.3965     0.0000    12.0000 </r>
       <r>   -27.2066     0.0000    12.0000 </r>
       <r>   -27.0168     0.0000    12.0000 </r>
       <r>   -26.8269     0.0000    12.0000 </r>
       <r>   -26.6370     0.0000    12.0000 </r>
       <r>   -26.4471     0.0000    12.0000 </r>
       <r>   -26.2573     0.0000    12.0000 </r>
       <r>   -26.0674     0.0000    12.0000 </r>
       <r>   -25.8775     0.0000    12.0000 </r>
       <r>   -25.6876     0.0000    12.0000 </r>
       <r>   -25.4978     0.0000    12.0000 </r>
       <r>   -25.3079     0.0000    12.0000 </r>
       <r>   -25.1180     0.0000    12.0000 </r>
       <r>   -24.9281     0.0000    12.0000 </r>
       <r>   -24.7382     0.0000    12.0000 </r>
       <r>   -24.5484     0.0000    12.0000 </r>
       <r>   -24.3585     0.0000    12.0000 </r>
       <r>   -24.1686     0.0000    12.0000 </r>
       <r>   -23.9787     0.0000    12.0000 </r>
       <r>   -23.7889     0.0000    12.0000 </r>
       <r>   -23.5990     0.0000    12.0000 </r>
       <r>   -23.4091     0.0000    12.0000 </r>
       <r>   -23.2192     0.0000    12.0000 </r>
       <r>   -23.0294     0.0000    12.0000 </r>
       <r>   -22.8395     0.0000    12.0000 </r>
       <r>   -22.6496     0.0000    12.0000 </r>
       <r>   -22.4597     0.0000    12.0000 </r>
       <r>   -22.2698     0.0000    12.0000 </r>
       <r>   -22.0800     0.0000    12.0000 </r>
       <r>   -21.8901     0.0000    12.0000 </r>
       <r>   -21.7002     0.0000    12.0000 </r>
       <r>   -21.5103     0.0000    12.0000 </r>
       <r>   -21.3205     0.0000    12.0000 </r>
       <r>   -21.1306     0.0000    12.0000 </r>
       <r>   -20.9407     0.0000    12.0000 </r>
       <r>   -20.7508     0.0000    12.0000 </r>
       <r>   -20.5610     0.0000    12.0000 </r>
       <r>   -20.3711     0.0000    12.0000 </r>
       <r>   -20.1812     0.0000    12.0000 </r>
       <r>   -19.9913     0.0000    12.0000 </r>
       <r>   -19.8014     0.0000    12.0000 </r>
       <r>   -19.6116     0.0000    12.0000 </r>
       <r>   -19.4217     0.0000    12.0000 </r>
       <r>   -19.2318     0.0000    12.0000 </r>
       <r>   -19.0419     0.0000    12.0000 </r>
       <r>   -18.8521     0.0000    12.0000 </r>
       <r>   -18.6622     0.0000    12.0000 </r>
       <r>   -18.4723     0.0000    12.0000 </r>
       <r>   -18.2824     0.0000    12.0000 </r>
       <r>   -18.0926     0.0000    12.0000 </r>
       <r>   -17.9027     0.0000    12.0000 </r>
       <r>   -17.7128     0.0000    12.0000 </r>
       <r>   -17.5229     0.0000    12.0000 </r>
       <r>   -17.3330     0.0000    12.0000 </r>
       <r>   -17.1432     0.0000    12.0000 </r>
       <r>   -16.9533     0.0000    12.0000 </r>
       <r>   -16.7634     0.0000    12.0000 </r>
       <r>   -16.5735     0.0000    12.0000 </r>
       <r>   -16.3837     0.0000    12.0000 </r>
       <r>   -16.1938    -0.0000    12.0000 </r>
       <r>   -16.0039    -0.0000    12.0000 </r>
       <r>   -15.8140    -0.0000    12.0000 </r>
       <r>   -15.6242    -0.0003    11.9999 </r>
       <r>   -15.4343     0.0185    12.0035 </r>
       <r>   -15.2444     0.3576    12.0714 </r>
       <r>   -15.0545     0.8561    12.2339 </r>
       <r>   -14.8647     1.4191    12.5034 </r>
       <r>   -14.6748     2.0893    12.9001 </r>
       <r>   -14.4849     3.1735    13.5027 </r>
       <r>   -14.2950     6.9794    14.8279 </r>
       <r>   -14.1051     5.5543    15.8825 </r>
       <r>   -13.9153     3.4626    16.5400 </r>
       <r>   -13.7254    11.0754    18.6429 </r>
       <r>   -13.5355     5.7048    19.7262 </r>
       <r>   -13.3456     1.4732    20.0059 </r>
       <r>   -13.1558    -0.0308    20.0000 </r>
       <r>   -12.9659    -0.0002    20.0000 </r>
       <r>   -12.7760    -0.0000    20.0000 </r>
       <r>   -12.5861     0.0000    20.0000 </r>
       <r>   -12.3963     0.0000    20.0000 </r>
       <r>   -12.2064     0.0000    20.0000 </r>
       <r>   -12.0165     0.0000    20.0000 </r>
       <r>   -11.8266     0.0000    20.0000 </r>
       <r>   -11.6367     0.0000    20.0000 </r>
       <r>   -11.4469     0.0000    20.0000 </r>
       <r>   -11.2570     0.0000    20.0000 </r>
       <r>   -11.0671     0.0000    20.0000 </r>
       <r>   -10.8772     0.0000    20.0000 </r>
       <r>   -10.6874     0.0000    20.0000 </r>
       <r>   -10.4975     0.0000    20.0000 </r>
       <r>   -10.3076     0.0000    20.0000 </r>
       <r>   -10.1177     0.0000    20.0000 </r>
       <r>    -9.9279     0.0000    20.0000 </r>
       <r>    -9.7380     0.0000    20.0000 </r>
       <r>    -9.5481     0.0000    20.0000 </r>
       <r>    -9.3582     0.0000    20.0000 </r>
       <r>    -9.1683     0.0000    20.0000 </r>
       <r>    -8.9785     0.0000    20.0000 </r>
       <r>    -8.7886     0.0000    20.0000 </r>
       <r>    -8.5987     0.0000    20.0000 </r>
       <r>    -8.4088     0.0000    20.0000 </r>
       <r>    -8.2190     0.0000    20.0000 </r>
       <r>    -8.0291     0.0000    20.0000 </r>
       <r>    -7.8392     0.0000    20.0000 </r>
       <r>    -7.6493     0.0000    20.0000 </r>
       <r>    -7.4595     0.0000    20.0000 </r>
       <r>    -7.2696     0.0000    20.0000 </r>
       <r>    -7.0797     0.0000    20.0000 </r>
       <r>    -6.8898     0.0000    20.0000 </r>
       <r>    -6.6999     0.0000    20.0000 </r>
       <r>    -6.5101     0.0000    20.0000 </r>
       <r>    -6.3202     0.0000    20.0000 </r>
       <r>    -6.1303     0.0000    20.0000 </r>
       <r>    -5.9404     0.0000    20.0000 </r>
       <r>    -5.7506     0.0000    20.0000 </r>
       <r>    -5.5607     0.0000    20.0000 </r>
       <r>    -5.3708     0.0000    20.0000 </r>
       <r>    -5.1809     0.0000    20.0000 </r>
       <r>    -4.9911     0.0000    20.0000 </r>
       <r>    -4.8012     0.0000    20.0000 </r>
       <r>    -4.6113    -0.0000    20.0000 </r>
       <r>    -4.4214    -0.0000    20.0000 </r>
       <r>    -4.2316    -0.0000    20.0000 </r>
       <r>    -4.0417    -0.0000    20.0000 </r>
       <r>    -3.8518    -0.0017    19.9997 </r>
       <r>    -3.6619     0.0595    20.0110 </r>
       <r>    -3.4720     1.0457    20.2095 </r>
       <r>    -3.2822     1.0298    20.4051 </r>
       <r>    -3.0923     1.9859    20.7822 </r>
       <r>    -2.9024     1.3603    21.0405 </r>
       <r>    -2.7125     2.6429    21.5423 </r>
       <r>    -2.5227     4.9537    22.4829 </r>
       <r>    -2.3328     3.9910    23.2406 </r>
       <r>    -2.1429     4.0192    24.0038 </r>
       <r>    -1.9530    10.4440    25.9869 </r>
       <r>    -1.7632     9.4465    27.7805 </r>
       <r>    -1.5733     2.6724    28.2880 </r>
       <r>    -1.3834     1.9664    28.6613 </r>
       <r>    -1.1935     4.0403    29.4285 </r>
       <r>    -1.0036     3.6000    30.1120 </r>
       <r>    -0.8138     4.4734    30.9614 </r>
       <r>    -0.6239     2.8255    31.4979 </r>
       <r>    -0.4340     3.7721    32.2142 </r>
       <r>    -0.2441     3.7704    32.9301 </r>
       <r>    -0.0543     6.0823    34.0849 </r>
       <r>     0.1356     6.6345    35.3447 </r>
       <r>     0.3255     5.4847    36.3861 </r>
       <r>     0.5154     5.8849    37.5035 </r>
       <r>     0.7052     6.6242    38.7613 </r>
       <r>     0.8951     4.5771    39.6304 </r>
       <r>     1.0850     6.2084    40.8092 </r>
       <r>     1.2749     5.6212    41.8765 </r>
       <r>     1.4648     5.9599    43.0082 </r>
       <r>     1.6546     2.9521    43.5687 </r>
       <r>     1.8445     1.4224    43.8388 </r>
       <r>     2.0344     0.6166    43.9559 </r>
       <r>     2.2243     0.2404    44.0015 </r>
       <r>     2.4141    -0.0081    44.0000 </r>
       <r>     2.6040    -0.0000    44.0000 </r>
       <r>     2.7939    -0.0000    44.0000 </r>
       <r>     2.9838     0.0000    44.0000 </r>
       <r>     3.1736     0.0000    44.0000 </r>
       <r>     3.3635     0.0000    44.0000 </r>
       <r>     3.5534     0.0000    44.0000 </r>
       <r>     3.7433     0.0000    44.0000 </r>
       <r>     3.9332     0.0000    44.0000 </r>
       <r>     4.1230     0.0000    44.0000 </r>
       <r>     4.3129    -0.0000    44.0000 </r>
       <r>     4.5028    -0.0000    44.0000 </r>
       <r>     4.6927    -0.0000    44.0000 </r>
       <r>     4.8825    -0.0000    44.0000 </r>
       <r>     5.0724    -0.0045    43.9991 </r>
       <r>     5.2623     0.1946    44.0361 </r>
       <r>     5.4522     1.0870    44.2425 </r>
       <r>     5.6420     2.7138    44.7578 </r>
       <r>     5.8319     3.9338    45.5047 </r>
       <r>     6.0218     4.2430    46.3104 </r>
       <r>     6.2117     6.9693    47.6337 </r>
       <r>     6.4015     6.1169    48.7951 </r>
       <r>     6.5914     6.4561    50.0210 </r>
       <r>     6.7813     8.8240    51.6965 </r>
       <r>     6.9712     5.2890    52.7007 </r>
       <r>     7.1611     3.4374    53.3534 </r>
       <r>     7.3509     2.9419    53.9120 </r>
       <r>     7.5408     3.3722    54.5523 </r>
       <r>     7.7307     3.0822    55.1375 </r>
       <r>     7.9206     2.7685    55.6632 </r>
       <r>     8.1104     0.9100    55.8360 </r>
       <r>     8.3003     0.4918    55.9294 </r>
       <r>     8.4902     0.1715    55.9619 </r>
       <r>     8.6801     0.2082    56.0015 </r>
       <r>     8.8699    -0.0082    55.9999 </r>
       <r>     9.0598     0.0223    56.0042 </r>
       <r>     9.2497     0.6982    56.1367 </r>
       <r>     9.4396     3.5793    56.8163 </r>
       <r>     9.6295     3.0690    57.3991 </r>
       <r>     9.8193     3.2856    58.0229 </r>
       <r>    10.0092     3.2630    58.6425 </r>
       <r>    10.1991     3.3049    59.2700 </r>
       <r>    10.3890     1.8383    59.6191 </r>
       <r>    10.5788     1.7728    59.9557 </r>
       <r>    10.7687     4.1771    60.7488 </r>
       <r>    10.9586     2.8148    61.2833 </r>
       <r>    11.1485     3.3531    61.9200 </r>
       <r>    11.3383     4.2099    62.7193 </r>
       <r>    11.5282     2.2935    63.1548 </r>
       <r>    11.7181     2.5757    63.6439 </r>
       <r>    11.9080     1.7482    63.9758 </r>
       <r>    12.0979     0.8465    64.1366 </r>
       <r>    12.2877     1.6431    64.4485 </r>
       <r>    12.4776     1.4307    64.7202 </r>
       <r>    12.6675     1.5536    65.0152 </r>
       <r>    12.8574     0.8583    65.1782 </r>
       <r>    13.0472     1.7417    65.5089 </r>
       <r>    13.2371     1.4361    65.7816 </r>
       <r>    13.4270     2.9279    66.3375 </r>
       <r>    13.6169     2.1894    66.7532 </r>
       <r>    13.8067     1.8810    67.1104 </r>
       <r>    13.9966     1.9725    67.4849 </r>
       <r>    14.1865     0.9505    67.6654 </r>
       <r>    14.3764     1.1758    67.8886 </r>
       <r>    14.5663     1.0196    68.0822 </r>
       <r>    14.7561     2.0652    68.4743 </r>
       <r>    14.9460     1.7805    68.8124 </r>
       <r>    15.1359     1.6995    69.1351 </r>
       <r>    15.3258     1.0901    69.3421 </r>
       <r>    15.5156     2.0955    69.7400 </r>
       <r>    15.7055     2.3068    70.1780 </r>
       <r>    15.8954     1.5671    70.4756 </r>
       <r>    16.0853     2.4047    70.9321 </r>
       <r>    16.2751     2.3756    71.3832 </r>
       <r>    16.4650     1.0755    71.5874 </r>
       <r>    16.6549     0.5709    71.6958 </r>
       <r>    16.8448     0.6426    71.8178 </r>
       <r>    17.0346     0.7576    71.9617 </r>
       <r>    17.2245     0.2097    72.0015 </r>
       <r>    17.4144    -0.0079    72.0000 </r>
       <r>    17.6043    -0.0000    72.0000 </r>
       <r>    17.7942    -0.0000    72.0000 </r>
       <r>    17.9840     0.0000    72.0000 </r>
       <r>    18.1739     0.0000    72.0000 </r>
       <r>    18.3638     0.0000    72.0000 </r>
       <r>    18.5537     0.0000    72.0000 </r>
       <r>    18.7435     0.0000    72.0000 </r>
       <r>    18.9334     0.0000    72.0000 </r>
       <r>    19.1233     0.0000    72.0000 </r>
       <r>    19.3132     0.0000    72.0000 </r>
       <r>    19.5030     0.0000    72.0000 </r>
       <r>    19.6929     0.0000    72.0000 </r>
      </set>
     </set>
    </array>
   </total>
  </dos>
 </calculation>
 <structure name="finalpos" >
  <crystal>
   <varray name="basis" >
    <v>       4.64155401       0.00000292      -0.00000600 </v>
    <v>      -0.00000389       4.65072989      -3.25529000 </v>
    <v>      -0.00000195      -0.02338163       6.56583900 </v>
   </varray>
   <i name="volume">    141.38094461 </i>
   <varray name="rec_basis" >
    <v>       0.21544509       0.00000023       0.00000006 </v>
    <v>      -0.00000013       0.21555731       0.00076762 </v>
    <v>       0.00000013       0.10687158       0.15268404 </v>
   </varray>
  </crystal>
  <varray name="positions" >
   <v>       0.49999984       0.50000002       0.25000006 </v>
   <v>      -0.00000018      -0.00000025       0.24999986 </v>
   <v>       0.50000016       0.49999998       0.74999994 </v>
   <v>       0.00000018       0.00000025       0.75000014 </v>
   <v>       0.19220133       0.80742477       0.40378017 </v>
   <v>       0.69220096       0.69257519       0.09622017 </v>
   <v>       0.80779867       0.19257523       0.59621983 </v>
   <v>       0.30779904       0.30742481       0.90377983 </v>
   <v>       0.80779876       0.19257561       0.09622001 </v>
   <v>       0.30779894       0.30742431       0.40378000 </v>
   <v>       0.19220124       0.80742439       0.90377999 </v>
   <v>       0.69220106       0.69257569       0.59622000 </v>
  </varray>
 </structure>
</modeling>
