       N       E                     dE             d eps       ncg     rms          rms(c)
DAV:   1     0.565225246023E+03    0.56523E+03   -0.28757E+04  7376   0.790E+02
DAV:   2    -0.210321118658E+01   -0.56733E+03   -0.55261E+03  9820   0.191E+02
DAV:   3    -0.634853178541E+02   -0.61382E+02   -0.60218E+02  9712   0.641E+01
DAV:   4    -0.667630361377E+02   -0.32777E+01   -0.32429E+01 11264   0.154E+01
DAV:   5    -0.668326634392E+02   -0.69627E-01   -0.69454E-01 10080   0.237E+00    0.145E+01
DAV:   6    -0.607549851153E+02    0.60777E+01   -0.21192E+01  9552   0.138E+01    0.642E+00
DAV:   7    -0.609087909575E+02   -0.15381E+00   -0.10889E+01  8232   0.794E+00    0.334E+00
DAV:   8    -0.608711361513E+02    0.37655E-01   -0.13053E+00  9128   0.342E+00    0.174E+00
DAV:   9    -0.609137574301E+02   -0.42621E-01   -0.47032E-01  9360   0.208E+00    0.832E-01
DAV:  10    -0.609087232208E+02    0.50342E-02   -0.12906E-01  8956   0.124E+00    0.327E-01
DAV:  11    -0.609001614711E+02    0.85617E-02   -0.33915E-02  9424   0.506E-01    0.163E-01
DAV:  12    -0.608870185926E+02    0.13143E-01   -0.55023E-03  8928   0.239E-01    0.638E-02
DAV:  13    -0.608820035472E+02    0.50150E-02   -0.13232E-03  8992   0.112E-01    0.335E-02
DAV:  14    -0.608794205864E+02    0.25830E-02   -0.37876E-04  9384   0.528E-02    0.182E-02
DAV:  15    -0.608778605984E+02    0.15600E-02   -0.83987E-05  9712   0.254E-02    0.104E-02
DAV:  16    -0.608775600037E+02    0.30059E-03   -0.53692E-05  8056   0.203E-02    0.610E-03
DAV:  17    -0.608781467691E+02   -0.58677E-03   -0.13636E-04  8144   0.238E-02    0.358E-03
DAV:  18    -0.608784814143E+02   -0.33465E-03   -0.15383E-04  7680   0.201E-02    0.175E-03
DAV:  19    -0.608785278348E+02   -0.46420E-04   -0.25843E-05  7344   0.111E-02    0.122E-03
DAV:  20    -0.608785531621E+02   -0.25327E-04   -0.12238E-05  6792   0.824E-03    0.740E-04
DAV:  21    -0.608785363969E+02    0.16765E-04   -0.28685E-05  7216   0.994E-03    0.563E-04
DAV:  22    -0.608785093933E+02    0.27004E-04   -0.18408E-05  6628   0.111E-02    0.241E-04
DAV:  23    -0.608784453448E+02    0.64049E-04   -0.15223E-05  7088   0.895E-03    0.157E-04
DAV:  24    -0.608784507237E+02   -0.53789E-05   -0.10761E-05  6588   0.968E-03    0.805E-05
DAV:  25    -0.608784323306E+02    0.18393E-04   -0.68731E-06  6556   0.803E-03    0.365E-05
DAV:  26    -0.608784303343E+02    0.19963E-05   -0.29770E-06  5740   0.573E-03    0.220E-05
DAV:  27    -0.608784258856E+02    0.44487E-05   -0.24217E-06  5820   0.612E-03    0.121E-05
DAV:  28    -0.608784254712E+02    0.41439E-06   -0.13059E-06  5620   0.472E-03
   1 F= -.60878425E+02 E0= -.60862236E+02  d E =-.323784E-01
