<?xml version="1.0" encoding="ISO-8859-1"?>
<modeling>
 <generator>
  <i name="program" type="string">vasp </i>
  <i name="version" type="string">5.4.1  </i>
  <i name="subversion" type="string">24Jun15 (build May 10 2016 14:18:23) complex                          parallel </i>
  <i name="platform" type="string">IFC91_ompi </i>
  <i name="date" type="string">2016 12 09 </i>
  <i name="time" type="string">14:58:03 </i>
 </generator>
 <incar>
  <i type="string" name="PREC">accurate</i>
  <i type="string" name="ALGO"> Fast</i>
  <i type="int" name="ISPIN">     2</i>
  <i type="int" name="IBRION">     2</i>
  <i name="EDIFF">      0.00010000</i>
  <i type="int" name="NSW">     0</i>
  <i type="int" name="ISIF">     3</i>
  <i name="ENCUT">    500.00000000</i>
  <v name="MAGMOM">      6.00000000      0.50000000      0.50000000      6.00000000      0.50000000      0.50000000</v>
  <i type="string" name="LREAL"> Auto</i>
  <i type="int" name="ISMEAR">     1</i>
  <i name="SIGMA">      0.10000000</i>
  <i type="logical" name="LWAVE"> F  </i>
  <i type="logical" name="LCHARG"> F  </i>
  <i type="logical" name="LVTOT"> T  </i>
  <i type="logical" name="LVHAR"> T  </i>
  <i type="logical" name="LAECHG"> F  </i>
  <v type="int" name="KPOINT_BSE">    -1     0     0     0</v>
  <i type="string" name="GGA"> Bo</i>
  <i name="PARAM1">      0.18333333</i>
  <i name="PARAM2">      0.22000000</i>
  <i type="logical" name="LUSE_VDW"> T  </i>
  <i name="AGGAC">      0.00000000</i>
 </incar>
 <kpoints>
  <generation param="Gamma">
   <v type="int" name="divisions">      13       13        1 </v>
   <v name="usershift">      0.00000000       0.00000000       0.00000000 </v>
   <v name="genvec1">      0.07692308       0.00000000       0.00000000 </v>
   <v name="genvec2">      0.00000000       0.07692308       0.00000000 </v>
   <v name="genvec3">      0.00000000       0.00000000       1.00000000 </v>
   <v name="shift">      0.00000000       0.00000000       0.00000000 </v>
  </generation>
  <varray name="kpointlist" >
   <v>       0.00000000       0.00000000       0.00000000 </v>
   <v>       0.07692308      -0.00000000       0.00000000 </v>
   <v>       0.15384615       0.00000000       0.00000000 </v>
   <v>       0.23076923       0.00000000       0.00000000 </v>
   <v>       0.30769231      -0.00000000       0.00000000 </v>
   <v>       0.38461538       0.00000000       0.00000000 </v>
   <v>       0.46153846       0.00000000       0.00000000 </v>
   <v>       0.07692308       0.07692308       0.00000000 </v>
   <v>       0.15384615       0.07692308       0.00000000 </v>
   <v>       0.23076923       0.07692308       0.00000000 </v>
   <v>       0.30769231       0.07692308       0.00000000 </v>
   <v>       0.38461538       0.07692308       0.00000000 </v>
   <v>       0.46153846       0.07692308       0.00000000 </v>
   <v>      -0.46153846       0.07692308       0.00000000 </v>
   <v>      -0.38461538       0.07692308       0.00000000 </v>
   <v>      -0.30769231       0.07692308       0.00000000 </v>
   <v>      -0.23076923       0.07692308       0.00000000 </v>
   <v>      -0.15384615       0.07692308       0.00000000 </v>
   <v>      -0.07692308       0.07692308       0.00000000 </v>
   <v>       0.15384615       0.15384615       0.00000000 </v>
   <v>       0.23076923       0.15384615       0.00000000 </v>
   <v>       0.30769231       0.15384615       0.00000000 </v>
   <v>       0.38461538       0.15384615       0.00000000 </v>
   <v>       0.46153846       0.15384615       0.00000000 </v>
   <v>      -0.46153846       0.15384615       0.00000000 </v>
   <v>      -0.38461538       0.15384615       0.00000000 </v>
   <v>      -0.30769231       0.15384615       0.00000000 </v>
   <v>      -0.23076923       0.15384615       0.00000000 </v>
   <v>      -0.15384615       0.15384615       0.00000000 </v>
   <v>       0.23076923       0.23076923       0.00000000 </v>
   <v>       0.30769231       0.23076923       0.00000000 </v>
   <v>       0.38461538       0.23076923       0.00000000 </v>
   <v>       0.46153846       0.23076923       0.00000000 </v>
   <v>      -0.46153846       0.23076923       0.00000000 </v>
   <v>      -0.38461538       0.23076923       0.00000000 </v>
   <v>      -0.30769231       0.23076923       0.00000000 </v>
   <v>      -0.23076923       0.23076923       0.00000000 </v>
   <v>       0.30769231       0.30769231       0.00000000 </v>
   <v>       0.38461538       0.30769231       0.00000000 </v>
   <v>       0.46153846       0.30769231       0.00000000 </v>
   <v>      -0.46153846       0.30769231       0.00000000 </v>
   <v>      -0.38461538       0.30769231       0.00000000 </v>
   <v>      -0.30769231       0.30769231       0.00000000 </v>
   <v>       0.38461538       0.38461538       0.00000000 </v>
   <v>       0.46153846       0.38461538       0.00000000 </v>
   <v>      -0.46153846       0.38461538       0.00000000 </v>
   <v>      -0.38461538       0.38461538       0.00000000 </v>
   <v>       0.46153846       0.46153846       0.00000000 </v>
   <v>      -0.46153846       0.46153846       0.00000000 </v>
  </varray>
  <varray name="weights" >
   <v>       0.00591716 </v>
   <v>       0.02366864 </v>
   <v>       0.02366864 </v>
   <v>       0.02366864 </v>
   <v>       0.02366864 </v>
   <v>       0.02366864 </v>
   <v>       0.02366864 </v>
   <v>       0.01183432 </v>
   <v>       0.02366864 </v>
   <v>       0.02366864 </v>
   <v>       0.02366864 </v>
   <v>       0.02366864 </v>
   <v>       0.02366864 </v>
   <v>       0.02366864 </v>
   <v>       0.02366864 </v>
   <v>       0.02366864 </v>
   <v>       0.02366864 </v>
   <v>       0.02366864 </v>
   <v>       0.01183432 </v>
   <v>       0.01183432 </v>
   <v>       0.02366864 </v>
   <v>       0.02366864 </v>
   <v>       0.02366864 </v>
   <v>       0.02366864 </v>
   <v>       0.02366864 </v>
   <v>       0.02366864 </v>
   <v>       0.02366864 </v>
   <v>       0.02366864 </v>
   <v>       0.01183432 </v>
   <v>       0.01183432 </v>
   <v>       0.02366864 </v>
   <v>       0.02366864 </v>
   <v>       0.02366864 </v>
   <v>       0.02366864 </v>
   <v>       0.02366864 </v>
   <v>       0.02366864 </v>
   <v>       0.01183432 </v>
   <v>       0.01183432 </v>
   <v>       0.02366864 </v>
   <v>       0.02366864 </v>
   <v>       0.02366864 </v>
   <v>       0.02366864 </v>
   <v>       0.01183432 </v>
   <v>       0.01183432 </v>
   <v>       0.02366864 </v>
   <v>       0.02366864 </v>
   <v>       0.01183432 </v>
   <v>       0.01183432 </v>
   <v>       0.01183432 </v>
  </varray>
 </kpoints>
 <parameters>
  <separator name="general" >
   <i type="string" name="SYSTEM">unknown system</i>
   <i type="logical" name="LCOMPAT"> F  </i>
  </separator>
  <separator name="electronic" >
   <i type="string" name="PREC">accura</i>
   <i name="ENMAX">    500.00000000</i>
   <i name="ENAUG">    392.42700000</i>
   <i name="EDIFF">      0.00010000</i>
   <i type="int" name="IALGO">    68</i>
   <i type="int" name="IWAVPR">    10</i>
   <i type="int" name="NBANDS">    36</i>
   <i name="NELECT">     48.00000000</i>
   <i type="int" name="TURBO">     0</i>
   <i type="int" name="IRESTART">     0</i>
   <i type="int" name="NREBOOT">     0</i>
   <i type="int" name="NMIN">     0</i>
   <i name="EREF">      0.00000000</i>
   <separator name="electronic smearing" >
    <i type="int" name="ISMEAR">     1</i>
    <i name="SIGMA">      0.10000000</i>
    <i name="KSPACING">      0.50000000</i>
    <i type="logical" name="KGAMMA"> T  </i>
   </separator>
   <separator name="electronic projectors" >
    <i type="logical" name="LREAL"> T  </i>
    <v name="ROPT">     -0.00025000     -0.00025000     -0.00025000     -0.00025000</v>
    <i type="int" name="LMAXPAW">  -100</i>
    <i type="int" name="LMAXMIX">     2</i>
    <i type="logical" name="NLSPLINE"> F  </i>
   </separator>
   <separator name="electronic startup" >
    <i type="int" name="ISTART">     0</i>
    <i type="int" name="ICHARG">     2</i>
    <i type="int" name="INIWAV">     1</i>
   </separator>
   <separator name="electronic spin" >
    <i type="int" name="ISPIN">     2</i>
    <i type="logical" name="LNONCOLLINEAR"> F  </i>
    <v name="MAGMOM">      6.00000000      0.50000000      0.50000000      6.00000000      0.50000000      0.50000000</v>
    <i name="NUPDOWN">     -1.00000000</i>
    <i type="logical" name="LSORBIT"> F  </i>
    <v name="SAXIS">      0.00000000      0.00000000      1.00000000</v>
    <i type="logical" name="LSPIRAL"> F  </i>
    <v name="QSPIRAL">      0.00000000      0.00000000      0.00000000</v>
    <i type="logical" name="LZEROZ"> F  </i>
   </separator>
   <separator name="electronic exchange-correlation" >
    <i type="logical" name="LASPH"> F  </i>
    <i type="logical" name="LMETAGGA"> F  </i>
   </separator>
   <separator name="electronic convergence" >
    <i type="int" name="NELM">    60</i>
    <i type="int" name="NELMDL">     0</i>
    <i type="int" name="NELMIN">     2</i>
    <i name="ENINI">    500.00000000</i>
    <separator name="electronic convergence detail" >
     <i type="logical" name="LDIAG"> T  </i>
     <i type="logical" name="LSUBROT"> F  </i>
     <i name="WEIMIN">      0.00000000</i>
     <i name="EBREAK">      0.00000069</i>
     <i name="DEPER">      0.30000000</i>
     <i type="int" name="NRMM">     4</i>
     <i name="TIME">      0.40000000</i>
    </separator>
   </separator>
   <separator name="electronic mixer" >
    <i name="AMIX">      0.40000000</i>
    <i name="BMIX">      1.00000000</i>
    <i name="AMIN">      0.10000000</i>
    <i name="AMIX_MAG">      1.60000000</i>
    <i name="BMIX_MAG">      1.00000000</i>
    <separator name="electronic mixer details" >
     <i type="int" name="IMIX">     4</i>
     <i type="logical" name="MIXFIRST"> F  </i>
     <i type="int" name="MAXMIX">   -45</i>
     <i name="WC">    100.00000000</i>
     <i type="int" name="INIMIX">     1</i>
     <i type="int" name="MIXPRE">     1</i>
     <i type="int" name="MREMOVE">     5</i>
    </separator>
   </separator>
   <separator name="electronic dipolcorrection" >
    <i type="logical" name="LDIPOL"> F  </i>
    <i type="logical" name="LMONO"> F  </i>
    <i type="int" name="IDIPOL">     0</i>
    <i name="EPSILON">      1.00000000</i>
    <v name="DIPOL">   -100.00000000   -100.00000000   -100.00000000</v>
    <i name="EFIELD">      0.00000000</i>
   </separator>
  </separator>
  <separator name="grids" >
   <i type="int" name="NGX">    24</i>
   <i type="int" name="NGY">    24</i>
   <i type="int" name="NGZ">   180</i>
   <i type="int" name="NGXF">    48</i>
   <i type="int" name="NGYF">    48</i>
   <i type="int" name="NGZF">   360</i>
   <i type="logical" name="ADDGRID"> F  </i>
  </separator>
  <separator name="ionic" >
   <i type="int" name="NSW">     0</i>
   <i type="int" name="IBRION">    -1</i>
   <i type="int" name="ISIF">     3</i>
   <i name="PSTRESS">      0.00000000</i>
   <i name="EDIFFG">      0.00100000</i>
   <i type="int" name="NFREE">     1</i>
   <i name="POTIM">      0.50000000</i>
   <i name="SMASS">     -3.00000000</i>
   <i name="SCALEE">      1.00000000</i>
  </separator>
  <separator name="ionic md" >
   <i name="TEBEG">      0.00010000</i>
   <i name="TEEND">      0.00010000</i>
   <i type="int" name="NBLOCK">     1</i>
   <i type="int" name="KBLOCK">     1</i>
   <i type="int" name="NPACO">   256</i>
   <i name="APACO">     16.00000000</i>
  </separator>
  <separator name="symmetry" >
   <i type="int" name="ISYM">     2</i>
   <i name="SYMPREC">      0.00001000</i>
  </separator>
  <separator name="dos" >
   <i type="logical" name="LORBIT"> F  </i>
   <v name="RWIGS">     -1.00000000     -1.00000000     -1.00000000     -1.00000000</v>
   <i type="int" name="NEDOS">   301</i>
   <i name="EMIN">     10.00000000</i>
   <i name="EMAX">    -10.00000000</i>
   <i name="EFERMI">      0.00000000</i>
  </separator>
  <separator name="writing" >
   <i type="int" name="NWRITE">     2</i>
   <i type="logical" name="LWAVE"> F  </i>
   <i type="logical" name="LCHARG"> F  </i>
   <i type="logical" name="LPARD"> F  </i>
   <i type="logical" name="LVTOT"> F  </i>
   <i type="logical" name="LVHAR"> T  </i>
   <i type="logical" name="LELF"> F  </i>
   <i type="logical" name="LOPTICS"> F  </i>
   <v name="STM">      0.00000000      0.00000000      0.00000000      0.00000000      0.00000000      0.00000000      0.00000000</v>
  </separator>
  <separator name="performance" >
   <i type="int" name="NPAR">     4</i>
   <i type="int" name="NSIM">     4</i>
   <i type="int" name="NBLK">    -1</i>
   <i type="logical" name="LPLANE"> T  </i>
   <i type="logical" name="LSCALAPACK"> T  </i>
   <i type="logical" name="LSCAAWARE"> F  </i>
   <i type="logical" name="LSCALU"> F  </i>
   <i type="logical" name="LASYNC"> F  </i>
   <i type="logical" name="LORBITALREAL"> F  </i>
  </separator>
  <separator name="miscellaneous" >
   <i type="int" name="IDIOT">     3</i>
   <i type="logical" name="LMUSIC"> F  </i>
   <v name="POMASS">     95.94000000     32.06600000     95.94000000     32.06600000</v>
   <v name="DARWINR">      0.00000000      0.00000000      0.00000000      0.00000000</v>
   <v name="DARWINV">      1.00000000      1.00000000      1.00000000      1.00000000</v>
   <i type="logical" name="LCORR"> T  </i>
  </separator>
  <i type="logical" name="GGA_COMPAT"> T  </i>
  <i type="logical" name="LBERRY"> F  </i>
  <i type="int" name="ICORELEVEL">     0</i>
  <i type="logical" name="LDAU"> F  </i>
  <i type="int" name="I_CONSTRAINED_M">     0</i>
  <separator name="electronic exchange-correlation" >
   <i type="string" name="GGA">BO</i>
   <i type="int" name="VOSKOWN">     0</i>
   <i type="logical" name="LHFCALC"> F  </i>
   <i type="string" name="PRECFOCK"></i>
   <i type="logical" name="LSYMGRAD"> F  </i>
   <i type="logical" name="LHFONE"> F  </i>
   <i type="logical" name="LRHFCALC"> F  </i>
   <i type="logical" name="LTHOMAS"> F  </i>
   <i type="logical" name="LMODELHF"> F  </i>
   <i name="ENCUT4O">     -1.00000000</i>
   <i type="int" name="EXXOEP">     0</i>
   <i type="int" name="FOURORBIT">     0</i>
   <i name="AEXX">      0.00000000</i>
   <i name="HFALPHA">      0.00000000</i>
   <i name="MCALPHA">      0.00000000</i>
   <i name="ALDAX">      1.00000000</i>
   <i name="AGGAX">      1.00000000</i>
   <i name="ALDAC">      1.00000000</i>
   <i name="AGGAC">      0.00000000</i>
   <i type="int" name="NKREDX">     1</i>
   <i type="int" name="NKREDY">     1</i>
   <i type="int" name="NKREDZ">     1</i>
   <i type="logical" name="SHIFTRED"> F  </i>
   <i type="logical" name="ODDONLY"> F  </i>
   <i type="logical" name="EVENONLY"> F  </i>
   <i type="int" name="LMAXFOCK">     0</i>
   <i type="int" name="NMAXFOCKAE">     0</i>
   <i type="logical" name="LFOCKAEDFT"> F  </i>
   <i name="HFSCREEN">      0.00000000</i>
   <i name="HFSCREENC">      0.00000000</i>
   <i type="int" name="NBANDSGWLOW">     0</i>
  </separator>
  <separator name="vdW DFT" >
   <i type="logical" name="LUSE_VDW"> T  </i>
   <i name="Zab_VDW">     -0.84910000</i>
   <i name="PARAM1">      0.18333333</i>
   <i name="PARAM2">      0.22000000</i>
   <i name="PARAM3">      0.00000000</i>
  </separator>
  <separator name="model GW" >
   <i type="int" name="MODEL_GW">     0</i>
   <i name="MODEL_EPS0">     20.39722663</i>
   <i name="MODEL_ALPHA">      1.00000000</i>
  </separator>
  <separator name="linear response parameters" >
   <i type="logical" name="LEPSILON"> F  </i>
   <i type="logical" name="LRPA"> F  </i>
   <i type="logical" name="LNABLA"> F  </i>
   <i type="logical" name="LVEL"> F  </i>
   <i type="int" name="KINTER">     0</i>
   <i name="CSHIFT">      0.10000000</i>
   <i name="OMEGAMAX">     -1.00000000</i>
   <i name="DEG_THRESHOLD">      0.00200000</i>
  </separator>
  <separator name="orbital magnetization" >
   <i type="logical" name="NUCIND"> F  </i>
   <v name="MAGPOS">      0.00000000      0.00000000      0.00000000</v>
   <i type="logical" name="LNICSALL"> T  </i>
   <i type="logical" name="ORBITALMAG"> F  </i>
   <i type="logical" name="LMAGBLOCH"> F  </i>
   <i type="logical" name="LCHIMAG"> F  </i>
   <i type="logical" name="LGAUGE"> T  </i>
   <i type="int" name="MAGATOM">     0</i>
   <v name="MAGDIPOL">      0.00000000      0.00000000      0.00000000</v>
   <v name="AVECCONST">      0.00000000      0.00000000      0.00000000</v>
  </separator>
  <separator name="response functions" >
   <i type="logical" name="LADDER"> F  </i>
   <i type="logical" name="LFXC"> F  </i>
   <i type="logical" name="LHARTREE"> T  </i>
   <i type="int" name="IBSE">     0</i>
   <v type="int" name="KPOINT">    -1     0     0     0</v>
   <i type="logical" name="LTCTE"> F  </i>
   <i type="logical" name="LTETE"> F  </i>
   <i type="logical" name="LTRIPLET"> F  </i>
   <i type="logical" name="LFXCEPS"> F  </i>
   <i type="logical" name="LFXHEG"> F  </i>
   <i type="int" name="NATURALO">     0</i>
   <i type="logical" name="L2ORDER"> F  </i>
   <i type="logical" name="LUSEW"> F  </i>
   <i name="ENCUTGW">     -2.00000000</i>
   <i name="ENCUTGWSOFT">     -2.00000000</i>
   <i name="ENCUTLF">     -1.00000000</i>
   <i type="int" name="LMAXMP2">    -1</i>
   <i name="SCISSOR">      0.00000000</i>
   <i type="int" name="NOMEGA">     0</i>
   <i type="int" name="NOMEGAR">     0</i>
   <i type="int" name="NBANDSGW">    -1</i>
   <i type="int" name="NBANDSO">    -1</i>
   <i type="int" name="NBANDSV">    -1</i>
   <i type="int" name="NELM">     1</i>
   <i type="int" name="NELMHF">     1</i>
   <i type="int" name="DIM">     3</i>
   <i type="int" name="ANTIRES">     0</i>
   <i name="OMEGAMAX">    -30.00000000</i>
   <i name="OMEGAMIN">    -30.00000000</i>
   <i name="OMEGATL">   -200.00000000</i>
   <i type="int" name="OMEGAGRID">     0</i>
   <i name="CSHIFT">     -0.10000000</i>
   <i type="logical" name="SELFENERGY"> F  </i>
   <i type="logical" name="LSPECTRAL"> F  </i>
   <i type="logical" name="LSPECTRALGW"> F  </i>
   <i type="logical" name="LSINGLES"> F  </i>
   <i type="logical" name="LFERMIGW"> F  </i>
   <i type="logical" name="ODDONLYGW"> F  </i>
   <i type="logical" name="EVENONLYGW"> F  </i>
   <i type="int" name="NKREDLFX">     1</i>
   <i type="int" name="NKREDLFY">     1</i>
   <i type="int" name="NKREDLFZ">     1</i>
   <i type="int" name="MAXMEM">  1800</i>
   <i type="int" name="TELESCOPE">     0</i>
   <i type="int" name="TAUPAR">     1</i>
   <i type="int" name="OMEGAPAR">    -1</i>
   <i name="LAMBDA">      1.00000000</i>
  </separator>
  <separator name="External order field" >
   <i name="OFIELD_KAPPA">      0.00000000</i>
   <v name="OFIELD_K">      0.00000000      0.00000000      0.00000000</v>
   <i name="OFIELD_Q6_NEAR">      0.00000000</i>
   <i name="OFIELD_Q6_FAR">      0.00000000</i>
   <i name="OFIELD_A">      0.00000000</i>
  </separator>
 </parameters>
 <atominfo>
  <atoms>       6 </atoms>
  <types>       4 </types>
  <array name="atoms" >
   <dimension dim="1">ion</dimension>
   <field type="string">element</field>
   <field type="int">atomtype</field>
   <set>
    <rc><c>Mo</c><c>   1</c></rc>
    <rc><c>S </c><c>   2</c></rc>
    <rc><c>S </c><c>   2</c></rc>
    <rc><c>Mo</c><c>   3</c></rc>
    <rc><c>S </c><c>   4</c></rc>
    <rc><c>S </c><c>   4</c></rc>
   </set>
  </array>
  <array name="atomtypes" >
   <dimension dim="1">type</dimension>
   <field type="int">atomspertype</field>
   <field type="string">element</field>
   <field>mass</field>
   <field>valence</field>
   <field type="string">pseudopotential</field>
   <set>
    <rc><c>   1</c><c>Mo</c><c>     95.94000000</c><c>     12.00000000</c><c> PAW_PBE Mo_pv 08Apr2002                </c></rc>
    <rc><c>   2</c><c>S </c><c>     32.06600000</c><c>      6.00000000</c><c>  PAW_PBE S 17Jan2003                   </c></rc>
    <rc><c>   1</c><c>Mo</c><c>     95.94000000</c><c>     12.00000000</c><c> PAW_PBE Mo_pv 08Apr2002                </c></rc>
    <rc><c>   2</c><c>S </c><c>     32.06600000</c><c>      6.00000000</c><c>  PAW_PBE S 17Jan2003                   </c></rc>
   </set>
  </array>
 </atominfo>
 <structure name="initialpos" >
  <crystal>
   <varray name="basis" >
    <v>       3.19031700       0.00000000       0.00000000 </v>
    <v>      -1.59515800       2.76289700       0.00000000 </v>
    <v>       0.00000000       0.00000000      23.14049200 </v>
   </varray>
   <i name="volume">    203.97226633 </i>
   <varray name="rec_basis" >
    <v>       0.31344848       0.18096941       0.00000000 </v>
    <v>       0.00000000       0.36193894       0.00000000 </v>
    <v>       0.00000000       0.00000000       0.04321429 </v>
   </varray>
  </crystal>
  <varray name="positions" >
   <v>       0.66666700       0.33333300       0.06785900 </v>
   <v>       0.33333300       0.66666700       0.00000000 </v>
   <v>       0.33333300       0.66666700       0.13571500 </v>
   <v>       0.80952414       0.19047586       0.35482300 </v>
   <v>       0.47619014       0.52380986       0.28696500 </v>
   <v>       0.47619014       0.52380986       0.42267900 </v>
  </varray>
 </structure>
 <calculation>
  <scstep>
   <time name="dav">   30.92   30.94</time>
   <time name="total">   41.07   41.11</time>
   <energy>
    <i name="alphaZ">    104.15310261 </i>
    <i name="ewald">   7699.20989354 </i>
    <i name="hartreedc"> -11109.25159795 </i>
    <i name="XCdc">    128.46785278 </i>
    <i name="pawpsdc">   2252.92270536 </i>
    <i name="pawaedc">  -2205.68654582 </i>
    <i name="eentropy">     -0.00117858 </i>
    <i name="bandstr">   -159.55174325 </i>
    <i name="atom">   3688.31848598 </i>
    <i name="e_fr_energy">    398.58097467 </i>
    <i name="e_wo_entrp">    398.58215325 </i>
    <i name="e_0_energy">    398.58136753 </i>
   </energy>
  </scstep>
  <scstep>
   <time name="dav">   33.59   33.62</time>
   <time name="total">   33.60   33.63</time>
   <energy>
    <i name="e_fr_energy">     -1.52557801 </i>
    <i name="e_wo_entrp">     -1.52352598 </i>
    <i name="e_0_energy">     -1.52489400 </i>
   </energy>
  </scstep>
  <scstep>
   <time name="dav">   35.52   35.55</time>
   <time name="total">   35.53   35.56</time>
   <energy>
    <i name="e_fr_energy">    -32.94385235 </i>
    <i name="e_wo_entrp">    -32.94457027 </i>
    <i name="e_0_energy">    -32.94409166 </i>
   </energy>
  </scstep>
  <scstep>
   <time name="dav">   33.04   33.07</time>
   <time name="total">   33.05   33.32</time>
   <energy>
    <i name="e_fr_energy">    -33.83475927 </i>
    <i name="e_wo_entrp">    -33.83561742 </i>
    <i name="e_0_energy">    -33.83504532 </i>
   </energy>
  </scstep>
  <scstep>
   <time name="dav">   35.54   35.57</time>
   <time name="total">   38.34   38.37</time>
   <energy>
    <i name="e_fr_energy">    -33.86224758 </i>
    <i name="e_wo_entrp">    -33.86312670 </i>
    <i name="e_0_energy">    -33.86254062 </i>
   </energy>
  </scstep>
  <scstep>
   <time name="diag">    6.55    6.56</time>
   <time name="diis">   23.05   23.07</time>
   <time name="orth">    0.23    0.23</time>
   <time name="total">   42.37   42.41</time>
   <energy>
    <i name="e_fr_energy">    -30.17479227 </i>
    <i name="e_wo_entrp">    -30.17468674 </i>
    <i name="e_0_energy">    -30.17475709 </i>
   </energy>
  </scstep>
  <scstep>
   <time name="diag">    6.62    6.63</time>
   <time name="diis">   23.10   23.11</time>
   <time name="orth">    0.23    0.23</time>
   <time name="total">   42.42   42.46</time>
   <energy>
    <i name="e_fr_energy">    -32.80612353 </i>
    <i name="e_wo_entrp">    -32.80630328 </i>
    <i name="e_0_energy">    -32.80618345 </i>
   </energy>
  </scstep>
  <scstep>
   <time name="diag">    6.64    6.64</time>
   <time name="diis">   24.59   24.61</time>
   <time name="orth">    0.23    0.23</time>
   <time name="total">   43.98   44.01</time>
   <energy>
    <i name="e_fr_energy">    -34.34143084 </i>
    <i name="e_wo_entrp">    -34.34159556 </i>
    <i name="e_0_energy">    -34.34148575 </i>
   </energy>
  </scstep>
  <scstep>
   <time name="diag">    6.63    6.63</time>
   <time name="diis">   22.73   22.75</time>
   <time name="orth">    0.23    0.23</time>
   <time name="total">   42.21   42.24</time>
   <energy>
    <i name="e_fr_energy">    -37.09917631 </i>
    <i name="e_wo_entrp">    -37.09934238 </i>
    <i name="e_0_energy">    -37.09923167 </i>
   </energy>
  </scstep>
  <scstep>
   <time name="diag">    6.57    6.58</time>
   <time name="diis">   21.26   21.28</time>
   <time name="orth">    0.23    0.23</time>
   <time name="total">   40.60   40.63</time>
   <energy>
    <i name="e_fr_energy">    -39.03408645 </i>
    <i name="e_wo_entrp">    -39.03425234 </i>
    <i name="e_0_energy">    -39.03414175 </i>
   </energy>
  </scstep>
  <scstep>
   <time name="diag">    6.57    6.57</time>
   <time name="diis">   22.74   22.75</time>
   <time name="orth">    0.23    0.23</time>
   <time name="total">   42.15   42.18</time>
   <energy>
    <i name="e_fr_energy">    -39.37102079 </i>
    <i name="e_wo_entrp">    -39.37135043 </i>
    <i name="e_0_energy">    -39.37113067 </i>
   </energy>
  </scstep>
  <scstep>
   <time name="diag">    6.73    6.73</time>
   <time name="diis">   21.31   21.32</time>
   <time name="orth">    0.23    0.23</time>
   <time name="total">   40.87   40.90</time>
   <energy>
    <i name="e_fr_energy">    -39.39369569 </i>
    <i name="e_wo_entrp">    -39.39402542 </i>
    <i name="e_0_energy">    -39.39380560 </i>
   </energy>
  </scstep>
  <scstep>
   <time name="diag">    6.65    6.65</time>
   <time name="diis">   22.94   22.96</time>
   <time name="orth">    0.23    0.23</time>
   <time name="total">   42.40   42.54</time>
   <energy>
    <i name="e_fr_energy">    -39.40052000 </i>
    <i name="e_wo_entrp">    -39.40085013 </i>
    <i name="e_0_energy">    -39.40063004 </i>
   </energy>
  </scstep>
  <scstep>
   <time name="diag">    6.59    6.60</time>
   <time name="diis">   25.18   25.20</time>
   <time name="orth">    0.23    0.23</time>
   <time name="total">   44.60   44.63</time>
   <energy>
    <i name="e_fr_energy">    -39.40462096 </i>
    <i name="e_wo_entrp">    -39.40495206 </i>
    <i name="e_0_energy">    -39.40473133 </i>
   </energy>
  </scstep>
  <scstep>
   <time name="diag">    6.66    6.66</time>
   <time name="diis">   21.04   21.06</time>
   <time name="orth">    0.23    0.23</time>
   <time name="total">   40.52   40.55</time>
   <energy>
    <i name="e_fr_energy">    -39.40423252 </i>
    <i name="e_wo_entrp">    -39.40456360 </i>
    <i name="e_0_energy">    -39.40434288 </i>
   </energy>
  </scstep>
  <scstep>
   <time name="diag">    6.59    6.60</time>
   <time name="diis">   16.72   16.73</time>
   <time name="orth">    0.23    0.23</time>
   <time name="total">   36.10   36.13</time>
   <energy>
    <i name="e_fr_energy">    -39.40442327 </i>
    <i name="e_wo_entrp">    -39.40475440 </i>
    <i name="e_0_energy">    -39.40453365 </i>
   </energy>
  </scstep>
  <scstep>
   <time name="diag">    6.60    6.61</time>
   <time name="diis">   16.14   16.16</time>
   <time name="orth">    0.23    0.23</time>
   <time name="total">   35.59   35.69</time>
   <energy>
    <i name="e_fr_energy">    -39.40459663 </i>
    <i name="e_wo_entrp">    -39.40492774 </i>
    <i name="e_0_energy">    -39.40470700 </i>
   </energy>
  </scstep>
  <scstep>
   <time name="diag">    6.54    6.54</time>
   <time name="diis">   15.90   15.91</time>
   <time name="orth">    0.23    0.23</time>
   <time name="total">   35.27   35.30</time>
   <energy>
    <i name="e_fr_energy">    -39.40510247 </i>
    <i name="e_wo_entrp">    -39.40543352 </i>
    <i name="e_0_energy">    -39.40521282 </i>
   </energy>
  </scstep>
  <scstep>
   <time name="diag">    6.62    6.62</time>
   <time name="diis">   15.23   15.25</time>
   <time name="orth">    0.23    0.23</time>
   <time name="total">   34.71   34.74</time>
   <energy>
    <i name="e_fr_energy">    -39.40544266 </i>
    <i name="e_wo_entrp">    -39.40577370 </i>
    <i name="e_0_energy">    -39.40555301 </i>
   </energy>
  </scstep>
  <scstep>
   <time name="diag">    6.53    6.54</time>
   <time name="diis">   15.12   15.13</time>
   <time name="orth">    0.23    0.23</time>
   <time name="total">   34.55   34.58</time>
   <energy>
    <i name="e_fr_energy">    -39.40564300 </i>
    <i name="e_wo_entrp">    -39.40597402 </i>
    <i name="e_0_energy">    -39.40575334 </i>
   </energy>
  </scstep>
  <scstep>
   <time name="diag">    6.55    6.55</time>
   <time name="diis">   14.87   14.88</time>
   <time name="orth">    0.24    0.24</time>
   <time name="total">   31.33   31.35</time>
   <energy>
    <i name="alphaZ">    104.15310261 </i>
    <i name="ewald">   7699.20989354 </i>
    <i name="hartreedc"> -11092.96191434 </i>
    <i name="XCdc">    122.67148223 </i>
    <i name="pawpsdc">   2399.41803437 </i>
    <i name="pawaedc">  -2361.60331270 </i>
    <i name="eentropy">      0.00033102 </i>
    <i name="bandstr">   -598.61177803 </i>
    <i name="atom">   3688.31848598 </i>
    <i name="e_fr_energy">    -39.40567533 </i>
    <i name="e_wo_entrp">    -39.40600634 </i>
    <i name="e_0_energy">    -39.40578567 </i>
   </energy>
  </scstep>
  <structure>
   <crystal>
    <varray name="basis" >
     <v>       3.19031700       0.00000000       0.00000000 </v>
     <v>      -1.59515800       2.76289700       0.00000000 </v>
     <v>       0.00000000       0.00000000      23.14049200 </v>
    </varray>
    <i name="volume">    203.97226633 </i>
    <varray name="rec_basis" >
     <v>       0.31344848       0.18096941       0.00000000 </v>
     <v>       0.00000000       0.36193894       0.00000000 </v>
     <v>       0.00000000       0.00000000       0.04321429 </v>
    </varray>
   </crystal>
   <varray name="positions" >
    <v>       0.66666700       0.33333300       0.06785900 </v>
    <v>       0.33333300       0.66666700       0.00000000 </v>
    <v>       0.33333300       0.66666700       0.13571500 </v>
    <v>       0.80952414       0.19047586       0.35482300 </v>
    <v>       0.47619014       0.52380986       0.28696500 </v>
    <v>       0.47619014       0.52380986       0.42267900 </v>
   </varray>
  </structure>
  <varray name="forces" >
   <v>      -0.00563893       0.00325564      -0.01223150 </v>
   <v>       0.00091280      -0.00052700      -0.05544373 </v>
   <v>      -0.03209313       0.01852899       0.06670491 </v>
   <v>       0.00472510      -0.00272804       0.01400569 </v>
   <v>       0.03030082      -0.01749420      -0.07493474 </v>
   <v>       0.00179334      -0.00103539       0.06189936 </v>
  </varray>
  <varray name="stress" >
   <v>       3.55624814      -0.12689475       1.11950799 </v>
   <v>      -0.12689475       3.40972564      -0.64634864 </v>
   <v>       1.11950794      -0.64634861       1.96177899 </v>
  </varray>
  <energy>
   <i name="e_fr_energy">    -39.40567533 </i>
   <i name="e_wo_entrp">    -39.40578567 </i>
   <i name="e_0_energy">      0.00033102 </i>
  </energy>
  <time name="totalsc">  877.09  878.25</time>
  <eigenvalues>
   <array>
    <dimension dim="1">band</dimension>
    <dimension dim="2">kpoint</dimension>
    <dimension dim="3">spin</dimension>
    <field>eigene</field>
    <field>occ</field>
    <set>
     <set comment="spin 1">
      <set comment="kpoint 1">
       <r>  -34.9911    1.0000 </r>
       <r>  -34.9871    1.0000 </r>
       <r>  -34.7996    1.0000 </r>
       <r>  -34.7994    1.0000 </r>
       <r>  -34.7957    1.0000 </r>
       <r>  -34.7955    1.0000 </r>
       <r>  -13.9750    1.0000 </r>
       <r>  -13.9170    1.0000 </r>
       <r>  -12.7102    1.0000 </r>
       <r>  -12.6132    1.0000 </r>
       <r>   -5.6922    1.0000 </r>
       <r>   -5.3930    1.0000 </r>
       <r>   -2.6205    1.0000 </r>
       <r>   -2.6198    1.0000 </r>
       <r>   -2.6160    1.0000 </r>
       <r>   -2.6152    1.0000 </r>
       <r>   -2.1901    1.0000 </r>
       <r>   -1.5285    1.0000 </r>
       <r>   -1.5275    1.0000 </r>
       <r>   -1.5228    1.0000 </r>
       <r>   -1.5209    1.0000 </r>
       <r>   -1.4633    1.0000 </r>
       <r>   -0.2283    1.0000 </r>
       <r>    0.2304    0.8002 </r>
       <r>    2.6929   -0.0000 </r>
       <r>    2.7042   -0.0000 </r>
       <r>    2.7085   -0.0000 </r>
       <r>    2.7177   -0.0000 </r>
       <r>    2.8740   -0.0000 </r>
       <r>    2.8864   -0.0000 </r>
       <r>    2.8912   -0.0000 </r>
       <r>    2.9055   -0.0000 </r>
       <r>    5.2946    0.0000 </r>
       <r>    5.4115    0.0000 </r>
       <r>    6.3822    0.0000 </r>
       <r>    6.5498    0.0000 </r>
      </set>
      <set comment="kpoint 2">
       <r>  -34.9870    1.0000 </r>
       <r>  -34.9830    1.0000 </r>
       <r>  -34.8208    1.0000 </r>
       <r>  -34.8169    1.0000 </r>
       <r>  -34.8044    1.0000 </r>
       <r>  -34.8004    1.0000 </r>
       <r>  -13.8884    1.0000 </r>
       <r>  -13.8304    1.0000 </r>
       <r>  -12.6736    1.0000 </r>
       <r>  -12.5787    1.0000 </r>
       <r>   -5.5932    1.0000 </r>
       <r>   -5.2940    1.0000 </r>
       <r>   -2.8084    1.0000 </r>
       <r>   -2.8014    1.0000 </r>
       <r>   -2.5293    1.0000 </r>
       <r>   -2.5255    1.0000 </r>
       <r>   -2.4694    1.0000 </r>
       <r>   -2.0676    1.0000 </r>
       <r>   -1.6645    1.0000 </r>
       <r>   -1.6599    1.0000 </r>
       <r>   -1.3717    1.0000 </r>
       <r>   -1.0586    1.0000 </r>
       <r>   -0.2497    1.0000 </r>
       <r>    0.1590    1.0325 </r>
       <r>    2.5657   -0.0000 </r>
       <r>    2.6098   -0.0000 </r>
       <r>    2.6340   -0.0000 </r>
       <r>    2.7291   -0.0000 </r>
       <r>    2.7889   -0.0000 </r>
       <r>    2.8010   -0.0000 </r>
       <r>    2.8498   -0.0000 </r>
       <r>    2.8582   -0.0000 </r>
       <r>    5.4328    0.0000 </r>
       <r>    5.5492    0.0000 </r>
       <r>    6.7416    0.0000 </r>
       <r>    6.9331    0.0000 </r>
      </set>
      <set comment="kpoint 3">
       <r>  -34.9756    1.0000 </r>
       <r>  -34.9716    1.0000 </r>
       <r>  -34.8792    1.0000 </r>
       <r>  -34.8754    1.0000 </r>
       <r>  -34.8178    1.0000 </r>
       <r>  -34.8138    1.0000 </r>
       <r>  -13.6401    1.0000 </r>
       <r>  -13.5824    1.0000 </r>
       <r>  -12.5687    1.0000 </r>
       <r>  -12.4801    1.0000 </r>
       <r>   -5.3336    1.0000 </r>
       <r>   -5.0397    1.0000 </r>
       <r>   -3.2643    1.0000 </r>
       <r>   -3.2447    1.0000 </r>
       <r>   -2.9648    1.0000 </r>
       <r>   -2.6842    1.0000 </r>
       <r>   -2.2737    1.0000 </r>
       <r>   -2.2695    1.0000 </r>
       <r>   -1.9997    1.0000 </r>
       <r>   -1.9949    1.0000 </r>
       <r>   -1.3000    1.0000 </r>
       <r>   -0.9213    1.0000 </r>
       <r>   -0.3816    1.0000 </r>
       <r>   -0.1090    1.0000 </r>
       <r>    2.1544   -0.0000 </r>
       <r>    2.3637   -0.0000 </r>
       <r>    2.4857   -0.0000 </r>
       <r>    2.5600   -0.0000 </r>
       <r>    2.5727   -0.0000 </r>
       <r>    2.6361   -0.0000 </r>
       <r>    3.1973    0.0000 </r>
       <r>    3.2075    0.0000 </r>
       <r>    5.7882    0.0000 </r>
       <r>    5.8989    0.0000 </r>
       <r>    7.4093    0.0000 </r>
       <r>    7.8383    0.0000 </r>
      </set>
      <set comment="kpoint 4">
       <r>  -34.9608    1.0000 </r>
       <r>  -34.9594    1.0000 </r>
       <r>  -34.9570    1.0000 </r>
       <r>  -34.9554    1.0000 </r>
       <r>  -34.8367    1.0000 </r>
       <r>  -34.8326    1.0000 </r>
       <r>  -13.2653    1.0000 </r>
       <r>  -13.2088    1.0000 </r>
       <r>  -12.4114    1.0000 </r>
       <r>  -12.3322    1.0000 </r>
       <r>   -5.0686    1.0000 </r>
       <r>   -4.8244    1.0000 </r>
       <r>   -3.7417    1.0000 </r>
       <r>   -3.6628    1.0000 </r>
       <r>   -3.4933    1.0000 </r>
       <r>   -3.3019    1.0000 </r>
       <r>   -2.3948    1.0000 </r>
       <r>   -2.3899    1.0000 </r>
       <r>   -1.9047    1.0000 </r>
       <r>   -1.9001    1.0000 </r>
       <r>   -1.4847    1.0000 </r>
       <r>   -1.1007    1.0000 </r>
       <r>   -0.7015    1.0000 </r>
       <r>   -0.5537    1.0000 </r>
       <r>    1.9294   -0.0000 </r>
       <r>    2.2391   -0.0000 </r>
       <r>    2.3119   -0.0000 </r>
       <r>    2.3220   -0.0000 </r>
       <r>    2.6817   -0.0000 </r>
       <r>    2.9109   -0.0000 </r>
       <r>    3.5798    0.0000 </r>
       <r>    3.5926    0.0000 </r>
       <r>    6.3019    0.0000 </r>
       <r>    6.4086    0.0000 </r>
       <r>    7.8680    0.0000 </r>
       <r>    8.2884    0.0000 </r>
      </set>
      <set comment="kpoint 5">
       <r>  -35.0460    1.0000 </r>
       <r>  -35.0421    1.0000 </r>
       <r>  -34.9424    1.0000 </r>
       <r>  -34.9384    1.0000 </r>
       <r>  -34.8566    1.0000 </r>
       <r>  -34.8526    1.0000 </r>
       <r>  -12.8258    1.0000 </r>
       <r>  -12.7718    1.0000 </r>
       <r>  -12.2296    1.0000 </r>
       <r>  -12.1618    1.0000 </r>
       <r>   -5.1187    1.0000 </r>
       <r>   -4.9949    1.0000 </r>
       <r>   -4.0758    1.0000 </r>
       <r>   -3.9229    1.0000 </r>
       <r>   -3.8874    1.0000 </r>
       <r>   -3.7218    1.0000 </r>
       <r>   -2.7501    1.0000 </r>
       <r>   -2.7451    1.0000 </r>
       <r>   -1.7662    1.0000 </r>
       <r>   -1.5105    1.0000 </r>
       <r>   -1.5029    1.0000 </r>
       <r>   -1.3871    1.0000 </r>
       <r>   -0.9933    1.0000 </r>
       <r>   -0.8807    1.0000 </r>
       <r>    2.0274   -0.0000 </r>
       <r>    2.1429   -0.0000 </r>
       <r>    2.1527   -0.0000 </r>
       <r>    2.3210   -0.0000 </r>
       <r>    3.0851    0.0000 </r>
       <r>    3.3616    0.0000 </r>
       <r>    3.8833    0.0000 </r>
       <r>    3.8995    0.0000 </r>
       <r>    6.9243    0.0000 </r>
       <r>    7.0202    0.0000 </r>
       <r>    7.8090    0.0000 </r>
       <r>    8.1100    0.0000 </r>
      </set>
      <set comment="kpoint 6">
       <r>  -35.1157    1.0000 </r>
       <r>  -35.1119    1.0000 </r>
       <r>  -34.9281    1.0000 </r>
       <r>  -34.9242    1.0000 </r>
       <r>  -34.8730    1.0000 </r>
       <r>  -34.8690    1.0000 </r>
       <r>  -12.4159    1.0000 </r>
       <r>  -12.3658    1.0000 </r>
       <r>  -12.0644    1.0000 </r>
       <r>  -12.0077    1.0000 </r>
       <r>   -5.4360    1.0000 </r>
       <r>   -5.3645    1.0000 </r>
       <r>   -4.4901    1.0000 </r>
       <r>   -4.3771    1.0000 </r>
       <r>   -3.9902    1.0000 </r>
       <r>   -3.7913    1.0000 </r>
       <r>   -3.0100    1.0000 </r>
       <r>   -3.0049    1.0000 </r>
       <r>   -1.9822    1.0000 </r>
       <r>   -1.6121    1.0000 </r>
       <r>   -1.1923    1.0000 </r>
       <r>   -1.1846    1.0000 </r>
       <r>   -0.9533    1.0000 </r>
       <r>   -0.8142    1.0000 </r>
       <r>    2.0990   -0.0000 </r>
       <r>    2.1053   -0.0000 </r>
       <r>    2.2957   -0.0000 </r>
       <r>    2.4947   -0.0000 </r>
       <r>    3.4670    0.0000 </r>
       <r>    3.7573    0.0000 </r>
       <r>    4.0725    0.0000 </r>
       <r>    4.0917    0.0000 </r>
       <r>    6.7410    0.0000 </r>
       <r>    7.1952    0.0000 </r>
       <r>    7.5539    0.0000 </r>
       <r>    7.8934    0.0000 </r>
      </set>
      <set comment="kpoint 7">
       <r>  -35.1548    1.0000 </r>
       <r>  -35.1509    1.0000 </r>
       <r>  -34.9201    1.0000 </r>
       <r>  -34.9161    1.0000 </r>
       <r>  -34.8823    1.0000 </r>
       <r>  -34.8783    1.0000 </r>
       <r>  -12.1598    1.0000 </r>
       <r>  -12.1128    1.0000 </r>
       <r>  -11.9633    1.0000 </r>
       <r>  -11.9142    1.0000 </r>
       <r>   -5.6773    1.0000 </r>
       <r>   -5.6156    1.0000 </r>
       <r>   -4.7414    1.0000 </r>
       <r>   -4.6426    1.0000 </r>
       <r>   -4.0919    1.0000 </r>
       <r>   -3.9045    1.0000 </r>
       <r>   -3.1460    1.0000 </r>
       <r>   -3.1408    1.0000 </r>
       <r>   -2.0878    1.0000 </r>
       <r>   -1.7232    1.0000 </r>
       <r>   -1.0258    1.0000 </r>
       <r>   -1.0166    1.0000 </r>
       <r>   -0.7422    1.0000 </r>
       <r>   -0.5756    1.0000 </r>
       <r>    2.1254   -0.0000 </r>
       <r>    2.1301   -0.0000 </r>
       <r>    2.5499   -0.0000 </r>
       <r>    2.6453   -0.0000 </r>
       <r>    3.6671    0.0000 </r>
       <r>    3.9624    0.0000 </r>
       <r>    4.1580    0.0000 </r>
       <r>    4.1792    0.0000 </r>
       <r>    5.9592    0.0000 </r>
       <r>    6.5604    0.0000 </r>
       <r>    7.8504    0.0000 </r>
       <r>    8.0093    0.0000 </r>
      </set>
      <set comment="kpoint 8">
       <r>  -34.9792    1.0000 </r>
       <r>  -34.9753    1.0000 </r>
       <r>  -34.8596    1.0000 </r>
       <r>  -34.8559    1.0000 </r>
       <r>  -34.8145    1.0000 </r>
       <r>  -34.8104    1.0000 </r>
       <r>  -13.7209    1.0000 </r>
       <r>  -13.6630    1.0000 </r>
       <r>  -12.6028    1.0000 </r>
       <r>  -12.5120    1.0000 </r>
       <r>   -5.4122    1.0000 </r>
       <r>   -5.1147    1.0000 </r>
       <r>   -3.1248    1.0000 </r>
       <r>   -3.1123    1.0000 </r>
       <r>   -2.8037    1.0000 </r>
       <r>   -2.4830    1.0000 </r>
       <r>   -2.3609    1.0000 </r>
       <r>   -2.3571    1.0000 </r>
       <r>   -1.9808    1.0000 </r>
       <r>   -1.9700    1.0000 </r>
       <r>   -1.2242    1.0000 </r>
       <r>   -0.8702    1.0000 </r>
       <r>   -0.3258    1.0000 </r>
       <r>   -0.0083    1.0003 </r>
       <r>    2.2664   -0.0000 </r>
       <r>    2.4201   -0.0000 </r>
       <r>    2.4492   -0.0000 </r>
       <r>    2.5685   -0.0000 </r>
       <r>    2.6172   -0.0000 </r>
       <r>    2.6435   -0.0000 </r>
       <r>    3.1258    0.0000 </r>
       <r>    3.1417    0.0000 </r>
       <r>    5.6787    0.0000 </r>
       <r>    5.7905    0.0000 </r>
       <r>    7.2616    0.0000 </r>
       <r>    7.5991    0.0000 </r>
      </set>
      <set comment="kpoint 9">
       <r>  -34.9655    1.0000 </r>
       <r>  -34.9615    1.0000 </r>
       <r>  -34.9272    1.0000 </r>
       <r>  -34.9234    1.0000 </r>
       <r>  -34.8330    1.0000 </r>
       <r>  -34.8289    1.0000 </r>
       <r>  -13.4089    1.0000 </r>
       <r>  -13.3516    1.0000 </r>
       <r>  -12.4712    1.0000 </r>
       <r>  -12.3880    1.0000 </r>
       <r>   -5.1328    1.0000 </r>
       <r>   -4.8567    1.0000 </r>
       <r>   -3.5767    1.0000 </r>
       <r>   -3.5350    1.0000 </r>
       <r>   -3.2361    1.0000 </r>
       <r>   -3.0038    1.0000 </r>
       <r>   -2.4733    1.0000 </r>
       <r>   -2.4377    1.0000 </r>
       <r>   -2.0775    1.0000 </r>
       <r>   -2.0722    1.0000 </r>
       <r>   -1.2156    1.0000 </r>
       <r>   -0.8700    1.0000 </r>
       <r>   -0.5580    1.0000 </r>
       <r>   -0.3726    1.0000 </r>
       <r>    1.9351   -0.0000 </r>
       <r>    2.1880   -0.0000 </r>
       <r>    2.3833   -0.0000 </r>
       <r>    2.4264   -0.0000 </r>
       <r>    2.4548   -0.0000 </r>
       <r>    2.6381   -0.0000 </r>
       <r>    3.5248    0.0000 </r>
       <r>    3.5645    0.0000 </r>
       <r>    6.1116    0.0000 </r>
       <r>    6.2212    0.0000 </r>
       <r>    7.8001    0.0000 </r>
       <r>    8.2554    0.0000 </r>
      </set>
      <set comment="kpoint 10">
       <r>  -35.0076    1.0000 </r>
       <r>  -35.0038    1.0000 </r>
       <r>  -34.9489    1.0000 </r>
       <r>  -34.9449    1.0000 </r>
       <r>  -34.8554    1.0000 </r>
       <r>  -34.8513    1.0000 </r>
       <r>  -12.9996    1.0000 </r>
       <r>  -12.9441    1.0000 </r>
       <r>  -12.2998    1.0000 </r>
       <r>  -12.2269    1.0000 </r>
       <r>   -5.0048    1.0000 </r>
       <r>   -4.8293    1.0000 </r>
       <r>   -3.8994    1.0000 </r>
       <r>   -3.7531    1.0000 </r>
       <r>   -3.7257    1.0000 </r>
       <r>   -3.5910    1.0000 </r>
       <r>   -2.8696    1.0000 </r>
       <r>   -2.7994    1.0000 </r>
       <r>   -1.7975    1.0000 </r>
       <r>   -1.7867    1.0000 </r>
       <r>   -1.4341    1.0000 </r>
       <r>   -1.1082    1.0000 </r>
       <r>   -0.8605    1.0000 </r>
       <r>   -0.7576    1.0000 </r>
       <r>    1.8360   -0.0000 </r>
       <r>    2.0681   -0.0000 </r>
       <r>    2.2674   -0.0000 </r>
       <r>    2.3755   -0.0000 </r>
       <r>    2.7311   -0.0000 </r>
       <r>    2.9603   -0.0000 </r>
       <r>    3.8692    0.0000 </r>
       <r>    3.9358    0.0000 </r>
       <r>    6.7004    0.0000 </r>
       <r>    6.7975    0.0000 </r>
       <r>    8.1646    0.0000 </r>
       <r>    8.5264    0.0000 </r>
      </set>
      <set comment="kpoint 11">
       <r>  -35.0822    1.0000 </r>
       <r>  -35.0784    1.0000 </r>
       <r>  -34.9332    1.0000 </r>
       <r>  -34.9292    1.0000 </r>
       <r>  -34.8764    1.0000 </r>
       <r>  -34.8724    1.0000 </r>
       <r>  -12.5698    1.0000 </r>
       <r>  -12.5176    1.0000 </r>
       <r>  -12.1226    1.0000 </r>
       <r>  -12.0610    1.0000 </r>
       <r>   -5.2247    1.0000 </r>
       <r>   -5.1376    1.0000 </r>
       <r>   -4.3048    1.0000 </r>
       <r>   -4.1994    1.0000 </r>
       <r>   -3.9127    1.0000 </r>
       <r>   -3.7099    1.0000 </r>
       <r>   -3.0822    1.0000 </r>
       <r>   -3.0131    1.0000 </r>
       <r>   -1.7587    1.0000 </r>
       <r>   -1.6307    1.0000 </r>
       <r>   -1.6146    1.0000 </r>
       <r>   -1.3994    1.0000 </r>
       <r>   -0.8829    1.0000 </r>
       <r>   -0.8053    1.0000 </r>
       <r>    1.9486   -0.0000 </r>
       <r>    2.1002   -0.0000 </r>
       <r>    2.3094   -0.0000 </r>
       <r>    2.4372   -0.0000 </r>
       <r>    3.1509    0.0000 </r>
       <r>    3.3871    0.0000 </r>
       <r>    4.0610    0.0000 </r>
       <r>    4.1603    0.0000 </r>
       <r>    7.2465    0.0000 </r>
       <r>    7.3933    0.0000 </r>
       <r>    7.5150    0.0000 </r>
       <r>    8.0998    0.0000 </r>
      </set>
      <set comment="kpoint 12">
       <r>  -35.1346    1.0000 </r>
       <r>  -35.1307    1.0000 </r>
       <r>  -34.9220    1.0000 </r>
       <r>  -34.9181    1.0000 </r>
       <r>  -34.8913    1.0000 </r>
       <r>  -34.8872    1.0000 </r>
       <r>  -12.2289    1.0000 </r>
       <r>  -12.1807    1.0000 </r>
       <r>  -11.9848    1.0000 </r>
       <r>  -11.9330    1.0000 </r>
       <r>   -5.5077    1.0000 </r>
       <r>   -5.4438    1.0000 </r>
       <r>   -4.6907    1.0000 </r>
       <r>   -4.6056    1.0000 </r>
       <r>   -4.0163    1.0000 </r>
       <r>   -3.8200    1.0000 </r>
       <r>   -3.1684    1.0000 </r>
       <r>   -3.1201    1.0000 </r>
       <r>   -1.9865    1.0000 </r>
       <r>   -1.6578    1.0000 </r>
       <r>   -1.5109    1.0000 </r>
       <r>   -1.4329    1.0000 </r>
       <r>   -0.6729    1.0000 </r>
       <r>   -0.5769    1.0000 </r>
       <r>    2.0995   -0.0000 </r>
       <r>    2.1639   -0.0000 </r>
       <r>    2.4865   -0.0000 </r>
       <r>    2.5949   -0.0000 </r>
       <r>    3.5434    0.0000 </r>
       <r>    3.7533    0.0000 </r>
       <r>    4.0575    0.0000 </r>
       <r>    4.1999    0.0000 </r>
       <r>    6.3691    0.0000 </r>
       <r>    6.9548    0.0000 </r>
       <r>    7.9800    0.0000 </r>
       <r>    8.2003    0.0000 </r>
      </set>
      <set comment="kpoint 13">
       <r>  -35.1534    1.0000 </r>
       <r>  -35.1495    1.0000 </r>
       <r>  -34.9180    1.0000 </r>
       <r>  -34.9141    1.0000 </r>
       <r>  -34.8966    1.0000 </r>
       <r>  -34.8926    1.0000 </r>
       <r>  -12.0965    1.0000 </r>
       <r>  -12.0503    1.0000 </r>
       <r>  -11.9315    1.0000 </r>
       <r>  -11.8843    1.0000 </r>
       <r>   -5.6257    1.0000 </r>
       <r>   -5.5652    1.0000 </r>
       <r>   -4.8331    1.0000 </r>
       <r>   -4.7528    1.0000 </r>
       <r>   -4.0837    1.0000 </r>
       <r>   -3.8960    1.0000 </r>
       <r>   -3.1879    1.0000 </r>
       <r>   -3.1511    1.0000 </r>
       <r>   -2.0750    1.0000 </r>
       <r>   -1.7360    1.0000 </r>
       <r>   -1.4447    1.0000 </r>
       <r>   -1.3721    1.0000 </r>
       <r>   -0.5437    1.0000 </r>
       <r>   -0.4296    1.0000 </r>
       <r>    2.1358   -0.0000 </r>
       <r>    2.1642   -0.0000 </r>
       <r>    2.6350   -0.0000 </r>
       <r>    2.7129   -0.0000 </r>
       <r>    3.8017    0.0000 </r>
       <r>    3.8982    0.0000 </r>
       <r>    3.9682    0.0000 </r>
       <r>    4.1282    0.0000 </r>
       <r>    5.9344    0.0000 </r>
       <r>    6.5749    0.0000 </r>
       <r>    8.2945    0.0000 </r>
       <r>    8.3894    0.0000 </r>
      </set>
      <set comment="kpoint 14">
       <r>  -35.1346    1.0000 </r>
       <r>  -35.1307    1.0000 </r>
       <r>  -34.9220    1.0000 </r>
       <r>  -34.9181    1.0000 </r>
       <r>  -34.8912    1.0000 </r>
       <r>  -34.8872    1.0000 </r>
       <r>  -12.2285    1.0000 </r>
       <r>  -12.1810    1.0000 </r>
       <r>  -11.9845    1.0000 </r>
       <r>  -11.9335    1.0000 </r>
       <r>   -5.5076    1.0000 </r>
       <r>   -5.4440    1.0000 </r>
       <r>   -4.6901    1.0000 </r>
       <r>   -4.6060    1.0000 </r>
       <r>   -4.0163    1.0000 </r>
       <r>   -3.8203    1.0000 </r>
       <r>   -3.1687    1.0000 </r>
       <r>   -3.1192    1.0000 </r>
       <r>   -1.9838    1.0000 </r>
       <r>   -1.6567    1.0000 </r>
       <r>   -1.5053    1.0000 </r>
       <r>   -1.4437    1.0000 </r>
       <r>   -0.6735    1.0000 </r>
       <r>   -0.5762    1.0000 </r>
       <r>    2.0974   -0.0000 </r>
       <r>    2.1670   -0.0000 </r>
       <r>    2.4876   -0.0000 </r>
       <r>    2.5937   -0.0000 </r>
       <r>    3.5558    0.0000 </r>
       <r>    3.7415    0.0000 </r>
       <r>    4.0520    0.0000 </r>
       <r>    4.2033    0.0000 </r>
       <r>    6.3696    0.0000 </r>
       <r>    6.9543    0.0000 </r>
       <r>    7.9939    0.0000 </r>
       <r>    8.2021    0.0000 </r>
      </set>
      <set comment="kpoint 15">
       <r>  -35.0823    1.0000 </r>
       <r>  -35.0784    1.0000 </r>
       <r>  -34.9332    1.0000 </r>
       <r>  -34.9292    1.0000 </r>
       <r>  -34.8764    1.0000 </r>
       <r>  -34.8724    1.0000 </r>
       <r>  -12.5693    1.0000 </r>
       <r>  -12.5180    1.0000 </r>
       <r>  -12.1221    1.0000 </r>
       <r>  -12.0617    1.0000 </r>
       <r>   -5.2247    1.0000 </r>
       <r>   -5.1378    1.0000 </r>
       <r>   -4.3038    1.0000 </r>
       <r>   -4.2000    1.0000 </r>
       <r>   -3.9121    1.0000 </r>
       <r>   -3.7112    1.0000 </r>
       <r>   -3.0815    1.0000 </r>
       <r>   -3.0126    1.0000 </r>
       <r>   -1.7509    1.0000 </r>
       <r>   -1.6309    1.0000 </r>
       <r>   -1.6171    1.0000 </r>
       <r>   -1.4067    1.0000 </r>
       <r>   -0.8828    1.0000 </r>
       <r>   -0.8060    1.0000 </r>
       <r>    1.9501   -0.0000 </r>
       <r>    2.1006   -0.0000 </r>
       <r>    2.3094   -0.0000 </r>
       <r>    2.4359   -0.0000 </r>
       <r>    3.1619    0.0000 </r>
       <r>    3.3749    0.0000 </r>
       <r>    4.0593    0.0000 </r>
       <r>    4.1628    0.0000 </r>
       <r>    7.2486    0.0000 </r>
       <r>    7.4315    0.0000 </r>
       <r>    7.5154    0.0000 </r>
       <r>    8.1256    0.0000 </r>
      </set>
      <set comment="kpoint 16">
       <r>  -35.0076    1.0000 </r>
       <r>  -35.0037    1.0000 </r>
       <r>  -34.9489    1.0000 </r>
       <r>  -34.9449    1.0000 </r>
       <r>  -34.8553    1.0000 </r>
       <r>  -34.8514    1.0000 </r>
       <r>  -12.9992    1.0000 </r>
       <r>  -12.9445    1.0000 </r>
       <r>  -12.2992    1.0000 </r>
       <r>  -12.2275    1.0000 </r>
       <r>   -5.0048    1.0000 </r>
       <r>   -4.8292    1.0000 </r>
       <r>   -3.8974    1.0000 </r>
       <r>   -3.7553    1.0000 </r>
       <r>   -3.7246    1.0000 </r>
       <r>   -3.5923    1.0000 </r>
       <r>   -2.8680    1.0000 </r>
       <r>   -2.8000    1.0000 </r>
       <r>   -1.7985    1.0000 </r>
       <r>   -1.7847    1.0000 </r>
       <r>   -1.4311    1.0000 </r>
       <r>   -1.1124    1.0000 </r>
       <r>   -0.8605    1.0000 </r>
       <r>   -0.7610    1.0000 </r>
       <r>    1.8393   -0.0000 </r>
       <r>    2.0660   -0.0000 </r>
       <r>    2.2677   -0.0000 </r>
       <r>    2.3744   -0.0000 </r>
       <r>    2.7391   -0.0000 </r>
       <r>    2.9526   -0.0000 </r>
       <r>    3.8673    0.0000 </r>
       <r>    3.9393    0.0000 </r>
       <r>    6.7002    0.0000 </r>
       <r>    6.7975    0.0000 </r>
       <r>    8.1897    0.0000 </r>
       <r>    8.5442    0.0000 </r>
      </set>
      <set comment="kpoint 17">
       <r>  -34.9655    1.0000 </r>
       <r>  -34.9615    1.0000 </r>
       <r>  -34.9273    1.0000 </r>
       <r>  -34.9234    1.0000 </r>
       <r>  -34.8329    1.0000 </r>
       <r>  -34.8290    1.0000 </r>
       <r>  -13.4086    1.0000 </r>
       <r>  -13.3518    1.0000 </r>
       <r>  -12.4708    1.0000 </r>
       <r>  -12.3885    1.0000 </r>
       <r>   -5.1323    1.0000 </r>
       <r>   -4.8570    1.0000 </r>
       <r>   -3.5763    1.0000 </r>
       <r>   -3.5353    1.0000 </r>
       <r>   -3.2370    1.0000 </r>
       <r>   -3.0030    1.0000 </r>
       <r>   -2.4721    1.0000 </r>
       <r>   -2.4385    1.0000 </r>
       <r>   -2.0784    1.0000 </r>
       <r>   -2.0712    1.0000 </r>
       <r>   -1.2097    1.0000 </r>
       <r>   -0.8743    1.0000 </r>
       <r>   -0.5566    1.0000 </r>
       <r>   -0.3805    1.0000 </r>
       <r>    1.9393   -0.0000 </r>
       <r>    2.1887   -0.0000 </r>
       <r>    2.3812   -0.0000 </r>
       <r>    2.4235   -0.0000 </r>
       <r>    2.4617   -0.0000 </r>
       <r>    2.6347   -0.0000 </r>
       <r>    3.5203    0.0000 </r>
       <r>    3.5701    0.0000 </r>
       <r>    6.1117    0.0000 </r>
       <r>    6.2210    0.0000 </r>
       <r>    7.7983    0.0000 </r>
       <r>    8.2480    0.0000 </r>
      </set>
      <set comment="kpoint 18">
       <r>  -34.9792    1.0000 </r>
       <r>  -34.9753    1.0000 </r>
       <r>  -34.8598    1.0000 </r>
       <r>  -34.8558    1.0000 </r>
       <r>  -34.8144    1.0000 </r>
       <r>  -34.8105    1.0000 </r>
       <r>  -13.7208    1.0000 </r>
       <r>  -13.6632    1.0000 </r>
       <r>  -12.6026    1.0000 </r>
       <r>  -12.5123    1.0000 </r>
       <r>   -5.4117    1.0000 </r>
       <r>   -5.1151    1.0000 </r>
       <r>   -3.1251    1.0000 </r>
       <r>   -3.1119    1.0000 </r>
       <r>   -2.8047    1.0000 </r>
       <r>   -2.4820    1.0000 </r>
       <r>   -2.3620    1.0000 </r>
       <r>   -2.3560    1.0000 </r>
       <r>   -1.9817    1.0000 </r>
       <r>   -1.9688    1.0000 </r>
       <r>   -1.2177    1.0000 </r>
       <r>   -0.8754    1.0000 </r>
       <r>   -0.3241    1.0000 </r>
       <r>   -0.0169    1.0002 </r>
       <r>    2.2789   -0.0000 </r>
       <r>    2.4211   -0.0000 </r>
       <r>    2.4519   -0.0000 </r>
       <r>    2.5587   -0.0000 </r>
       <r>    2.6102   -0.0000 </r>
       <r>    2.6487   -0.0000 </r>
       <r>    3.1178    0.0000 </r>
       <r>    3.1506    0.0000 </r>
       <r>    5.6798    0.0000 </r>
       <r>    5.7902    0.0000 </r>
       <r>    7.2710    0.0000 </r>
       <r>    7.6043    0.0000 </r>
      </set>
      <set comment="kpoint 19">
       <r>  -34.9870    1.0000 </r>
       <r>  -34.9830    1.0000 </r>
       <r>  -34.8209    1.0000 </r>
       <r>  -34.8168    1.0000 </r>
       <r>  -34.8043    1.0000 </r>
       <r>  -34.8005    1.0000 </r>
       <r>  -13.8883    1.0000 </r>
       <r>  -13.8305    1.0000 </r>
       <r>  -12.6735    1.0000 </r>
       <r>  -12.5788    1.0000 </r>
       <r>   -5.5931    1.0000 </r>
       <r>   -5.2941    1.0000 </r>
       <r>   -2.8083    1.0000 </r>
       <r>   -2.8015    1.0000 </r>
       <r>   -2.5301    1.0000 </r>
       <r>   -2.5243    1.0000 </r>
       <r>   -2.4703    1.0000 </r>
       <r>   -2.0676    1.0000 </r>
       <r>   -1.6665    1.0000 </r>
       <r>   -1.6578    1.0000 </r>
       <r>   -1.3668    1.0000 </r>
       <r>   -1.0626    1.0000 </r>
       <r>   -0.2491    1.0000 </r>
       <r>    0.1556    1.0340 </r>
       <r>    2.5801   -0.0000 </r>
       <r>    2.6087   -0.0000 </r>
       <r>    2.6391   -0.0000 </r>
       <r>    2.7155   -0.0000 </r>
       <r>    2.7720   -0.0000 </r>
       <r>    2.8094   -0.0000 </r>
       <r>    2.8453   -0.0000 </r>
       <r>    2.8692   -0.0000 </r>
       <r>    5.4328    0.0000 </r>
       <r>    5.5491    0.0000 </r>
       <r>    6.7399    0.0000 </r>
       <r>    6.9326    0.0000 </r>
      </set>
      <set comment="kpoint 20">
       <r>  -34.9893    1.0000 </r>
       <r>  -34.9856    1.0000 </r>
       <r>  -34.9512    1.0000 </r>
       <r>  -34.9473    1.0000 </r>
       <r>  -34.8594    1.0000 </r>
       <r>  -34.8553    1.0000 </r>
       <r>  -13.0608    1.0000 </r>
       <r>  -13.0048    1.0000 </r>
       <r>  -12.3240    1.0000 </r>
       <r>  -12.2493    1.0000 </r>
       <r>   -4.9570    1.0000 </r>
       <r>   -4.7538    1.0000 </r>
       <r>   -3.8354    1.0000 </r>
       <r>   -3.7158    1.0000 </r>
       <r>   -3.5277    1.0000 </r>
       <r>   -3.3990    1.0000 </r>
       <r>   -3.1074    1.0000 </r>
       <r>   -2.9871    1.0000 </r>
       <r>   -1.9490    1.0000 </r>
       <r>   -1.9385    1.0000 </r>
       <r>   -1.1986    1.0000 </r>
       <r>   -0.9079    1.0000 </r>
       <r>   -0.7920    1.0000 </r>
       <r>   -0.6866    1.0000 </r>
       <r>    1.7440   -0.0000 </r>
       <r>    1.9937   -0.0000 </r>
       <r>    2.3087   -0.0000 </r>
       <r>    2.4117   -0.0000 </r>
       <r>    2.5032   -0.0000 </r>
       <r>    2.7161   -0.0000 </r>
       <r>    3.9064    0.0000 </r>
       <r>    3.9976    0.0000 </r>
       <r>    6.6278    0.0000 </r>
       <r>    6.7279    0.0000 </r>
       <r>    8.3177    0.0000 </r>
       <r>    8.5843    0.0000 </r>
      </set>
      <set comment="kpoint 21">
       <r>  -35.0521    1.0000 </r>
       <r>  -35.0484    1.0000 </r>
       <r>  -34.9361    1.0000 </r>
       <r>  -34.9321    1.0000 </r>
       <r>  -34.8897    1.0000 </r>
       <r>  -34.8856    1.0000 </r>
       <r>  -12.6556    1.0000 </r>
       <r>  -12.6023    1.0000 </r>
       <r>  -12.1526    1.0000 </r>
       <r>  -12.0882    1.0000 </r>
       <r>   -5.0294    1.0000 </r>
       <r>   -4.9225    1.0000 </r>
       <r>   -4.1078    1.0000 </r>
       <r>   -4.0468    1.0000 </r>
       <r>   -3.8320    1.0000 </r>
       <r>   -3.6264    1.0000 </r>
       <r>   -3.3214    1.0000 </r>
       <r>   -3.1568    1.0000 </r>
       <r>   -2.0810    1.0000 </r>
       <r>   -2.0553    1.0000 </r>
       <r>   -1.4114    1.0000 </r>
       <r>   -1.1363    1.0000 </r>
       <r>   -0.8456    1.0000 </r>
       <r>   -0.8017    1.0000 </r>
       <r>    1.7763   -0.0000 </r>
       <r>    2.0456   -0.0000 </r>
       <r>    2.3799   -0.0000 </r>
       <r>    2.4527   -0.0000 </r>
       <r>    2.7612   -0.0000 </r>
       <r>    2.9780   -0.0000 </r>
       <r>    4.1509    0.0000 </r>
       <r>    4.2899    0.0000 </r>
       <r>    7.2674    0.0000 </r>
       <r>    7.3517    0.0000 </r>
       <r>    8.0686    0.0000 </r>
       <r>    8.5882    0.0000 </r>
      </set>
      <set comment="kpoint 22">
       <r>  -35.1028    1.0000 </r>
       <r>  -35.0990    1.0000 </r>
       <r>  -34.9235    1.0000 </r>
       <r>  -34.9196    1.0000 </r>
       <r>  -34.9156    1.0000 </r>
       <r>  -34.9115    1.0000 </r>
       <r>  -12.2827    1.0000 </r>
       <r>  -12.2333    1.0000 </r>
       <r>  -11.9953    1.0000 </r>
       <r>  -11.9412    1.0000 </r>
       <r>   -5.2300    1.0000 </r>
       <r>   -5.1596    1.0000 </r>
       <r>   -4.6501    1.0000 </r>
       <r>   -4.5999    1.0000 </r>
       <r>   -3.8589    1.0000 </r>
       <r>   -3.6455    1.0000 </r>
       <r>   -3.2918    1.0000 </r>
       <r>   -3.1561    1.0000 </r>
       <r>   -2.2333    1.0000 </r>
       <r>   -2.1628    1.0000 </r>
       <r>   -1.7447    1.0000 </r>
       <r>   -1.4702    1.0000 </r>
       <r>   -0.6748    1.0000 </r>
       <r>   -0.6302    1.0000 </r>
       <r>    2.0037   -0.0000 </r>
       <r>    2.2158   -0.0000 </r>
       <r>    2.5009   -0.0000 </r>
       <r>    2.5564   -0.0000 </r>
       <r>    3.1059    0.0000 </r>
       <r>    3.3052    0.0000 </r>
       <r>    4.2125    0.0000 </r>
       <r>    4.4025    0.0000 </r>
       <r>    7.0011    0.0000 </r>
       <r>    7.5267    0.0000 </r>
       <r>    8.0653    0.0000 </r>
       <r>    8.5508    0.0000 </r>
      </set>
      <set comment="kpoint 23">
       <r>  -35.1310    1.0000 </r>
       <r>  -35.1271    1.0000 </r>
       <r>  -34.9305    1.0000 </r>
       <r>  -34.9265    1.0000 </r>
       <r>  -34.9163    1.0000 </r>
       <r>  -34.9123    1.0000 </r>
       <r>  -12.0532    1.0000 </r>
       <r>  -12.0071    1.0000 </r>
       <r>  -11.8978    1.0000 </r>
       <r>  -11.8513    1.0000 </r>
       <r>   -5.3620    1.0000 </r>
       <r>   -5.3019    1.0000 </r>
       <r>   -4.9579    1.0000 </r>
       <r>   -4.9089    1.0000 </r>
       <r>   -3.9907    1.0000 </r>
       <r>   -3.7977    1.0000 </r>
       <r>   -3.2016    1.0000 </r>
       <r>   -3.1041    1.0000 </r>
       <r>   -2.2507    1.0000 </r>
       <r>   -2.1485    1.0000 </r>
       <r>   -1.9986    1.0000 </r>
       <r>   -1.7116    1.0000 </r>
       <r>   -0.4514    1.0000 </r>
       <r>   -0.3844    1.0000 </r>
       <r>    2.0551   -0.0000 </r>
       <r>    2.1124   -0.0000 </r>
       <r>    2.7483   -0.0000 </r>
       <r>    2.8695   -0.0000 </r>
       <r>    3.3670    0.0000 </r>
       <r>    3.5273    0.0000 </r>
       <r>    4.1492    0.0000 </r>
       <r>    4.3948    0.0000 </r>
       <r>    6.2739    0.0000 </r>
       <r>    6.9397    0.0000 </r>
       <r>    8.6679    0.0000 </r>
       <r>    8.8184    0.0000 </r>
      </set>
      <set comment="kpoint 24">
       <r>  -35.1310    1.0000 </r>
       <r>  -35.1271    1.0000 </r>
       <r>  -34.9305    1.0000 </r>
       <r>  -34.9265    1.0000 </r>
       <r>  -34.9163    1.0000 </r>
       <r>  -34.9123    1.0000 </r>
       <r>  -12.0526    1.0000 </r>
       <r>  -12.0075    1.0000 </r>
       <r>  -11.8975    1.0000 </r>
       <r>  -11.8519    1.0000 </r>
       <r>   -5.3619    1.0000 </r>
       <r>   -5.3023    1.0000 </r>
       <r>   -4.9576    1.0000 </r>
       <r>   -4.9091    1.0000 </r>
       <r>   -3.9906    1.0000 </r>
       <r>   -3.7977    1.0000 </r>
       <r>   -3.2020    1.0000 </r>
       <r>   -3.1031    1.0000 </r>
       <r>   -2.2432    1.0000 </r>
       <r>   -2.1523    1.0000 </r>
       <r>   -2.0018    1.0000 </r>
       <r>   -1.7137    1.0000 </r>
       <r>   -0.4512    1.0000 </r>
       <r>   -0.3842    1.0000 </r>
       <r>    2.0538   -0.0000 </r>
       <r>    2.1136   -0.0000 </r>
       <r>    2.7482   -0.0000 </r>
       <r>    2.8699   -0.0000 </r>
       <r>    3.3830    0.0000 </r>
       <r>    3.5097    0.0000 </r>
       <r>    4.1486    0.0000 </r>
       <r>    4.3953    0.0000 </r>
       <r>    6.2750    0.0000 </r>
       <r>    6.9396    0.0000 </r>
       <r>    8.6957    0.0000 </r>
       <r>    8.8389    0.0000 </r>
      </set>
      <set comment="kpoint 25">
       <r>  -35.1029    1.0000 </r>
       <r>  -35.0989    1.0000 </r>
       <r>  -34.9235    1.0000 </r>
       <r>  -34.9195    1.0000 </r>
       <r>  -34.9156    1.0000 </r>
       <r>  -34.9116    1.0000 </r>
       <r>  -12.2816    1.0000 </r>
       <r>  -12.2341    1.0000 </r>
       <r>  -11.9944    1.0000 </r>
       <r>  -11.9424    1.0000 </r>
       <r>   -5.2299    1.0000 </r>
       <r>   -5.1601    1.0000 </r>
       <r>   -4.6494    1.0000 </r>
       <r>   -4.6008    1.0000 </r>
       <r>   -3.8573    1.0000 </r>
       <r>   -3.6464    1.0000 </r>
       <r>   -3.2909    1.0000 </r>
       <r>   -3.1556    1.0000 </r>
       <r>   -2.2237    1.0000 </r>
       <r>   -2.1695    1.0000 </r>
       <r>   -1.7471    1.0000 </r>
       <r>   -1.4750    1.0000 </r>
       <r>   -0.6749    1.0000 </r>
       <r>   -0.6294    1.0000 </r>
       <r>    2.0016   -0.0000 </r>
       <r>    2.2196   -0.0000 </r>
       <r>    2.5019   -0.0000 </r>
       <r>    2.5541   -0.0000 </r>
       <r>    3.1244    0.0000 </r>
       <r>    3.2839    0.0000 </r>
       <r>    4.2119    0.0000 </r>
       <r>    4.4041    0.0000 </r>
       <r>    7.0011    0.0000 </r>
       <r>    7.5259    0.0000 </r>
       <r>    8.0819    0.0000 </r>
       <r>    8.4330    0.0000 </r>
      </set>
      <set comment="kpoint 26">
       <r>  -35.0523    1.0000 </r>
       <r>  -35.0483    1.0000 </r>
       <r>  -34.9360    1.0000 </r>
       <r>  -34.9321    1.0000 </r>
       <r>  -34.8896    1.0000 </r>
       <r>  -34.8857    1.0000 </r>
       <r>  -12.6545    1.0000 </r>
       <r>  -12.6031    1.0000 </r>
       <r>  -12.1515    1.0000 </r>
       <r>  -12.0896    1.0000 </r>
       <r>   -5.0299    1.0000 </r>
       <r>   -4.9224    1.0000 </r>
       <r>   -4.1069    1.0000 </r>
       <r>   -4.0497    1.0000 </r>
       <r>   -3.8253    1.0000 </r>
       <r>   -3.6298    1.0000 </r>
       <r>   -3.3197    1.0000 </r>
       <r>   -3.1579    1.0000 </r>
       <r>   -2.0830    1.0000 </r>
       <r>   -2.0525    1.0000 </r>
       <r>   -1.4080    1.0000 </r>
       <r>   -1.1445    1.0000 </r>
       <r>   -0.8486    1.0000 </r>
       <r>   -0.7998    1.0000 </r>
       <r>    1.7775   -0.0000 </r>
       <r>    2.0457   -0.0000 </r>
       <r>    2.3801   -0.0000 </r>
       <r>    2.4504   -0.0000 </r>
       <r>    2.7718   -0.0000 </r>
       <r>    2.9681   -0.0000 </r>
       <r>    4.1509    0.0000 </r>
       <r>    4.2913    0.0000 </r>
       <r>    7.2671    0.0000 </r>
       <r>    7.3517    0.0000 </r>
       <r>    8.0513    0.0000 </r>
       <r>    8.5946    0.0000 </r>
      </set>
      <set comment="kpoint 27">
       <r>  -34.9895    1.0000 </r>
       <r>  -34.9855    1.0000 </r>
       <r>  -34.9512    1.0000 </r>
       <r>  -34.9472    1.0000 </r>
       <r>  -34.8592    1.0000 </r>
       <r>  -34.8554    1.0000 </r>
       <r>  -13.0600    1.0000 </r>
       <r>  -13.0055    1.0000 </r>
       <r>  -12.3230    1.0000 </r>
       <r>  -12.2505    1.0000 </r>
       <r>   -4.9572    1.0000 </r>
       <r>   -4.7534    1.0000 </r>
       <r>   -3.8311    1.0000 </r>
       <r>   -3.7214    1.0000 </r>
       <r>   -3.5266    1.0000 </r>
       <r>   -3.3986    1.0000 </r>
       <r>   -3.1045    1.0000 </r>
       <r>   -2.9893    1.0000 </r>
       <r>   -1.9524    1.0000 </r>
       <r>   -1.9348    1.0000 </r>
       <r>   -1.1876    1.0000 </r>
       <r>   -0.9147    1.0000 </r>
       <r>   -0.7924    1.0000 </r>
       <r>   -0.6977    1.0000 </r>
       <r>    1.7474   -0.0000 </r>
       <r>    1.9930   -0.0000 </r>
       <r>    2.3093   -0.0000 </r>
       <r>    2.4098   -0.0000 </r>
       <r>    2.5091   -0.0000 </r>
       <r>    2.7135   -0.0000 </r>
       <r>    3.9029    0.0000 </r>
       <r>    4.0021    0.0000 </r>
       <r>    6.6283    0.0000 </r>
       <r>    6.7268    0.0000 </r>
       <r>    8.3188    0.0000 </r>
       <r>    8.5920    0.0000 </r>
      </set>
      <set comment="kpoint 28">
       <r>  -34.9655    1.0000 </r>
       <r>  -34.9615    1.0000 </r>
       <r>  -34.9274    1.0000 </r>
       <r>  -34.9233    1.0000 </r>
       <r>  -34.8329    1.0000 </r>
       <r>  -34.8291    1.0000 </r>
       <r>  -13.4083    1.0000 </r>
       <r>  -13.3520    1.0000 </r>
       <r>  -12.4705    1.0000 </r>
       <r>  -12.3888    1.0000 </r>
       <r>   -5.1321    1.0000 </r>
       <r>   -4.8572    1.0000 </r>
       <r>   -3.5745    1.0000 </r>
       <r>   -3.5372    1.0000 </r>
       <r>   -3.2367    1.0000 </r>
       <r>   -3.0037    1.0000 </r>
       <r>   -2.4733    1.0000 </r>
       <r>   -2.4369    1.0000 </r>
       <r>   -2.0797    1.0000 </r>
       <r>   -2.0699    1.0000 </r>
       <r>   -1.2010    1.0000 </r>
       <r>   -0.8806    1.0000 </r>
       <r>   -0.5547    1.0000 </r>
       <r>   -0.3895    1.0000 </r>
       <r>    1.9450   -0.0000 </r>
       <r>    2.1887   -0.0000 </r>
       <r>    2.3774   -0.0000 </r>
       <r>    2.4326   -0.0000 </r>
       <r>    2.4582   -0.0000 </r>
       <r>    2.6326   -0.0000 </r>
       <r>    3.5145    0.0000 </r>
       <r>    3.5755    0.0000 </r>
       <r>    6.1123    0.0000 </r>
       <r>    6.2202    0.0000 </r>
       <r>    7.7985    0.0000 </r>
       <r>    8.2406    0.0000 </r>
      </set>
      <set comment="kpoint 29">
       <r>  -34.9756    1.0000 </r>
       <r>  -34.9716    1.0000 </r>
       <r>  -34.8794    1.0000 </r>
       <r>  -34.8753    1.0000 </r>
       <r>  -34.8177    1.0000 </r>
       <r>  -34.8139    1.0000 </r>
       <r>  -13.6399    1.0000 </r>
       <r>  -13.5826    1.0000 </r>
       <r>  -12.5684    1.0000 </r>
       <r>  -12.4805    1.0000 </r>
       <r>   -5.3330    1.0000 </r>
       <r>   -5.0402    1.0000 </r>
       <r>   -3.2633    1.0000 </r>
       <r>   -3.2455    1.0000 </r>
       <r>   -2.9653    1.0000 </r>
       <r>   -2.6845    1.0000 </r>
       <r>   -2.2755    1.0000 </r>
       <r>   -2.2679    1.0000 </r>
       <r>   -2.0025    1.0000 </r>
       <r>   -1.9919    1.0000 </r>
       <r>   -1.2872    1.0000 </r>
       <r>   -0.9311    1.0000 </r>
       <r>   -0.3789    1.0000 </r>
       <r>   -0.1216    1.0000 </r>
       <r>    2.1705   -0.0000 </r>
       <r>    2.3620   -0.0000 </r>
       <r>    2.4911   -0.0000 </r>
       <r>    2.5444   -0.0000 </r>
       <r>    2.5869   -0.0000 </r>
       <r>    2.6253   -0.0000 </r>
       <r>    3.1855    0.0000 </r>
       <r>    3.2201    0.0000 </r>
       <r>    5.7908    0.0000 </r>
       <r>    5.8982    0.0000 </r>
       <r>    7.4154    0.0000 </r>
       <r>    7.8331    0.0000 </r>
      </set>
      <set comment="kpoint 30">
       <r>  -35.0846    1.0000 </r>
       <r>  -35.0809    1.0000 </r>
       <r>  -34.9313    1.0000 </r>
       <r>  -34.9273    1.0000 </r>
       <r>  -34.9239    1.0000 </r>
       <r>  -34.9199    1.0000 </r>
       <r>  -12.3030    1.0000 </r>
       <r>  -12.2531    1.0000 </r>
       <r>  -11.9982    1.0000 </r>
       <r>  -11.9430    1.0000 </r>
       <r>   -5.0836    1.0000 </r>
       <r>   -5.0071    1.0000 </r>
       <r>   -4.6291    1.0000 </r>
       <r>   -4.5989    1.0000 </r>
       <r>   -3.7247    1.0000 </r>
       <r>   -3.4944    1.0000 </r>
       <r>   -3.3526    1.0000 </r>
       <r>   -3.1783    1.0000 </r>
       <r>   -2.6102    1.0000 </r>
       <r>   -2.5815    1.0000 </r>
       <r>   -1.6255    1.0000 </r>
       <r>   -1.3773    1.0000 </r>
       <r>   -0.6936    1.0000 </r>
       <r>   -0.6724    1.0000 </r>
       <r>    1.9488   -0.0000 </r>
       <r>    2.2260   -0.0000 </r>
       <r>    2.5183   -0.0000 </r>
       <r>    2.5490   -0.0000 </r>
       <r>    2.8896   -0.0000 </r>
       <r>    3.0946    0.0000 </r>
       <r>    4.3194    0.0000 </r>
       <r>    4.5058    0.0000 </r>
       <r>    7.4367    0.0000 </r>
       <r>    7.8042    0.0000 </r>
       <r>    8.0552    0.0000 </r>
       <r>    8.2916    0.0000 </r>
      </set>
      <set comment="kpoint 31">
       <r>  -35.1015    1.0000 </r>
       <r>  -35.0977    1.0000 </r>
       <r>  -34.9668    1.0000 </r>
       <r>  -34.9628    1.0000 </r>
       <r>  -34.9153    1.0000 </r>
       <r>  -34.9114    1.0000 </r>
       <r>  -12.0327    1.0000 </r>
       <r>  -11.9865    1.0000 </r>
       <r>  -11.8758    1.0000 </r>
       <r>  -11.8292    1.0000 </r>
       <r>   -5.0768    1.0000 </r>
       <r>   -5.0323    1.0000 </r>
       <r>   -5.0236    1.0000 </r>
       <r>   -4.9889    1.0000 </r>
       <r>   -3.7881    1.0000 </r>
       <r>   -3.5939    1.0000 </r>
       <r>   -3.2071    1.0000 </r>
       <r>   -3.0634    1.0000 </r>
       <r>   -2.9827    1.0000 </r>
       <r>   -2.8887    1.0000 </r>
       <r>   -1.9577    1.0000 </r>
       <r>   -1.7047    1.0000 </r>
       <r>   -0.4295    1.0000 </r>
       <r>   -0.3992    1.0000 </r>
       <r>    1.9411   -0.0000 </r>
       <r>    2.0233   -0.0000 </r>
       <r>    2.8174   -0.0000 </r>
       <r>    2.9760   -0.0000 </r>
       <r>    3.0311    0.0000 </r>
       <r>    3.2158    0.0000 </r>
       <r>    4.4265    0.0000 </r>
       <r>    4.6316    0.0000 </r>
       <r>    6.8255    0.0000 </r>
       <r>    7.4312    0.0000 </r>
       <r>    8.2189    0.0000 </r>
       <r>    8.6077    0.0000 </r>
      </set>
      <set comment="kpoint 32">
       <r>  -35.1059    1.0000 </r>
       <r>  -35.1020    1.0000 </r>
       <r>  -34.9813    1.0000 </r>
       <r>  -34.9773    1.0000 </r>
       <r>  -34.9122    1.0000 </r>
       <r>  -34.9083    1.0000 </r>
       <r>  -11.9305    1.0000 </r>
       <r>  -11.8866    1.0000 </r>
       <r>  -11.8272    1.0000 </r>
       <r>  -11.7857    1.0000 </r>
       <r>   -5.2075    1.0000 </r>
       <r>   -5.1748    1.0000 </r>
       <r>   -5.0007    1.0000 </r>
       <r>   -4.9490    1.0000 </r>
       <r>   -3.9382    1.0000 </r>
       <r>   -3.7663    1.0000 </r>
       <r>   -3.0951    1.0000 </r>
       <r>   -3.0494    1.0000 </r>
       <r>   -2.9687    1.0000 </r>
       <r>   -2.9228    1.0000 </r>
       <r>   -2.1493    1.0000 </r>
       <r>   -1.8731    1.0000 </r>
       <r>   -0.2600    1.0000 </r>
       <r>   -0.2179    1.0000 </r>
       <r>    1.8248   -0.0000 </r>
       <r>    1.8457   -0.0000 </r>
       <r>    3.0042    0.0000 </r>
       <r>    3.0912    0.0000 </r>
       <r>    3.2104    0.0000 </r>
       <r>    3.2894    0.0000 </r>
       <r>    4.4675    0.0000 </r>
       <r>    4.6747    0.0000 </r>
       <r>    6.4889    0.0000 </r>
       <r>    7.1634    0.0000 </r>
       <r>    8.1311    0.0000 </r>
       <r>    8.7002    0.0000 </r>
      </set>
      <set comment="kpoint 33">
       <r>  -35.1016    1.0000 </r>
       <r>  -35.0976    1.0000 </r>
       <r>  -34.9667    1.0000 </r>
       <r>  -34.9628    1.0000 </r>
       <r>  -34.9153    1.0000 </r>
       <r>  -34.9114    1.0000 </r>
       <r>  -12.0309    1.0000 </r>
       <r>  -11.9874    1.0000 </r>
       <r>  -11.8748    1.0000 </r>
       <r>  -11.8310    1.0000 </r>
       <r>   -5.0769    1.0000 </r>
       <r>   -5.0343    1.0000 </r>
       <r>   -5.0218    1.0000 </r>
       <r>   -4.9896    1.0000 </r>
       <r>   -3.7866    1.0000 </r>
       <r>   -3.5925    1.0000 </r>
       <r>   -3.2047    1.0000 </r>
       <r>   -3.0644    1.0000 </r>
       <r>   -2.9757    1.0000 </r>
       <r>   -2.8960    1.0000 </r>
       <r>   -1.9635    1.0000 </r>
       <r>   -1.7037    1.0000 </r>
       <r>   -0.4295    1.0000 </r>
       <r>   -0.3984    1.0000 </r>
       <r>    1.9400   -0.0000 </r>
       <r>    2.0239   -0.0000 </r>
       <r>    2.8218   -0.0000 </r>
       <r>    2.9696   -0.0000 </r>
       <r>    3.0450    0.0000 </r>
       <r>    3.2007    0.0000 </r>
       <r>    4.4283    0.0000 </r>
       <r>    4.6277    0.0000 </r>
       <r>    6.8369    0.0000 </r>
       <r>    7.4466    0.0000 </r>
       <r>    8.2421    0.0000 </r>
       <r>    8.6542    0.0000 </r>
      </set>
      <set comment="kpoint 34">
       <r>  -35.0848    1.0000 </r>
       <r>  -35.0808    1.0000 </r>
       <r>  -34.9311    1.0000 </r>
       <r>  -34.9273    1.0000 </r>
       <r>  -34.9239    1.0000 </r>
       <r>  -34.9199    1.0000 </r>
       <r>  -12.3009    1.0000 </r>
       <r>  -12.2546    1.0000 </r>
       <r>  -11.9964    1.0000 </r>
       <r>  -11.9454    1.0000 </r>
       <r>   -5.0837    1.0000 </r>
       <r>   -5.0079    1.0000 </r>
       <r>   -4.6290    1.0000 </r>
       <r>   -4.6008    1.0000 </r>
       <r>   -3.7110    1.0000 </r>
       <r>   -3.4992    1.0000 </r>
       <r>   -3.3525    1.0000 </r>
       <r>   -3.1824    1.0000 </r>
       <r>   -2.6156    1.0000 </r>
       <r>   -2.5765    1.0000 </r>
       <r>   -1.6243    1.0000 </r>
       <r>   -1.3837    1.0000 </r>
       <r>   -0.6982    1.0000 </r>
       <r>   -0.6670    1.0000 </r>
       <r>    1.9465   -0.0000 </r>
       <r>    2.2274   -0.0000 </r>
       <r>    2.5191   -0.0000 </r>
       <r>    2.5482   -0.0000 </r>
       <r>    2.8972   -0.0000 </r>
       <r>    3.0843    0.0000 </r>
       <r>    4.3249    0.0000 </r>
       <r>    4.5011    0.0000 </r>
       <r>    7.4565    0.0000 </r>
       <r>    7.7977    0.0000 </r>
       <r>    8.0468    0.0000 </r>
       <r>    8.4290    0.0000 </r>
      </set>
      <set comment="kpoint 35">
       <r>  -35.0523    1.0000 </r>
       <r>  -35.0483    1.0000 </r>
       <r>  -34.9360    1.0000 </r>
       <r>  -34.9321    1.0000 </r>
       <r>  -34.8895    1.0000 </r>
       <r>  -34.8857    1.0000 </r>
       <r>  -12.6539    1.0000 </r>
       <r>  -12.6036    1.0000 </r>
       <r>  -12.1508    1.0000 </r>
       <r>  -12.0904    1.0000 </r>
       <r>   -5.0300    1.0000 </r>
       <r>   -4.9228    1.0000 </r>
       <r>   -4.1067    1.0000 </r>
       <r>   -4.0549    1.0000 </r>
       <r>   -3.8106    1.0000 </r>
       <r>   -3.6350    1.0000 </r>
       <r>   -3.3216    1.0000 </r>
       <r>   -3.1604    1.0000 </r>
       <r>   -2.0845    1.0000 </r>
       <r>   -2.0515    1.0000 </r>
       <r>   -1.3982    1.0000 </r>
       <r>   -1.1522    1.0000 </r>
       <r>   -0.8495    1.0000 </r>
       <r>   -0.8019    1.0000 </r>
       <r>    1.7753   -0.0000 </r>
       <r>    2.0459   -0.0000 </r>
       <r>    2.3816   -0.0000 </r>
       <r>    2.4527   -0.0000 </r>
       <r>    2.7637   -0.0000 </r>
       <r>    2.9772   -0.0000 </r>
       <r>    4.1516    0.0000 </r>
       <r>    4.2892    0.0000 </r>
       <r>    7.2674    0.0000 </r>
       <r>    7.3504    0.0000 </r>
       <r>    8.0835    0.0000 </r>
       <r>    8.5800    0.0000 </r>
      </set>
      <set comment="kpoint 36">
       <r>  -35.0077    1.0000 </r>
       <r>  -35.0037    1.0000 </r>
       <r>  -34.9489    1.0000 </r>
       <r>  -34.9449    1.0000 </r>
       <r>  -34.8552    1.0000 </r>
       <r>  -34.8515    1.0000 </r>
       <r>  -12.9984    1.0000 </r>
       <r>  -12.9451    1.0000 </r>
       <r>  -12.2983    1.0000 </r>
       <r>  -12.2286    1.0000 </r>
       <r>   -5.0051    1.0000 </r>
       <r>   -4.8292    1.0000 </r>
       <r>   -3.8898    1.0000 </r>
       <r>   -3.7655    1.0000 </r>
       <r>   -3.7194    1.0000 </r>
       <r>   -3.5944    1.0000 </r>
       <r>   -2.8692    1.0000 </r>
       <r>   -2.7989    1.0000 </r>
       <r>   -1.8015    1.0000 </r>
       <r>   -1.7821    1.0000 </r>
       <r>   -1.4130    1.0000 </r>
       <r>   -1.1266    1.0000 </r>
       <r>   -0.8583    1.0000 </r>
       <r>   -0.7727    1.0000 </r>
       <r>    1.8393   -0.0000 </r>
       <r>    2.0700   -0.0000 </r>
       <r>    2.2658   -0.0000 </r>
       <r>    2.3790   -0.0000 </r>
       <r>    2.7351   -0.0000 </r>
       <r>    2.9578   -0.0000 </r>
       <r>    3.8577    0.0000 </r>
       <r>    3.9470    0.0000 </r>
       <r>    6.7026    0.0000 </r>
       <r>    6.7942    0.0000 </r>
       <r>    8.1612    0.0000 </r>
       <r>    8.4995    0.0000 </r>
      </set>
      <set comment="kpoint 37">
       <r>  -34.9610    1.0000 </r>
       <r>  -34.9593    1.0000 </r>
       <r>  -34.9573    1.0000 </r>
       <r>  -34.9550    1.0000 </r>
       <r>  -34.8365    1.0000 </r>
       <r>  -34.8328    1.0000 </r>
       <r>  -13.2646    1.0000 </r>
       <r>  -13.2093    1.0000 </r>
       <r>  -12.4105    1.0000 </r>
[...]
       <r>    -2.1907     1.8445    18.4897 </r>
       <r>    -2.0286     3.4631    19.0510 </r>
       <r>    -1.8665     3.6085    19.6359 </r>
       <r>    -1.7044     2.9568    20.1152 </r>
       <r>    -1.5423     2.9444    20.5925 </r>
       <r>    -1.3802     3.5278    21.1643 </r>
       <r>    -1.2181     1.4849    21.4050 </r>
       <r>    -1.0560     2.0754    21.7414 </r>
       <r>    -0.8939     1.8752    22.0454 </r>
       <r>    -0.7318     3.6870    22.6430 </r>
       <r>    -0.5698     2.8491    23.1049 </r>
       <r>    -0.4077     2.2082    23.4628 </r>
       <r>    -0.2456     1.8537    23.7633 </r>
       <r>    -0.0835     0.9172    23.9120 </r>
       <r>     0.0786     0.2965    23.9600 </r>
       <r>     0.2407     0.2310    23.9975 </r>
       <r>     0.4028     0.0165    24.0002 </r>
       <r>     0.5649    -0.0010    24.0000 </r>
       <r>     0.7270    -0.0000    24.0000 </r>
       <r>     0.8891    -0.0000    24.0000 </r>
       <r>     1.0512    -0.0000    24.0000 </r>
       <r>     1.2133    -0.0000    24.0000 </r>
       <r>     1.3754    -0.0000    24.0000 </r>
       <r>     1.5375    -0.0148    23.9976 </r>
       <r>     1.6996     0.2976    24.0458 </r>
       <r>     1.8617     1.4095    24.2743 </r>
       <r>     2.0238     3.0725    24.7723 </r>
       <r>     2.1859     5.2476    25.6229 </r>
       <r>     2.3480     3.6245    26.2105 </r>
       <r>     2.5101     5.0404    27.0275 </r>
       <r>     2.6721     4.6791    27.7859 </r>
       <r>     2.8342     3.3405    28.3274 </r>
       <r>     2.9963     2.7675    28.7760 </r>
       <r>     3.1584     2.7408    29.2203 </r>
       <r>     3.3205     2.2389    29.5832 </r>
       <r>     3.4826     1.6651    29.8531 </r>
       <r>     3.6447     2.0869    30.1914 </r>
       <r>     3.8068     0.9243    30.3412 </r>
       <r>     3.9689     2.0381    30.6716 </r>
       <r>     4.1310     2.3836    31.0580 </r>
       <r>     4.2931     2.6182    31.4824 </r>
       <r>     4.4552     1.5707    31.7370 </r>
       <r>     4.6173     0.8559    31.8757 </r>
       <r>     4.7794     0.6476    31.9807 </r>
       <r>     4.9415     0.1260    32.0011 </r>
       <r>     5.1036    -0.0071    31.9999 </r>
       <r>     5.2657     0.0046    32.0007 </r>
       <r>     5.4278     0.1490    32.0248 </r>
       <r>     5.5899     0.3174    32.0763 </r>
       <r>     5.7520     0.3345    32.1305 </r>
       <r>     5.9140     0.5793    32.2244 </r>
       <r>     6.0761     0.5079    32.3067 </r>
       <r>     6.2382     0.7252    32.4243 </r>
       <r>     6.4003     1.0685    32.5975 </r>
       <r>     6.5624     0.8200    32.7304 </r>
       <r>     6.7245     1.0027    32.8929 </r>
       <r>     6.8866     1.7123    33.1705 </r>
       <r>     7.0487     1.7506    33.4542 </r>
       <r>     7.2108     0.6350    33.5572 </r>
       <r>     7.3729     1.7653    33.8433 </r>
       <r>     7.5350     1.9465    34.1588 </r>
       <r>     7.6971     0.7972    34.2881 </r>
       <r>     7.8592     1.2161    34.4852 </r>
       <r>     8.0213     1.2436    34.6868 </r>
       <r>     8.1834     2.7025    35.1248 </r>
       <r>     8.3455     1.9376    35.4389 </r>
       <r>     8.5076     0.8035    35.5691 </r>
       <r>     8.6697     1.6648    35.8390 </r>
       <r>     8.8318     0.8560    35.9777 </r>
       <r>     8.9939     0.1444    36.0012 </r>
       <r>     9.1559    -0.0071    36.0000 </r>
       <r>     9.3180    -0.0000    36.0000 </r>
       <r>     9.4801    -0.0000    36.0000 </r>
       <r>     9.6422     0.0000    36.0000 </r>
       <r>     9.8043     0.0000    36.0000 </r>
       <r>     9.9664     0.0000    36.0000 </r>
       <r>    10.1285     0.0000    36.0000 </r>
       <r>    10.2906     0.0000    36.0000 </r>
       <r>    10.4527     0.0000    36.0000 </r>
       <r>    10.6148     0.0000    36.0000 </r>
       <r>    10.7769     0.0000    36.0000 </r>
       <r>    10.9390     0.0000    36.0000 </r>
       <r>    11.1011     0.0000    36.0000 </r>
       <r>    11.2632     0.0000    36.0000 </r>
      </set>
      <set comment="spin 2">
       <r>   -37.3653     0.0000     0.0000 </r>
       <r>   -37.2032     0.0000     0.0000 </r>
       <r>   -37.0411     0.0000     0.0000 </r>
       <r>   -36.8790     0.0000     0.0000 </r>
       <r>   -36.7169     0.0000     0.0000 </r>
       <r>   -36.5548     0.0000     0.0000 </r>
       <r>   -36.3927     0.0000     0.0000 </r>
       <r>   -36.2306     0.0000     0.0000 </r>
       <r>   -36.0686    -0.0000    -0.0000 </r>
       <r>   -35.9065    -0.0000    -0.0000 </r>
       <r>   -35.7444    -0.0000    -0.0000 </r>
       <r>   -35.5823    -0.0000    -0.0000 </r>
       <r>   -35.4202    -0.0008    -0.0001 </r>
       <r>   -35.2581    -0.1911    -0.0311 </r>
       <r>   -35.0960     4.2207     0.6530 </r>
       <r>   -34.9339    15.4527     3.1578 </r>
       <r>   -34.7718    17.5718     6.0061 </r>
       <r>   -34.6097    -0.0128     6.0041 </r>
       <r>   -34.4476    -0.0251     6.0000 </r>
       <r>   -34.2855    -0.0000     6.0000 </r>
       <r>   -34.1234    -0.0000     6.0000 </r>
       <r>   -33.9613     0.0000     6.0000 </r>
       <r>   -33.7992     0.0000     6.0000 </r>
       <r>   -33.6371     0.0000     6.0000 </r>
       <r>   -33.4750     0.0000     6.0000 </r>
       <r>   -33.3129     0.0000     6.0000 </r>
       <r>   -33.1508     0.0000     6.0000 </r>
       <r>   -32.9887     0.0000     6.0000 </r>
       <r>   -32.8267     0.0000     6.0000 </r>
       <r>   -32.6646     0.0000     6.0000 </r>
       <r>   -32.5025     0.0000     6.0000 </r>
       <r>   -32.3404     0.0000     6.0000 </r>
       <r>   -32.1783     0.0000     6.0000 </r>
       <r>   -32.0162     0.0000     6.0000 </r>
       <r>   -31.8541     0.0000     6.0000 </r>
       <r>   -31.6920     0.0000     6.0000 </r>
       <r>   -31.5299     0.0000     6.0000 </r>
       <r>   -31.3678     0.0000     6.0000 </r>
       <r>   -31.2057     0.0000     6.0000 </r>
       <r>   -31.0436     0.0000     6.0000 </r>
       <r>   -30.8815     0.0000     6.0000 </r>
       <r>   -30.7194     0.0000     6.0000 </r>
       <r>   -30.5573     0.0000     6.0000 </r>
       <r>   -30.3952     0.0000     6.0000 </r>
       <r>   -30.2331     0.0000     6.0000 </r>
       <r>   -30.0710     0.0000     6.0000 </r>
       <r>   -29.9089     0.0000     6.0000 </r>
       <r>   -29.7468     0.0000     6.0000 </r>
       <r>   -29.5848     0.0000     6.0000 </r>
       <r>   -29.4227     0.0000     6.0000 </r>
       <r>   -29.2606     0.0000     6.0000 </r>
       <r>   -29.0985     0.0000     6.0000 </r>
       <r>   -28.9364     0.0000     6.0000 </r>
       <r>   -28.7743     0.0000     6.0000 </r>
       <r>   -28.6122     0.0000     6.0000 </r>
       <r>   -28.4501     0.0000     6.0000 </r>
       <r>   -28.2880     0.0000     6.0000 </r>
       <r>   -28.1259     0.0000     6.0000 </r>
       <r>   -27.9638     0.0000     6.0000 </r>
       <r>   -27.8017     0.0000     6.0000 </r>
       <r>   -27.6396     0.0000     6.0000 </r>
       <r>   -27.4775     0.0000     6.0000 </r>
       <r>   -27.3154     0.0000     6.0000 </r>
       <r>   -27.1533     0.0000     6.0000 </r>
       <r>   -26.9912     0.0000     6.0000 </r>
       <r>   -26.8291     0.0000     6.0000 </r>
       <r>   -26.6670     0.0000     6.0000 </r>
       <r>   -26.5049     0.0000     6.0000 </r>
       <r>   -26.3429     0.0000     6.0000 </r>
       <r>   -26.1808     0.0000     6.0000 </r>
       <r>   -26.0187     0.0000     6.0000 </r>
       <r>   -25.8566     0.0000     6.0000 </r>
       <r>   -25.6945     0.0000     6.0000 </r>
       <r>   -25.5324     0.0000     6.0000 </r>
       <r>   -25.3703     0.0000     6.0000 </r>
       <r>   -25.2082     0.0000     6.0000 </r>
       <r>   -25.0461     0.0000     6.0000 </r>
       <r>   -24.8840     0.0000     6.0000 </r>
       <r>   -24.7219     0.0000     6.0000 </r>
       <r>   -24.5598     0.0000     6.0000 </r>
       <r>   -24.3977     0.0000     6.0000 </r>
       <r>   -24.2356     0.0000     6.0000 </r>
       <r>   -24.0735     0.0000     6.0000 </r>
       <r>   -23.9114     0.0000     6.0000 </r>
       <r>   -23.7493     0.0000     6.0000 </r>
       <r>   -23.5872     0.0000     6.0000 </r>
       <r>   -23.4251     0.0000     6.0000 </r>
       <r>   -23.2630     0.0000     6.0000 </r>
       <r>   -23.1010     0.0000     6.0000 </r>
       <r>   -22.9389     0.0000     6.0000 </r>
       <r>   -22.7768     0.0000     6.0000 </r>
       <r>   -22.6147     0.0000     6.0000 </r>
       <r>   -22.4526     0.0000     6.0000 </r>
       <r>   -22.2905     0.0000     6.0000 </r>
       <r>   -22.1284     0.0000     6.0000 </r>
       <r>   -21.9663     0.0000     6.0000 </r>
       <r>   -21.8042     0.0000     6.0000 </r>
       <r>   -21.6421     0.0000     6.0000 </r>
       <r>   -21.4800     0.0000     6.0000 </r>
       <r>   -21.3179     0.0000     6.0000 </r>
       <r>   -21.1558     0.0000     6.0000 </r>
       <r>   -20.9937     0.0000     6.0000 </r>
       <r>   -20.8316     0.0000     6.0000 </r>
       <r>   -20.6695     0.0000     6.0000 </r>
       <r>   -20.5074     0.0000     6.0000 </r>
       <r>   -20.3453     0.0000     6.0000 </r>
       <r>   -20.1832     0.0000     6.0000 </r>
       <r>   -20.0211     0.0000     6.0000 </r>
       <r>   -19.8591     0.0000     6.0000 </r>
       <r>   -19.6970     0.0000     6.0000 </r>
       <r>   -19.5349     0.0000     6.0000 </r>
       <r>   -19.3728     0.0000     6.0000 </r>
       <r>   -19.2107     0.0000     6.0000 </r>
       <r>   -19.0486     0.0000     6.0000 </r>
       <r>   -18.8865     0.0000     6.0000 </r>
       <r>   -18.7244     0.0000     6.0000 </r>
       <r>   -18.5623     0.0000     6.0000 </r>
       <r>   -18.4002     0.0000     6.0000 </r>
       <r>   -18.2381     0.0000     6.0000 </r>
       <r>   -18.0760     0.0000     6.0000 </r>
       <r>   -17.9139     0.0000     6.0000 </r>
       <r>   -17.7518     0.0000     6.0000 </r>
       <r>   -17.5897     0.0000     6.0000 </r>
       <r>   -17.4276     0.0000     6.0000 </r>
       <r>   -17.2655     0.0000     6.0000 </r>
       <r>   -17.1034     0.0000     6.0000 </r>
       <r>   -16.9413     0.0000     6.0000 </r>
       <r>   -16.7792     0.0000     6.0000 </r>
       <r>   -16.6172     0.0000     6.0000 </r>
       <r>   -16.4551     0.0000     6.0000 </r>
       <r>   -16.2930     0.0000     6.0000 </r>
       <r>   -16.1309     0.0000     6.0000 </r>
       <r>   -15.9688     0.0000     6.0000 </r>
       <r>   -15.8067     0.0000     6.0000 </r>
       <r>   -15.6446     0.0000     6.0000 </r>
       <r>   -15.4825     0.0000     6.0000 </r>
       <r>   -15.3204     0.0000     6.0000 </r>
       <r>   -15.1583     0.0000     6.0000 </r>
       <r>   -14.9962     0.0000     6.0000 </r>
       <r>   -14.8341    -0.0000     6.0000 </r>
       <r>   -14.6720    -0.0000     6.0000 </r>
       <r>   -14.5099    -0.0000     6.0000 </r>
       <r>   -14.3478    -0.0000     6.0000 </r>
       <r>   -14.1857    -0.0002     6.0000 </r>
       <r>   -14.0236    -0.0053     5.9991 </r>
       <r>   -13.8615     0.2787     6.0443 </r>
       <r>   -13.6994     0.4535     6.1178 </r>
       <r>   -13.5373     0.6219     6.2186 </r>
       <r>   -13.3753     0.4986     6.2994 </r>
       <r>   -13.2132     0.7194     6.4160 </r>
       <r>   -13.0511     0.3394     6.4710 </r>
       <r>   -12.8890     1.0949     6.6485 </r>
       <r>   -12.7269     0.4268     6.7177 </r>
       <r>   -12.5648     1.8372     7.0155 </r>
       <r>   -12.4027     2.1941     7.3712 </r>
       <r>   -12.2406     2.9565     7.8504 </r>
       <r>   -12.0785     3.9373     8.4886 </r>
       <r>   -11.9164     5.6157     9.3989 </r>
       <r>   -11.7543     3.6039     9.9831 </r>
       <r>   -11.5922     0.1142    10.0016 </r>
       <r>   -11.4301    -0.0097    10.0000 </r>
       <r>   -11.2680    -0.0000    10.0000 </r>
       <r>   -11.1059    -0.0000    10.0000 </r>
       <r>   -10.9438     0.0000    10.0000 </r>
       <r>   -10.7817     0.0000    10.0000 </r>
       <r>   -10.6196     0.0000    10.0000 </r>
       <r>   -10.4575     0.0000    10.0000 </r>
       <r>   -10.2954     0.0000    10.0000 </r>
       <r>   -10.1334     0.0000    10.0000 </r>
       <r>    -9.9713     0.0000    10.0000 </r>
       <r>    -9.8092     0.0000    10.0000 </r>
       <r>    -9.6471     0.0000    10.0000 </r>
       <r>    -9.4850     0.0000    10.0000 </r>
       <r>    -9.3229     0.0000    10.0000 </r>
       <r>    -9.1608     0.0000    10.0000 </r>
       <r>    -8.9987     0.0000    10.0000 </r>
       <r>    -8.8366     0.0000    10.0000 </r>
       <r>    -8.6745     0.0000    10.0000 </r>
       <r>    -8.5124     0.0000    10.0000 </r>
       <r>    -8.3503     0.0000    10.0000 </r>
       <r>    -8.1882     0.0000    10.0000 </r>
       <r>    -8.0261     0.0000    10.0000 </r>
       <r>    -7.8640     0.0000    10.0000 </r>
       <r>    -7.7019     0.0000    10.0000 </r>
       <r>    -7.5398     0.0000    10.0000 </r>
       <r>    -7.3777     0.0000    10.0000 </r>
       <r>    -7.2156     0.0000    10.0000 </r>
       <r>    -7.0535     0.0000    10.0000 </r>
       <r>    -6.8915     0.0000    10.0000 </r>
       <r>    -6.7294     0.0000    10.0000 </r>
       <r>    -6.5673    -0.0000    10.0000 </r>
       <r>    -6.4052    -0.0000    10.0000 </r>
       <r>    -6.2431    -0.0000    10.0000 </r>
       <r>    -6.0810    -0.0000    10.0000 </r>
       <r>    -5.9189    -0.0005     9.9999 </r>
       <r>    -5.7568    -0.0182     9.9970 </r>
       <r>    -5.5947     0.7283    10.1150 </r>
       <r>    -5.4326     1.3045    10.3265 </r>
       <r>    -5.2705     2.2253    10.6872 </r>
       <r>    -5.1084     2.9896    11.1718 </r>
       <r>    -4.9463     4.7989    11.9497 </r>
       <r>    -4.7842     2.4938    12.3539 </r>
       <r>    -4.6221     2.4767    12.7553 </r>
       <r>    -4.4600     1.2316    12.9550 </r>
       <r>    -4.2979     0.4615    13.0298 </r>
       <r>    -4.1358     0.7811    13.1564 </r>
       <r>    -3.9737     2.1800    13.5098 </r>
       <r>    -3.8117     4.0727    14.1699 </r>
       <r>    -3.6496     4.3051    14.8678 </r>
       <r>    -3.4875     2.8431    15.3286 </r>
       <r>    -3.3254     1.1320    15.5121 </r>
       <r>    -3.1633     3.8238    16.1320 </r>
       <r>    -3.0012     5.2165    16.9775 </r>
       <r>    -2.8391     2.8755    17.4436 </r>
       <r>    -2.6770     1.6171    17.7058 </r>
       <r>    -2.5149     1.0568    17.8771 </r>
       <r>    -2.3528     1.9348    18.1907 </r>
       <r>    -2.1907     1.8447    18.4897 </r>
       <r>    -2.0286     3.4635    19.0511 </r>
       <r>    -1.8665     3.6080    19.6359 </r>
       <r>    -1.7044     2.9577    20.1154 </r>
       <r>    -1.5423     2.9437    20.5925 </r>
       <r>    -1.3802     3.5282    21.1644 </r>
       <r>    -1.2181     1.4846    21.4051 </r>
       <r>    -1.0560     2.0755    21.7415 </r>
       <r>    -0.8939     1.8756    22.0455 </r>
       <r>    -0.7318     3.6864    22.6431 </r>
       <r>    -0.5698     2.8492    23.1049 </r>
       <r>    -0.4077     2.2082    23.4628 </r>
       <r>    -0.2456     1.8538    23.7633 </r>
       <r>    -0.0835     0.9171    23.9120 </r>
       <r>     0.0786     0.2965    23.9600 </r>
       <r>     0.2407     0.2310    23.9975 </r>
       <r>     0.4028     0.0165    24.0002 </r>
       <r>     0.5649    -0.0010    24.0000 </r>
       <r>     0.7270    -0.0000    24.0000 </r>
       <r>     0.8891    -0.0000    24.0000 </r>
       <r>     1.0512    -0.0000    24.0000 </r>
       <r>     1.2133    -0.0000    24.0000 </r>
       <r>     1.3754    -0.0000    24.0000 </r>
       <r>     1.5375    -0.0148    23.9976 </r>
       <r>     1.6996     0.2977    24.0459 </r>
       <r>     1.8617     1.4096    24.2743 </r>
       <r>     2.0238     3.0729    24.7724 </r>
       <r>     2.1859     5.2475    25.6230 </r>
       <r>     2.3480     3.6246    26.2106 </r>
       <r>     2.5101     5.0405    27.0276 </r>
       <r>     2.6721     4.6788    27.7860 </r>
       <r>     2.8342     3.3403    28.3275 </r>
       <r>     2.9963     2.7677    28.7761 </r>
       <r>     3.1584     2.7409    29.2204 </r>
       <r>     3.3205     2.2388    29.5833 </r>
       <r>     3.4826     1.6651    29.8532 </r>
       <r>     3.6447     2.0867    30.1914 </r>
       <r>     3.8068     0.9244    30.3413 </r>
       <r>     3.9689     2.0382    30.6716 </r>
       <r>     4.1310     2.3838    31.0580 </r>
       <r>     4.2931     2.6180    31.4824 </r>
       <r>     4.4552     1.5708    31.7370 </r>
       <r>     4.6173     0.8558    31.8757 </r>
       <r>     4.7794     0.6474    31.9807 </r>
       <r>     4.9415     0.1259    32.0011 </r>
       <r>     5.1036    -0.0070    32.0000 </r>
       <r>     5.2657     0.0017    32.0002 </r>
       <r>     5.4278     0.1396    32.0229 </r>
       <r>     5.5899     0.3239    32.0754 </r>
       <r>     5.7520     0.3279    32.1285 </r>
       <r>     5.9140     0.5855    32.2234 </r>
       <r>     6.0761     0.4939    32.3035 </r>
       <r>     6.2382     0.7273    32.4214 </r>
       <r>     6.4003     1.0607    32.5933 </r>
       <r>     6.5624     0.8266    32.7273 </r>
       <r>     6.7245     0.9155    32.8757 </r>
       <r>     6.8866     1.7497    33.1593 </r>
       <r>     7.0487     1.6010    33.4188 </r>
       <r>     7.2108     0.7907    33.5470 </r>
       <r>     7.3729     1.8340    33.8443 </r>
       <r>     7.5350     1.9196    34.1554 </r>
       <r>     7.6971     0.7782    34.2816 </r>
       <r>     7.8592     1.2222    34.4797 </r>
       <r>     8.0213     1.2219    34.6777 </r>
       <r>     8.1834     2.3179    35.0535 </r>
       <r>     8.3455     2.3438    35.4334 </r>
       <r>     8.5076     0.9885    35.5936 </r>
       <r>     8.6697     0.8889    35.7377 </r>
       <r>     8.8318     0.8530    35.8760 </r>
       <r>     8.9939     0.4361    35.9467 </r>
       <r>     9.1559     0.3426    36.0022 </r>
       <r>     9.3180    -0.0135    36.0000 </r>
       <r>     9.4801    -0.0001    36.0000 </r>
       <r>     9.6422    -0.0000    36.0000 </r>
       <r>     9.8043    -0.0000    36.0000 </r>
       <r>     9.9664     0.0000    36.0000 </r>
       <r>    10.1285     0.0000    36.0000 </r>
       <r>    10.2906     0.0000    36.0000 </r>
       <r>    10.4527     0.0000    36.0000 </r>
       <r>    10.6148     0.0000    36.0000 </r>
       <r>    10.7769     0.0000    36.0000 </r>
       <r>    10.9390     0.0000    36.0000 </r>
       <r>    11.1011     0.0000    36.0000 </r>
       <r>    11.2632     0.0000    36.0000 </r>
      </set>
     </set>
    </array>
   </total>
  </dos>
 </calculation>
 <structure name="finalpos" >
  <crystal>
   <varray name="basis" >
    <v>       3.19031700       0.00000000       0.00000000 </v>
    <v>      -1.59515800       2.76289700       0.00000000 </v>
    <v>       0.00000000       0.00000000      23.14049200 </v>
   </varray>
   <i name="volume">    203.97226633 </i>
   <varray name="rec_basis" >
    <v>       0.31344848       0.18096941       0.00000000 </v>
    <v>       0.00000000       0.36193894       0.00000000 </v>
    <v>       0.00000000       0.00000000       0.04321429 </v>
   </varray>
  </crystal>
  <varray name="positions" >
   <v>       0.66666700       0.33333300       0.06785900 </v>
   <v>       0.33333300       0.66666700       0.00000000 </v>
   <v>       0.33333300       0.66666700       0.13571500 </v>
   <v>       0.80952414       0.19047586       0.35482300 </v>
   <v>       0.47619014       0.52380986       0.28696500 </v>
   <v>       0.47619014       0.52380986       0.42267900 </v>
  </varray>
 </structure>
</modeling>
