  24  24   0   0
  0.4176334E+02  0.3540400E-09  0.1044544E-08  0.2750143E-08  0.5000000E-15
  1.000000000000000E-004
  CAR 
 unknown system                          
      4.14001068    -15.30734117  301      0.20575298      1.00000000
    -15.307  0.0000E+00  0.0000E+00
    -15.243  0.0000E+00  0.0000E+00
    -15.178  0.0000E+00  0.0000E+00
    -15.113  0.0000E+00  0.0000E+00
    -15.048  0.0000E+00  0.0000E+00
    -14.983  0.0000E+00  0.0000E+00
    -14.918  0.0000E+00  0.0000E+00
    -14.854  0.6653E-14  0.4313E-15
    -14.789  0.6269E-11  0.4068E-12
    -14.724  0.2601E-08  0.1690E-09
    -14.659  0.4791E-06  0.3123E-07
    -14.594  0.3960E-04  0.2599E-05
    -14.529  0.1492E-02  0.9932E-04
    -14.465  0.2623E-01  0.1800E-02
    -14.400  0.2223E+00  0.1621E-01
    -14.335  0.9407E+00  0.7719E-01
    -14.270  0.2047E+01  0.2099E+00
    -14.205  0.2394E+01  0.3651E+00
    -14.141  0.1928E+01  0.4901E+00
    -14.076  0.1841E+01  0.6094E+00
    -14.011  0.1583E+01  0.7120E+00
    -13.946  0.8046E+00  0.7642E+00
    -13.881  0.6508E+00  0.8064E+00
    -13.816  0.1348E+01  0.8938E+00
    -13.752  0.1638E+01  0.9999E+00
    -13.687  0.9255E+00  0.1060E+01
    -13.622  0.2929E+00  0.1079E+01
    -13.557  0.4370E+00  0.1107E+01
    -13.492  0.1584E+01  0.1210E+01
    -13.427  0.3205E+01  0.1418E+01
    -13.363  0.3667E+01  0.1655E+01
    -13.298  0.3258E+01  0.1867E+01
    -13.233  0.3378E+01  0.2086E+01
    -13.168  0.3653E+01  0.2322E+01
    -13.103  0.3899E+01  0.2575E+01
    -13.038  0.4616E+01  0.2874E+01
    -12.974  0.5319E+01  0.3219E+01
    -12.909  0.5360E+01  0.3567E+01
    -12.844  0.4981E+01  0.3889E+01
    -12.779  0.4554E+01  0.4185E+01
    -12.714  0.4711E+01  0.4490E+01
    -12.650  0.5719E+01  0.4861E+01
    -12.585  0.6232E+01  0.5265E+01
    -12.520  0.5733E+01  0.5636E+01
    -12.455  0.5678E+01  0.6005E+01
    -12.390  0.6450E+01  0.6423E+01
    -12.325  0.6526E+01  0.6846E+01
    -12.261  0.5611E+01  0.7209E+01
    -12.196  0.4727E+01  0.7516E+01
    -12.131  0.4224E+01  0.7790E+01
    -12.066  0.4732E+01  0.8096E+01
    -12.001  0.6709E+01  0.8531E+01
    -11.936  0.8233E+01  0.9065E+01
    -11.872  0.7288E+01  0.9538E+01
    -11.807  0.5608E+01  0.9901E+01
    -11.742  0.5427E+01  0.1025E+02
    -11.677  0.6548E+01  0.1068E+02
    -11.612  0.7929E+01  0.1119E+02
    -11.548  0.8532E+01  0.1174E+02
    -11.483  0.8835E+01  0.1232E+02
    -11.418  0.9350E+01  0.1292E+02
    -11.353  0.8958E+01  0.1350E+02
    -11.288  0.8521E+01  0.1406E+02
    -11.223  0.9206E+01  0.1465E+02
    -11.159  0.9561E+01  0.1527E+02
    -11.094  0.9250E+01  0.1587E+02
    -11.029  0.9380E+01  0.1648E+02
    -10.964  0.9275E+01  0.1708E+02
    -10.899  0.8958E+01  0.1766E+02
    -10.834  0.9636E+01  0.1829E+02
    -10.770  0.1150E+02  0.1903E+02
    -10.705  0.1192E+02  0.1981E+02
    -10.640  0.9634E+01  0.2043E+02
    -10.575  0.7264E+01  0.2090E+02
    -10.510  0.5404E+01  0.2125E+02
    -10.446  0.3917E+01  0.2151E+02
    -10.381  0.3515E+01  0.2173E+02
    -10.316  0.2671E+01  0.2191E+02
    -10.251  0.1165E+01  0.2198E+02
    -10.186  0.3693E+00  0.2201E+02
    -10.121  0.8300E+00  0.2206E+02
    -10.057  0.2952E+01  0.2225E+02
     -9.992  0.6081E+01  0.2265E+02
     -9.927  0.7902E+01  0.2316E+02
     -9.862  0.7097E+01  0.2362E+02
     -9.797  0.4200E+01  0.2389E+02
     -9.732  0.1427E+01  0.2398E+02
     -9.668  0.2493E+00  0.2400E+02
     -9.603  0.2103E-01  0.2400E+02
     -9.538  0.8277E-03  0.2400E+02
     -9.473  0.1491E-04  0.2400E+02
     -9.408  0.1328E-06  0.2400E+02
     -9.343  0.1483E-05  0.2400E+02
     -9.279  0.8764E-04  0.2400E+02
     -9.214  0.2458E-02  0.2400E+02
     -9.149  0.3458E-01  0.2400E+02
     -9.084  0.2651E+00  0.2402E+02
     -9.019  0.1204E+01  0.2410E+02
     -8.955  0.3390E+01  0.2432E+02
     -8.890  0.6140E+01  0.2472E+02
     -8.825  0.8063E+01  0.2524E+02
     -8.760  0.9430E+01  0.2585E+02
     -8.695  0.1066E+02  0.2654E+02
     -8.630  0.1022E+02  0.2720E+02
     -8.566  0.7458E+01  0.2769E+02
     -8.501  0.4819E+01  0.2800E+02
     -8.436  0.4387E+01  0.2828E+02
     -8.371  0.5265E+01  0.2862E+02
     -8.306  0.5218E+01  0.2896E+02
     -8.241  0.3763E+01  0.2921E+02
     -8.177  0.2728E+01  0.2938E+02
     -8.112  0.3509E+01  0.2961E+02
     -8.047  0.5211E+01  0.2995E+02
     -7.982  0.5774E+01  0.3032E+02
     -7.917  0.5673E+01  0.3069E+02
     -7.853  0.6339E+01  0.3110E+02
     -7.788  0.6832E+01  0.3154E+02
     -7.723  0.6298E+01  0.3195E+02
     -7.658  0.5071E+01  0.3228E+02
     -7.593  0.4227E+01  0.3256E+02
     -7.528  0.4289E+01  0.3283E+02
     -7.464  0.5068E+01  0.3316E+02
     -7.399  0.6701E+01  0.3360E+02
     -7.334  0.8593E+01  0.3415E+02
     -7.269  0.9538E+01  0.3477E+02
     -7.204  0.9818E+01  0.3541E+02
     -7.139  0.1054E+02  0.3609E+02
     -7.075  0.1059E+02  0.3678E+02
     -7.010  0.8574E+01  0.3733E+02
     -6.945  0.6609E+01  0.3776E+02
     -6.880  0.5690E+01  0.3813E+02
     -6.815  0.5249E+01  0.3847E+02
     -6.751  0.6559E+01  0.3890E+02
     -6.686  0.1010E+02  0.3955E+02
     -6.621  0.1315E+02  0.4040E+02
     -6.556  0.1227E+02  0.4120E+02
     -6.491  0.8453E+01  0.4175E+02
     -6.426  0.5204E+01  0.4208E+02
     -6.362  0.3700E+01  0.4232E+02
     -6.297  0.3903E+01  0.4258E+02
     -6.232  0.5453E+01  0.4293E+02
     -6.167  0.6830E+01  0.4337E+02
     -6.102  0.6393E+01  0.4379E+02
     -6.037  0.4898E+01  0.4411E+02
     -5.973  0.4716E+01  0.4441E+02
     -5.908  0.6325E+01  0.4482E+02
     -5.843  0.7628E+01  0.4532E+02
     -5.778  0.7673E+01  0.4581E+02
     -5.713  0.7412E+01  0.4629E+02
     -5.648  0.7646E+01  0.4679E+02
     -5.584  0.9093E+01  0.4738E+02
     -5.519  0.1004E+02  0.4803E+02
     -5.454  0.7665E+01  0.4853E+02
     -5.389  0.4417E+01  0.4881E+02
     -5.324  0.3892E+01  0.4906E+02
     -5.260  0.4424E+01  0.4935E+02
     -5.195  0.3922E+01  0.4961E+02
     -5.130  0.3472E+01  0.4983E+02
     -5.065  0.3826E+01  0.5008E+02
     -5.000  0.5364E+01  0.5043E+02
     -4.935  0.7775E+01  0.5093E+02
     -4.871  0.9410E+01  0.5154E+02
     -4.806  0.9566E+01  0.5216E+02
     -4.741  0.8753E+01  0.5273E+02
     -4.676  0.8207E+01  0.5326E+02
     -4.611  0.8965E+01  0.5384E+02
     -4.546  0.1059E+02  0.5453E+02
     -4.482  0.1232E+02  0.5533E+02
     -4.417  0.1253E+02  0.5614E+02
     -4.352  0.1135E+02  0.5687E+02
     -4.287  0.1110E+02  0.5759E+02
     -4.222  0.1177E+02  0.5836E+02
     -4.158  0.1143E+02  0.5910E+02
     -4.093  0.1042E+02  0.5977E+02
     -4.028  0.1041E+02  0.6045E+02
     -3.963  0.1143E+02  0.6119E+02
     -3.898  0.1237E+02  0.6199E+02
     -3.833  0.1174E+02  0.6275E+02
     -3.769  0.1027E+02  0.6342E+02
     -3.704  0.1064E+02  0.6411E+02
     -3.639  0.1307E+02  0.6495E+02
     -3.574  0.1439E+02  0.6589E+02
     -3.509  0.1258E+02  0.6670E+02
     -3.444  0.1037E+02  0.6737E+02
     -3.380  0.1044E+02  0.6805E+02
     -3.315  0.1249E+02  0.6886E+02
     -3.250  0.1452E+02  0.6980E+02
     -3.185  0.1480E+02  0.7076E+02
     -3.120  0.1450E+02  0.7170E+02
     -3.056  0.1568E+02  0.7272E+02
     -2.991  0.1690E+02  0.7381E+02
     -2.926  0.1654E+02  0.7489E+02
     -2.861  0.1522E+02  0.7587E+02
     -2.796  0.1420E+02  0.7679E+02
     -2.731  0.1429E+02  0.7772E+02
     -2.667  0.1460E+02  0.7867E+02
     -2.602  0.1421E+02  0.7959E+02
     -2.537  0.1376E+02  0.8048E+02
     -2.472  0.1383E+02  0.8137E+02
     -2.407  0.1413E+02  0.8229E+02
     -2.342  0.1420E+02  0.8321E+02
     -2.278  0.1350E+02  0.8409E+02
     -2.213  0.1237E+02  0.8489E+02
     -2.148  0.1228E+02  0.8568E+02
     -2.083  0.1275E+02  0.8651E+02
     -2.018  0.1295E+02  0.8735E+02
     -1.953  0.1465E+02  0.8830E+02
     -1.889  0.1733E+02  0.8942E+02
     -1.824  0.1912E+02  0.9066E+02
     -1.759  0.2023E+02  0.9197E+02
     -1.694  0.1973E+02  0.9325E+02
     -1.629  0.1618E+02  0.9430E+02
     -1.565  0.1195E+02  0.9508E+02
     -1.500  0.1065E+02  0.9577E+02
     -1.435  0.1217E+02  0.9656E+02
     -1.370  0.1398E+02  0.9746E+02
     -1.305  0.1485E+02  0.9843E+02
     -1.240  0.1478E+02  0.9938E+02
     -1.176  0.1409E+02  0.1003E+03
     -1.111  0.1308E+02  0.1011E+03
     -1.046  0.1368E+02  0.1020E+03
     -0.981  0.1472E+02  0.1030E+03
     -0.916  0.1306E+02  0.1038E+03
     -0.851  0.9737E+01  0.1045E+03
     -0.787  0.6977E+01  0.1049E+03
     -0.722  0.5527E+01  0.1053E+03
     -0.657  0.5285E+01  0.1056E+03
     -0.592  0.4889E+01  0.1059E+03
     -0.527  0.3618E+01  0.1062E+03
     -0.463  0.2602E+01  0.1063E+03
     -0.398  0.2206E+01  0.1065E+03
     -0.333  0.2706E+01  0.1067E+03
     -0.268  0.3671E+01  0.1069E+03
     -0.203  0.3227E+01  0.1071E+03
     -0.138  0.1539E+01  0.1072E+03
     -0.074  0.3935E+00  0.1072E+03
     -0.009  0.1907E+00  0.1072E+03
      0.056  0.9173E+00  0.1073E+03
      0.121  0.3087E+01  0.1075E+03
      0.186  0.5695E+01  0.1079E+03
      0.251  0.6480E+01  0.1083E+03
      0.315  0.6251E+01  0.1087E+03
      0.380  0.6763E+01  0.1091E+03
      0.445  0.7159E+01  0.1096E+03
      0.510  0.6920E+01  0.1100E+03
      0.575  0.6165E+01  0.1104E+03
      0.639  0.4764E+01  0.1108E+03
      0.704  0.4262E+01  0.1110E+03
      0.769  0.5312E+01  0.1114E+03
      0.834  0.6089E+01  0.1118E+03
      0.899  0.5725E+01  0.1121E+03
      0.964  0.5254E+01  0.1125E+03
      1.028  0.5671E+01  0.1128E+03
      1.093  0.7418E+01  0.1133E+03
      1.158  0.8906E+01  0.1139E+03
      1.223  0.9271E+01  0.1145E+03
      1.288  0.9591E+01  0.1151E+03
      1.353  0.1012E+02  0.1158E+03
      1.417  0.1111E+02  0.1165E+03
      1.482  0.1160E+02  0.1173E+03
      1.547  0.1148E+02  0.1180E+03
      1.612  0.1179E+02  0.1188E+03
      1.677  0.1206E+02  0.1195E+03
      1.742  0.1216E+02  0.1203E+03
      1.806  0.1275E+02  0.1212E+03
      1.871  0.1292E+02  0.1220E+03
      1.936  0.1232E+02  0.1228E+03
      2.001  0.1198E+02  0.1236E+03
      2.066  0.1182E+02  0.1243E+03
      2.130  0.1233E+02  0.1251E+03
      2.195  0.1396E+02  0.1260E+03
      2.260  0.1586E+02  0.1271E+03
      2.325  0.1647E+02  0.1281E+03
      2.390  0.1496E+02  0.1291E+03
      2.455  0.1314E+02  0.1300E+03
      2.519  0.1227E+02  0.1308E+03
      2.584  0.1154E+02  0.1315E+03
      2.649  0.1095E+02  0.1322E+03
      2.714  0.1101E+02  0.1329E+03
      2.779  0.1089E+02  0.1336E+03
      2.844  0.9445E+01  0.1342E+03
      2.908  0.7378E+01  0.1347E+03
      2.973  0.6336E+01  0.1351E+03
      3.038  0.5611E+01  0.1355E+03
      3.103  0.4144E+01  0.1358E+03
      3.168  0.2372E+01  0.1359E+03
      3.232  0.9316E+00  0.1360E+03
      3.297  0.2150E+00  0.1360E+03
      3.362  0.2600E-01  0.1360E+03
      3.427  0.1534E-02  0.1360E+03
      3.492  0.4224E-04  0.1360E+03
      3.557  0.5294E-06  0.1360E+03
      3.621  0.2973E-08  0.1360E+03
      3.686  0.7406E-11  0.1360E+03
      3.751  0.8036E-14  0.1360E+03
      3.816  0.0000E+00  0.1360E+03
      3.881  0.0000E+00  0.1360E+03
      3.946  0.0000E+00  0.1360E+03
      4.010  0.0000E+00  0.1360E+03
      4.075  0.0000E+00  0.1360E+03
      4.140  0.0000E+00  0.1360E+03
