   24   24    1    1
  0.4176334E+02  0.3540400E-09  0.1044544E-08  0.2750143E-08  0.5000000E-15
  1.000000000000000E-004
  CAR 
 unknown system                          
    108     54     68
 
  0.0000000E+00  0.0000000E+00  0.0000000E+00  0.9615385E-02
    1      -14.307341
    2      -13.502119
    3      -13.106042
    4      -12.899979
    5      -12.762982
    6      -12.443263
    7      -12.049852
    8      -11.758046
    9      -11.514372
   10      -11.395221
   11      -10.953767
   12      -10.063643
   13       -8.703285
   14       -7.996993
   15       -7.915317
   16       -7.789388
   17       -7.192418
   18       -6.794248
   19       -6.456812
   20       -6.228125
   21       -5.883339
   22       -5.791803
   23       -5.568330
   24       -4.717257
   25       -4.586952
   26       -4.301164
   27       -3.688960
   28       -3.605058
   29       -3.372108
   30       -3.137284
   31       -3.026322
   32       -3.016104
   33       -2.807014
   34       -2.657020
   35       -2.580196
   36       -2.427286
   37       -2.415689
   38       -2.344578
   39       -2.255247
   40       -2.167700
   41       -2.034391
   42       -1.848518
   43       -1.733372
   44       -1.691379
   45       -1.604516
   46       -1.547895
   47       -1.415461
   48       -1.394409
   49       -1.252109
   50       -1.052258
   51       -0.978792
   52       -0.853706
   53       -0.342384
   54        0.190919
   55        0.582694
   56        0.677819
   57        1.096693
   58        1.248695
   59        1.337646
   60        1.380770
   61        1.628005
   62        1.662872
   63        1.795445
   64        1.990173
   65        2.036409
   66        2.220195
   67        2.382057
   68        2.470873
 
  0.7692308E-01 -0.1387779E-16  0.0000000E+00  0.1923077E-01
    1      -14.250225
    2      -13.440764
    3      -13.055814
    4      -12.835786
    5      -12.710829
    6      -12.387659
    7      -11.987639
    8      -11.720651
    9      -11.453846
   10      -11.346303
   11      -10.905385
   12      -10.035761
   13       -8.681575
   14       -8.030862
   15       -7.906072
   16       -7.750898
   17       -7.170344
   18       -6.761245
   19       -6.451016
   20       -6.256352
   21       -6.005327
   22       -5.758801
   23       -5.562922
   24       -4.747883
   25       -4.697838
   26       -4.268050
   27       -3.780167
   28       -3.696431
   29       -3.578264
   30       -3.388713
   31       -3.255120
   32       -3.215018
   33       -3.107607
   34       -2.970635
   35       -2.775035
   36       -2.700094
   37       -2.595978
   38       -2.449055
   39       -2.368581
   40       -2.201411
   41       -2.120376
   42       -2.009038
   43       -1.928618
   44       -1.853556
   45       -1.805643
   46       -1.716514
   47       -1.488637
   48       -1.409281
   49       -1.218969
   50       -1.018947
   51       -0.981165
   52       -0.823418
   53       -0.352078
   54        0.377687
   55        0.567376
   56        0.784202
   57        1.095007
   58        1.414521
   59        1.609492
   60        1.796466
   61        1.823929
   62        1.936980
   63        2.168931
   64        2.244239
   65        2.271438
   66        2.374814
   67        2.519722
   68        2.658625
 
  0.1538462E+00 -0.2775558E-16  0.0000000E+00  0.1923077E-01
    1      -14.080551
    2      -13.257770
    3      -12.904072
    4      -12.648328
    5      -12.555079
    6      -12.222891
    7      -11.805366
    8      -11.608032
    9      -11.283138
   10      -11.204371
   11      -10.766571
   12       -9.963037
   13       -8.633259
   14       -8.126705
   15       -7.900383
   16       -7.708510
   17       -7.123801
   18       -6.686448
   19       -6.570526
   20       -6.461623
   21       -6.130665
   22       -5.685151
   23       -5.566609
   24       -5.101435
   25       -4.827454
   26       -4.457933
   27       -4.220952
   28       -4.141395
   29       -4.043058
   30       -3.925021
   31       -3.697803
   32       -3.653235
   33       -3.478570
   34       -3.328137
   35       -3.145486
   36       -3.057929
   37       -2.966491
   38       -2.928355
   39       -2.799530
   40       -2.622254
   41       -2.387240
   42       -2.348317
   43       -2.114769
   44       -1.934173
   45       -1.797409
   46       -1.739689
   47       -1.631208
   48       -1.337428
   49       -1.225574
   50       -1.079115
   51       -1.029042
   52       -0.810548
   53       -0.492874
   54        0.190270
   55        0.497283
   56        0.899561
   57        1.242931
   58        1.542986
   59        1.947011
   60        2.015174
   61        2.199543
   62        2.332202
   63        2.459773
   64        2.635144
   65        2.680475
   66        2.808215
   67        2.982976
   68        3.010891
 
  0.2307692E+00 -0.4163336E-16  0.0000000E+00  0.1923077E-01
    1      -13.804406
    2      -12.956714
    3      -12.651679
    4      -12.351418
    5      -12.298776
    6      -11.956217
    7      -11.518941
    8      -11.428762
    9      -11.033824
   10      -10.987607
   11      -10.563476
   12       -9.885665
   13       -8.624038
   14       -8.319361
   15       -8.015325
   16       -7.783270
   17       -7.154855
   18       -6.943748
   19       -6.654927
   20       -6.595589
   21       -6.343636
   22       -5.837143
   23       -5.700799
   24       -5.519444
   25       -5.299317
   26       -4.859259
   27       -4.772245
   28       -4.571966
   29       -4.485588
   30       -4.411408
   31       -4.190061
   32       -4.149576
   33       -3.836203
   34       -3.740448
   35       -3.533743
   36       -3.427471
   37       -3.113662
   38       -3.000206
   39       -2.957313
   40       -2.751541
   41       -2.553247
   42       -2.486405
   43       -2.396258
   44       -1.880896
   45       -1.804743
   46       -1.748820
   47       -1.691760
   48       -1.439531
   49       -1.304211
   50       -1.193727
   51       -1.093443
   52       -0.914848
   53       -0.760809
   54       -0.278139
   55        0.306787
   56        0.867676
   57        1.186970
   58        1.536555
   59        1.816249
   60        1.939021
   61        2.078398
   62        2.280742
   63        2.383040
   64        2.546004
   65        2.711918
   66        2.773232
   67        2.927449
   68        2.998689
 
  0.3076923E+00 -0.5551115E-16  0.0000000E+00  0.1923077E-01
    1      -13.435905
    2      -12.544906
    3      -12.308346
    4      -11.972030
    5      -11.950346
    6      -11.604598
    7      -11.231914
    8      -11.153599
    9      -10.781068
   10      -10.743656
   11      -10.377566
   12       -9.880797
   13       -8.732610
   14       -8.615157
   15       -8.306145
   16       -8.044928
   17       -7.379249
   18       -7.072354
   19       -6.957715
   20       -6.861945
   21       -6.856807
   22       -6.214023
   23       -6.123217
   24       -5.926681
   25       -5.761716
   26       -5.289358
   27       -5.165078
   28       -4.755704
   29       -4.673477
   30       -4.629966
   31       -4.479776
   32       -4.276698
   33       -4.183552
   34       -3.906844
   35       -3.611683
   36       -3.351447
   37       -3.202198
   38       -3.045769
   39       -2.943944
   40       -2.899314
   41       -2.724566
   42       -2.560293
   43       -2.439583
   44       -2.034705
   45       -1.874068
   46       -1.854140
   47       -1.730762
   48       -1.668283
   49       -1.522430
   50       -1.291706
   51       -1.189463
   52       -1.104407
   53       -0.963037
   54       -0.589871
   55        0.153908
   56        0.701002
   57        1.084285
   58        1.349697
   59        1.609671
   60        1.660768
   61        1.840365
   62        2.012185
   63        2.166036
   64        2.297995
   65        2.405719
   66        2.581662
   67        2.729303
   68        2.856113
 
  0.3846154E+00 -0.8326673E-16  0.0000000E+00  0.1923077E-01
    1      -13.009932
    2      -12.036578
    3      -11.905653
    4      -11.587519
    5      -11.531735
    6      -11.207439
    7      -11.084389
    8      -10.812686
    9      -10.703281
   10      -10.589574
   11      -10.417306
   12       -9.938316
   13       -8.835713
   14       -8.792029
   15       -8.632137
   16       -8.337459
   17       -7.753195
   18       -7.421473
   19       -7.390727
   20       -7.368118
   21       -7.075830
   22       -6.723201
   23       -6.622888
   24       -6.570727
   25       -5.926281
   26       -5.462038
   27       -5.171738
   28       -4.937057
   29       -4.589277
   30       -4.488902
   31       -4.308366
   32       -4.189359
   33       -4.062660
   34       -3.900194
   35       -3.674283
   36       -3.613302
   37       -3.284283
   38       -3.228996
   39       -3.126026
   40       -2.870515
   41       -2.742051
   42       -2.492825
   43       -2.435123
   44       -2.257076
   45       -2.115366
   46       -1.993080
   47       -1.904736
   48       -1.769333
   49       -1.718967
   50       -1.501459
   51       -1.368856
   52       -1.216834
   53       -0.997593
   54       -0.648400
   55        0.111664
   56        0.512181
   57        0.964293
   58        1.160861
   59        1.437252
   60        1.457157
   61        1.746587
   62        1.769039
   63        2.014633
   64        2.100702
   65        2.275101
   66        2.304646
   67        2.353231
   68        2.769299
 
  0.4615385E+00 -0.8326673E-16  0.0000000E+00  0.1923077E-01
    1      -12.639854
    2      -11.609452
    3      -11.462672
    4      -11.373956
    5      -11.109316
    6      -11.037577
    7      -10.907274
    8      -10.806432
    9      -10.779430
   10      -10.691170
   11      -10.596559
   12       -9.994698
   13       -8.912190
   14       -8.716768
   15       -8.649418
   16       -8.399695
   17       -8.070047
   18       -8.038970
   19       -7.649660
   20       -7.532195
   21       -7.303661
   22       -7.244015
   23       -7.142592
   24       -6.662022
   25       -5.940022
   26       -5.580073
   27       -4.918146
   28       -4.822975
   29       -4.495398
   30       -4.407139
   31       -4.214441
   32       -4.024957
   33       -3.920252
   34       -3.881598
   35       -3.792244
   36       -3.627020
   37       -3.534459
   38       -3.249113
   39       -3.217850
   40       -2.973932
   41       -2.740107
   42       -2.677302
   43       -2.597486
   44       -2.324649
   45       -2.185798
   46       -2.080101
   47       -2.018943
   48       -1.779771
   49       -1.745324
   50       -1.646557
   51       -1.467827
   52       -1.276761
   53       -1.014655
   54       -0.627031
   55        0.129723
   56        0.388400
   57        0.805998
   58        1.146773
   59        1.305382
   60        1.433090
   61        1.625150
   62        1.703276
   63        1.880491
   64        1.964981
   65        2.080884
   66        2.134465
   67        2.423015
   68        2.535098
 
  0.0000000E+00  0.2500000E+00  0.0000000E+00  0.1923077E-01
    1      -14.299531
    2      -13.446591
    3      -13.231027
    4      -12.937098
    5      -12.705290
    6      -12.441421
    7      -12.005670
    8      -11.833301
    9      -11.440840
   10      -11.310254
   11      -10.962442
   12      -10.043215
   13       -8.875702
   14       -8.475980
   15       -7.852304
   16       -7.350497
   17       -7.155654
   18       -6.632904
   19       -6.568269
   20       -6.197484
   21       -5.893013
   22       -5.714581
   23       -5.543248
   24       -4.620052
   25       -4.491957
   26       -4.196753
   27       -3.983551
   28       -3.590059
   29       -3.424004
   30       -3.288103
   31       -3.091246
   32       -3.065928
   33       -2.908881
   34       -2.694231
   35       -2.670374
   36       -2.412133
   37       -2.352189
   38       -2.309984
   39       -2.240511
   40       -2.150006
   41       -1.951538
   42       -1.928196
   43       -1.845593
   44       -1.746336
   45       -1.590038
   46       -1.488347
   47       -1.377336
   48       -1.325342
   49       -1.185142
   50       -1.042558
   51       -0.944019
   52       -0.876799
   53       -0.264753
   54        0.166827
   55        0.499494
   56        0.681840
   57        1.114648
   58        1.253325
   59        1.404096
   60        1.435678
   61        1.642507
   62        1.738406
   63        1.788076
   64        1.916687
   65        2.130855
   66        2.280721
   67        2.307268
   68        2.644986
 
  0.7692308E-01  0.2500000E+00  0.0000000E+00  0.1923077E-01
    1      -14.240809
    2      -13.369674
    3      -13.193621
    4      -12.918031
    5      -12.607254
    6      -12.384148
    7      -12.003198
    8      -11.734024
    9      -11.399478
   10      -11.228993
   11      -10.918107
   12      -10.012277
   13       -8.882551
   14       -8.534645
   15       -7.820920
   16       -7.306175
   17       -7.137754
   18       -6.641267
   19       -6.495767
   20       -6.220599
   21       -6.006467
   22       -5.665683
   23       -5.548538
   24       -4.662870
   25       -4.601008
   26       -4.182067
   27       -4.036320
   28       -3.690553
   29       -3.604204
   30       -3.502522
   31       -3.363966
   32       -3.324990
   33       -3.114039
   34       -2.995737
   35       -2.924221
   36       -2.657778
   37       -2.480904
   38       -2.441935
   39       -2.374824
   40       -2.270419
   41       -2.142801
   42       -2.060554
   43       -1.974873
   44       -1.816790
   45       -1.770668
   46       -1.708583
   47       -1.407407
   48       -1.333413
   49       -1.124042
   50       -1.041000
   51       -0.990852
   52       -0.912623
   53       -0.270463
   54        0.357739
   55        0.551738
   56        0.771285
   57        1.118217
   58        1.453163
   59        1.629989
   60        1.810331
   61        1.829462
   62        1.944916
   63        2.084823
   64        2.204431
   65        2.315998
   66        2.477814
   67        2.612461
   68        2.697667
 
  0.1538462E+00  0.2500000E+00  0.0000000E+00  0.1923077E-01
    1      -14.070383
    2      -13.173045
    3      -13.039421
    4      -12.781579
    5      -12.403642
    6      -12.217623
    7      -11.900076
    8      -11.536141
    9      -11.260037
   10      -11.064208
   11      -10.776868
   12       -9.940714
   13       -8.839287
   14       -8.600318
   15       -7.797445
   16       -7.274141
   17       -7.116924
   18       -6.619018
   19       -6.562694
   20       -6.461162
   21       -6.110210
   22       -5.616679
   23       -5.534301
   24       -5.019112
   25       -4.806106
   26       -4.476453
   27       -4.340189
   28       -4.260471
   29       -4.064743
   30       -3.927945
   31       -3.814957
   32       -3.611772
   33       -3.561722
   34       -3.314985
   35       -3.090415
   36       -2.958973
   37       -2.924248
   38       -2.828764
   39       -2.771772
   40       -2.673497
   41       -2.558704
   42       -2.314200
   43       -2.277748
   44       -1.950290
   45       -1.858128
   46       -1.703382
   47       -1.468644
   48       -1.317486
   49       -1.170119
   50       -1.099859
   51       -1.025420
   52       -0.918079
   53       -0.457397
   54        0.224170
   55        0.452094
   56        0.945634
   57        1.313037
   58        1.514634
   59        1.694146
   60        1.842724
   61        2.132549
   62        2.269226
   63        2.392588
   64        2.716811
   65        2.832333
   66        2.865380
   67        2.988485
   68        3.131118
 
  0.2307692E+00  0.2500000E+00  0.0000000E+00  0.1923077E-01
    1      -13.794591
    2      -12.861575
    3      -12.773119
    4      -12.530274
    5      -12.108233
    6      -11.949900
    7      -11.705679
    8      -11.259402
    9      -11.038263
   10      -10.847728
   11      -10.559606
   12       -9.869734
   13       -8.791281
   14       -8.730497
   15       -7.916899
   16       -7.356518
   17       -7.193922
   18       -6.968030
   19       -6.658227
   20       -6.606594
   21       -6.266122
   22       -5.799148
   23       -5.757643
   24       -5.525573
   25       -5.169583
   26       -4.995686
   27       -4.904940
   28       -4.629909
   29       -4.518253
   30       -4.417558
   31       -4.346359
   32       -3.984765
   33       -3.732604
   34       -3.621982
   35       -3.459377
   36       -3.175983
   37       -3.126411
   38       -3.055562
   39       -3.032887
   40       -2.797938
   41       -2.567632
   42       -2.489236
   43       -2.321982
   44       -1.956072
   45       -1.891851
   46       -1.746505
   47       -1.718443
   48       -1.400722
   49       -1.353433
   50       -1.192764
   51       -1.083009
   52       -0.981048
   53       -0.795668
   54       -0.242868
   55        0.346498
   56        0.870449
   57        1.245581
   58        1.447184
   59        1.530070
   60        1.651135
   61        1.717585
   62        2.166679
   63        2.292934
   64        2.599757
   65        2.742842
   66        2.826938
   67        2.941828
   68        3.070597
 
  0.3076923E+00  0.2500000E+00  0.0000000E+00  0.1923077E-01
    1      -13.427640
    2      -12.444924
    3      -12.406355
    4      -12.171306
    5      -11.758564
    6      -11.599375
    7      -11.441008
    8      -10.945581
    9      -10.774589
   10      -10.674143
   11      -10.354109
   12       -9.865051
   13       -8.932298
   14       -8.789114
   15       -8.259850
   16       -7.668988
   17       -7.495843
   18       -7.119234
   19       -7.073784
   20       -6.922961
   21       -6.614241
   22       -6.330220
   23       -6.152623
   24       -5.881095
   25       -5.749307
   26       -5.357283
   27       -5.299731
   28       -4.901824
   29       -4.774792
   30       -4.465873
   31       -4.377596
   32       -4.283351
   33       -3.975736
   34       -3.800210
   35       -3.488445
   36       -3.300513
   37       -3.204652
   38       -2.973235
   39       -2.893467
   40       -2.854355
   41       -2.771030
   42       -2.464859
   43       -2.353747
   44       -2.261089
   45       -1.934527
   46       -1.867597
   47       -1.795680
   48       -1.696490
   49       -1.634436
   50       -1.307347
   51       -1.198532
   52       -1.144453
   53       -0.960088
   54       -0.641021
   55        0.248022
   56        0.715987
   57        1.080862
   58        1.242735
   59        1.279242
   60        1.380838
   61        1.530501
   62        1.888942
   63        2.208646
   64        2.337346
   65        2.485969
   66        2.542240
   67        2.660342
   68        2.973545
 
  0.3846154E+00  0.2500000E+00  0.0000000E+00  0.1923077E-01
    1      -13.004615
    2      -11.971323
    3      -11.940533
    4      -11.721371
    5      -11.468009
    6      -11.206905
    7      -11.152556
    8      -10.711509
    9      -10.686655
   10      -10.563540
   11      -10.429986
   12       -9.914259
   13       -8.923017
   14       -8.810612
   15       -8.627691
   16       -8.072484
   17       -7.864769
   18       -7.741372
   19       -7.322617
   20       -7.209921
   21       -7.073880
   22       -6.735755
   23       -6.657270
   24       -6.620121
   25       -5.911914
   26       -5.461851
   27       -5.301550
   28       -4.948590
   29       -4.747922
   30       -4.428980
   31       -4.315061
   32       -4.081929
   33       -3.857798
   34       -3.817500
   35       -3.587670
   36       -3.315259
   37       -3.300495
   38       -3.236863
   39       -3.085557
   40       -2.895383
   41       -2.750116
   42       -2.612290
   43       -2.441751
   44       -2.287102
   45       -2.157277
   46       -2.038932
   47       -1.920580
   48       -1.819001
   49       -1.736193
   50       -1.503409
   51       -1.420576
   52       -1.233828
   53       -1.000859
   54       -0.748867
   55        0.185385
   56        0.526082
   57        0.932911
   58        1.099344
   59        1.234467
   60        1.377671
   61        1.410673
   62        1.808429
   63        1.861993
   64        2.095744
   65        2.189625
   66        2.270503
   67        2.643064
   68        2.724812
 
  0.4615385E+00  0.2500000E+00  0.0000000E+00  0.1923077E-01
    1      -12.638322
    2      -11.622018
    3      -11.391730
    4      -11.360871
    5      -11.226254
    6      -11.052530
    7      -10.919678
    8      -10.826493
    9      -10.760266
   10      -10.662059
   11      -10.542220
   12      -10.001697
   13       -8.929157
   14       -8.709493
   15       -8.516635
   16       -8.361225
   17       -8.288884
   18       -8.027881
   19       -7.585843
   20       -7.478116
   21       -7.390296
   22       -7.274912
   23       -7.103075
   24       -6.704780
   25       -5.921893
   26       -5.583098
   27       -4.989874
   28       -4.792858
   29       -4.529279
   30       -4.419069
   31       -4.151417
   32       -4.084609
   33       -3.898074
   34       -3.881708
   35       -3.623976
   36       -3.598938
   37       -3.455554
   38       -3.258598
   39       -3.221011
   40       -2.957556
   41       -2.731589
   42       -2.673364
   43       -2.582576
   44       -2.558206
   45       -2.154699
   46       -2.089712
   47       -1.960740
   48       -1.823605
   49       -1.692718
   50       -1.625898
   51       -1.491506
   52       -1.294970
   53       -1.030615
   54       -0.671178
   55        0.145712
   56        0.424947
   57        0.742224
   58        1.100696
   59        1.289657
   60        1.473371
   61        1.550926
   62        1.607009
   63        1.817834
   64        1.964175
   65        2.068520
   66        2.187930
   67        2.456717
   68        2.508311
 
 -0.4615385E+00  0.2500000E+00  0.0000000E+00  0.1923077E-01
    1      -12.641156
    2      -11.617002
    3      -11.496357
    4      -11.336230
    5      -11.074513
    6      -11.032886
    7      -10.893396
    8      -10.774714
    9      -10.769994
   10      -10.716983
   11      -10.665458
   12       -9.992723
   13       -8.921337
   14       -8.732664
   15       -8.709688
   16       -8.393810
   17       -8.053807
   18       -7.905241
   19       -7.660713
   20       -7.565440
   21       -7.280977
   22       -7.241777
   23       -7.178776
   24       -6.675658
   25       -5.876131
   26       -5.613516
   27       -4.907822
   28       -4.675783
   29       -4.537367
   30       -4.430503
   31       -4.299931
   32       -3.998057
   33       -3.956567
   34       -3.901633
   35       -3.845106
   36       -3.648226
   37       -3.600826
   38       -3.319215
   39       -3.231402
   40       -2.833970
   41       -2.756097
   42       -2.684524
   43       -2.631618
   44       -2.349470
   45       -2.134512
   46       -2.112727
   47       -1.982661
   48       -1.765693
   49       -1.704209
   50       -1.560474
   51       -1.439914
   52       -1.278895
   53       -1.035248
   54       -0.624611
   55        0.157364
   56        0.401770
   57        0.767688
   58        1.100254
   59        1.247722
   60        1.419682
   61        1.690471
   62        1.795550
   63        1.839798
   64        2.012743
   65        2.211643
   66        2.295869
   67        2.404294
   68        2.544874
 
 -0.3846154E+00  0.2500000E+00  0.0000000E+00  0.1923077E-01
    1      -13.012485
    2      -12.063166
    3      -11.861763
    4      -11.648665
    5      -11.447240
    6      -11.204677
    7      -11.048748
    8      -10.893197
    9      -10.719108
   10      -10.592481
   11      -10.412807
   12       -9.941920
   13       -8.836654
   14       -8.703993
   15       -8.640275
   16       -8.450424
   17       -7.731022
   18       -7.453248
   19       -7.399993
   20       -7.289580
   21       -7.006007
   22       -6.772608
   23       -6.627110
   24       -6.557953
   25       -5.876515
   26       -5.517013
   27       -5.028446
   28       -4.921407
   29       -4.793778
   30       -4.367057
   31       -4.319996
   32       -4.223533
   33       -4.081010
   34       -3.923345
   35       -3.682183
   36       -3.666652
   37       -3.368130
   38       -3.328458
   39       -3.138629
   40       -2.890455
   41       -2.681319
   42       -2.517378
   43       -2.472553
   44       -2.221154
   45       -2.108648
   46       -1.909093
   47       -1.867802
   48       -1.776639
   49       -1.635512
   50       -1.473942
   51       -1.331003
   52       -1.221424
   53       -1.006995
   54       -0.609087
   55        0.187180
   56        0.426663
   57        0.943396
   58        1.169753
   59        1.325701
   60        1.468093
   61        1.816627
   62        1.937706
   63        2.141935
   64        2.155073
   65        2.285133
   66        2.367087
   67        2.476015
   68        2.643357
 
 -0.3076923E+00  0.2500000E+00  0.0000000E+00  0.1923077E-01
    1      -13.437607
    2      -12.557225
    3      -12.273079
    4      -12.025428
    5      -11.909209
    6      -11.604096
    7      -11.207553
    8      -11.152980
    9      -10.847005
   10      -10.735538
   11      -10.383627
   12       -9.869288
   13       -8.661580
   14       -8.515785
   15       -8.414899
   16       -8.147360
   17       -7.271941
   18       -7.090267
   19       -6.960923
   20       -6.929731
   21       -6.828514
   22       -6.134191
   23       -6.107355
   24       -5.936588
   25       -5.812098
   26       -5.286831
   27       -5.105584
   28       -4.851909
   29       -4.696303
   30       -4.604200
   31       -4.423727
   32       -4.277043
   33       -4.206508
   34       -3.952690
   35       -3.616315
   36       -3.417036
   37       -3.236105
   38       -3.046250
   39       -2.928370
   40       -2.889589
   41       -2.722883
   42       -2.558240
   43       -2.442350
   44       -1.995874
   45       -1.868928
   46       -1.845956
   47       -1.689023
   48       -1.623037
   49       -1.537823
   50       -1.311635
   51       -1.199563
   52       -1.140748
   53       -0.896603
   54       -0.594311
   55        0.274228
   56        0.576369
   57        1.064623
   58        1.369401
   59        1.545235
   60        1.693266
   61        1.968158
   62        2.022458
   63        2.278395
   64        2.404856
   65        2.436200
   66        2.542546
   67        2.708010
   68        2.789756
 
 -0.2307692E+00  0.2500000E+00  0.0000000E+00  0.1923077E-01
    1      -13.804050
    2      -12.952462
    3      -12.657492
    4      -12.344162
    5      -12.313177
    6      -11.956310
    7      -11.502825
    8      -11.431199
    9      -11.033583
   10      -10.991225
   11      -10.562048
   12       -9.880181
   13       -8.604957
   14       -8.358591
   15       -8.087599
   16       -7.742136
   17       -7.103339
   18       -6.867989
   19       -6.652425
   20       -6.598962
   21       -6.462314
   22       -5.754841
   23       -5.705388
   24       -5.532237
   25       -5.295159
   26       -4.878935
   27       -4.793762
   28       -4.562255
   29       -4.521593
   30       -4.459233
   31       -4.155189
   32       -4.089490
   33       -3.860630
   34       -3.743385
   35       -3.536256
   36       -3.408388
   37       -3.115486
   38       -3.022110
   39       -2.958247
   40       -2.784968
   41       -2.576052
   42       -2.414212
   43       -2.370088
   44       -1.873910
   45       -1.805637
   46       -1.738231
   47       -1.655792
   48       -1.434846
   49       -1.376683
   50       -1.198738
   51       -1.072421
   52       -0.977564
   53       -0.713483
   54       -0.291951
   55        0.423721
   56        0.791979
   57        1.134395
   58        1.566505
   59        1.752886
   60        1.900076
   61        2.042200
   62        2.273549
   63        2.407004
   64        2.600473
   65        2.749362
   66        2.793175
   67        2.942206
   68        2.983819
 
 -0.1538462E+00  0.2500000E+00  0.0000000E+00  0.1923077E-01
    1      -14.077598
    2      -13.236223
    3      -12.957077
    4      -12.629245
    5      -12.570301
    6      -12.222857
    7      -11.729597
    8      -11.690823
    9      -11.225044
   10      -11.199188
   11      -10.764516
   12       -9.954601
   13       -8.696575
   14       -8.338421
   15       -7.899360
   16       -7.496317
   17       -7.072817
   18       -6.632189
   19       -6.548736
   20       -6.513601
   21       -6.184608
   22       -5.658806
   23       -5.536286
   24       -5.055937
   25       -4.803322
   26       -4.508749
   27       -4.267172
   28       -4.191456
   29       -4.113940
   30       -3.887400
   31       -3.703940
   32       -3.607132
   33       -3.412838
   34       -3.306910
   35       -3.199453
   36       -3.062011
   37       -3.004057
   38       -2.877804
   39       -2.844011
   40       -2.646321
   41       -2.472532
   42       -2.249912
   43       -2.144802
   44       -1.935604
   45       -1.765316
   46       -1.742860
   47       -1.581996
   48       -1.382360
   49       -1.224839
   50       -1.041154
   51       -1.003647
   52       -0.855397
   53       -0.491690
   54        0.173988
   55        0.578943
   56        0.859921
   57        1.202244
   58        1.565512
   59        1.816229
   60        1.978995
   61        2.191287
   62        2.282195
   63        2.490890
   64        2.677363
   65        2.790863
   66        2.826753
   67        2.954479
   68        3.056853
 
 -0.7692308E-01  0.2500000E+00  0.0000000E+00  0.1923077E-01
    1      -14.244674
    2      -13.401949
    3      -13.151145
    4      -12.839522
    5      -12.692915