       N       E                     dE             d eps       ncg     rms          rms(c)
DAV:   1     0.566197342619E+03    0.56620E+03   -0.28745E+04  7360   0.790E+02
DAV:   2    -0.184556213157E+01   -0.56804E+03   -0.55320E+03  9808   0.191E+02
DAV:   3    -0.634692663247E+02   -0.61624E+02   -0.60431E+02  9756   0.641E+01
DAV:   4    -0.667619484375E+02   -0.32927E+01   -0.32589E+01 11248   0.154E+01
DAV:   5    -0.668327307126E+02   -0.70782E-01   -0.70603E-01 10184   0.238E+00    0.145E+01
DAV:   6    -0.607524212129E+02    0.60803E+01   -0.21227E+01  9616   0.138E+01    0.642E+00
DAV:   7    -0.609087177544E+02   -0.15630E+00   -0.10897E+01  8304   0.794E+00    0.334E+00
DAV:   8    -0.608706398808E+02    0.38078E-01   -0.13046E+00  9112   0.342E+00    0.174E+00
DAV:   9    -0.609135972696E+02   -0.42957E-01   -0.47119E-01  9368   0.208E+00    0.832E-01
DAV:  10    -0.609084859992E+02    0.51113E-02   -0.12904E-01  8968   0.124E+00    0.328E-01
DAV:  11    -0.608999469169E+02    0.85391E-02   -0.33903E-02  9472   0.506E-01    0.163E-01
DAV:  12    -0.608867988107E+02    0.13148E-01   -0.55146E-03  8968   0.239E-01    0.639E-02
DAV:  13    -0.608817967773E+02    0.50020E-02   -0.13206E-03  9000   0.112E-01    0.336E-02
DAV:  14    -0.608792083621E+02    0.25884E-02   -0.38013E-04  9400   0.529E-02    0.183E-02
DAV:  15    -0.608776433985E+02    0.15650E-02   -0.83959E-05  9752   0.255E-02    0.105E-02
DAV:  16    -0.608773417120E+02    0.30169E-03   -0.53766E-05  8112   0.204E-02    0.613E-03
DAV:  17    -0.608779249346E+02   -0.58322E-03   -0.13554E-04  8168   0.238E-02    0.360E-03
DAV:  18    -0.608782607235E+02   -0.33579E-03   -0.15402E-04  7712   0.202E-02    0.177E-03
DAV:  19    -0.608783087404E+02   -0.48017E-04   -0.25069E-05  7352   0.109E-02    0.122E-03
DAV:  20    -0.608783352477E+02   -0.26507E-04   -0.11888E-05  6800   0.787E-03    0.741E-04
DAV:  21    -0.608783176202E+02    0.17627E-04   -0.29600E-05  7280   0.995E-03    0.562E-04
DAV:  22    -0.608782892974E+02    0.28323E-04   -0.19110E-05  6612   0.111E-02    0.240E-04
DAV:  23    -0.608782268161E+02    0.62481E-04   -0.16055E-05  7108   0.930E-03    0.158E-04
DAV:  24    -0.608782327555E+02   -0.59394E-05   -0.11608E-05  6536   0.997E-03    0.813E-05
DAV:  25    -0.608782126125E+02    0.20143E-04   -0.73912E-06  6668   0.857E-03    0.372E-05
DAV:  26    -0.608782113455E+02    0.12670E-05   -0.25027E-06  5496   0.565E-03    0.226E-05
DAV:  27    -0.608782067405E+02    0.46049E-05   -0.26283E-06  5940   0.564E-03    0.126E-05
DAV:  28    -0.608782058603E+02    0.88023E-06   -0.80173E-07  5216   0.375E-03
   1 F= -.60878206E+02 E0= -.60861804E+02  d E =-.328030E-01
