<?xml version="1.0" encoding="ISO-8859-1"?>
<modeling>
 <generator>
  <i name="program" type="string">vasp </i>
  <i name="version" type="string">5.3.5  </i>
  <i name="subversion" type="string">31Mar14 (build Oct 29 2014 16:16:03) complex                          parallel </i>
  <i name="platform" type="string">Linux-UFHPC </i>
  <i name="date" type="string">2016 02 09 </i>
  <i name="time" type="string">18:53:31 </i>
 </generator>
 <incar>
  <i type="string" name="PREC">accurate</i>
  <i type="int" name="IBRION">     2</i>
  <i name="EDIFF">      0.00000100</i>
  <i type="int" name="NSW">     0</i>
  <i type="int" name="ISIF">     3</i>
  <i name="ENCUT">    300.00000000</i>
  <i type="string" name="LREAL"> Auto</i>
  <i type="int" name="ISMEAR">     0</i>
  <i name="SIGMA">      0.10000000</i>
  <i type="logical" name="LWAVE"> F  </i>
  <i type="logical" name="LCHARG"> F  </i>
  <i type="logical" name="LAECHG"> F  </i>
  <i type="string" name="GGA"> Bo</i>
  <i name="PARAM1">      0.18333333</i>
  <i name="PARAM2">      0.22000000</i>
  <i type="logical" name="LUSE_VDW"> T  </i>
  <i name="AGGAC">      0.00000000</i>
 </incar>
 <kpoints>
  <generation param="Gamma">
   <v type="int" name="divisions">      13        4        2 </v>
   <v name="usershift">      0.00000000       0.00000000       0.00000000 </v>
   <v name="genvec1">      0.07692308      -0.00000000       0.00000000 </v>
   <v name="genvec2">      0.00000000       0.25000000       0.00000000 </v>
   <v name="genvec3">      0.00000000       0.00000000       0.50000000 </v>
   <v name="shift">      0.00000000       0.00000000       0.00000000 </v>
  </generation>
  <varray name="kpointlist" >
   <v>       0.00000000       0.00000000       0.00000000 </v>
   <v>       0.07692308      -0.00000000       0.00000000 </v>
   <v>       0.15384615      -0.00000000       0.00000000 </v>
   <v>       0.23076923      -0.00000000       0.00000000 </v>
   <v>       0.30769231      -0.00000000       0.00000000 </v>
   <v>       0.38461538      -0.00000000       0.00000000 </v>
   <v>       0.46153846      -0.00000000       0.00000000 </v>
   <v>       0.00000000       0.25000000       0.00000000 </v>
   <v>       0.07692308       0.25000000       0.00000000 </v>
   <v>       0.15384615       0.25000000       0.00000000 </v>
   <v>       0.23076923       0.25000000       0.00000000 </v>
   <v>       0.30769231       0.25000000       0.00000000 </v>
   <v>       0.38461538       0.25000000       0.00000000 </v>
   <v>       0.46153846       0.25000000       0.00000000 </v>
   <v>      -0.46153846       0.25000000       0.00000000 </v>
   <v>      -0.38461538       0.25000000       0.00000000 </v>
   <v>      -0.30769231       0.25000000       0.00000000 </v>
   <v>      -0.23076923       0.25000000       0.00000000 </v>
   <v>      -0.15384615       0.25000000       0.00000000 </v>
   <v>      -0.07692308       0.25000000       0.00000000 </v>
   <v>       0.00000000       0.50000000       0.00000000 </v>
   <v>       0.07692308       0.50000000       0.00000000 </v>
   <v>       0.15384615       0.50000000       0.00000000 </v>
   <v>       0.23076923       0.50000000       0.00000000 </v>
   <v>       0.30769231       0.50000000       0.00000000 </v>
   <v>       0.38461538       0.50000000       0.00000000 </v>
   <v>       0.46153846       0.50000000       0.00000000 </v>
   <v>       0.00000000       0.00000000       0.50000000 </v>
   <v>       0.07692308      -0.00000000       0.50000000 </v>
   <v>       0.15384615      -0.00000000       0.50000000 </v>
   <v>       0.23076923      -0.00000000       0.50000000 </v>
   <v>       0.30769231      -0.00000000       0.50000000 </v>
   <v>       0.38461538      -0.00000000       0.50000000 </v>
   <v>       0.46153846      -0.00000000       0.50000000 </v>
   <v>       0.00000000       0.25000000       0.50000000 </v>
   <v>       0.07692308       0.25000000       0.50000000 </v>
   <v>       0.15384615       0.25000000       0.50000000 </v>
   <v>       0.23076923       0.25000000       0.50000000 </v>
   <v>       0.30769231       0.25000000       0.50000000 </v>
   <v>       0.38461538       0.25000000       0.50000000 </v>
   <v>       0.46153846       0.25000000       0.50000000 </v>
   <v>      -0.46153846       0.25000000       0.50000000 </v>
   <v>      -0.38461538       0.25000000       0.50000000 </v>
   <v>      -0.30769231       0.25000000       0.50000000 </v>
   <v>      -0.23076923       0.25000000       0.50000000 </v>
   <v>      -0.15384615       0.25000000       0.50000000 </v>
   <v>      -0.07692308       0.25000000       0.50000000 </v>
   <v>       0.00000000       0.50000000       0.50000000 </v>
   <v>       0.07692308       0.50000000       0.50000000 </v>
   <v>       0.15384615       0.50000000       0.50000000 </v>
   <v>       0.23076923       0.50000000       0.50000000 </v>
   <v>       0.30769231       0.50000000       0.50000000 </v>
   <v>       0.38461538       0.50000000       0.50000000 </v>
   <v>       0.46153846       0.50000000       0.50000000 </v>
  </varray>
  <varray name="weights" >
   <v>       0.00961538 </v>
   <v>       0.01923077 </v>
   <v>       0.01923077 </v>
   <v>       0.01923077 </v>
   <v>       0.01923077 </v>
   <v>       0.01923077 </v>
   <v>       0.01923077 </v>
   <v>       0.01923077 </v>
   <v>       0.01923077 </v>
   <v>       0.01923077 </v>
   <v>       0.01923077 </v>
   <v>       0.01923077 </v>
   <v>       0.01923077 </v>
   <v>       0.01923077 </v>
   <v>       0.01923077 </v>
   <v>       0.01923077 </v>
   <v>       0.01923077 </v>
   <v>       0.01923077 </v>
   <v>       0.01923077 </v>
   <v>       0.01923077 </v>
   <v>       0.00961538 </v>
   <v>       0.01923077 </v>
   <v>       0.01923077 </v>
   <v>       0.01923077 </v>
   <v>       0.01923077 </v>
   <v>       0.01923077 </v>
   <v>       0.01923077 </v>
   <v>       0.00961538 </v>
   <v>       0.01923077 </v>
   <v>       0.01923077 </v>
   <v>       0.01923077 </v>
   <v>       0.01923077 </v>
   <v>       0.01923077 </v>
   <v>       0.01923077 </v>
   <v>       0.01923077 </v>
   <v>       0.01923077 </v>
   <v>       0.01923077 </v>
   <v>       0.01923077 </v>
   <v>       0.01923077 </v>
   <v>       0.01923077 </v>
   <v>       0.01923077 </v>
   <v>       0.01923077 </v>
   <v>       0.01923077 </v>
   <v>       0.01923077 </v>
   <v>       0.01923077 </v>
   <v>       0.01923077 </v>
   <v>       0.01923077 </v>
   <v>       0.00961538 </v>
   <v>       0.01923077 </v>
   <v>       0.01923077 </v>
   <v>       0.01923077 </v>
   <v>       0.01923077 </v>
   <v>       0.01923077 </v>
   <v>       0.01923077 </v>
  </varray>
 </kpoints>
 <parameters>
  <separator name="general" >
   <i type="string" name="SYSTEM">unknown system</i>
   <i type="logical" name="LCOMPAT"> F  </i>
  </separator>
  <separator name="electronic" >
   <i type="string" name="PREC">accura</i>
   <i name="ENMAX">    300.00000000</i>
   <i name="ENAUG">    342.92400000</i>
   <i name="EDIFF">      0.00000100</i>
   <i type="int" name="IALGO">    38</i>
   <i type="int" name="IWAVPR">    10</i>
   <i type="int" name="NBANDS">    68</i>
   <i name="NELECT">    108.00000000</i>
   <i type="int" name="TURBO">     0</i>
   <i type="int" name="IRESTART">     0</i>
   <i type="int" name="NREBOOT">     0</i>
   <i type="int" name="NMIN">     0</i>
   <i name="EREF">      0.00000000</i>
   <separator name="electronic smearing" >
    <i type="int" name="ISMEAR">     0</i>
    <i name="SIGMA">      0.10000000</i>
    <i name="KSPACING">      0.50000000</i>
    <i type="logical" name="KGAMMA"> T  </i>
   </separator>
   <separator name="electronic projectors" >
    <i type="logical" name="LREAL"> T  </i>
    <v name="ROPT">     -0.00025000     -0.00025000</v>
    <i type="int" name="LMAXPAW">  -100</i>
    <i type="int" name="LMAXMIX">     2</i>
    <i type="logical" name="NLSPLINE"> F  </i>
   </separator>
   <separator name="electronic startup" >
    <i type="int" name="ISTART">     0</i>
    <i type="int" name="ICHARG">     2</i>
    <i type="int" name="INIWAV">     1</i>
   </separator>
   <separator name="electronic spin" >
    <i type="int" name="ISPIN">     1</i>
    <i type="logical" name="LNONCOLLINEAR"> F  </i>
    <v name="MAGMOM">      1.00000000      1.00000000      1.00000000      1.00000000      1.00000000      1.00000000      1.00000000      1.00000000      1.00000000      1.00000000      1.00000000      1.00000000      1.00000000      1.00000000      1.00000000      1.00000000      1.00000000      1.00000000      1.00000000      1.00000000
      1.00000000      1.00000000      1.00000000      1.00000000</v>
    <i name="NUPDOWN">     -1.00000000</i>
    <i type="logical" name="LSORBIT"> F  </i>
    <v name="SAXIS">      0.00000000      0.00000000      1.00000000</v>
    <i type="logical" name="LSPIRAL"> F  </i>
    <v name="QSPIRAL">      0.00000000      0.00000000      0.00000000</v>
    <i type="logical" name="LZEROZ"> F  </i>
   </separator>
   <separator name="electronic exchange-correlation" >
    <i type="logical" name="LASPH"> F  </i>
    <i type="logical" name="LMETAGGA"> F  </i>
   </separator>
   <separator name="electronic convergence" >
    <i type="int" name="NELM">    60</i>
    <i type="int" name="NELMDL">    -5</i>
    <i type="int" name="NELMIN">     2</i>
    <i name="ENINI">    300.00000000</i>
    <separator name="electronic convergence detail" >
     <i type="logical" name="LDIAG"> T  </i>
     <i type="logical" name="LSUBROT"> F  </i>
     <i name="WEIMIN">      0.00000000</i>
     <i name="EBREAK">      0.00000000</i>
     <i name="DEPER">      0.30000000</i>
     <i type="int" name="NRMM">     4</i>
     <i name="TIME">      0.40000000</i>
    </separator>
   </separator>
   <separator name="electronic mixer" >
    <i name="AMIX">      0.40000000</i>
    <i name="BMIX">      1.00000000</i>
    <i name="AMIN">      0.10000000</i>
    <i name="AMIX_MAG">      1.60000000</i>
    <i name="BMIX_MAG">      1.00000000</i>
    <separator name="electronic mixer details" >
     <i type="int" name="IMIX">     4</i>
     <i type="int" name="MAXMIX">   -45</i>
     <i name="WC">    100.00000000</i>
     <i type="int" name="INIMIX">     1</i>
     <i type="int" name="MIXPRE">     1</i>
     <i type="int" name="MREMOVE">     5</i>
    </separator>
   </separator>
   <separator name="electronic dipolcorrection" >
    <i type="logical" name="LDIPOL"> F  </i>
    <i type="logical" name="LMONO"> F  </i>
    <i type="int" name="IDIPOL">     0</i>
    <i name="EPSILON">      1.00000000</i>
    <v name="DIPOL">   -100.00000000   -100.00000000   -100.00000000</v>
    <i name="EFIELD">      0.00000000</i>
   </separator>
  </separator>
  <separator name="grids" >
   <i type="int" name="NGX">    20</i>
   <i type="int" name="NGY">    60</i>
   <i type="int" name="NGZ">   160</i>
   <i type="int" name="NGXF">    40</i>
   <i type="int" name="NGYF">   120</i>
   <i type="int" name="NGZF">   320</i>
   <i type="logical" name="ADDGRID"> F  </i>
  </separator>
  <separator name="ionic" >
   <i type="int" name="NSW">     0</i>
   <i type="int" name="IBRION">    -1</i>
   <i type="int" name="ISIF">     3</i>
   <i name="PSTRESS">      0.00000000</i>
   <i name="EDIFFG">      0.00001000</i>
   <i type="int" name="NFREE">     1</i>
   <i name="POTIM">      0.50000000</i>
   <i name="SMASS">     -3.00000000</i>
   <i name="SCALEE">      1.00000000</i>
  </separator>
  <separator name="ionic md" >
   <i name="TEBEG">      0.00010000</i>
   <i name="TEEND">      0.00010000</i>
   <i type="int" name="NBLOCK">     1</i>
   <i type="int" name="KBLOCK">     1</i>
   <i type="int" name="NPACO">   256</i>
   <i name="APACO">     16.00000000</i>
  </separator>
  <separator name="symmetry" >
   <i type="int" name="ISYM">     2</i>
   <i name="SYMPREC">      0.00001000</i>
  </separator>
  <separator name="dos" >
   <i type="logical" name="LORBIT"> F  </i>
   <v name="RWIGS">     -1.00000000     -1.00000000</v>
   <i type="int" name="NEDOS">   301</i>
   <i name="EMIN">     10.00000000</i>
   <i name="EMAX">    -10.00000000</i>
   <i name="EFERMI">      0.00000000</i>
  </separator>
  <separator name="writing" >
   <i type="int" name="NWRITE">     2</i>
   <i type="logical" name="LWAVE"> F  </i>
   <i type="logical" name="LCHARG"> F  </i>
   <i type="logical" name="LPARD"> F  </i>
   <i type="logical" name="LVTOT"> F  </i>
   <i type="logical" name="LVHAR"> F  </i>
   <i type="logical" name="LELF"> F  </i>
   <i type="logical" name="LOPTICS"> F  </i>
   <v name="STM">      0.00000000      0.00000000      0.00000000      0.00000000      0.00000000      0.00000000      0.00000000</v>
  </separator>
  <separator name="performance" >
   <i type="int" name="NPAR">     4</i>
   <i type="int" name="NSIM">     4</i>
   <i type="int" name="NBLK">    -1</i>
   <i type="logical" name="LPLANE"> T  </i>
   <i type="logical" name="LSCALAPACK"> T  </i>
   <i type="logical" name="LSCAAWARE"> F  </i>
   <i type="logical" name="LSCALU"> F  </i>
   <i type="logical" name="LASYNC"> F  </i>
   <i type="logical" name="LORBITALREAL"> F  </i>
  </separator>
  <separator name="miscellaneous" >
   <i type="int" name="IDIOT">     3</i>
   <i type="logical" name="LMUSIC"> F  </i>
   <v name="POMASS">     30.97400000     28.08500000</v>
   <v name="DARWINR">      0.00000000      0.00000000</v>
   <v name="DARWINV">      1.00000000      1.00000000</v>
   <i type="logical" name="LCORR"> T  </i>
  </separator>
  <i type="logical" name="GGA_COMPAT"> T  </i>
  <i type="logical" name="LBERRY"> F  </i>
  <i type="int" name="ICORELEVEL">     0</i>
  <i type="logical" name="LDAU"> F  </i>
  <i type="int" name="I_CONSTRAINED_M">     0</i>
  <separator name="electronic exchange-correlation" >
   <i type="string" name="GGA">BO</i>
   <i type="int" name="VOSKOWN">     0</i>
   <i type="logical" name="LHFCALC"> F  </i>
   <i type="string" name="PRECFOCK"></i>
   <i type="logical" name="LSYMGRAD"> F  </i>
   <i type="logical" name="LHFONE"> F  </i>
   <i type="logical" name="LRHFCALC"> F  </i>
   <i type="logical" name="LTHOMAS"> F  </i>
   <i type="logical" name="LMODELHF"> F  </i>
   <i name="ENCUT4O">     -1.00000000</i>
   <i type="int" name="EXXOEP">     0</i>
   <i type="int" name="FOURORBIT">     0</i>
   <i name="AEXX">      0.00000000</i>
   <i name="HFALPHA">      0.00000000</i>
   <i name="MCALPHA">      0.00000000</i>
   <i name="ALDAX">      1.00000000</i>
   <i name="AGGAX">      1.00000000</i>
   <i name="ALDAC">      1.00000000</i>
   <i name="AGGAC">      0.00000000</i>
   <i type="int" name="NKREDX">     1</i>
   <i type="int" name="NKREDY">     1</i>
   <i type="int" name="NKREDZ">     1</i>
   <i type="logical" name="SHIFTRED"> F  </i>
   <i type="logical" name="ODDONLY"> F  </i>
   <i type="logical" name="EVENONLY"> F  </i>
   <i type="int" name="LMAXFOCK">     0</i>
   <i type="int" name="NMAXFOCKAE">     0</i>
   <i type="logical" name="LFOCKAEDFT"> F  </i>
   <i name="HFSCREEN">      0.00000000</i>
   <i name="HFSCREENC">      0.00000000</i>
   <i type="int" name="NBANDSGWLOW">     0</i>
  </separator>
  <separator name="vdW DFT" >
   <i type="logical" name="LUSE_VDW"> T  </i>
   <i name="Zab_VDW">     -0.84910000</i>
   <i name="PARAM1">      0.18333333</i>
   <i name="PARAM2">      0.22000000</i>
   <i name="PARAM3">      0.00000000</i>
  </separator>
  <separator name="model GW" >
   <i type="int" name="MODEL_GW">     0</i>
   <i name="MODEL_EPS0">     25.05800243</i>
   <i name="MODEL_ALPHA">      1.00000000</i>
  </separator>
  <separator name="linear response parameters" >
   <i type="logical" name="LEPSILON"> F  </i>
   <i type="logical" name="LRPA"> F  </i>
   <i type="logical" name="LNABLA"> F  </i>
   <i type="logical" name="LVEL"> F  </i>
   <i type="int" name="KINTER">     0</i>
   <i name="CSHIFT">      0.10000000</i>
   <i name="OMEGAMAX">     -1.00000000</i>
   <i name="DEG_THRESHOLD">      0.00200000</i>
  </separator>
  <separator name="orbital magnetization" >
   <i type="logical" name="NUCIND"> F  </i>
   <v name="MAGPOS">      0.00000000      0.00000000      0.00000000</v>
   <i type="logical" name="LNICSALL"> T  </i>
   <i type="logical" name="ORBITALMAG"> F  </i>
   <i type="logical" name="LMAGBLOCH"> F  </i>
   <i type="logical" name="LCHIMAG"> F  </i>
   <i type="logical" name="LGAUGE"> T  </i>
   <i type="int" name="MAGATOM">     0</i>
   <v name="MAGDIPOL">      0.00000000      0.00000000      0.00000000</v>
   <v name="AVECCONST">      0.00000000      0.00000000      0.00000000</v>
  </separator>
  <separator name="response functions" >
   <i type="logical" name="LADDER"> F  </i>
   <i type="logical" name="LFXC"> F  </i>
   <i type="logical" name="LHARTREE"> T  </i>
   <i type="int" name="IBSE">     0</i>
   <i type="logical" name="LTCTE"> F  </i>
   <i type="logical" name="LTETE"> F  </i>
   <i type="logical" name="LTRIPLET"> F  </i>
   <i type="logical" name="LFXCEPS"> F  </i>
   <i type="logical" name="LFXHEG"> F  </i>
   <i type="logical" name="L2ORDER"> F  </i>
   <i type="logical" name="LUSEW"> F  </i>
   <i name="ENCUTGW">     -2.00000000</i>
   <i name="ENCUTGWSOFT">     -2.00000000</i>
   <i name="ENCUTLF">     -1.00000000</i>
   <i type="int" name="LMAXMP2">    -1</i>
   <i name="SCISSOR">      0.00000000</i>
   <i type="int" name="NOMEGA">     0</i>
   <i type="int" name="NOMEGAR">     0</i>
   <i type="int" name="NBANDSGW">    -1</i>
   <i type="int" name="NBANDSO">    -1</i>
   <i type="int" name="NBANDSV">    -1</i>
   <i type="int" name="NELM">     1</i>
   <i type="int" name="DIM">     3</i>
   <i type="int" name="ANTIRES">     0</i>
   <i name="OMEGAMAX">    -30.00000000</i>
   <i name="OMEGAMIN">    -30.00000000</i>
   <i name="OMEGATL">   -200.00000000</i>
   <i type="int" name="OMEGAGRID">     0</i>
   <i name="CSHIFT">     -0.10000000</i>
   <i type="logical" name="SELFENERGY"> F  </i>
   <i type="logical" name="LSPECTRAL"> F  </i>
   <i type="logical" name="ODDONLYGW"> F  </i>
   <i type="logical" name="EVENONLYGW"> F  </i>
   <i type="int" name="NKREDLFX">     1</i>
   <i type="int" name="NKREDLFY">     1</i>
   <i type="int" name="NKREDLFZ">     1</i>
   <i type="int" name="MAXMEM">  1800</i>
   <i type="int" name="TELESCOPE">     0</i>
   <i type="int" name="TAUPAR">     1</i>
  </separator>
  <separator name="External order field" >
   <i name="OFIELD_KAPPA">      0.00000000</i>
   <v name="OFIELD_K">      0.00000000      0.00000000      0.00000000</v>
   <i name="OFIELD_Q6_NEAR">      0.00000000</i>
   <i name="OFIELD_Q6_FAR">      0.00000000</i>
   <i name="OFIELD_A">      0.00000000</i>
  </separator>
 </parameters>
 <atominfo>
  <atoms>      24 </atoms>
  <types>       2 </types>
  <array name="atoms" >
   <dimension dim="1">ion</dimension>
   <field type="string">element</field>
   <field type="int">atomtype</field>
   <set>
    <rc><c>P </c><c>   1</c></rc>
    <rc><c>P </c><c>   1</c></rc>
    <rc><c>P </c><c>   1</c></rc>
    <rc><c>P </c><c>   1</c></rc>
    <rc><c>P </c><c>   1</c></rc>
    <rc><c>P </c><c>   1</c></rc>
    <rc><c>P </c><c>   1</c></rc>
    <rc><c>P </c><c>   1</c></rc>
    <rc><c>P </c><c>   1</c></rc>
    <rc><c>P </c><c>   1</c></rc>
    <rc><c>P </c><c>   1</c></rc>
    <rc><c>P </c><c>   1</c></rc>
    <rc><c>Si</c><c>   2</c></rc>
    <rc><c>Si</c><c>   2</c></rc>
    <rc><c>Si</c><c>   2</c></rc>
    <rc><c>Si</c><c>   2</c></rc>
    <rc><c>Si</c><c>   2</c></rc>
    <rc><c>Si</c><c>   2</c></rc>
    <rc><c>Si</c><c>   2</c></rc>
    <rc><c>Si</c><c>   2</c></rc>
    <rc><c>Si</c><c>   2</c></rc>
    <rc><c>Si</c><c>   2</c></rc>
    <rc><c>Si</c><c>   2</c></rc>
    <rc><c>Si</c><c>   2</c></rc>
   </set>
  </array>
  <array name="atomtypes" >
   <dimension dim="1">type</dimension>
   <field type="int">atomspertype</field>
   <field type="string">element</field>
   <field>mass</field>
   <field>valence</field>
   <field type="string">pseudopotential</field>
   <set>
    <rc><c>  12</c><c>P </c><c>     30.97400000</c><c>      5.00000000</c><c>  PAW_PBE P 17Jan2003                   </c></rc>
    <rc><c>  12</c><c>Si</c><c>     28.08500000</c><c>      4.00000000</c><c> PAW_PBE Si 05Jan2001                   </c></rc>
   </set>
  </array>
 </atominfo>
 <structure name="initialpos" >
  <crystal>
   <varray name="basis" >
    <v>       3.54040000       0.00000000       0.00000000 </v>
    <v>      -1.77020000      10.29434800       0.00000000 </v>
    <v>       0.00000000       0.00000000      27.50142900 </v>
   </varray>
   <i name="volume">   1002.32009712 </i>
   <varray name="rec_basis" >
    <v>       0.28245396       0.04857034       0.00000000 </v>
    <v>       0.00000000       0.09714068       0.00000000 </v>
    <v>       0.00000000       0.00000000       0.03636175 </v>
   </varray>
  </crystal>
  <varray name="positions" >
   <v>       0.11402300       0.22804500       0.23316207 </v>
   <v>       0.01402300       0.02804500       0.51499159 </v>
   <v>       0.45808900       0.91617900       0.20939482 </v>
   <v>       0.35808900       0.71617900       0.49122434 </v>
   <v>       0.31085400       0.62170900       0.08414979 </v>
   <v>       0.31085400       0.62170900       0.36597930 </v>
   <v>       0.99923000       0.99846000       0.08631254 </v>
   <v>       0.99923000       0.99846000       0.36814206 </v>
   <v>       0.65492700       0.30985400       0.06041748 </v>
   <v>       0.65492700       0.30985400       0.34224700 </v>
   <v>       0.76973800       0.53947500       0.20725292 </v>
   <v>       0.66973800       0.33947500       0.48908244 </v>
   <v>       0.93971600       0.87943300       0.15783749 </v>
   <v>       0.83971600       0.67943300       0.43966701 </v>
   <v>       0.20515200       0.41030300       0.18578822 </v>
   <v>       0.10515200       0.21030300       0.46761774 </v>
   <v>       0.20184900       0.40369900       0.09969156 </v>
   <v>       0.20184900       0.40369900       0.38152107 </v>
   <v>       0.56380500       0.12761000       0.10779021 </v>
   <v>       0.56380500       0.12761000       0.38961973 </v>
   <v>       0.56710600       0.13421200       0.19387616 </v>
   <v>       0.46710600       0.93421200       0.47570568 </v>
   <v>       0.82923400       0.65846800       0.13571444 </v>
   <v>       0.72923400       0.45846800       0.41754396 </v>
  </varray>
 </structure>
 <calculation>
  <scstep>
   <time name="dav">   66.52   66.56</time>
   <time name="total">   80.69   80.74</time>
   <energy>
    <i name="alphaZ">     36.80884744 </i>
    <i name="ewald">  11936.88449077 </i>
    <i name="hartreedc"> -14991.27312764 </i>
    <i name="XCdc">    -88.00123964 </i>
    <i name="pawpsdc">   1056.43050070 </i>
    <i name="pawaedc">   -732.41190547 </i>
    <i name="eentropy">     -0.03944052 </i>
    <i name="bandstr">    -85.01206868 </i>
    <i name="atom">   3354.04126044 </i>
    <i name="e_fr_energy">    487.42731741 </i>
    <i name="e_wo_entrp">    487.46675793 </i>
    <i name="e_0_energy">    487.44703767 </i>
   </energy>
  </scstep>
  <scstep>
   <time name="dav">   89.76   89.82</time>
   <time name="total">   89.77   89.83</time>
   <energy>
    <i name="e_fr_energy">    -68.73172092 </i>
    <i name="e_wo_entrp">    -68.70208271 </i>
    <i name="e_0_energy">    -68.71690182 </i>
   </energy>
  </scstep>
  <scstep>
   <time name="dav">   88.61   88.67</time>
   <time name="total">   88.63   88.68</time>
   <energy>
    <i name="e_fr_energy">   -123.62223885 </i>
    <i name="e_wo_entrp">   -123.57777059 </i>
    <i name="e_0_energy">   -123.60000472 </i>
   </energy>
  </scstep>
  <scstep>
   <time name="dav">   99.69   99.76</time>
   <time name="total">   99.71   99.78</time>
   <energy>
    <i name="e_fr_energy">   -126.02501624 </i>
    <i name="e_wo_entrp">   -125.97902066 </i>
    <i name="e_0_energy">   -126.00201845 </i>
   </energy>
  </scstep>
  <scstep>
   <time name="dav">  106.02  106.07</time>
   <time name="total">  110.51  110.56</time>
   <energy>
    <i name="e_fr_energy">   -126.08680333 </i>
    <i name="e_wo_entrp">   -126.04069607 </i>
    <i name="e_0_energy">   -126.06374970 </i>
   </energy>
  </scstep>
  <scstep>
   <time name="dav">   74.22   74.24</time>
   <time name="total">   92.23   92.25</time>
   <energy>
    <i name="e_fr_energy">   -124.21117063 </i>
    <i name="e_wo_entrp">   -124.17266401 </i>
    <i name="e_0_energy">   -124.19191732 </i>
   </energy>
  </scstep>
  <scstep>
   <time name="dav">   82.88   82.90</time>
   <time name="total">  100.59  100.62</time>
   <energy>
    <i name="e_fr_energy">   -124.00725150 </i>
    <i name="e_wo_entrp">   -123.96821111 </i>
    <i name="e_0_energy">   -123.98773131 </i>
   </energy>
  </scstep>
  <scstep>
   <time name="dav">   81.66   81.70</time>
   <time name="total">   99.90   99.96</time>
   <energy>
    <i name="e_fr_energy">   -123.97873478 </i>
    <i name="e_wo_entrp">   -123.93920022 </i>
    <i name="e_0_energy">   -123.95896750 </i>
   </energy>
  </scstep>
  <scstep>
   <time name="dav">   72.84   72.88</time>
   <time name="total">   90.47   90.51</time>
   <energy>
    <i name="e_fr_energy">   -123.96448317 </i>
    <i name="e_wo_entrp">   -123.92376775 </i>
    <i name="e_0_energy">   -123.94412546 </i>
   </energy>
  </scstep>
  <scstep>
   <time name="dav">   87.37   87.43</time>
   <time name="total">  105.93  106.00</time>
   <energy>
    <i name="e_fr_energy">   -123.94306626 </i>
    <i name="e_wo_entrp">   -123.90341341 </i>
    <i name="e_0_energy">   -123.92323983 </i>
   </energy>
  </scstep>
  <scstep>
   <time name="dav">   92.23   92.30</time>
   <time name="total">  110.79  110.87</time>
   <energy>
    <i name="e_fr_energy">   -123.92801085 </i>
    <i name="e_wo_entrp">   -123.88788922 </i>
    <i name="e_0_energy">   -123.90795003 </i>
   </energy>
  </scstep>
  <scstep>
   <time name="dav">   85.95   86.03</time>
   <time name="total">  104.80  104.90</time>
   <energy>
    <i name="e_fr_energy">   -123.92189053 </i>
    <i name="e_wo_entrp">   -123.88171305 </i>
    <i name="e_0_energy">   -123.90180179 </i>
   </energy>
  </scstep>
  <scstep>
   <time name="dav">   87.96   88.00</time>
   <time name="total">  107.69  107.75</time>
   <energy>
    <i name="e_fr_energy">   -123.91853584 </i>
    <i name="e_wo_entrp">   -123.87834499 </i>
    <i name="e_0_energy">   -123.89844042 </i>
   </energy>
  </scstep>
  <scstep>
   <time name="dav">   85.14   85.17</time>
   <time name="total">  103.84  103.87</time>
   <energy>
    <i name="e_fr_energy">   -123.91496396 </i>
    <i name="e_wo_entrp">   -123.87477539 </i>
    <i name="e_0_energy">   -123.89486968 </i>
   </energy>
  </scstep>
  <scstep>
   <time name="dav">   80.35   80.40</time>
   <time name="total">   98.88   98.95</time>
   <energy>
    <i name="e_fr_energy">   -123.91364019 </i>
    <i name="e_wo_entrp">   -123.87344410 </i>
    <i name="e_0_energy">   -123.89354214 </i>
   </energy>
  </scstep>
  <scstep>
   <time name="dav">   75.16   75.18</time>
   <time name="total">   93.36   93.40</time>
   <energy>
    <i name="e_fr_energy">   -123.91372194 </i>
    <i name="e_wo_entrp">   -123.87351803 </i>
    <i name="e_0_energy">   -123.89361998 </i>
   </energy>
  </scstep>
  <scstep>
   <time name="dav">   86.38   86.41</time>
   <time name="total">  107.37  107.42</time>
   <energy>
    <i name="e_fr_energy">   -123.91425727 </i>
    <i name="e_wo_entrp">   -123.87405630 </i>
    <i name="e_0_energy">   -123.89415679 </i>
   </energy>
  </scstep>
  <scstep>
   <time name="dav">   94.34   94.40</time>
   <time name="total">  120.61  120.70</time>
   <energy>
    <i name="e_fr_energy">   -123.91447970 </i>
    <i name="e_wo_entrp">   -123.87427773 </i>
    <i name="e_0_energy">   -123.89437872 </i>
   </energy>
  </scstep>
  <scstep>
   <time name="dav">   87.21   87.29</time>
   <time name="total">  110.01  110.12</time>
   <energy>
    <i name="e_fr_energy">   -123.91453499 </i>
    <i name="e_wo_entrp">   -123.87433523 </i>
    <i name="e_0_energy">   -123.89443511 </i>
   </energy>
  </scstep>
  <scstep>
   <time name="dav">   64.56   64.59</time>
   <time name="total">   84.39   84.43</time>
   <energy>
    <i name="e_fr_energy">   -123.91458268 </i>
    <i name="e_wo_entrp">   -123.87438268 </i>
    <i name="e_0_energy">   -123.89448268 </i>
   </energy>
  </scstep>
  <scstep>
   <time name="dav">   63.11   63.13</time>
   <time name="total">   84.65   84.71</time>
   <energy>
    <i name="e_fr_energy">   -123.91460785 </i>
    <i name="e_wo_entrp">   -123.87440748 </i>
    <i name="e_0_energy">   -123.89450766 </i>
   </energy>
  </scstep>
  <scstep>
   <time name="dav">   66.23   66.24</time>
   <time name="total">   83.58   83.60</time>
   <energy>
    <i name="e_fr_energy">   -123.91458009 </i>
    <i name="e_wo_entrp">   -123.87438046 </i>
    <i name="e_0_energy">   -123.89448027 </i>
   </energy>
  </scstep>
  <scstep>
   <time name="dav">   62.68   62.70</time>
   <time name="total">   80.43   80.46</time>
   <energy>
    <i name="e_fr_energy">   -123.91452058 </i>
    <i name="e_wo_entrp">   -123.87432033 </i>
    <i name="e_0_energy">   -123.89442045 </i>
   </energy>
  </scstep>
  <scstep>
   <time name="dav">   58.37   58.39</time>
   <time name="total">   75.67   75.69</time>
   <energy>
    <i name="e_fr_energy">   -123.91449756 </i>
    <i name="e_wo_entrp">   -123.87429716 </i>
    <i name="e_0_energy">   -123.89439736 </i>
   </energy>
  </scstep>
  <scstep>
   <time name="dav">   59.56   59.57</time>
   <time name="total">   77.20   77.22</time>
   <energy>
    <i name="e_fr_energy">   -123.91448523 </i>
    <i name="e_wo_entrp">   -123.87428487 </i>
    <i name="e_0_energy">   -123.89438505 </i>
   </energy>
  </scstep>
  <scstep>
   <time name="dav">   57.13   57.17</time>
   <time name="total">   74.50   74.55</time>
   <energy>
    <i name="e_fr_energy">   -123.91448224 </i>
    <i name="e_wo_entrp">   -123.87428183 </i>
    <i name="e_0_energy">   -123.89438203 </i>
   </energy>
  </scstep>
  <scstep>
   <time name="dav">   63.00   63.03</time>
   <time name="total">   76.05   76.10</time>
   <energy>
    <i name="alphaZ">     36.80884744 </i>
    <i name="ewald">  11936.88449077 </i>
    <i name="hartreedc"> -15083.99561631 </i>
    <i name="XCdc">    -80.85783996 </i>
    <i name="pawpsdc">   1151.36995788 </i>
    <i name="pawaedc">   -830.02645270 </i>
    <i name="eentropy">     -0.04020041 </i>
    <i name="bandstr">   -608.09892994 </i>
    <i name="atom">   3354.04126044 </i>
    <i name="e_fr_energy">   -123.91448278 </i>
    <i name="e_wo_entrp">   -123.87428237 </i>
    <i name="e_0_energy">   -123.89438257 </i>
   </energy>
  </scstep>
  <structure>
   <crystal>
    <varray name="basis" >
     <v>       3.54040000       0.00000000       0.00000000 </v>
     <v>      -1.77020000      10.29434800       0.00000000 </v>
     <v>       0.00000000       0.00000000      27.50142900 </v>
    </varray>
    <i name="volume">   1002.32009712 </i>
    <varray name="rec_basis" >
     <v>       0.28245396       0.04857034       0.00000000 </v>
     <v>       0.00000000       0.09714068       0.00000000 </v>
     <v>       0.00000000       0.00000000       0.03636175 </v>
    </varray>
   </crystal>
   <varray name="positions" >
    <v>       0.11402300       0.22804500       0.23316207 </v>
    <v>       0.01402300       0.02804500       0.51499159 </v>
    <v>       0.45808900       0.91617900       0.20939482 </v>
    <v>       0.35808900       0.71617900       0.49122434 </v>
    <v>       0.31085400       0.62170900       0.08414979 </v>
    <v>       0.31085400       0.62170900       0.36597930 </v>
    <v>       0.99923000       0.99846000       0.08631254 </v>
    <v>       0.99923000       0.99846000       0.36814206 </v>
    <v>       0.65492700       0.30985400       0.06041748 </v>
    <v>       0.65492700       0.30985400       0.34224700 </v>
    <v>       0.76973800       0.53947500       0.20725292 </v>
    <v>       0.66973800       0.33947500       0.48908244 </v>
    <v>       0.93971600       0.87943300       0.15783749 </v>
    <v>       0.83971600       0.67943300       0.43966701 </v>
    <v>       0.20515200       0.41030300       0.18578822 </v>
    <v>       0.10515200       0.21030300       0.46761774 </v>
    <v>       0.20184900       0.40369900       0.09969156 </v>
    <v>       0.20184900       0.40369900       0.38152107 </v>
    <v>       0.56380500       0.12761000       0.10779021 </v>
    <v>       0.56380500       0.12761000       0.38961973 </v>
    <v>       0.56710600       0.13421200       0.19387616 </v>
    <v>       0.46710600       0.93421200       0.47570568 </v>
    <v>       0.82923400       0.65846800       0.13571444 </v>
    <v>       0.72923400       0.45846800       0.41754396 </v>
   </varray>
  </structure>
  <varray name="forces" >
   <v>      -0.00000000      -0.02615412       0.04727900 </v>
   <v>      -0.00000000       0.06531486      -0.08656143 </v>
   <v>      -0.00000000      -0.01018040       0.10327467 </v>
   <v>       0.00000000       0.69899815       0.08499983 </v>
   <v>      -0.00000000      -0.00751798       0.00832609 </v>
   <v>       0.00000000       0.53791765       0.08123193 </v>
   <v>      -0.00000000       0.01223221      -0.00195612 </v>
   <v>      -0.00000000      -0.11209276       0.20719238 </v>
   <v>      -0.00000000       0.00023385       0.01588022 </v>
   <v>       0.00000000      -1.19546483      -0.89506977 </v>
   <v>      -0.00000000       0.00725753       0.10228252 </v>
   <v>      -0.00000000       0.00857645       0.54467794 </v>
   <v>      -0.00000000       0.00849844       0.01258791 </v>
   <v>      -0.00000000      -0.43478390      -0.97781583 </v>
   <v>      -0.00000000       0.03382055       0.04267464 </v>
   <v>      -0.00000000       0.12551426      -0.02243370 </v>
   <v>      -0.00000000      -0.00314367      -0.03135133 </v>
   <v>      -0.00000000      -0.99871833      -3.48615919 </v>
   <v>      -0.00000000      -0.00647455      -0.03581216 </v>
   <v>       0.00000000      -1.01830973      -0.38820234 </v>
   <v>      -0.00000000      -0.06548399       0.04748631 </v>
   <v>      -0.00000000       0.11992347       0.03445998 </v>
   <v>      -0.00000000       0.01231025      -0.00204633 </v>
   <v>       0.00000000       2.24772657       4.59505479 </v>
  </varray>
  <varray name="stress" >
   <v>      11.80677207       0.00000000       0.00000000 </v>
   <v>       0.00000000       4.28118404       8.87886837 </v>
   <v>       0.00000000       8.87886841       4.72545107 </v>
  </varray>
  <energy>
   <i name="e_fr_energy">   -123.91448278 </i>
   <i name="e_wo_entrp">   -123.89438257 </i>
   <i name="e_0_energy">     -0.04020041 </i>
  </energy>
  <time name="totalsc"> 2661.59 2663.10</time>
  <eigenvalues>
   <array>
    <dimension dim="1">band</dimension>
    <dimension dim="2">kpoint</dimension>
    <dimension dim="3">spin</dimension>
    <field>eigene</field>
    <field>occ</field>
    <set>
     <set comment="spin 1">
      <set comment="kpoint 1">
       <r>  -14.0371    1.0000 </r>
       <r>  -13.6561    1.0000 </r>
       <r>  -12.9131    1.0000 </r>
       <r>  -12.6850    1.0000 </r>
       <r>  -12.6019    1.0000 </r>
       <r>  -12.2040    1.0000 </r>
       <r>  -12.1653    1.0000 </r>
       <r>  -11.6685    1.0000 </r>
       <r>  -11.5458    1.0000 </r>
       <r>  -11.1041    1.0000 </r>
       <r>  -11.0360    1.0000 </r>
       <r>  -10.5276    1.0000 </r>
       <r>   -8.3060    1.0000 </r>
       <r>   -8.1288    1.0000 </r>
       <r>   -7.9463    1.0000 </r>
       <r>   -6.9958    1.0000 </r>
       <r>   -6.9272    1.0000 </r>
       <r>   -6.6264    1.0000 </r>
       <r>   -6.6017    1.0000 </r>
       <r>   -6.1633    1.0000 </r>
       <r>   -5.9337    1.0000 </r>
       <r>   -5.2988    1.0000 </r>
       <r>   -4.8588    1.0000 </r>
       <r>   -4.3474    1.0000 </r>
       <r>   -4.0757    1.0000 </r>
       <r>   -3.8747    1.0000 </r>
       <r>   -3.7895    1.0000 </r>
       <r>   -3.7049    1.0000 </r>
       <r>   -3.3229    1.0000 </r>
       <r>   -3.1751    1.0000 </r>
       <r>   -2.9633    1.0000 </r>
       <r>   -2.9544    1.0000 </r>
       <r>   -2.6714    1.0000 </r>
       <r>   -2.5780    1.0000 </r>
       <r>   -2.5537    1.0000 </r>
       <r>   -2.5132    1.0000 </r>
       <r>   -2.2632    1.0000 </r>
       <r>   -2.1787    1.0000 </r>
       <r>   -2.0180    1.0000 </r>
       <r>   -2.0083    1.0000 </r>
       <r>   -1.9128    1.0000 </r>
       <r>   -1.8405    1.0000 </r>
       <r>   -1.7609    1.0000 </r>
       <r>   -1.6809    1.0000 </r>
       <r>   -1.5481    1.0000 </r>
       <r>   -1.4827    1.0000 </r>
       <r>   -1.4187    1.0000 </r>
       <r>   -1.3880    1.0000 </r>
       <r>   -1.1777    1.0000 </r>
       <r>   -1.0334    1.0000 </r>
       <r>   -0.5891    1.0000 </r>
       <r>   -0.4577    1.0000 </r>
       <r>   -0.3452    1.0000 </r>
       <r>   -0.0223    0.7314 </r>
       <r>    0.3758    0.0000 </r>
       <r>    0.7412    0.0000 </r>
       <r>    1.0481    0.0000 </r>
       <r>    1.1741    0.0000 </r>
       <r>    1.2107    0.0000 </r>
       <r>    1.4068    0.0000 </r>
       <r>    1.5932    0.0000 </r>
       <r>    1.7789    0.0000 </r>
       <r>    1.8620    0.0000 </r>
       <r>    1.9958    0.0000 </r>
       <r>    2.3131    0.0000 </r>
       <r>    2.5059    0.0000 </r>
       <r>    2.5449    0.0000 </r>
       <r>    2.6739    0.0000 </r>
      </set>
      <set comment="kpoint 2">
       <r>  -13.9755    1.0000 </r>
       <r>  -13.5947    1.0000 </r>
       <r>  -12.8610    1.0000 </r>
       <r>  -12.6290    1.0000 </r>
       <r>  -12.5464    1.0000 </r>
       <r>  -12.1421    1.0000 </r>
       <r>  -12.1061    1.0000 </r>
       <r>  -11.6125    1.0000 </r>
       <r>  -11.4967    1.0000 </r>
       <r>  -11.0557    1.0000 </r>
       <r>  -10.9856    1.0000 </r>
       <r>  -10.4834    1.0000 </r>
       <r>   -8.2724    1.0000 </r>
       <r>   -8.1592    1.0000 </r>
       <r>   -7.9074    1.0000 </r>
       <r>   -6.9796    1.0000 </r>
       <r>   -6.9094    1.0000 </r>
       <r>   -6.6288    1.0000 </r>
       <r>   -6.5972    1.0000 </r>
       <r>   -6.1600    1.0000 </r>
       <r>   -5.9008    1.0000 </r>
       <r>   -5.3008    1.0000 </r>
       <r>   -4.8632    1.0000 </r>
       <r>   -4.5147    1.0000 </r>
       <r>   -4.3223    1.0000 </r>
       <r>   -3.8891    1.0000 </r>
       <r>   -3.7971    1.0000 </r>
       <r>   -3.6873    1.0000 </r>
       <r>   -3.5997    1.0000 </r>
       <r>   -3.3931    1.0000 </r>
       <r>   -3.3245    1.0000 </r>
       <r>   -3.0731    1.0000 </r>
       <r>   -2.9911    1.0000 </r>
       <r>   -2.8596    1.0000 </r>
       <r>   -2.6897    1.0000 </r>
       <r>   -2.5883    1.0000 </r>
       <r>   -2.3561    1.0000 </r>
       <r>   -2.3317    1.0000 </r>
       <r>   -2.2713    1.0000 </r>
       <r>   -2.1435    1.0000 </r>
       <r>   -2.0749    1.0000 </r>
       <r>   -2.0127    1.0000 </r>
       <r>   -1.9343    1.0000 </r>
       <r>   -1.8687    1.0000 </r>
       <r>   -1.8332    1.0000 </r>
       <r>   -1.7565    1.0000 </r>
       <r>   -1.6181    1.0000 </r>
       <r>   -1.3126    1.0000 </r>
       <r>   -1.1433    1.0000 </r>
       <r>   -1.0802    1.0000 </r>
       <r>   -0.6987    1.0000 </r>
       <r>   -0.4334    1.0000 </r>
       <r>   -0.2003    0.9991 </r>
       <r>    0.1775    0.0136 </r>
       <r>    0.5078    0.0000 </r>
       <r>    0.8879    0.0000 </r>
       <r>    1.1578    0.0000 </r>
       <r>    1.4149    0.0000 </r>
       <r>    1.5250    0.0000 </r>
       <r>    1.6507    0.0000 </r>
       <r>    1.9960    0.0000 </r>
       <r>    2.0741    0.0000 </r>
       <r>    2.0954    0.0000 </r>
       <r>    2.1739    0.0000 </r>
       <r>    2.4936    0.0000 </r>
       <r>    2.6434    0.0000 </r>
       <r>    2.7433    0.0000 </r>
       <r>    2.7773    0.0000 </r>
      </set>
      <set comment="kpoint 3">
       <r>  -13.7920    1.0000 </r>
       <r>  -13.4117    1.0000 </r>
       <r>  -12.7052    1.0000 </r>
       <r>  -12.4623    1.0000 </r>
       <r>  -12.3820    1.0000 </r>
       <r>  -11.9610    1.0000 </r>
       <r>  -11.9315    1.0000 </r>
       <r>  -11.4476    1.0000 </r>
       <r>  -11.3542    1.0000 </r>
       <r>  -10.9170    1.0000 </r>
       <r>  -10.8390    1.0000 </r>
       <r>  -10.3579    1.0000 </r>
       <r>   -8.2905    1.0000 </r>
       <r>   -8.1229    1.0000 </r>
       <r>   -7.8637    1.0000 </r>
       <r>   -7.0407    1.0000 </r>
       <r>   -6.8541    1.0000 </r>
       <r>   -6.6771    1.0000 </r>
       <r>   -6.6142    1.0000 </r>
       <r>   -6.2169    1.0000 </r>
       <r>   -5.8288    1.0000 </r>
       <r>   -5.4339    1.0000 </r>
       <r>   -5.1185    1.0000 </r>
       <r>   -4.9709    1.0000 </r>
       <r>   -4.3725    1.0000 </r>
       <r>   -4.2961    1.0000 </r>
       <r>   -4.2004    1.0000 </r>
       <r>   -4.0874    1.0000 </r>
       <r>   -3.8871    1.0000 </r>
       <r>   -3.7513    1.0000 </r>
       <r>   -3.6932    1.0000 </r>
       <r>   -3.5656    1.0000 </r>
       <r>   -3.4254    1.0000 </r>
       <r>   -3.2480    1.0000 </r>
       <r>   -3.1396    1.0000 </r>
       <r>   -3.0772    1.0000 </r>
       <r>   -2.9748    1.0000 </r>
       <r>   -2.7246    1.0000 </r>
       <r>   -2.5629    1.0000 </r>
       <r>   -2.4964    1.0000 </r>
       <r>   -2.3738    1.0000 </r>
       <r>   -2.2700    1.0000 </r>
       <r>   -2.2411    1.0000 </r>
       <r>   -2.0526    1.0000 </r>
       <r>   -1.9389    1.0000 </r>
       <r>   -1.8618    1.0000 </r>
       <r>   -1.7616    1.0000 </r>
       <r>   -1.4800    1.0000 </r>
       <r>   -1.3397    1.0000 </r>
       <r>   -1.1142    1.0000 </r>
       <r>   -0.8021    1.0000 </r>
       <r>   -0.3986    1.0000 </r>
       <r>   -0.0891    0.9408 </r>
       <r>    0.1028    0.1246 </r>
       <r>    0.6283    0.0000 </r>
       <r>    1.0014    0.0000 </r>
       <r>    1.3528    0.0000 </r>
       <r>    1.7738    0.0000 </r>
       <r>    1.8832    0.0000 </r>
       <r>    2.0868    0.0000 </r>
       <r>    2.1714    0.0000 </r>
       <r>    2.3299    0.0000 </r>
       <r>    2.4897    0.0000 </r>
       <r>    2.5404    0.0000 </r>
       <r>    2.8052    0.0000 </r>
       <r>    2.9149    0.0000 </r>
       <r>    2.9485    0.0000 </r>
       <r>    3.1137    0.0000 </r>
      </set>
      <set comment="kpoint 4">
       <r>  -13.4913    1.0000 </r>
       <r>  -13.1107    1.0000 </r>
       <r>  -12.4488    1.0000 </r>
       <r>  -12.1895    1.0000 </r>
       <r>  -12.1157    1.0000 </r>
       <r>  -11.6765    1.0000 </r>
       <r>  -11.6523    1.0000 </r>
       <r>  -11.1858    1.0000 </r>
       <r>  -11.1358    1.0000 </r>
       <r>  -10.7141    1.0000 </r>
       <r>  -10.6155    1.0000 </r>
       <r>  -10.1759    1.0000 </r>
       <r>   -8.4755    1.0000 </r>
       <r>   -7.9956    1.0000 </r>
       <r>   -7.9303    1.0000 </r>
       <r>   -7.4666    1.0000 </r>
       <r>   -6.9229    1.0000 </r>
       <r>   -6.8097    1.0000 </r>
       <r>   -6.7516    1.0000 </r>
       <r>   -6.3596    1.0000 </r>
       <r>   -5.8525    1.0000 </r>
       <r>   -5.7735    1.0000 </r>
       <r>   -5.4544    1.0000 </r>
       <r>   -5.4216    1.0000 </r>
       <r>   -4.9266    1.0000 </r>
       <r>   -4.7289    1.0000 </r>
       <r>   -4.6273    1.0000 </r>
       <r>   -4.6060    1.0000 </r>
       <r>   -4.3709    1.0000 </r>
       <r>   -4.2604    1.0000 </r>
       <r>   -3.9946    1.0000 </r>
       <r>   -3.8976    1.0000 </r>
       <r>   -3.7660    1.0000 </r>
       <r>   -3.5881    1.0000 </r>
       <r>   -3.5453    1.0000 </r>
       <r>   -3.2143    1.0000 </r>
       <r>   -3.1399    1.0000 </r>
       <r>   -3.1021    1.0000 </r>
       <r>   -3.0038    1.0000 </r>
       <r>   -2.7178    1.0000 </r>
       <r>   -2.5804    1.0000 </r>
       <r>   -2.5233    1.0000 </r>
       <r>   -2.3267    1.0000 </r>
       <r>   -2.0373    1.0000 </r>
       <r>   -1.9813    1.0000 </r>
       <r>   -1.9226    1.0000 </r>
       <r>   -1.8307    1.0000 </r>
       <r>   -1.5898    1.0000 </r>
       <r>   -1.4950    1.0000 </r>
       <r>   -1.2304    1.0000 </r>
       <r>   -0.9681    1.0000 </r>
       <r>   -0.6344    1.0000 </r>
       <r>   -0.2446    0.9999 </r>
       <r>   -0.0029    0.6342 </r>
       <r>    0.5510    0.0000 </r>
       <r>    0.6248    0.0000 </r>
       <r>    1.1572    0.0000 </r>
       <r>    1.6158    0.0000 </r>
       <r>    1.7843    0.0000 </r>
       <r>    1.9176    0.0000 </r>
       <r>    2.1418    0.0000 </r>
       <r>    2.2331    0.0000 </r>
       <r>    2.5504    0.0000 </r>
       <r>    2.6895    0.0000 </r>
       <r>    2.7667    0.0000 </r>
       <r>    2.8716    0.0000 </r>
       <r>    2.9553    0.0000 </r>
       <r>    3.1157    0.0000 </r>
      </set>
      <set comment="kpoint 5">
       <r>  -13.0839    1.0000 </r>
       <r>  -12.6990    1.0000 </r>
       <r>  -12.1003    1.0000 </r>
       <r>  -11.8225    1.0000 </r>
       <r>  -11.7642    1.0000 </r>
       <r>  -11.3218    1.0000 </r>
       <r>  -11.2987    1.0000 </r>
       <r>  -10.8960    1.0000 </r>
       <r>  -10.8517    1.0000 </r>
       <r>  -10.5284    1.0000 </r>
       <r>  -10.3862    1.0000 </r>
       <r>   -9.9812    1.0000 </r>
       <r>   -8.7699    1.0000 </r>
       <r>   -8.2562    1.0000 </r>
       <r>   -8.2007    1.0000 </r>
       <r>   -7.7843    1.0000 </r>
       <r>   -7.3345    1.0000 </r>
       <r>   -7.1137    1.0000 </r>
       <r>   -7.0175    1.0000 </r>
       <r>   -6.5870    1.0000 </r>
       <r>   -6.3223    1.0000 </r>
       <r>   -6.2655    1.0000 </r>
       <r>   -6.0832    1.0000 </r>
       <r>   -5.8420    1.0000 </r>
       <r>   -5.3241    1.0000 </r>
       <r>   -4.9330    1.0000 </r>
       <r>   -4.8624    1.0000 </r>
       <r>   -4.8138    1.0000 </r>
       <r>   -4.5170    1.0000 </r>
       <r>   -4.4140    1.0000 </r>
       <r>   -4.3527    1.0000 </r>
       <r>   -4.3107    1.0000 </r>
       <r>   -3.9110    1.0000 </r>
       <r>   -3.7496    1.0000 </r>
       <r>   -3.5097    1.0000 </r>
       <r>   -3.3687    1.0000 </r>
       <r>   -3.1963    1.0000 </r>
       <r>   -3.1745    1.0000 </r>
       <r>   -3.0619    1.0000 </r>
       <r>   -2.8760    1.0000 </r>
       <r>   -2.7404    1.0000 </r>
       <r>   -2.6942    1.0000 </r>
       <r>   -2.2913    1.0000 </r>
       <r>   -2.1710    1.0000 </r>
       <r>   -2.0314    1.0000 </r>
       <r>   -1.9878    1.0000 </r>
       <r>   -1.8885    1.0000 </r>
       <r>   -1.8169    1.0000 </r>
       <r>   -1.6014    1.0000 </r>
       <r>   -1.4443    1.0000 </r>
       <r>   -1.1964    1.0000 </r>
       <r>   -0.8404    1.0000 </r>
       <r>   -0.3272    1.0000 </r>
       <r>   -0.2022    0.9992 </r>
       <r>    0.1218    0.0776 </r>
       <r>    0.4298    0.0000 </r>
       <r>    0.8381    0.0000 </r>
       <r>    1.2429    0.0000 </r>
       <r>    1.5067    0.0000 </r>
       <r>    1.6881    0.0000 </r>
       <r>    1.8678    0.0000 </r>
       <r>    2.1199    0.0000 </r>
       <r>    2.2503    0.0000 </r>
       <r>    2.5074    0.0000 </r>
       <r>    2.6958    0.0000 </r>
       <r>    2.7646    0.0000 </r>
       <r>    2.8983    0.0000 </r>
       <r>    3.0026    0.0000 </r>
      </set>
      <set comment="kpoint 6">
       <r>  -12.5981    1.0000 </r>
       <r>  -12.1907    1.0000 </r>
       <r>  -11.6808    1.0000 </r>
       <r>  -11.3933    1.0000 </r>
       <r>  -11.3658    1.0000 </r>
       <r>  -10.9755    1.0000 </r>
       <r>  -10.9599    1.0000 </r>
       <r>  -10.7384    1.0000 </r>
       <r>  -10.5749    1.0000 </r>
       <r>  -10.5660    1.0000 </r>
       <r>  -10.3545    1.0000 </r>
       <r>   -9.7575    1.0000 </r>
       <r>   -8.9457    1.0000 </r>
       <r>   -8.7095    1.0000 </r>
       <r>   -8.4944    1.0000 </r>
       <r>   -8.0527    1.0000 </r>
       <r>   -7.5747    1.0000 </r>
       <r>   -7.5568    1.0000 </r>
       <r>   -7.5228    1.0000 </r>
       <r>   -7.1951    1.0000 </r>
       <r>   -6.8701    1.0000 </r>
       <r>   -6.7809    1.0000 </r>
       <r>   -6.7218    1.0000 </r>
       <r>   -6.3218    1.0000 </r>
       <r>   -5.3253    1.0000 </r>
       <r>   -4.9292    1.0000 </r>
       <r>   -4.7894    1.0000 </r>
       <r>   -4.6493    1.0000 </r>
       <r>   -4.5885    1.0000 </r>
       <r>   -4.3594    1.0000 </r>
       <r>   -4.3071    1.0000 </r>
       <r>   -4.1837    1.0000 </r>
       <r>   -4.0666    1.0000 </r>
       <r>   -3.7671    1.0000 </r>
       <r>   -3.6599    1.0000 </r>
       <r>   -3.3885    1.0000 </r>
       <r>   -3.3641    1.0000 </r>
       <r>   -3.2662    1.0000 </r>
       <r>   -3.2453    1.0000 </r>
       <r>   -2.9052    1.0000 </r>
       <r>   -2.8459    1.0000 </r>
       <r>   -2.6138    1.0000 </r>
       <r>   -2.4119    1.0000 </r>
       <r>   -2.3081    1.0000 </r>
       <r>   -2.2044    1.0000 </r>
       <r>   -2.1366    1.0000 </r>
       <r>   -1.9760    1.0000 </r>
       <r>   -1.9310    1.0000 </r>
       <r>   -1.7816    1.0000 </r>
       <r>   -1.5540    1.0000 </r>
       <r>   -1.2128    1.0000 </r>
       <r>   -0.9851    1.0000 </r>
       <r>   -0.6121    1.0000 </r>
       <r>   -0.2262    0.9998 </r>
       <r>   -0.0720    0.9066 </r>
       <r>    0.1919    0.0079 </r>
       <r>    0.4697    0.0000 </r>
       <r>    1.0490    0.0000 </r>
       <r>    1.3176    0.0000 </r>
       <r>    1.5710    0.0000 </r>
       <r>    1.6241    0.0000 </r>
       <r>    1.9508    0.0000 </r>
       <r>    2.1428    0.0000 </r>
       <r>    2.1915    0.0000 </r>
       <r>    2.4144    0.0000 </r>
       <r>    2.5651    0.0000 </r>
       <r>    2.7158    0.0000 </r>
       <r>    2.8739    0.0000 </r>
      </set>
      <set comment="kpoint 7">
       <r>  -12.1421    1.0000 </r>
       <r>  -11.6178    1.0000 </r>
       <r>  -11.2578    1.0000 </r>
       <r>  -11.0876    1.0000 </r>
       <r>  -11.0696    1.0000 </r>
       <r>  -10.9562    1.0000 </r>
       <r>  -10.8430    1.0000 </r>
       <r>  -10.8315    1.0000 </r>
       <r>  -10.7510    1.0000 </r>
       <r>  -10.5444    1.0000 </r>
       <r>  -10.3933    1.0000 </r>
       <r>   -9.4780    1.0000 </r>
       <r>   -8.9219    1.0000 </r>
       <r>   -8.8011    1.0000 </r>
       <r>   -8.5580    1.0000 </r>
       <r>   -8.2616    1.0000 </r>
       <r>   -8.1932    1.0000 </r>
       <r>   -7.8407    1.0000 </r>
       <r>   -7.6920    1.0000 </r>
       <r>   -7.4705    1.0000 </r>
       <r>   -7.4010    1.0000 </r>
       <r>   -7.2892    1.0000 </r>
       <r>   -7.1024    1.0000 </r>
       <r>   -6.5521    1.0000 </r>
       <r>   -5.0442    1.0000 </r>
       <r>   -4.9659    1.0000 </r>
       <r>   -4.6260    1.0000 </r>
       <r>   -4.6000    1.0000 </r>
       <r>   -4.3847    1.0000 </r>
       <r>   -4.3414    1.0000 </r>
       <r>   -4.1705    1.0000 </r>
       <r>   -4.0593    1.0000 </r>
       <r>   -3.9423    1.0000 </r>
       <r>   -3.8807    1.0000 </r>
       <r>   -3.6979    1.0000 </r>
       <r>   -3.5811    1.0000 </r>
       <r>   -3.3902    1.0000 </r>
       <r>   -3.3591    1.0000 </r>
       <r>   -3.3194    1.0000 </r>
       <r>   -3.1083    1.0000 </r>
       <r>   -2.9438    1.0000 </r>
       <r>   -2.8023    1.0000 </r>
       <r>   -2.4833    1.0000 </r>
       <r>   -2.4238    1.0000 </r>
       <r>   -2.3094    1.0000 </r>
       <r>   -2.2374    1.0000 </r>
       <r>   -2.0645    1.0000 </r>
       <r>   -1.8355    1.0000 </r>
       <r>   -1.7007    1.0000 </r>
       <r>   -1.6254    1.0000 </r>
       <r>   -1.1809    1.0000 </r>
       <r>   -1.1064    1.0000 </r>
       <r>   -0.6369    1.0000 </r>
       <r>   -0.3992    1.0000 </r>
       <r>   -0.1322    0.9850 </r>
       <r>   -0.0103    0.6728 </r>
       <r>    0.3011    0.0000 </r>
       <r>    0.9626    0.0000 </r>
       <r>    1.2635    0.0000 </r>
       <r>    1.4535    0.0000 </r>
       <r>    1.5619    0.0000 </r>
       <r>    1.7568    0.0000 </r>
       <r>    1.9583    0.0000 </r>
       <r>    2.1402    0.0000 </r>
       <r>    2.2821    0.0000 </r>
       <r>    2.3703    0.0000 </r>
       <r>    2.5997    0.0000 </r>
       <r>    2.7855    0.0000 </r>
      </set>
      <set comment="kpoint 8">
       <r>  -14.0305    1.0000 </r>
       <r>  -13.6012    1.0000 </r>
       <r>  -13.0868    1.0000 </r>
       <r>  -12.7419    1.0000 </r>
       <r>  -12.6041    1.0000 </r>
       <r>  -12.1279    1.0000 </r>
       <r>  -11.9858    1.0000 </r>
       <r>  -11.6037    1.0000 </r>
       <r>  -11.5697    1.0000 </r>
       <r>  -11.1345    1.0000 </r>
       <r>  -11.1132    1.0000 </r>
       <r>  -10.4816    1.0000 </r>
       <r>   -8.6332    1.0000 </r>
       <r>   -8.3222    1.0000 </r>
       <r>   -7.5073    1.0000 </r>
       <r>   -7.1191    1.0000 </r>
       <r>   -6.7883    1.0000 </r>
       <r>   -6.7336    1.0000 </r>
       <r>   -6.6232    1.0000 </r>
       <r>   -5.9456    1.0000 </r>
       <r>   -5.8500    1.0000 </r>
       <r>   -5.2549    1.0000 </r>
       <r>   -4.7553    1.0000 </r>
       <r>   -4.2783    1.0000 </r>
       <r>   -4.1252    1.0000 </r>
       <r>   -4.0776    1.0000 </r>
       <r>   -3.7983    1.0000 </r>
       <r>   -3.6102    1.0000 </r>
       <r>   -3.4112    1.0000 </r>
       <r>   -3.2450    1.0000 </r>
       <r>   -3.2166    1.0000 </r>
       <r>   -2.8217    1.0000 </r>
       <r>   -2.7143    1.0000 </r>
       <r>   -2.5564    1.0000 </r>
       <r>   -2.5143    1.0000 </r>
       <r>   -2.4867    1.0000 </r>
       <r>   -2.3677    1.0000 </r>
       <r>   -2.2047    1.0000 </r>
       <r>   -2.0662    1.0000 </r>
       <r>   -2.0307    1.0000 </r>
       <r>   -1.9950    1.0000 </r>
       <r>   -1.8745    1.0000 </r>
       <r>   -1.7459    1.0000 </r>
       <r>   -1.5656    1.0000 </r>
       <r>   -1.5593    1.0000 </r>
       <r>   -1.4759    1.0000 </r>
       <r>   -1.3529    1.0000 </r>
       <r>   -1.3111    1.0000 </r>
       <r>   -1.2135    1.0000 </r>
       <r>   -1.0998    1.0000 </r>
       <r>   -0.7156    1.0000 </r>
       <r>   -0.4817    1.0000 </r>
       <r>   -0.3389    1.0000 </r>
       <r>    0.0986    0.1371 </r>
       <r>    0.4137    0.0000 </r>
       <r>    0.7009    0.0000 </r>
       <r>    1.0842    0.0000 </r>
       <r>    1.2608    0.0000 </r>
       <r>    1.3106    0.0000 </r>
       <r>    1.4029    0.0000 </r>
       <r>    1.6105    0.0000 </r>
       <r>    1.6803    0.0000 </r>
       <r>    1.8620    0.0000 </r>
       <r>    2.1332    0.0000 </r>
       <r>    2.3598    0.0000 </r>
       <r>    2.5386    0.0000 </r>
       <r>    2.6431    0.0000 </r>
       <r>    2.7211    0.0000 </r>
      </set>
      <set comment="kpoint 9">
       <r>  -13.9676    1.0000 </r>
       <r>  -13.5245    1.0000 </r>
       <r>  -13.0675    1.0000 </r>
       <r>  -12.6958    1.0000 </r>
       <r>  -12.5474    1.0000 </r>
       <r>  -12.0639    1.0000 </r>
       <r>  -11.8855    1.0000 </r>
       <r>  -11.5562    1.0000 </r>
       <r>  -11.4970    1.0000 </r>
       <r>  -11.1066    1.0000 </r>
       <r>  -11.0691    1.0000 </r>
       <r>  -10.4296    1.0000 </r>
       <r>   -8.6906    1.0000 </r>
       <r>   -8.2885    1.0000 </r>
       <r>   -7.4606    1.0000 </r>
       <r>   -7.1500    1.0000 </r>
       <r>   -6.7972    1.0000 </r>
       <r>   -6.6718    1.0000 </r>
       <r>   -6.5931    1.0000 </r>
       <r>   -5.9012    1.0000 </r>
       <r>   -5.8032    1.0000 </r>
       <r>   -5.2570    1.0000 </r>
       <r>   -4.8032    1.0000 </r>
       <r>   -4.5575    1.0000 </r>
       <r>   -4.2778    1.0000 </r>
       <r>   -4.1720    1.0000 </r>
       <r>   -3.7887    1.0000 </r>
       <r>   -3.7120    1.0000 </r>
       <r>   -3.5243    1.0000 </r>
       <r>   -3.4470    1.0000 </r>
       <r>   -3.3137    1.0000 </r>
       <r>   -3.1324    1.0000 </r>
       <r>   -2.9288    1.0000 </r>
       <r>   -2.8588    1.0000 </r>
       <r>   -2.6761    1.0000 </r>
       <r>   -2.5875    1.0000 </r>
       <r>   -2.5080    1.0000 </r>
       <r>   -2.4000    1.0000 </r>
       <r>   -2.2974    1.0000 </r>
       <r>   -2.2218    1.0000 </r>
       <r>   -2.1075    1.0000 </r>
       <r>   -2.0510    1.0000 </r>
       <r>   -1.9515    1.0000 </r>
       <r>   -1.8771    1.0000 </r>
       <r>   -1.8300    1.0000 </r>
       <r>   -1.6845    1.0000 </r>
       <r>   -1.4814    1.0000 </r>
       <r>   -1.2681    1.0000 </r>
       <r>   -1.2104    1.0000 </r>
       <r>   -1.0554    1.0000 </r>
       <r>   -0.8159    1.0000 </r>
       <r>   -0.5296    1.0000 </r>
       <r>   -0.1182    0.9758 </r>
       <r>    0.1931    0.0075 </r>
       <r>    0.6194    0.0000 </r>
       <r>    0.9149    0.0000 </r>
       <r>    1.0579    0.0000 </r>
       <r>    1.4856    0.0000 </r>
       <r>    1.6327    0.0000 </r>
       <r>    1.6701    0.0000 </r>
       <r>    1.8188    0.0000 </r>
       <r>    2.0722    0.0000 </r>
       <r>    2.1421    0.0000 </r>
       <r>    2.3644    0.0000 </r>
       <r>    2.5288    0.0000 </r>
       <r>    2.6793    0.0000 </r>
       <r>    2.8804    0.0000 </r>
       <r>    2.9127    0.0000 </r>
      </set>
      <set comment="kpoint 10">
       <r>  -13.7833    1.0000 </r>
       <r>  -13.3282    1.0000 </r>
       <r>  -12.9308    1.0000 </r>
       <r>  -12.5326    1.0000 </r>
       <r>  -12.3815    1.0000 </r>
       <r>  -11.8932    1.0000 </r>
       <r>  -11.6869    1.0000 </r>
       <r>  -11.4147    1.0000 </r>
       <r>  -11.3132    1.0000 </r>
       <r>  -10.9777    1.0000 </r>
       <r>  -10.9279    1.0000 </r>
       <r>  -10.2985    1.0000 </r>
       <r>   -8.7555    1.0000 </r>
       <r>   -8.1819    1.0000 </r>
       <r>   -7.4328    1.0000 </r>
       <r>   -7.2474    1.0000 </r>
       <r>   -6.7749    1.0000 </r>
       <r>   -6.6314    1.0000 </r>
       <r>   -6.5478    1.0000 </r>
       <r>   -6.0057    1.0000 </r>
       <r>   -5.7611    1.0000 </r>
       <r>   -5.3910    1.0000 </r>
       <r>   -5.2499    1.0000 </r>
       <r>   -4.9505    1.0000 </r>
       <r>   -4.5006    1.0000 </r>
       <r>   -4.4174    1.0000 </r>
       <r>   -4.2825    1.0000 </r>
       <r>   -4.0875    1.0000 </r>
       <r>   -3.9345    1.0000 </r>
       <r>   -3.7338    1.0000 </r>
       <r>   -3.6088    1.0000 </r>
       <r>   -3.4479    1.0000 </r>
       <r>   -3.3282    1.0000 </r>
       <r>   -3.1719    1.0000 </r>
       <r>   -3.0758    1.0000 </r>
       <r>   -2.9551    1.0000 </r>
       <r>   -2.8730    1.0000 </r>
       <r>   -2.8402    1.0000 </r>
       <r>   -2.7122    1.0000 </r>
       <r>   -2.5110    1.0000 </r>
       <r>   -2.4631    1.0000 </r>
       <r>   -2.4077    1.0000 </r>
       <r>   -2.2521    1.0000 </r>
       <r>   -2.0586    1.0000 </r>
       <r>   -2.0094    1.0000 </r>
       <r>   -1.9265    1.0000 </r>
       <r>   -1.6173    1.0000 </r>
       <r>   -1.5518    1.0000 </r>
       <r>   -1.2708    1.0000 </r>
       <r>   -1.1470    1.0000 </r>
       <r>   -0.9450    1.0000 </r>
       <r>   -0.4141    1.0000 </r>
       <r>    0.0229    0.4913 </r>
       <r>    0.1284    0.0649 </r>
       <r>    0.5922    0.0000 </r>
       <r>    0.9768    0.0000 </r>
       <r>    1.3917    0.0000 </r>
       <r>    1.5741    0.0000 </r>
       <r>    1.8437    0.0000 </r>
       <r>    1.9949    0.0000 </r>
       <r>    2.0839    0.0000 </r>
       <r>    2.2298    0.0000 </r>
       <r>    2.5666    0.0000 </r>
       <r>    2.7204    0.0000 </r>
       <r>    2.8943    0.0000 </r>
       <r>    2.9694    0.0000 </r>
       <r>    3.0730    0.0000 </r>
       <r>    3.1537    0.0000 </r>
      </set>
      <set comment="kpoint 11">
       <r>  -13.4825    1.0000 </r>
       <r>  -13.0170    1.0000 </r>
       <r>  -12.6790    1.0000 </r>
       <r>  -12.2565    1.0000 </r>
       <r>  -12.1141    1.0000 </r>
       <r>  -11.6269    1.0000 </r>
       <r>  -11.4095    1.0000 </r>
       <r>  -11.1919    1.0000 </r>
       <r>  -11.0354    1.0000 </r>
       <r>  -10.7656    1.0000 </r>
       <r>  -10.7104    1.0000 </r>
       <r>  -10.1121    1.0000 </r>
       <r>   -8.8866    1.0000 </r>
       <r>   -8.0699    1.0000 </r>
       <r>   -7.5964    1.0000 </r>
       <r>   -7.5050    1.0000 </r>
       <r>   -6.8142    1.0000 </r>
       <r>   -6.7618    1.0000 </r>
       <r>   -6.6258    1.0000 </r>
       <r>   -6.4019    1.0000 </r>
       <r>   -5.9357    1.0000 </r>
       <r>   -5.8470    1.0000 </r>
       <r>   -5.4977    1.0000 </r>
       <r>   -5.3228    1.0000 </r>
       <r>   -5.1414    1.0000 </r>
       <r>   -4.7815    1.0000 </r>
       <r>   -4.7038    1.0000 </r>
       <r>   -4.6602    1.0000 </r>
       <r>   -4.3063    1.0000 </r>
       <r>   -4.1262    1.0000 </r>
       <r>   -3.9726    1.0000 </r>
       <r>   -3.8492    1.0000 </r>
       <r>   -3.7241    1.0000 </r>
       <r>   -3.4108    1.0000 </r>
       <r>   -3.3186    1.0000 </r>
       <r>   -3.2105    1.0000 </r>
       <r>   -3.1439    1.0000 </r>
       <r>   -3.0478    1.0000 </r>
       <r>   -2.9427    1.0000 </r>
       <r>   -2.7283    1.0000 </r>
       <r>   -2.6413    1.0000 </r>
       <r>   -2.5336    1.0000 </r>
       <r>   -2.3613    1.0000 </r>
       <r>   -2.1331    1.0000 </r>
       <r>   -2.0883    1.0000 </r>
       <r>   -1.9781    1.0000 </r>
       <r>   -1.8824    1.0000 </r>
       <r>   -1.5961    1.0000 </r>
       <r>   -1.5074    1.0000 </r>
       <r>   -1.2744    1.0000 </r>
       <r>   -1.0770    1.0000 </r>
       <r>   -0.4215    1.0000 </r>
       <r>   -0.2611    1.0000 </r>
       <r>   -0.0895    0.9415 </r>
       <r>    0.3832    0.0000 </r>
       <r>    0.6811    0.0000 </r>
       <r>    1.1468    0.0000 </r>
       <r>    1.3550    0.0000 </r>
       <r>    1.4780    0.0000 </r>
       <r>    1.5953    0.0000 </r>
       <r>    2.0847    0.0000 </r>
       <r>    2.4089    0.0000 </r>
       <r>    2.5532    0.0000 </r>
       <r>    2.7254    0.0000 </r>
       <r>    2.8972    0.0000 </r>
       <r>    2.9397    0.0000 </r>
       <r>    3.0635    0.0000 </r>
       <r>    3.2071    0.0000 </r>
      </set>
      <set comment="kpoint 12">
       <r>  -13.0759    1.0000 </r>
       <r>  -12.6007    1.0000 </r>
       <r>  -12.3195    1.0000 </r>
       <r>  -11.8793    1.0000 </r>
       <r>  -11.7631    1.0000 </r>
       <r>  -11.2893    1.0000 </r>
       <r>  -11.0951    1.0000 </r>
       <r>  -10.9276    1.0000 </r>
       <r>  -10.7133    1.0000 </r>
       <r>  -10.5224    1.0000 </r>
       <r>  -10.5027    1.0000 </r>
       <r>   -9.9223    1.0000 </r>
       <r>   -9.0861    1.0000 </r>
       <r>   -8.3528    1.0000 </r>
       <r>   -7.8318    1.0000 </r>
       <r>   -7.8078    1.0000 </r>
       <r>   -7.2261    1.0000 </r>
       <r>   -7.0914    1.0000 </r>
       <r>   -7.0766    1.0000 </r>
       <r>   -6.7867    1.0000 </r>
       <r>   -6.3476    1.0000 </r>
       <r>   -6.2467    1.0000 </r>
       <r>   -6.0372    1.0000 </r>
       <r>   -5.8203    1.0000 </r>
       <r>   -5.4923    1.0000 </r>
       <r>   -5.1093    1.0000 </r>
       <r>   -5.0527    1.0000 </r>
       <r>   -4.5852    1.0000 </r>
       <r>   -4.5201    1.0000 </r>
       <r>   -4.4464    1.0000 </r>
       <r>   -4.1903    1.0000 </r>
       <r>   -4.1221    1.0000 </r>
       <r>   -3.9024    1.0000 </r>
       <r>   -3.5850    1.0000 </r>
       <r>   -3.4612    1.0000 </r>
       <r>   -3.3645    1.0000 </r>
       <r>   -3.1276    1.0000 </r>
       <r>   -3.0145    1.0000 </r>
       <r>   -2.9610    1.0000 </r>
       <r>   -2.8707    1.0000 </r>
       <r>   -2.7542    1.0000 </r>
       <r>   -2.6030    1.0000 </r>
       <r>   -2.4371    1.0000 </r>
       <r>   -2.2428    1.0000 </r>
       <r>   -2.0881    1.0000 </r>
       <r>   -2.0220    1.0000 </r>
       <r>   -1.9300    1.0000 </r>
       <r>   -1.8523    1.0000 </r>
       <r>   -1.6917    1.0000 </r>
       <r>   -1.4723    1.0000 </r>
       <r>   -1.2488    1.0000 </r>
       <r>   -0.7476    1.0000 </r>
       <r>   -0.4973    1.0000 </r>
       <r>   -0.1126    0.9708 </r>
       <r>    0.0328    0.4354 </r>
       <r>    0.3738    0.0000 </r>
       <r>    0.6849    0.0000 </r>
       <r>    1.1125    0.0000 </r>
       <r>    1.1438    0.0000 </r>
       <r>    1.3125    0.0000 </r>
       <r>    2.0410    0.0000 </r>
       <r>    2.1753    0.0000 </r>
       <r>    2.3052    0.0000 </r>
       <r>    2.4571    0.0000 </r>
       <r>    2.5384    0.0000 </r>
       <r>    2.7996    0.0000 </r>
       <r>    2.8609    0.0000 </r>
       <r>    3.0203    0.0000 </r>
      </set>
      <set comment="kpoint 13">
       <r>  -12.5921    1.0000 </r>
       <r>  -12.0976    1.0000 </r>
       <r>  -11.8689    1.0000 </r>
       <r>  -11.4302    1.0000 </r>
       <r>  -11.3686    1.0000 </r>
       <r>  -10.9539    1.0000 </r>
       <r>  -10.8367    1.0000 </r>
       <r>  -10.7169    1.0000 </r>
       <r>  -10.5820    1.0000 </r>
       <r>  -10.5508    1.0000 </r>
       <r>  -10.3435    1.0000 </r>
       <r>   -9.7522    1.0000 </r>
       <r>   -9.0763    1.0000 </r>
       <r>   -8.6987    1.0000 </r>
       <r>   -8.2301    1.0000 </r>
       <r>   -8.0717    1.0000 </r>
       <r>   -7.8922    1.0000 </r>
       <r>   -7.5582    1.0000 </r>
       <r>   -7.4779    1.0000 </r>
       <r>   -7.2519    1.0000 </r>
       <r>   -6.8147    1.0000 </r>
       <r>   -6.7723    1.0000 </r>
       <r>   -6.5474    1.0000 </r>
       <r>   -6.4295    1.0000 </r>
       <r>   -5.4556    1.0000 </r>
       <r>   -5.0970    1.0000 </r>
       <r>   -4.8999    1.0000 </r>
       <r>   -4.6701    1.0000 </r>
       <r>   -4.5507    1.0000 </r>
       <r>   -4.3653    1.0000 </r>
       <r>   -4.2285    1.0000 </r>
       <r>   -3.9751    1.0000 </r>
       <r>   -3.9189    1.0000 </r>
       <r>   -3.5999    1.0000 </r>
       <r>   -3.4665    1.0000 </r>
       <r>   -3.4020    1.0000 </r>
       <r>   -3.3569    1.0000 </r>
       <r>   -3.2289    1.0000 </r>
       <r>   -3.1348    1.0000 </r>
       <r>   -3.0271    1.0000 </r>
       <r>   -2.7873    1.0000 </r>
       <r>   -2.7103    1.0000 </r>
       <r>   -2.4467    1.0000 </r>
       <r>   -2.3241    1.0000 </r>
       <r>   -2.2595    1.0000 </r>
       <r>   -2.1828    1.0000 </r>
       <r>   -1.9770    1.0000 </r>
       <r>   -1.9217    1.0000 </r>
       <r>   -1.7185    1.0000 </r>
       <r>   -1.5949    1.0000 </r>
       <r>   -1.2741    1.0000 </r>
       <r>   -1.0578    1.0000 </r>
       <r>   -0.7297    1.0000 </r>
       <r>   -0.1321    0.9850 </r>
       <r>   -0.0723    0.9072 </r>
       <r>    0.0915    0.1604 </r>
       <r>    0.2968    0.0000 </r>
       <r>    1.0688    0.0000 </r>
       <r>    1.1048    0.0000 </r>
       <r>    1.2218    0.0000 </r>
       <r>    1.7119    0.0000 </r>
       <r>    1.9344    0.0000 </r>
       <r>    1.9785    0.0000 </r>
       <r>    2.1708    0.0000 </r>
       <r>    2.4837    0.0000 </r>
       <r>    2.5545    0.0000 </r>
       <r>    2.7313    0.0000 </r>
       <r>    2.8489    0.0000 </r>
      </set>
      <set comment="kpoint 14">
       <r>  -12.1398    1.0000 </r>
       <r>  -11.5490    1.0000 </r>
       <r>  -11.3730    1.0000 </r>
       <r>  -11.0870    1.0000 </r>
       <r>  -11.0700    1.0000 </r>
       <r>  -10.9777    1.0000 </r>
       <r>  -10.8797    1.0000 </r>
       <r>  -10.8106    1.0000 </r>
       <r>  -10.6973    1.0000 </r>
       <r>  -10.5152    1.0000 </r>
       <r>  -10.3923    1.0000 </r>
       <r>   -9.4845    1.0000 </r>
       <r>   -8.8505    1.0000 </r>
       <r>   -8.6683    1.0000 </r>
       <r>   -8.5147    1.0000 </r>
       <r>   -8.4460    1.0000 </r>
       <r>   -8.2937    1.0000 </r>
       <r>   -7.9686    1.0000 </r>
       <r>   -7.6387    1.0000 </r>
       <r>   -7.4371    1.0000 </r>
       <r>   -7.3370    1.0000 </r>
       <r>   -7.2478    1.0000 </r>
       <r>   -7.1009    1.0000 </r>
       <r>   -6.5855    1.0000 </r>
       <r>   -5.1345    1.0000 </r>
       <r>   -4.9971    1.0000 </r>
       <r>   -4.6565    1.0000 </r>
       <r>   -4.5706    1.0000 </r>
       <r>   -4.3736    1.0000 </r>
       <r>   -4.3014    1.0000 </r>
       <r>   -4.2437    1.0000 </r>
       <r>   -4.0526    1.0000 </r>
       <r>   -3.9201    1.0000 </r>
       <r>   -3.7677    1.0000 </r>
       <r>   -3.6185    1.0000 </r>
       <r>   -3.5025    1.0000 </r>
       <r>   -3.3832    1.0000 </r>
       <r>   -3.3402    1.0000 </r>
       <r>   -3.2663    1.0000 </r>
       <r>   -3.0958    1.0000 </r>
       <r>   -2.9639    1.0000 </r>
       <r>   -2.7592    1.0000 </r>
       <r>   -2.7091    1.0000 </r>
       <r>   -2.3909    1.0000 </r>
       <r>   -2.2944    1.0000 </r>
       <r>   -2.2318    1.0000 </r>
       <r>   -2.1052    1.0000 </r>
       <r>   -1.8138    1.0000 </r>
       <r>   -1.6606    1.0000 </r>
       <r>   -1.5990    1.0000 </r>
       <r>   -1.2447    1.0000 </r>
       <r>   -1.1591    1.0000 </r>
       <r>   -0.7016    1.0000 </r>
       <r>   -0.3709    1.0000 </r>
       <r>   -0.1211    0.9780 </r>
       <r>   -0.0012    0.6250 </r>
       <r>    0.2481    0.0007 </r>
       <r>    0.9538    0.0000 </r>
       <r>    1.3181    0.0000 </r>
       <r>    1.3781    0.0000 </r>
       <r>    1.4514    0.0000 </r>
       <r>    1.6839    0.0000 </r>
       <r>    1.9333    0.0000 </r>
       <r>    2.0898    0.0000 </r>
       <r>    2.3395    0.0000 </r>
       <r>    2.3958    0.0000 </r>
       <r>    2.5943    0.0000 </r>
       <r>    2.7607    0.0000 </r>
      </set>
      <set comment="kpoint 15">
       <r>  -12.1439    1.0000 </r>
       <r>  -11.6510    1.0000 </r>
       <r>  -11.1812    1.0000 </r>
       <r>  -11.0927    1.0000 </r>
       <r>  -11.0578    1.0000 </r>
       <r>  -10.9200    1.0000 </r>
       <r>  -10.8728    1.0000 </r>
       <r>  -10.8167    1.0000 </r>
       <r>  -10.7910    1.0000 </r>
       <r>  -10.5768    1.0000 </r>
       <r>  -10.3921    1.0000 </r>
       <r>   -9.4720    1.0000 </r>
       <r>   -8.9741    1.0000 </r>
       <r>   -8.8699    1.0000 </r>
       <r>   -8.5519    1.0000 </r>
       <r>   -8.2183    1.0000 </r>
       <r>   -8.0590    1.0000 </r>
       <r>   -7.7812    1.0000 </r>
       <r>   -7.7250    1.0000 </r>
       <r>   -7.4846    1.0000 </r>
       <r>   -7.3932    1.0000 </r>
       <r>   -7.3316    1.0000 </r>
       <r>   -7.1835    1.0000 </r>
       <r>   -6.5089    1.0000 </r>
       <r>   -4.9957    1.0000 </r>
       <r>   -4.8294    1.0000 </r>
       <r>   -4.6932    1.0000 </r>
       <r>   -4.5762    1.0000 </r>
       <r>   -4.4531    1.0000 </r>
       <r>   -4.3423    1.0000 </r>
       <r>   -4.1149    1.0000 </r>
       <r>   -4.1040    1.0000 </r>
       <r>   -3.9986    1.0000 </r>
       <r>   -3.9159    1.0000 </r>
       <r>   -3.7639    1.0000 </r>
       <r>   -3.5738    1.0000 </r>
       <r>   -3.4824    1.0000 </r>
       <r>   -3.4322    1.0000 </r>
       <r>   -3.3436    1.0000 </r>
       <r>   -2.9706    1.0000 </r>
       <r>   -2.9040    1.0000 </r>
       <r>   -2.7931    1.0000 </r>
       <r>   -2.5066    1.0000 </r>
       <r>   -2.3966    1.0000 </r>
       <r>   -2.2800    1.0000 </r>
       <r>   -2.2497    1.0000 </r>
       <r>   -2.0878    1.0000 </r>
       <r>   -1.8326    1.0000 </r>
       <r>   -1.7387    1.0000 </r>
       <r>   -1.6046    1.0000 </r>
       <r>   -1.2025    1.0000 </r>
       <r>   -1.0365    1.0000 </r>
       <r>   -0.5789    1.0000 </r>
       <r>   -0.4360    1.0000 </r>
       <r>   -0.0928    0.9467 </r>
       <r>   -0.0230    0.7345 </r>
       <r>    0.3571    0.0000 </r>
       <r>    0.9226    0.0000 </r>
       <r>    1.2626    0.0000 </r>
       <r>    1.5473    0.0000 </r>
       <r>    1.6273    0.0000 </r>
       <r>    1.6966    0.0000 </r>
       <r>    2.1007    0.0000 </r>
       <r>    2.1950    0.0000 </r>
       <r>    2.2962    0.0000 </r>
       <r>    2.4588    0.0000 </r>
       <r>    2.4999    0.0000 </r>
       <r>    2.6931    0.0000 </r>
      </set>
      <set comment="kpoint 16">
       <r>  -12.6008    1.0000 </r>
       <r>  -12.2171    1.0000 </r>
       <r>  -11.5957    1.0000 </r>
       <r>  -11.3804    1.0000 </r>
       <r>  -11.3563    1.0000 </r>
       <r>  -11.0494    1.0000 </r>
       <r>  -10.9758    1.0000 </r>
       <r>  -10.7406    1.0000 </r>
       <r>  -10.5843    1.0000 </r>
       <r>  -10.5639    1.0000 </r>
       <r>  -10.3576    1.0000 </r>
       <r>   -9.7597    1.0000 </r>
       <r>   -8.8568    1.0000 </r>
       <r>   -8.7153    1.0000 </r>
       <r>   -8.6087    1.0000 </r>
       <r>   -8.0382    1.0000 </r>
       <r>   -7.5793    1.0000 </r>
       <r>   -7.5432    1.0000 </r>
       <r>   -7.4448    1.0000 </r>
       <r>   -7.1270    1.0000 </r>
       <r>   -6.9165    1.0000 </r>
       <r>   -6.8088    1.0000 </r>
       <r>   -6.7856    1.0000 </r>
       <r>   -6.2883    1.0000 </r>
       <r>   -5.1701    1.0000 </r>
       <r>   -4.9685    1.0000 </r>
       <r>   -4.8493    1.0000 </r>
       <r>   -4.6168    1.0000 </r>
       <r>   -4.5130    1.0000 </r>
       <r>   -4.3786    1.0000 </r>
       <r>   -4.2740    1.0000 </r>
       <r>   -4.2052    1.0000 </r>
       <r>   -4.1880    1.0000 </r>
       <r>   -3.8338    1.0000 </r>
       <r>   -3.6167    1.0000 </r>
       <r>   -3.5218    1.0000 </r>
       <r>   -3.4091    1.0000 </r>
       <r>   -3.2930    1.0000 </r>
       <r>   -3.2795    1.0000 </r>
       <r>   -2.9037    1.0000 </r>
       <r>   -2.8476    1.0000 </r>
       <r>   -2.6252    1.0000 </r>
       <r>   -2.3734    1.0000 </r>
       <r>   -2.3131    1.0000 </r>
       <r>   -2.1884    1.0000 </r>
       <r>   -2.0553    1.0000 </r>
       <r>   -1.9674    1.0000 </r>
       <r>   -1.9374    1.0000 </r>
       <r>   -1.7800    1.0000 </r>
       <r>   -1.5487    1.0000 </r>
       <r>   -1.2373    1.0000 </r>
       <r>   -0.8720    1.0000 </r>
       <r>   -0.5178    1.0000 </r>
       <r>   -0.3094    1.0000 </r>
       <r>   -0.1076    0.9658 </r>
       <r>    0.2134    0.0033 </r>
       <r>    0.5837    0.0000 </r>
       <r>    1.0108    0.0000 </r>
       <r>    1.3210    0.0000 </r>
       <r>    1.6455    0.0000 </r>
       <r>    1.7724    0.0000 </r>
       <r>    2.0065    0.0000 </r>
       <r>    2.1581    0.0000 </r>
       <r>    2.3036    0.0000 </r>
       <r>    2.4486    0.0000 </r>
       <r>    2.5623    0.0000 </r>
       <r>    2.6713    0.0000 </r>
       <r>    2.7929    0.0000 </r>
      </set>
      <set comment="kpoint 17">
       <r>  -13.0854    1.0000 </r>
       <r>  -12.7112    1.0000 </r>
       <r>  -12.0587    1.0000 </r>
       <r>  -11.8119    1.0000 </r>
       <r>  -11.7620    1.0000 </r>
       <r>  -11.3596    1.0000 </r>
       <r>  -11.3128    1.0000 </r>
       <r>  -10.8903    1.0000 </r>
       <r>  -10.8691    1.0000 </r>
       <r>  -10.5344    1.0000 </r>
       <r>  -10.3649    1.0000 </r>
       <r>   -9.9946    1.0000 </r>
       <r>   -8.6711    1.0000 </r>
       <r>   -8.3058    1.0000 </r>
       <r>   -8.2340    1.0000 </r>
       <r>   -7.7773    1.0000 </r>
       <r>   -7.3712    1.0000 </r>
       <r>   -7.1186    1.0000 </r>
       <r>   -6.9885    1.0000 </r>
       <r>   -6.5629    1.0000 </r>
       <r>   -6.3211    1.0000 </r>
       <r>   -6.2618    1.0000 </r>
       <r>   -6.0921    1.0000 </r>
       <r>   -5.8463    1.0000 </r>
       <r>   -5.2637    1.0000 </r>
       <r>   -5.0087    1.0000 </r>
       <r>   -4.8118    1.0000 </r>
       <r>   -4.7589    1.0000 </r>
       <r>   -4.5569    1.0000 </r>
       <r>   -4.4142    1.0000 </r>
       <r>   -4.3550    1.0000 </r>
       <r>   -4.3286    1.0000 </r>
       <r>   -3.9237    1.0000 </r>
       <r>   -3.7559    1.0000 </r>
       <r>   -3.5740    1.0000 </r>
       <r>   -3.4056    1.0000 </r>
       <r>   -3.2032    1.0000 </r>
       <r>   -3.1801    1.0000 </r>
       <r>   -3.0685    1.0000 </r>
       <r>   -2.8802    1.0000 </r>
       <r>   -2.7358    1.0000 </r>
       <r>   -2.6920    1.0000 </r>
       <r>   -2.2907    1.0000 </r>
       <r>   -2.1365    1.0000 </r>
       <r>   -2.0181    1.0000 </r>
       <r>   -1.9780    1.0000 </r>
       <r>   -1.8910    1.0000 </r>
       <r>   -1.8093    1.0000 </r>
       <r>   -1.5886    1.0000 </r>
       <r>   -1.4396    1.0000 </r>
       <r>   -1.1946    1.0000 </r>
       <r>   -0.8374    1.0000 </r>
       <r>   -0.3032    1.0000 </r>
       <r>   -0.2073    0.9994 </r>
       <r>    0.1165    0.0891 </r>
       <r>    0.4496    0.0000 </r>
       <r>    0.8576    0.0000 </r>
       <r>    1.2559    0.0000 </r>
       <r>    1.5489    0.0000 </r>
       <r>    1.8009    0.0000 </r>
       <r>    1.8759    0.0000 </r>
       <r>    2.1517    0.0000 </r>
       <r>    2.2578    0.0000 </r>
       <r>    2.5215    0.0000 </r>
       <r>    2.6150    0.0000 </r>
       <r>    2.7788    0.0000 </r>
       <r>    2.9020    0.0000 </r>
       <r>    2.9699    0.0000 </r>
      </set>
      <set comment="kpoint 18">
       <r>  -13.4908    1.0000 </r>
       <r>  -13.1065    1.0000 </r>
       <r>  -12.4635    1.0000 </r>
       <r>  -12.1938    1.0000 </r>
       <r>  -12.1162    1.0000 </r>
       <r>  -11.6666    1.0000 </r>
       <r>  -11.6422    1.0000 </r>
       <r>  -11.1795    1.0000 </r>
       <r>  -11.1385    1.0000 </r>
       <r>  -10.7127    1.0000 </r>
       <r>  -10.6239    1.0000 </r>
       <r>  -10.1710    1.0000 </r>
       <r>   -8.5156    1.0000 </r>
       <r>   -7.9965    1.0000 </r>
       <r>   -7.8937    1.0000 </r>
       <r>   -7.4767    1.0000 </r>
       <r>   -6.9050    1.0000 </r>
       <r>   -6.8073    1.0000 </r>
       <r>   -6.7553    1.0000 </r>
       <r>   -6.3606    1.0000 </r>
       <r>   -5.8539    1.0000 </r>
       <r>   -5.7773    1.0000 </r>
       <r>   -5.4507    1.0000 </r>
       <r>   -5.4252    1.0000 </r>
       <r>   -4.9469    1.0000 </r>
       <r>   -4.7221    1.0000 </r>
       <r>   -4.6330    1.0000 </r>
       <r>   -4.6184    1.0000 </r>
       <r>   -4.3585    1.0000 </r>
       <r>   -4.2515    1.0000 </r>
       <r>   -3.9987    1.0000 </r>
       <r>   -3.8938    1.0000 </r>
       <r>   -3.7715    1.0000 </r>
       <r>   -3.5683    1.0000 </r>
       <r>   -3.5218    1.0000 </r>
       <r>   -3.2166    1.0000 </r>
       <r>   -3.1388    1.0000 </r>
       <r>   -3.0961    1.0000 </r>
       <r>   -3.0001    1.0000 </r>
       <r>   -2.7369    1.0000 </r>
       <r>   -2.5794    1.0000 </r>
       <r>   -2.5276    1.0000 </r>
       <r>   -2.3332    1.0000 </r>
       <r>   -2.0327    1.0000 </r>
       <r>   -1.9781    1.0000 </r>
       <r>   -1.9250    1.0000 </r>
       <r>   -1.8416    1.0000 </r>
       <r>   -1.5848    1.0000 </r>
       <r>   -1.5049    1.0000 </r>
       <r>   -1.2275    1.0000 </r>
       <r>   -0.9778    1.0000 </r>
       <r>   -0.6187    1.0000 </r>
       <r>   -0.2451    0.9999 </r>
       <r>   -0.0101    0.6715 </r>
       <r>    0.5402    0.0000 </r>
       <r>    0.6274    0.0000 </r>
       <r>    1.1570    0.0000 </r>
       <r>    1.6050    0.0000 </r>
       <r>    1.7500    0.0000 </r>
       <r>    1.8974    0.0000 </r>
       <r>    2.1199    0.0000 </r>
       <r>    2.2367    0.0000 </r>
       <r>    2.5804    0.0000 </r>
       <r>    2.6976    0.0000 </r>
       <r>    2.8001    0.0000 </r>
       <r>    2.8733    0.0000 </r>
       <r>    2.9592    0.0000 </r>
[...]
       <r>    2.8422    0.0000 </r>
      </set>
      <set comment="kpoint 54">
       <r>  -12.1416    1.0000 </r>
       <r>  -11.6065    1.0000 </r>
       <r>  -11.2799    1.0000 </r>
       <r>  -11.0864    1.0000 </r>
       <r>  -11.0712    1.0000 </r>
       <r>  -10.9621    1.0000 </r>
       <r>  -10.8452    1.0000 </r>
       <r>  -10.8325    1.0000 </r>
       <r>  -10.7377    1.0000 </r>
       <r>  -10.5371    1.0000 </r>
       <r>  -10.3934    1.0000 </r>
       <r>   -9.4795    1.0000 </r>
       <r>   -8.9069    1.0000 </r>
       <r>   -8.7782    1.0000 </r>
       <r>   -8.5585    1.0000 </r>
       <r>   -8.2717    1.0000 </r>
       <r>   -8.2325    1.0000 </r>
       <r>   -7.8656    1.0000 </r>
       <r>   -7.6818    1.0000 </r>
       <r>   -7.4528    1.0000 </r>
       <r>   -7.4039    1.0000 </r>
       <r>   -7.2790    1.0000 </r>
       <r>   -7.0918    1.0000 </r>
       <r>   -6.5619    1.0000 </r>
       <r>   -5.0682    1.0000 </r>
       <r>   -4.9736    1.0000 </r>
       <r>   -4.6274    1.0000 </r>
       <r>   -4.5866    1.0000 </r>
       <r>   -4.3877    1.0000 </r>
       <r>   -4.3471    1.0000 </r>
       <r>   -4.1893    1.0000 </r>
       <r>   -4.0590    1.0000 </r>
       <r>   -3.8950    1.0000 </r>
       <r>   -3.8708    1.0000 </r>
       <r>   -3.6804    1.0000 </r>
       <r>   -3.5697    1.0000 </r>
       <r>   -3.3804    1.0000 </r>
       <r>   -3.3629    1.0000 </r>
       <r>   -3.3054    1.0000 </r>
       <r>   -3.1275    1.0000 </r>
       <r>   -2.9474    1.0000 </r>
       <r>   -2.8057    1.0000 </r>
       <r>   -2.4975    1.0000 </r>
       <r>   -2.4271    1.0000 </r>
       <r>   -2.3081    1.0000 </r>
       <r>   -2.2378    1.0000 </r>
       <r>   -2.0651    1.0000 </r>
       <r>   -1.8343    1.0000 </r>
       <r>   -1.6848    1.0000 </r>
       <r>   -1.6292    1.0000 </r>
       <r>   -1.1982    1.0000 </r>
       <r>   -1.1087    1.0000 </r>
       <r>   -0.6545    1.0000 </r>
       <r>   -0.3890    1.0000 </r>
       <r>   -0.1360    0.9869 </r>
       <r>   -0.0086    0.6640 </r>
       <r>    0.2886    0.0001 </r>
       <r>    0.9657    0.0000 </r>
       <r>    1.2433    0.0000 </r>
       <r>    1.4615    0.0000 </r>
       <r>    1.5513    0.0000 </r>
       <r>    1.7741    0.0000 </r>
       <r>    1.9340    0.0000 </r>
       <r>    2.1211    0.0000 </r>
       <r>    2.2412    0.0000 </r>
       <r>    2.3582    0.0000 </r>
       <r>    2.6353    0.0000 </r>
       <r>    2.7763    0.0000 </r>
      </set>
     </set>
    </set>
   </array>
  </eigenvalues>
  <separator name="orbital magnetization" >
   <v name="MAGDIPOLOUT">      0.00000000      0.00000000      0.00000000</v>
  </separator>
  <dos>
   <i name="efermi">      0.02131600 </i>
   <total>
    <array>
     <dimension dim="1">gridpoints</dimension>
     <dimension dim="2">spin</dimension>
     <field>energy</field>
     <field>total</field>
     <field>integrated</field>
     <set>
      <set comment="spin 1">
       <r>   -15.0371     0.0000     0.0000 </r>
       <r>   -14.9729     0.0000     0.0000 </r>
       <r>   -14.9087     0.0000     0.0000 </r>
       <r>   -14.8446     0.0000     0.0000 </r>
       <r>   -14.7804     0.0000     0.0000 </r>
       <r>   -14.7162     0.0000     0.0000 </r>
       <r>   -14.6521     0.0000     0.0000 </r>
       <r>   -14.5879     0.0000     0.0000 </r>
       <r>   -14.5237     0.0000     0.0000 </r>
       <r>   -14.4596     0.0000     0.0000 </r>
       <r>   -14.3954     0.0000     0.0000 </r>
       <r>   -14.3312     0.0000     0.0000 </r>
       <r>   -14.2671     0.0010     0.0001 </r>
       <r>   -14.2029     0.0192     0.0013 </r>
       <r>   -14.1387     0.1715     0.0123 </r>
       <r>   -14.0746     0.7762     0.0621 </r>
       <r>   -14.0104     1.8452     0.1805 </r>
       <r>   -13.9462     2.3658     0.3323 </r>
       <r>   -13.8821     1.8688     0.4522 </r>
       <r>   -13.8179     1.6449     0.5578 </r>
       <r>   -13.7537     1.8298     0.6752 </r>
       <r>   -13.6896     1.5386     0.7739 </r>
       <r>   -13.6254     1.5558     0.8737 </r>
       <r>   -13.5612     2.4489     1.0309 </r>
       <r>   -13.4971     3.4495     1.2522 </r>
       <r>   -13.4329     3.5271     1.4786 </r>
       <r>   -13.3687     2.6715     1.6500 </r>
       <r>   -13.3046     1.8954     1.7716 </r>
       <r>   -13.2404     1.5760     1.8727 </r>
       <r>   -13.1762     1.8620     1.9922 </r>
       <r>   -13.1121     3.1894     2.1968 </r>
       <r>   -13.0479     4.4824     2.4845 </r>
       <r>   -12.9837     4.1033     2.7478 </r>
       <r>   -12.9196     2.7530     2.9244 </r>
       <r>   -12.8554     1.9278     3.0481 </r>
       <r>   -12.7912     2.3673     3.2000 </r>
       <r>   -12.7271     4.1634     3.4672 </r>
       <r>   -12.6629     6.2624     3.8690 </r>
       <r>   -12.5987     7.4683     4.3482 </r>
       <r>   -12.5346     7.1746     4.8086 </r>
       <r>   -12.4704     5.5791     5.1666 </r>
       <r>   -12.4062     4.1655     5.4339 </r>
       <r>   -12.3421     3.5120     5.6592 </r>
       <r>   -12.2779     3.6010     5.8903 </r>
       <r>   -12.2137     5.0981     6.2174 </r>
       <r>   -12.1496     7.6929     6.7111 </r>
       <r>   -12.0854     8.7458     7.2722 </r>
       <r>   -12.0212     6.8819     7.7138 </r>
       <r>   -11.9570     5.0838     8.0400 </r>
       <r>   -11.8929     5.2323     8.3758 </r>
       <r>   -11.8287     5.8029     8.7481 </r>
       <r>   -11.7645     5.9314     9.1287 </r>
       <r>   -11.7004     6.5047     9.5461 </r>
       <r>   -11.6362     7.9684    10.0574 </r>
       <r>   -11.5720     8.6153    10.6103 </r>
       <r>   -11.5079     7.6174    11.0990 </r>
       <r>   -11.4437     7.6544    11.5902 </r>
       <r>   -11.3795     9.4461    12.1963 </r>
       <r>   -11.3154     9.7980    12.8250 </r>
       <r>   -11.2512     8.2481    13.3543 </r>
       <r>   -11.1870     7.7990    13.8547 </r>
       <r>   -11.1229     9.7949    14.4832 </r>
       <r>   -11.0587    12.1097    15.2603 </r>
       <r>   -10.9945    12.6180    16.0699 </r>
       <r>   -10.9304    12.4726    16.8703 </r>
       <r>   -10.8662    12.1744    17.6514 </r>
       <r>   -10.8020    11.1001    18.3637 </r>
       <r>   -10.7379     9.8005    18.9926 </r>
       <r>   -10.6737     8.2822    19.5240 </r>
       <r>   -10.6095     7.5740    20.0100 </r>
       <r>   -10.5454     8.8464    20.5777 </r>
       <r>   -10.4812     9.3851    21.1799 </r>
       <r>   -10.4170     8.4920    21.7248 </r>
       <r>   -10.3529     7.5639    22.2101 </r>
       <r>   -10.2887     5.5612    22.5670 </r>
       <r>   -10.2245     3.0586    22.7632 </r>
       <r>   -10.1604     1.9537    22.8886 </r>
       <r>   -10.0962     1.7641    23.0018 </r>
       <r>   -10.0320     1.6029    23.1046 </r>
       <r>    -9.9679     1.6601    23.2112 </r>
       <r>    -9.9037     1.6155    23.3148 </r>
       <r>    -9.8395     1.3537    23.4017 </r>
       <r>    -9.7754     1.5721    23.5026 </r>
       <r>    -9.7112     1.6934    23.6112 </r>
       <r>    -9.6470     1.0086    23.6759 </r>
       <r>    -9.5829     0.5576    23.7117 </r>
       <r>    -9.5187     1.0627    23.7799 </r>
       <r>    -9.4545     1.6667    23.8869 </r>
       <r>    -9.3904     1.2510    23.9671 </r>
       <r>    -9.3262     0.4371    23.9952 </r>
       <r>    -9.2620     0.0840    24.0006 </r>
       <r>    -9.1979     0.1341    24.0092 </r>
       <r>    -9.1337     0.6056    24.0480 </r>
       <r>    -9.0695     1.5196    24.1455 </r>
       <r>    -9.0054     2.4513    24.3028 </r>
       <r>    -8.9412     3.4582    24.5247 </r>
       <r>    -8.8770     4.6791    24.8250 </r>
       <r>    -8.8129     5.2186    25.1598 </r>
       <r>    -8.7487     5.0653    25.4849 </r>
       <r>    -8.6845     4.9551    25.8028 </r>
       <r>    -8.6204     4.6694    26.1024 </r>
       <r>    -8.5562     4.5074    26.3917 </r>
       <r>    -8.4920     4.4102    26.6746 </r>
       <r>    -8.4279     3.8493    26.9216 </r>
       <r>    -8.3637     4.3054    27.1979 </r>
       <r>    -8.2995     6.5629    27.6190 </r>
       <r>    -8.2354     8.1603    28.1426 </r>
       <r>    -8.1712     7.4739    28.6222 </r>
       <r>    -8.1070     6.0918    29.0131 </r>
       <r>    -8.0429     5.3986    29.3595 </r>
       <r>    -7.9787     4.9517    29.6773 </r>
       <r>    -7.9145     4.9082    29.9922 </r>
       <r>    -7.8504     5.3405    30.3349 </r>
       <r>    -7.7862     5.2834    30.6739 </r>
       <r>    -7.7220     4.6309    30.9711 </r>
       <r>    -7.6579     4.4050    31.2537 </r>
       <r>    -7.5937     5.5458    31.6096 </r>
       <r>    -7.5295     7.7458    32.1066 </r>
       <r>    -7.4654     9.3307    32.7053 </r>
       <r>    -7.4012     8.9665    33.2807 </r>
       <r>    -7.3370     7.3834    33.7544 </r>
       <r>    -7.2729     6.5596    34.1754 </r>
       <r>    -7.2087     6.9704    34.6226 </r>
       <r>    -7.1445     7.7685    35.1211 </r>
       <r>    -7.0804     7.8702    35.6261 </r>
       <r>    -7.0162     6.4396    36.0393 </r>
       <r>    -6.9520     5.3191    36.3806 </r>
       <r>    -6.8879     6.4741    36.7961 </r>
       <r>    -6.8237     9.5950    37.4117 </r>
       <r>    -6.7595    11.9699    38.1798 </r>
       <r>    -6.6954    11.4043    38.9116 </r>
       <r>    -6.6312    10.6486    39.5949 </r>
       <r>    -6.5670    10.2150    40.2503 </r>
       <r>    -6.5029     7.6782    40.7430 </r>
       <r>    -6.4387     5.2365    41.0790 </r>
       <r>    -6.3745     5.2946    41.4188 </r>
       <r>    -6.3104     5.9452    41.8003 </r>
       <r>    -6.2462     5.3039    42.1406 </r>
       <r>    -6.1820     3.9692    42.3953 </r>
       <r>    -6.1179     3.0994    42.5942 </r>
       <r>    -6.0537     3.1039    42.7933 </r>
       <r>    -5.9895     3.7891    43.0365 </r>
       <r>    -5.9254     5.2206    43.3714 </r>
       <r>    -5.8612     7.2199    43.8347 </r>
       <r>    -5.7970     7.9686    44.3460 </r>
       <r>    -5.7329     6.1825    44.7428 </r>
       <r>    -5.6687     3.4442    44.9638 </r>
       <r>    -5.6045     1.6924    45.0724 </r>
       <r>    -5.5404     1.9051    45.1946 </r>
       <r>    -5.4762     3.9682    45.4492 </r>
       <r>    -5.4120     5.8699    45.8259 </r>
       <r>    -5.3479     6.3145    46.2311 </r>
       <r>    -5.2837     6.2636    46.6330 </r>
       <r>    -5.2195     5.9669    47.0159 </r>
       <r>    -5.1554     5.8985    47.3944 </r>
       <r>    -5.0912     6.7129    47.8251 </r>
       <r>    -5.0270     7.8172    48.3267 </r>
       <r>    -4.9629     8.4935    48.8717 </r>
       <r>    -4.8987     8.0611    49.3890 </r>
       <r>    -4.8345     7.5237    49.8717 </r>
       <r>    -4.7704     7.9312    50.3806 </r>
       <r>    -4.7062     8.8295    50.9472 </r>
       <r>    -4.6420    10.5184    51.6221 </r>
       <r>    -4.5779    12.0366    52.3945 </r>
       <r>    -4.5137    11.4457    53.1289 </r>
       <r>    -4.4495    10.4326    53.7984 </r>
       <r>    -4.3854    12.2860    54.5867 </r>
       <r>    -4.3212    15.2349    55.5643 </r>
       <r>    -4.2570    15.3567    56.5497 </r>
       <r>    -4.1929    13.4197    57.4108 </r>
       <r>    -4.1287    12.0862    58.1863 </r>
       <r>    -4.0645    11.1497    58.9018 </r>
       <r>    -4.0004    10.1942    59.5559 </r>
       <r>    -3.9362    10.7187    60.2437 </r>
       <r>    -3.8720    11.7673    60.9987 </r>
       <r>    -3.8079    11.8952    61.7620 </r>
       <r>    -3.7437    12.3913    62.5571 </r>
       <r>    -3.6795    13.0059    63.3917 </r>
       <r>    -3.6154    13.1225    64.2337 </r>
       <r>    -3.5512    12.8827    65.0603 </r>
       <r>    -3.4870    12.6563    65.8725 </r>
       <r>    -3.4229    14.3599    66.7939 </r>
       <r>    -3.3587    17.1411    67.8938 </r>
       <r>    -3.2945    17.5780    69.0217 </r>
       <r>    -3.2304    16.4548    70.0776 </r>
       <r>    -3.1662    15.9926    71.1038 </r>
       <r>    -3.1020    15.4416    72.0946 </r>
       <r>    -3.0379    14.5667    73.0293 </r>
       <r>    -2.9737    14.4417    73.9560 </r>
       <r>    -2.9095    14.6006    74.8929 </r>
       <r>    -2.8454    14.2377    75.8064 </r>
       <r>    -2.7812    14.0410    76.7074 </r>
       <r>    -2.7170    14.6017    77.6444 </r>
       <r>    -2.6529    14.4595    78.5722 </r>
       <r>    -2.5887    13.6077    79.4453 </r>
       <r>    -2.5245    14.0523    80.3470 </r>
       <r>    -2.4604    14.8156    81.2977 </r>
       <r>    -2.3962    15.0309    82.2622 </r>
       <r>    -2.3320    16.1873    83.3009 </r>
       <r>    -2.2679    17.7201    84.4379 </r>
       <r>    -2.2037    17.1869    85.5408 </r>
       <r>    -2.1395    15.8501    86.5578 </r>
       <r>    -2.0754    17.1851    87.6605 </r>
       <r>    -2.0112    19.8611    88.9349 </r>
       <r>    -1.9470    20.5711    90.2549 </r>
       <r>    -1.8828    19.4694    91.5042 </r>
       <r>    -1.8187    17.2851    92.6134 </r>
       <r>    -1.7545    14.1465    93.5211 </r>
       <r>    -1.6903    11.8216    94.2796 </r>
       <r>    -1.6262    11.8902    95.0426 </r>
       <r>    -1.5620    13.0277    95.8785 </r>
       <r>    -1.4978    12.2754    96.6662 </r>
       <r>    -1.4337     9.4323    97.2715 </r>
       <r>    -1.3695     7.1769    97.7320 </r>
       <r>    -1.3053     8.1190    98.2530 </r>
       <r>    -1.2412    10.9670    98.9567 </r>
       <r>    -1.1770    12.1883    99.7388 </r>
       <r>    -1.1128    11.2294   100.4593 </r>
       <r>    -1.0487     9.5406   101.0715 </r>
       <r>    -0.9845     7.2244   101.5351 </r>
       <r>    -0.9203     5.1200   101.8636 </r>
       <r>    -0.8562     4.4692   102.1504 </r>
       <r>    -0.7920     4.9134   102.4657 </r>
       <r>    -0.7278     5.2535   102.8028 </r>
       <r>    -0.6637     5.1896   103.1358 </r>
       <r>    -0.5995     4.9751   103.4550 </r>
       <r>    -0.5353     5.1647   103.7864 </r>
       <r>    -0.4712     6.2149   104.1852 </r>
       <r>    -0.4070     7.2861   104.6527 </r>
       <r>    -0.3428     7.0759   105.1068 </r>
       <r>    -0.2787     6.2060   105.5050 </r>
       <r>    -0.2145     6.2820   105.9081 </r>
       <r>    -0.1503     7.7322   106.4042 </r>
       <r>    -0.0862     9.4788   107.0124 </r>
       <r>    -0.0220     9.6194   107.6297 </r>
       <r>     0.0422     8.3136   108.1631 </r>
       <r>     0.1063     7.2583   108.6289 </r>
       <r>     0.1705     6.8216   109.0666 </r>
       <r>     0.2347     5.9503   109.4484 </r>
       <r>     0.2988     5.0034   109.7695 </r>
       <r>     0.3630     5.0366   110.0927 </r>
       <r>     0.4272     5.0347   110.4157 </r>
       <r>     0.4913     4.4122   110.6988 </r>
       <r>     0.5555     4.6913   110.9999 </r>
       <r>     0.6197     5.8897   111.3778 </r>
       <r>     0.6838     5.9315   111.7584 </r>
       <r>     0.7480     4.2607   112.0318 </r>
       <r>     0.8122     2.8321   112.2135 </r>
       <r>     0.8763     3.3875   112.4309 </r>
       <r>     0.9405     5.1865   112.7637 </r>
       <r>     1.0047     6.6540   113.1906 </r>
       <r>     1.0688     7.5483   113.6750 </r>
       <r>     1.1330     8.0898   114.1941 </r>
       <r>     1.1972     8.0512   114.7107 </r>
       <r>     1.2613     7.9045   115.2179 </r>
       <r>     1.3255     8.4396   115.7594 </r>
       <r>     1.3897     9.1237   116.3449 </r>
       <r>     1.4538     9.1921   116.9347 </r>
       <r>     1.5180     9.4062   117.5383 </r>
       <r>     1.5822    10.4795   118.2107 </r>
       <r>     1.6463    11.1163   118.9240 </r>
       <r>     1.7105    10.3808   119.5901 </r>
       <r>     1.7747     9.2812   120.1857 </r>
       <r>     1.8388     8.7607   120.7478 </r>
       <r>     1.9030     8.8736   121.3172 </r>
       <r>     1.9672     9.4368   121.9227 </r>
       <r>     2.0313    10.8141   122.6166 </r>
       <r>     2.0955    13.4166   123.4775 </r>
       <r>     2.1597    14.9467   124.4366 </r>
       <r>     2.2238    13.1703   125.2817 </r>
       <r>     2.2880    10.7528   125.9717 </r>
       <r>     2.3522     9.9102   126.6076 </r>
       <r>     2.4163     9.6205   127.2249 </r>
       <r>     2.4805    10.5255   127.9003 </r>
       <r>     2.5447    12.9367   128.7304 </r>
       <r>     2.6088    13.7171   129.6106 </r>
       <r>     2.6730    13.1781   130.4562 </r>
       <r>     2.7372    13.8083   131.3422 </r>
       <r>     2.8013    14.2420   132.2561 </r>
       <r>     2.8655    13.5962   133.1285 </r>
       <r>     2.9297    12.5316   133.9326 </r>
       <r>     2.9938    10.5170   134.6075 </r>
       <r>     3.0580     7.9620   135.1184 </r>
       <r>     3.1222     5.9390   135.4995 </r>
       <r>     3.1863     4.2564   135.7726 </r>
       <r>     3.2505     2.4310   135.9286 </r>
       <r>     3.3147     0.9030   135.9865 </r>
       <r>     3.3788     0.1888   135.9986 </r>
       <r>     3.4430     0.0203   135.9999 </r>
       <r>     3.5072     0.0011   136.0000 </r>
       <r>     3.5713     0.0000   136.0000 </r>
       <r>     3.6355     0.0000   136.0000 </r>
       <r>     3.6997     0.0000   136.0000 </r>
       <r>     3.7638     0.0000   136.0000 </r>
       <r>     3.8280     0.0000   136.0000 </r>
       <r>     3.8922     0.0000   136.0000 </r>
       <r>     3.9563     0.0000   136.0000 </r>
       <r>     4.0205     0.0000   136.0000 </r>
       <r>     4.0847     0.0000   136.0000 </r>
       <r>     4.1488     0.0000   136.0000 </r>
       <r>     4.2130     0.0000   136.0000 </r>
      </set>
     </set>
    </array>
   </total>
  </dos>
 </calculation>
 <structure name="finalpos" >
  <crystal>
   <varray name="basis" >
    <v>       3.54040000       0.00000000       0.00000000 </v>
    <v>      -1.77020000      10.29434800       0.00000000 </v>
    <v>       0.00000000       0.00000000      27.50142900 </v>
   </varray>
   <i name="volume">   1002.32009712 </i>
   <varray name="rec_basis" >
    <v>       0.28245396       0.04857034       0.00000000 </v>
    <v>       0.00000000       0.09714068       0.00000000 </v>
    <v>       0.00000000       0.00000000       0.03636175 </v>
   </varray>
  </crystal>
  <varray name="positions" >
   <v>       0.11402300       0.22804500       0.23316207 </v>
   <v>       0.01402300       0.02804500       0.51499159 </v>
   <v>       0.45808900       0.91617900       0.20939482 </v>
   <v>       0.35808900       0.71617900       0.49122434 </v>
   <v>       0.31085400       0.62170900       0.08414979 </v>
   <v>       0.31085400       0.62170900       0.36597930 </v>
   <v>       0.99923000       0.99846000       0.08631254 </v>
   <v>       0.99923000       0.99846000       0.36814206 </v>
   <v>       0.65492700       0.30985400       0.06041748 </v>
   <v>       0.65492700       0.30985400       0.34224700 </v>
   <v>       0.76973800       0.53947500       0.20725292 </v>
   <v>       0.66973800       0.33947500       0.48908244 </v>
   <v>       0.93971600       0.87943300       0.15783749 </v>
   <v>       0.83971600       0.67943300       0.43966701 </v>
   <v>       0.20515200       0.41030300       0.18578822 </v>
   <v>       0.10515200       0.21030300       0.46761774 </v>
   <v>       0.20184900       0.40369900       0.09969156 </v>
   <v>       0.20184900       0.40369900       0.38152107 </v>
   <v>       0.56380500       0.12761000       0.10779021 </v>
   <v>       0.56380500       0.12761000       0.38961973 </v>
   <v>       0.56710600       0.13421200       0.19387616 </v>
   <v>       0.46710600       0.93421200       0.47570568 </v>
   <v>       0.82923400       0.65846800       0.13571444 </v>
   <v>       0.72923400       0.45846800       0.41754396 </v>
  </varray>
 </structure>
</modeling>
