       N       E                     dE             d eps       ncg     rms          rms(c)
DAV:   1     0.496300775630E+03    0.49630E+03   -0.28681E+04  7352   0.790E+02
DAV:   2    -0.635580211125E+02   -0.55986E+03   -0.54477E+03  9740   0.189E+02
DAV:   3    -0.120924762480E+03   -0.57367E+02   -0.56502E+02  8836   0.625E+01
DAV:   4    -0.123564575877E+03   -0.26398E+01   -0.26226E+01 10736   0.143E+01
DAV:   5    -0.123633177948E+03   -0.68602E-01   -0.68523E-01 10128   0.230E+00    0.117E+01
DAV:   6    -0.119688080709E+03    0.39451E+01   -0.10386E+01  8564   0.862E+00    0.577E+00
DAV:   7    -0.119514431554E+03    0.17365E+00   -0.61772E+00  8536   0.631E+00    0.238E+00
DAV:   8    -0.119536486862E+03   -0.22055E-01   -0.66116E-01  9016   0.235E+00    0.116E+00
DAV:   9    -0.119530176079E+03    0.63108E-02   -0.11761E-01  9088   0.106E+00    0.330E-01
DAV:  10    -0.119521790291E+03    0.83858E-02   -0.27066E-02  8816   0.510E-01    0.131E-01
DAV:  11    -0.119515797106E+03    0.59932E-02   -0.35772E-03  9096   0.191E-01    0.717E-02
DAV:  12    -0.119509754911E+03    0.60422E-02   -0.12872E-03  9032   0.105E-01    0.370E-02
DAV:  13    -0.119506642584E+03    0.31123E-02   -0.37733E-04  8976   0.592E-02    0.169E-02
DAV:  14    -0.119505553932E+03    0.10887E-02   -0.11753E-04  9160   0.277E-02    0.108E-02
DAV:  15    -0.119505058966E+03    0.49497E-03   -0.62430E-05  8472   0.215E-02    0.691E-03
DAV:  16    -0.119505378685E+03   -0.31972E-03   -0.57700E-05  8200   0.184E-02    0.395E-03
DAV:  17    -0.119505858251E+03   -0.47957E-03   -0.16513E-04  8328   0.223E-02    0.230E-03
DAV:  18    -0.119505979430E+03   -0.12118E-03   -0.47470E-05  7600   0.117E-02    0.140E-03
DAV:  19    -0.119506007574E+03   -0.28144E-04   -0.94109E-06  6152   0.755E-03    0.992E-04
DAV:  20    -0.119506038802E+03   -0.31228E-04   -0.24178E-05  6944   0.911E-03    0.687E-04
DAV:  21    -0.119506017239E+03    0.21564E-04   -0.15269E-05  6608   0.897E-03    0.470E-04
DAV:  22    -0.119505954275E+03    0.62963E-04   -0.11984E-05  6368   0.914E-03    0.233E-04
DAV:  23    -0.119505914490E+03    0.39786E-04   -0.62895E-06  6288   0.750E-03    0.128E-04
DAV:  24    -0.119505891173E+03    0.23317E-04   -0.70569E-06  6536   0.780E-03    0.664E-05
DAV:  25    -0.119505883065E+03    0.81076E-05   -0.39812E-06  6496   0.643E-03    0.365E-05
DAV:  26    -0.119505880853E+03    0.22124E-05   -0.23537E-06  5992   0.548E-03    0.195E-05
DAV:  27    -0.119505879804E+03    0.10487E-05   -0.17129E-06  5424   0.492E-03    0.109E-05
DAV:  28    -0.119505880335E+03   -0.53055E-06   -0.14083E-06  5568   0.409E-03
   1 F= -.11950588E+03 E0= -.11949378E+03  d E =-.242104E-01
