 vasp.5.3.5 31Mar14 (build Oct 29 2014 16:16:03) complex                        
  
 executed on          Linux-UFHPC date 2016.02.09  17:48:05
 running on    8 total cores
 distrk:  each k-point on    8 cores,    1 groups
 distr:  one band on NCORES_PER_BAND=   2 cores,    4 groups


--------------------------------------------------------------------------------------------------------


 INCAR:
 POTCAR:    PAW_PBE P 17Jan2003                   
 POTCAR:   PAW_PBE Si 05Jan2001                   

 ----------------------------------------------------------------------------- 
|                                                                             |
|  ADVICE TO THIS USER RUNNING 'VASP/VAMP'   (HEAR YOUR MASTER'S VOICE ...):  |
|                                                                             |
|      You have switched on vdW-DFT.                                          |
|      This routine was written and supplied by Jiri Klimes.                  |
|      We recommed that you carefully read and cite the following             |
|      publication                                                            |
|      J. Klimes, D.R. Bowler, A. Michelides                                  |
|        J. Phys.: Cond Matt. 22 022201 (2010)                                |
|      J. Klimes, D.R. Bowler, A. Michelides                                  |
|        Phys. Rev. B. 83, 195131 (2011)                                      |
|      and references therein.                                                |
|                                                                             |
 ----------------------------------------------------------------------------- 

 POTCAR:    PAW_PBE P 17Jan2003                   
   VRHFIN =P : s2p3                                                             
   LEXCH  = PE                                                                  
   EATOM  =   176.0430 eV,   12.9388 Ry                                         
                                                                                
   TITEL  = PAW_PBE P 17Jan2003                                                 
   LULTRA =        F    use ultrasoft PP ?                                      
   IUNSCR =        1    unscreen: 0-lin 1-nonlin 2-no                           
   RPACOR =    1.500    partial core radius                                     
   POMASS =   30.974; ZVAL   =    5.000    mass and valenz                      
   RCORE  =    1.900    outmost cutoff radius                                   
   RWIGS  =    2.330; RWIGS  =    1.233    wigner-seitz radius (au A)           
   ENMAX  =  270.000; ENMIN  =  191.280 eV                                      
   ICORE  =        2    local potential                                         
   LCOR   =        T    correct aug charges                                     
   LPAW   =        T    paw PP                                                  
   EAUG   =  342.924                                                            
   DEXC   =    -.002                                                            
   RMAX   =    2.887    core radius for proj-oper                               
   RAUG   =    1.300    factor for augmentation sphere                          
   RDEP   =    1.931    radius for radial grids                                 
   QCUT   =   -4.330; QGAM   =    8.659    optimization parameters              
                                                                                
   Description                                                                  
     l     E      TYP  RCUT    TYP  RCUT                                        
     0   .000     23  1.900                                                     
     0   .000     23  1.900                                                     
     1   .000     23  1.900                                                     
     1   .000     23  1.900                                                     
     2   .000     23  1.900                                                     
  local pseudopotential read in
  partial core-charges read in
  atomic valenz-charges read in
  non local Contribution for L=           0  read in
    real space projection operators read in
  non local Contribution for L=           0  read in
    real space projection operators read in
  non local Contribution for L=           1  read in
    real space projection operators read in
  non local Contribution for L=           1  read in
    real space projection operators read in
    PAW grid and wavefunctions read in
 
   number of l-projection  operators is LMAX  =           4
   number of lm-projection operators is LMMAX =           8
 
 POTCAR:   PAW_PBE Si 05Jan2001                   
   VRHFIN =Si: s2p2                                                             
   LEXCH  = PE                                                                  
   EATOM  =   103.0669 eV,    7.5752 Ry                                         
                                                                                
   TITEL  = PAW_PBE Si 05Jan2001                                                
   LULTRA =        F    use ultrasoft PP ?                                      
   IUNSCR =        1    unscreen: 0-lin 1-nonlin 2-no                           
   RPACOR =    1.500    partial core radius                                     
   POMASS =   28.085; ZVAL   =    4.000    mass and valenz                      
   RCORE  =    1.900    outmost cutoff radius                                   
   RWIGS  =    2.480; RWIGS  =    1.312    wigner-seitz radius (au A)           
   ENMAX  =  245.345; ENMIN  =  184.009 eV                                      
   ICORE  =        2    local potential                                         
   LCOR   =        T    correct aug charges                                     
   LPAW   =        T    paw PP                                                  
   EAUG   =  322.069                                                            
   DEXC   =    -.007                                                            
   RMAX   =    2.944    core radius for proj-oper                               
   RAUG   =    1.300    factor for augmentation sphere                          
   RDEP   =    1.993    radius for radial grids                                 
   QCUT   =   -4.246; QGAM   =    8.493    optimization parameters              
                                                                                
   Description                                                                  
     l     E      TYP  RCUT    TYP  RCUT                                        
     0   .000     23  1.900                                                     
     0   .000     23  1.900                                                     
     1   .000     23  1.900                                                     
     1   .000     23  1.900                                                     
     2   .000      7  1.900                                                     
  local pseudopotential read in
  partial core-charges read in
  atomic valenz-charges read in
  non local Contribution for L=           0  read in
    real space projection operators read in
  non local Contribution for L=           0  read in
    real space projection operators read in
  non local Contribution for L=           1  read in
    real space projection operators read in
  non local Contribution for L=           1  read in
    real space projection operators read in
    PAW grid and wavefunctions read in
 
   number of l-projection  operators is LMAX  =           4
   number of lm-projection operators is LMMAX =           8
 
 Optimization of the real space projectors (new method)

 maximal supplied QI-value         = 19.84
 optimisation between [QCUT,QGAM] = [  8.73, 17.66] = [ 21.34, 87.33] Ry 
 Optimized for a Real-space Cutoff    1.50 Angstroem

   l    n(q)    QCUT    max X(q) W(low)/X(q) W(high)/X(q)  e(spline) 
   0      8     8.731     6.651    0.16E-04    0.15E-04    0.77E-08
   0      8     8.731    90.285    0.16E-03    0.90E-04    0.16E-06
   1      7     8.731     4.328    0.47E-04    0.36E-04    0.45E-07
   1      7     8.731    54.583    0.13E-03    0.39E-03    0.20E-06
 Optimization of the real space projectors (new method)

 maximal supplied QI-value         = 19.84
 optimisation between [QCUT,QGAM] = [  8.73, 17.66] = [ 21.34, 87.33] Ry 
 Optimized for a Real-space Cutoff    1.46 Angstroem

   l    n(q)    QCUT    max X(q) W(low)/X(q) W(high)/X(q)  e(spline) 
   0      8     8.731     8.708    0.16E-04    0.11E-04    0.68E-08
   0      8     8.731   106.241    0.24E-03    0.77E-04    0.13E-06
   1      7     8.731     5.901    0.34E-04    0.38E-04    0.36E-07
   1      7     8.731    73.241    0.12E-03    0.39E-03    0.15E-06

 ----------------------------------------------------------------------------- 
|                                                                             |
|  ADVICE TO THIS USER RUNNING 'VASP/VAMP'   (HEAR YOUR MASTER'S VOICE ...):  |
|                                                                             |
|      You enforced a specific xc-type in the INCAR file,                     |
|      a different type was found on the POTCAR file                          |
|          I HOPE YOU KNOW, WHAT YOU ARE  DOING                               |
|                                                                             |
 ----------------------------------------------------------------------------- 

  PAW_PBE P 17Jan2003                   :
 energy of atom  1       EATOM= -176.0430
 kinetic energy error for atom=    0.0040 (will be added to EATOM!!)
 PAW_PBE Si 05Jan2001                   :
 energy of atom  2       EATOM= -103.0669
 kinetic energy error for atom=    0.0021 (will be added to EATOM!!)
 
 
 POSCAR: Si12                                    
  positions in direct lattice
  No initial velocities read in
 exchange correlation table for  LEXCH =       42
   RHO(1)=    0.500       N(1)  =     2000
   RHO(2)=  100.500       N(2)  =     4000
 


--------------------------------------------------------------------------------------------------------


 ion  position               nearest neighbor table
   1  0.114  0.228  0.233-  15 2.28  21 2.29  21 2.29
   2  0.414  0.128  0.515-  16 2.28  22 2.29  22 2.29
   3  0.458  0.916  0.209-  21 2.28  13 2.30  13 2.30
   4  0.758  0.816  0.491-  22 2.28  14 2.30  14 2.30
   5  0.311  0.622  0.084-  17 2.28  23 2.30  23 2.30
   6  0.311  0.622  0.366-  24 1.65  18 2.28  14 2.65
   7  0.999  0.998  0.086-  19 2.29  19 2.29  13 2.32
   8  0.999  0.998  0.368-  20 2.29  20 2.29  22 3.03
   9  0.655  0.310  0.060-  19 2.28  17 2.29  17 2.29
  10  0.655  0.310  0.342-  20 2.28  18 2.29  18 2.29
  11  0.770  0.539  0.207-  15 2.29  15 2.29  23 2.32
  12  0.070  0.439  0.489-  16 2.29  16 2.29  24 2.32  18 3.03
  13  0.940  0.879  0.158-   3 2.30   3 2.30   7 2.32  23 2.35
  14  0.240  0.779  0.440-   4 2.30   4 2.30  24 2.35   6 2.65
  15  0.205  0.410  0.186-   1 2.28  11 2.29  11 2.29  17 2.37
  16  0.505  0.310  0.468-   2 2.28  12 2.29  12 2.29  18 2.84  20 2.90
  17  0.202  0.404  0.100-   5 2.28   9 2.29   9 2.29  15 2.37
  18  0.202  0.404  0.382-  24 1.95   6 2.28  10 2.29  10 2.29  16 2.84  12 3.03
  19  0.564  0.128  0.108-   9 2.28   7 2.29   7 2.29  21 2.37
  20  0.564  0.128  0.390-  10 2.28   8 2.29   8 2.29  22 2.84  16 2.90
  21  0.567  0.134  0.194-   3 2.28   1 2.29   1 2.29  19 2.37
  22  0.867  0.034  0.476-   4 2.28   2 2.29   2 2.29  20 2.84   8 3.03
  23  0.829  0.658  0.136-   5 2.30   5 2.30  11 2.32  13 2.35
  24  0.129  0.558  0.418-   6 1.65  18 1.95  12 2.32  14 2.35
 
  LATTYP: Found a base centered orthorhombic cell.
 ALAT       =     3.5404000000
 B/A-ratio  =     5.8153587165
 C/A-ratio  =     7.7678875268
  
  Lattice vectors:
  
 A1 = (   1.7702000000,  10.2943480000,   0.0000000000)
 A2 = (   1.7702000000, -10.2943480000,   0.0000000000)
 A3 = (   0.0000000000,   0.0000000000, -27.5014290000)


Analysis of symmetry for initial positions (statically):
=====================================================================
 Subroutine PRICEL returns:
 Original cell was already a primitive cell.
 

 Routine SETGRP: Setting up the symmetry group for a 
 base centered orthorhombic supercell.


 Subroutine GETGRP returns: Found  1 space group operations
 (whereof  1 operations were pure point group operations)
 out of a pool of  8 trial point group operations.


The static configuration has the point symmetry C_1 .


Analysis of symmetry for dynamics (positions and initial velocities):
=====================================================================
 Subroutine PRICEL returns:
 Original cell was already a primitive cell.
 

 Routine SETGRP: Setting up the symmetry group for a 
 base centered orthorhombic supercell.


 Subroutine GETGRP returns: Found  1 space group operations
 (whereof  1 operations were pure point group operations)
 out of a pool of  8 trial point group operations.


The dynamic configuration has the point symmetry C_1 .
 
 
 KPOINTS: pymatgen generated KPOINTS with grid den

Automatic generation of k-mesh.
Space group operators:
 irot       det(A)        alpha          n_x          n_y          n_z        tau_x        tau_y        tau_z
    1     1.000000     0.000000     1.000000     0.000000     0.000000     0.000000     0.000000     0.000000
 
 Subroutine IBZKPT returns following result:
 ===========================================
 
 Found     54 irreducible k-points:
 
 Following reciprocal coordinates:
            Coordinates               Weight
  0.000000  0.000000  0.000000      1.000000
  0.076923 -0.000000  0.000000      2.000000
  0.153846 -0.000000  0.000000      2.000000
  0.230769 -0.000000  0.000000      2.000000
  0.307692 -0.000000  0.000000      2.000000
  0.384615 -0.000000  0.000000      2.000000
  0.461538 -0.000000  0.000000      2.000000
  0.000000  0.250000  0.000000      2.000000
  0.076923  0.250000  0.000000      2.000000
  0.153846  0.250000  0.000000      2.000000
  0.230769  0.250000  0.000000      2.000000
  0.307692  0.250000  0.000000      2.000000
  0.384615  0.250000  0.000000      2.000000
  0.461538  0.250000  0.000000      2.000000
 -0.461538  0.250000  0.000000      2.000000
 -0.384615  0.250000  0.000000      2.000000
 -0.307692  0.250000  0.000000      2.000000
 -0.230769  0.250000  0.000000      2.000000
 -0.153846  0.250000  0.000000      2.000000
 -0.076923  0.250000  0.000000      2.000000
  0.000000  0.500000  0.000000      1.000000
  0.076923  0.500000  0.000000      2.000000
  0.153846  0.500000  0.000000      2.000000
  0.230769  0.500000  0.000000      2.000000
  0.307692  0.500000  0.000000      2.000000
  0.384615  0.500000  0.000000      2.000000
  0.461538  0.500000  0.000000      2.000000
  0.000000  0.000000  0.500000      1.000000
  0.076923 -0.000000  0.500000      2.000000
  0.153846 -0.000000  0.500000      2.000000
  0.230769 -0.000000  0.500000      2.000000
  0.307692 -0.000000  0.500000      2.000000
  0.384615 -0.000000  0.500000      2.000000
  0.461538 -0.000000  0.500000      2.000000
  0.000000  0.250000  0.500000      2.000000
  0.076923  0.250000  0.500000      2.000000
  0.153846  0.250000  0.500000      2.000000
  0.230769  0.250000  0.500000      2.000000
  0.307692  0.250000  0.500000      2.000000
  0.384615  0.250000  0.500000      2.000000
  0.461538  0.250000  0.500000      2.000000
 -0.461538  0.250000  0.500000      2.000000
 -0.384615  0.250000  0.500000      2.000000
 -0.307692  0.250000  0.500000      2.000000
 -0.230769  0.250000  0.500000      2.000000
 -0.153846  0.250000  0.500000      2.000000
 -0.076923  0.250000  0.500000      2.000000
  0.000000  0.500000  0.500000      1.000000
  0.076923  0.500000  0.500000      2.000000
  0.153846  0.500000  0.500000      2.000000
  0.230769  0.500000  0.500000      2.000000
  0.307692  0.500000  0.500000      2.000000
  0.384615  0.500000  0.500000      2.000000
  0.461538  0.500000  0.500000      2.000000
 
 Following cartesian coordinates:
            Coordinates               Weight
  0.000000  0.000000  0.000000      1.000000
  0.021727  0.003736  0.000000      2.000000
  0.043454  0.007472  0.000000      2.000000
  0.065182  0.011209  0.000000      2.000000
  0.086909  0.014945  0.000000      2.000000
  0.108636  0.018681  0.000000      2.000000
  0.130363  0.022417  0.000000      2.000000
  0.000000  0.024285  0.000000      2.000000
  0.021727  0.028021  0.000000      2.000000
  0.043454  0.031758  0.000000      2.000000
  0.065182  0.035494  0.000000      2.000000
  0.086909  0.039230  0.000000      2.000000
  0.108636  0.042966  0.000000      2.000000
  0.130363  0.046702  0.000000      2.000000
 -0.130363  0.001868  0.000000      2.000000
 -0.108636  0.005604  0.000000      2.000000
 -0.086909  0.009340  0.000000      2.000000
 -0.065182  0.013077  0.000000      2.000000
 -0.043454  0.016813  0.000000      2.000000
 -0.021727  0.020549  0.000000      2.000000
  0.000000  0.048570  0.000000      1.000000
  0.021727  0.052307  0.000000      2.000000
  0.043454  0.056043  0.000000      2.000000
  0.065182  0.059779  0.000000      2.000000
  0.086909  0.063515  0.000000      2.000000
  0.108636  0.067251  0.000000      2.000000
  0.130363  0.070987  0.000000      2.000000
  0.000000  0.000000  0.018181      1.000000
  0.021727  0.003736  0.018181      2.000000
  0.043454  0.007472  0.018181      2.000000
  0.065182  0.011209  0.018181      2.000000
  0.086909  0.014945  0.018181      2.000000
  0.108636  0.018681  0.018181      2.000000
  0.130363  0.022417  0.018181      2.000000
  0.000000  0.024285  0.018181      2.000000
  0.021727  0.028021  0.018181      2.000000
  0.043454  0.031758  0.018181      2.000000
  0.065182  0.035494  0.018181      2.000000
  0.086909  0.039230  0.018181      2.000000
  0.108636  0.042966  0.018181      2.000000
  0.130363  0.046702  0.018181      2.000000
 -0.130363  0.001868  0.018181      2.000000
 -0.108636  0.005604  0.018181      2.000000
 -0.086909  0.009340  0.018181      2.000000
 -0.065182  0.013077  0.018181      2.000000
 -0.043454  0.016813  0.018181      2.000000
 -0.021727  0.020549  0.018181      2.000000
  0.000000  0.048570  0.018181      1.000000
  0.021727  0.052307  0.018181      2.000000
  0.043454  0.056043  0.018181      2.000000
  0.065182  0.059779  0.018181      2.000000
  0.086909  0.063515  0.018181      2.000000
  0.108636  0.067251  0.018181      2.000000
  0.130363  0.070987  0.018181      2.000000
 


--------------------------------------------------------------------------------------------------------




 Dimension of arrays:
   k-points           NKPTS =     54   k-points in BZ     NKDIM =     54   number of bands    NBANDS=     68
   number of dos      NEDOS =    301   number of ions     NIONS =     24
   non local maximal  LDIM  =      4   non local SUM 2l+1 LMDIM =      8
   total plane-waves  NPLWV = 192000
   max r-space proj   IRMAX =   2772   max aug-charges    IRDMAX=   6603
   dimension x,y,z NGX =    20 NGY =   60 NGZ =  160
   dimension x,y,z NGXF=    40 NGYF=  120 NGZF=  320
   support grid    NGXF=    40 NGYF=  120 NGZF=  320
   ions per type =              12  12
 NGX,Y,Z   is equivalent  to a cutoff of   9.39,  9.55,  9.67 a.u.
 NGXF,Y,Z  is equivalent  to a cutoff of  18.78, 19.10, 19.34 a.u.


 I would recommend the setting:
   dimension x,y,z NGX =    20 NGY =   59 NGZ =  155
 SYSTEM =  unknown system                          
 POSCAR =  Si12                                    

 Startparameter for this run:
   NWRITE =      2    write-flag & timer
   PREC   = accura    normal or accurate (medium, high low for compatibility)
   ISTART =      0    job   : 0-new  1-cont  2-samecut
   ICHARG =      2    charge: 1-file 2-atom 10-const
   ISPIN  =      1    spin polarized calculation?
   LNONCOLLINEAR =      F non collinear calculations
   LSORBIT =      F    spin-orbit coupling
   INIWAV =      1    electr: 0-lowe 1-rand  2-diag
   LASPH  =      F    aspherical Exc in radial PAW
   METAGGA=      F    non-selfconsistent MetaGGA calc.

 Electronic Relaxation 1
   ENCUT  =  300.0 eV  22.05 Ry    4.70 a.u.   5.00 14.75 38.84*2*pi/ulx,y,z
   ENINI  =  300.0     initial cutoff
   ENAUG  =  342.9 eV  augmentation charge cutoff
   NELM   =     60;   NELMIN=  2; NELMDL= -5     # of ELM steps 
   EDIFF  = 0.1E-05   stopping-criterion for ELM
   LREAL  =      T    real-space projection
   NLSPLINE    = F    spline interpolate recip. space projectors
   LCOMPAT=      F    compatible to vasp.4.4
   GGA_COMPAT  = T    GGA compatible to vasp.4.4-vasp.4.6
   LMAXPAW     = -100 max onsite density
   LMAXMIX     =    2 max onsite mixed and CHGCAR
   VOSKOWN=      0    Vosko Wilk Nusair interpolation
   ROPT   =   -0.00025  -0.00025
 Ionic relaxation
   EDIFFG = 0.1E-04   stopping-criterion for IOM
   NSW    =      0    number of steps for IOM
   NBLOCK =      1;   KBLOCK =      1    inner block; outer block 
   IBRION =     -1    ionic relax: 0-MD 1-quasi-New 2-CG
   NFREE  =      1    steps in history (QN), initial steepest desc. (CG)
   ISIF   =      3    stress and relaxation
   IWAVPR =     10    prediction:  0-non 1-charg 2-wave 3-comb
   ISYM   =      2    0-nonsym 1-usesym 2-fastsym
   LCORR  =      T    Harris-Foulkes like correction to forces

   POTIM  = 0.5000    time-step for ionic-motion
   TEIN   =    0.0    initial temperature
   TEBEG  =    0.0;   TEEND  =   0.0 temperature during run
   SMASS  =  -3.00    Nose mass-parameter (am)
   estimated Nose-frequenzy (Omega)   =  0.10E-29 period in steps =****** mass=  -0.286E-27a.u.
   SCALEE = 1.0000    scale energy and forces
   NPACO  =    256;   APACO  = 16.0  distance and # of slots for P.C.
   PSTRESS=    0.0 pullay stress

  Mass of Ions in am
   POMASS =  30.97 28.09
  Ionic Valenz
   ZVAL   =   5.00  4.00
  Atomic Wigner-Seitz radii
   RWIGS  =  -1.00 -1.00
  virtual crystal weights 
   VCA    =   1.00  1.00
   NELECT =     108.0000    total number of electrons
   NUPDOWN=      -1.0000    fix difference up-down

 DOS related values:
   EMIN   =  10.00;   EMAX   =-10.00  energy-range for DOS
   EFERMI =   0.00
   ISMEAR =     0;   SIGMA  =   0.10  broadening in eV -4-tet -1-fermi 0-gaus

 Electronic relaxation 2 (details)
   IALGO  =     38    algorithm
   LDIAG  =      T    sub-space diagonalisation (order eigenvalues)
   LSUBROT=      F    optimize rotation matrix (better conditioning)
   TURBO    =      0    0=normal 1=particle mesh
   IRESTART =      0    0=no restart 2=restart with 2 vectors
   NREBOOT  =      0    no. of reboots
   NMIN     =      0    reboot dimension
   EREF     =   0.00    reference energy to select bands
   IMIX   =      4    mixing-type and parameters
     AMIX     =   0.40;   BMIX     =  1.00
     AMIX_MAG =   1.60;   BMIX_MAG =  1.00
     AMIN     =   0.10
     WC   =   100.;   INIMIX=   1;  MIXPRE=   1;  MAXMIX= -45

 Intra band minimization:
   WEIMIN = 0.0000     energy-eigenvalue tresh-hold
   EBREAK =  0.37E-08  absolut break condition
   DEPER  =   0.30     relativ break condition  

   TIME   =   0.40     timestep for ELM

  volume/ion in A,a.u.               =      41.76       281.83
  Fermi-wavevector in a.u.,A,eV,Ry     =   0.779018  1.472130  8.256946  0.606868
  Thomas-Fermi vector in A             =   1.882034
 
 Write flags
   LWAVE  =      F    write WAVECAR
   LCHARG =      F    write CHGCAR
   LVTOT  =      F    write LOCPOT, total local potential
   LVHAR  =      F    write LOCPOT, Hartree potential only
   LELF   =      F    write electronic localiz. function (ELF)
   LORBIT =      0    0 simple, 1 ext, 2 COOP (PROOUT)


 Dipole corrections
   LMONO  =      F    monopole corrections only (constant potential shift)
   LDIPOL =      F    correct potential (dipole corrections)
   IDIPOL =      0    1-x, 2-y, 3-z, 4-all directions 
   EPSILON=  1.0000000 bulk dielectric constant

 Exchange correlation treatment:
   GGA     =    BO    GGA type
   LEXCH   =    42    internal setting for exchange type
   VOSKOWN=      0    Vosko Wilk Nusair interpolation
   LHFCALC =     F    Hartree Fock is set to
   LHFONE  =     F    Hartree Fock one center treatment
   AEXX    =    0.0000 exact exchange contribution

 vdW DFT:
   LUSE_VDW   =     T    switch on vdW DFT
   Zab_VDW    =-.8491    correlation parameter
   PARAM1     =0.1833
   PARAM2     =0.2200
   PARAM3     =0.0000

 Linear response parameters
   LEPSILON=     F    determine dielectric tensor
   LRPA    =     F    only Hartree local field effects (RPA)
   LNABLA  =     F    use nabla operator in PAW spheres
   LVEL    =     F    velocity operator in full k-point grid
   LINTERFAST=   F  fast interpolation
   KINTER  =     0    interpolate to denser k-point grid
   CSHIFT  =0.1000    complex shift for real part using Kramers Kronig
   OMEGAMAX=  -1.0    maximum frequency
   DEG_THRESHOLD= 0.2000000E-02 threshold for treating states as degnerate
   RTIME   =    0.100 relaxation time in fs

 Orbital magnetization related:
   ORBITALMAG=     F  switch on orbital magnetization
   LCHIMAG   =     F  perturbation theory with respect to B field
   DQ        =  0.001000  dq finite difference perturbation B field



--------------------------------------------------------------------------------------------------------


 Static calculation
 charge density and potential will be updated during run
 non-spin polarized calculation
 Variant of blocked Davidson
 Davidson routine will perform the subspace rotation
 perform sub-space diagonalisation
    after iterative eigenvector-optimisation
 modified Broyden-mixing scheme, WC =      100.0
 initial mixing is a Kerker type mixing with AMIX =  0.4000 and BMIX =      1.0000
 Hartree-type preconditioning will be used
 using additional bands           14
 real space projection scheme for non local part
 use partial core corrections
 calculate Harris-corrections to forces 
   (improved forces if not selfconsistent)
 use gradient corrections 
 use of overlap-Matrix (Vanderbilt PP)
 Gauss-broadening in eV      SIGMA  =   0.10


--------------------------------------------------------------------------------------------------------


  energy-cutoff  :      300.00
  volume of cell :     1002.32
      direct lattice vectors                 reciprocal lattice vectors
     3.540400000  0.000000000  0.000000000     0.282453960  0.048570342  0.000000000
    -1.770200000 10.294348000  0.000000000     0.000000000  0.097140683  0.000000000
     0.000000000  0.000000000 27.501429000     0.000000000  0.000000000  0.036361747

  length of vectors
     3.540400000 10.445439617 27.501429000     0.286599577  0.097140683  0.036361747


 
 k-points in units of 2pi/SCALE and weight: pymatgen generated KPOINTS with grid den
   0.00000000  0.00000000  0.00000000       0.010
   0.02172723  0.00373618  0.00000000       0.019
   0.04345446  0.00747236  0.00000000       0.019
   0.06518168  0.01120854  0.00000000       0.019
   0.08690891  0.01494472  0.00000000       0.019
   0.10863614  0.01868090  0.00000000       0.019
   0.13036337  0.02241708  0.00000000       0.019
   0.00000000  0.02428517  0.00000000       0.019
   0.02172723  0.02802135  0.00000000       0.019
   0.04345446  0.03175753  0.00000000       0.019
   0.06518168  0.03549371  0.00000000       0.019
   0.08690891  0.03922989  0.00000000       0.019
   0.10863614  0.04296607  0.00000000       0.019
   0.13036337  0.04670225  0.00000000       0.019
  -0.13036337  0.00186809  0.00000000       0.019
  -0.10863614  0.00560427  0.00000000       0.019
  -0.08690891  0.00934045  0.00000000       0.019
  -0.06518168  0.01307663  0.00000000       0.019
  -0.04345446  0.01681281  0.00000000       0.019
  -0.02172723  0.02054899  0.00000000       0.019
   0.00000000  0.04857034  0.00000000       0.010
   0.02172723  0.05230652  0.00000000       0.019
   0.04345446  0.05604270  0.00000000       0.019
   0.06518168  0.05977888  0.00000000       0.019
   0.08690891  0.06351506  0.00000000       0.019
   0.10863614  0.06725124  0.00000000       0.019
   0.13036337  0.07098742  0.00000000       0.019
   0.00000000  0.00000000  0.01818087       0.010
   0.02172723  0.00373618  0.01818087       0.019
   0.04345446  0.00747236  0.01818087       0.019
   0.06518168  0.01120854  0.01818087       0.019
   0.08690891  0.01494472  0.01818087       0.019
   0.10863614  0.01868090  0.01818087       0.019
   0.13036337  0.02241708  0.01818087       0.019
   0.00000000  0.02428517  0.01818087       0.019
   0.02172723  0.02802135  0.01818087       0.019
   0.04345446  0.03175753  0.01818087       0.019
   0.06518168  0.03549371  0.01818087       0.019
   0.08690891  0.03922989  0.01818087       0.019
   0.10863614  0.04296607  0.01818087       0.019
   0.13036337  0.04670225  0.01818087       0.019
  -0.13036337  0.00186809  0.01818087       0.019
  -0.10863614  0.00560427  0.01818087       0.019
  -0.08690891  0.00934045  0.01818087       0.019
  -0.06518168  0.01307663  0.01818087       0.019
  -0.04345446  0.01681281  0.01818087       0.019
  -0.02172723  0.02054899  0.01818087       0.019
   0.00000000  0.04857034  0.01818087       0.010
   0.02172723  0.05230652  0.01818087       0.019
   0.04345446  0.05604270  0.01818087       0.019
   0.06518168  0.05977888  0.01818087       0.019
   0.08690891  0.06351506  0.01818087       0.019
   0.10863614  0.06725124  0.01818087       0.019
   0.13036337  0.07098742  0.01818087       0.019
 
 k-points in reciprocal lattice and weights: pymatgen generated KPOINTS with grid den
   0.00000000  0.00000000  0.00000000       0.010
   0.07692308 -0.00000000  0.00000000       0.019
   0.15384615 -0.00000000  0.00000000       0.019
   0.23076923 -0.00000000  0.00000000       0.019
   0.30769231 -0.00000000  0.00000000       0.019
   0.38461538 -0.00000000  0.00000000       0.019
   0.46153846 -0.00000000  0.00000000       0.019
   0.00000000  0.25000000  0.00000000       0.019
   0.07692308  0.25000000  0.00000000       0.019
   0.15384615  0.25000000  0.00000000       0.019
   0.23076923  0.25000000  0.00000000       0.019
   0.30769231  0.25000000  0.00000000       0.019
   0.38461538  0.25000000  0.00000000       0.019
   0.46153846  0.25000000  0.00000000       0.019
  -0.46153846  0.25000000  0.00000000       0.019
  -0.38461538  0.25000000  0.00000000       0.019
  -0.30769231  0.25000000  0.00000000       0.019
  -0.23076923  0.25000000  0.00000000       0.019
  -0.15384615  0.25000000  0.00000000       0.019
  -0.07692308  0.25000000  0.00000000       0.019
   0.00000000  0.50000000  0.00000000       0.010
   0.07692308  0.50000000  0.00000000       0.019
   0.15384615  0.50000000  0.00000000       0.019
   0.23076923  0.50000000  0.00000000       0.019
   0.30769231  0.50000000  0.00000000       0.019
   0.38461538  0.50000000  0.00000000       0.019
   0.46153846  0.50000000  0.00000000       0.019
   0.00000000  0.00000000  0.50000000       0.010
   0.07692308 -0.00000000  0.50000000       0.019
   0.15384615 -0.00000000  0.50000000       0.019
   0.23076923 -0.00000000  0.50000000       0.019
   0.30769231 -0.00000000  0.50000000       0.019
   0.38461538 -0.00000000  0.50000000       0.019
   0.46153846 -0.00000000  0.50000000       0.019
   0.00000000  0.25000000  0.50000000       0.019
   0.07692308  0.25000000  0.50000000       0.019
   0.15384615  0.25000000  0.50000000       0.019
   0.23076923  0.25000000  0.50000000       0.019
   0.30769231  0.25000000  0.50000000       0.019
   0.38461538  0.25000000  0.50000000       0.019
   0.46153846  0.25000000  0.50000000       0.019
  -0.46153846  0.25000000  0.50000000       0.019
  -0.38461538  0.25000000  0.50000000       0.019
  -0.30769231  0.25000000  0.50000000       0.019
  -0.23076923  0.25000000  0.50000000       0.019
  -0.15384615  0.25000000  0.50000000       0.019
  -0.07692308  0.25000000  0.50000000       0.019
   0.00000000  0.50000000  0.50000000       0.010
   0.07692308  0.50000000  0.50000000       0.019
   0.15384615  0.50000000  0.50000000       0.019
   0.23076923  0.50000000  0.50000000       0.019
   0.30769231  0.50000000  0.50000000       0.019
   0.38461538  0.50000000  0.50000000       0.019
   0.46153846  0.50000000  0.50000000       0.019
 
 position of ions in fractional coordinates (direct lattice) 
   0.11402300  0.22804500  0.23316207
   0.41402300  0.12804500  0.51499159
   0.45808900  0.91617900  0.20939482
   0.75808900  0.81617900  0.49122434
   0.31085400  0.62170900  0.08414979
   0.31085400  0.62170900  0.36597930
   0.99923000  0.99846000  0.08631254
   0.99923000  0.99846000  0.36814206
   0.65492700  0.30985400  0.06041748
   0.65492700  0.30985400  0.34224700
   0.76973800  0.53947500  0.20725292
   0.06973800  0.43947500  0.48908244
   0.93971600  0.87943300  0.15783749
   0.23971600  0.77943300  0.43966701
   0.20515200  0.41030300  0.18578822
   0.50515200  0.31030300  0.46761774
   0.20184900  0.40369900  0.09969156
   0.20184900  0.40369900  0.38152107
   0.56380500  0.12761000  0.10779021
   0.56380500  0.12761000  0.38961973
   0.56710600  0.13421200  0.19387616
   0.86710600  0.03421200  0.47570568
   0.82923400  0.65846800  0.13571444
   0.12923400  0.55846800  0.41754396
 
 position of ions in cartesian coordinates  (Angst):
   0.00000177  2.34757459  6.41229012
   1.23914177  1.31813979 14.16300462
  -0.00000177  9.43146546  5.75865686
   1.23913823  8.40203066 13.50937136
  -0.00000177  6.40008880  2.31423934
  -0.00000177  6.40008880 10.06495384
   1.77020000 10.27849470  2.37371832
   1.77020000 10.27849470 10.12443282
   1.77020000  3.18974491  1.66156717
   1.77020000  3.18974491  9.41228167
   1.77020177  5.55354339  5.69975143
  -0.53105823  4.52410859 13.45046593
   1.77019823  9.05318934  4.34075665
  -0.53106177  8.02375454 12.09147115
   0.00000177  4.22380187  5.10944151
   1.23914177  3.19436707 12.86015601
  -0.00000177  4.15581799  2.74166024
  -0.00000177  4.15581799 10.49237474
   1.77020000  1.31366175  2.96438477
   1.77020000  1.31366175 10.71509927
   1.77020000  1.38162503  5.33187152
   3.00934000  0.35219023 13.08258602
   1.77020000  6.77849874  3.73234107
  -0.53106000  5.74906394 11.48305557
 


--------------------------------------------------------------------------------------------------------


 k-point  1 :   0.0000 0.0000 0.0000  plane waves:   11717
 k-point  2 :   0.0769-0.0000 0.0000  plane waves:   11762
 k-point  3 :   0.1538-0.0000 0.0000  plane waves:   11805
 k-point  4 :   0.2308-0.0000 0.0000  plane waves:   11824
 k-point  5 :   0.3077-0.0000 0.0000  plane waves:   11875
 k-point  6 :   0.3846-0.0000 0.0000  plane waves:   11864
 k-point  7 :   0.4615-0.0000 0.0000  plane waves:   11883
 k-point  8 :   0.0000 0.2500 0.0000  plane waves:   11683
 k-point  9 :   0.0769 0.2500 0.0000  plane waves:   11756
 k-point 10 :   0.1538 0.2500 0.0000  plane waves:   11807
 k-point 11 :   0.2308 0.2500 0.0000  plane waves:   11853
 k-point 12 :   0.3077 0.2500 0.0000  plane waves:   11866
 k-point 13 :   0.3846 0.2500 0.0000  plane waves:   11889
 k-point 14 :   0.4615 0.2500 0.0000  plane waves:   11885
 k-point 15 :  -0.4615 0.2500 0.0000  plane waves:   11886
 k-point 16 :  -0.3846 0.2500 0.0000  plane waves:   11867
 k-point 17 :  -0.3077 0.2500 0.0000  plane waves:   11849
 k-point 18 :  -0.2308 0.2500 0.0000  plane waves:   11827
 k-point 19 :  -0.1538 0.2500 0.0000  plane waves:   11801
 k-point 20 :  -0.0769 0.2500 0.0000  plane waves:   11757
 k-point 21 :   0.0000 0.5000 0.0000  plane waves:   11710
 k-point 22 :   0.0769 0.5000 0.0000  plane waves:   11762
 k-point 23 :   0.1538 0.5000 0.0000  plane waves:   11782
 k-point 24 :   0.2308 0.5000 0.0000  plane waves:   11841
 k-point 25 :   0.3077 0.5000 0.0000  plane waves:   11876
 k-point 26 :   0.3846 0.5000 0.0000  plane waves:   11889
 k-point 27 :   0.4615 0.5000 0.0000  plane waves:   11881
 k-point 28 :   0.0000 0.0000 0.5000  plane waves:   11698
 k-point 29 :   0.0769-0.0000 0.5000  plane waves:   11752
 k-point 30 :   0.1538-0.0000 0.5000  plane waves:   11800
 k-point 31 :   0.2308-0.0000 0.5000  plane waves:   11834
 k-point 32 :   0.3077-0.0000 0.5000  plane waves:   11850
 k-point 33 :   0.3846-0.0000 0.5000  plane waves:   11888
 k-point 34 :   0.4615-0.0000 0.5000  plane waves:   11896
 k-point 35 :   0.0000 0.2500 0.5000  plane waves:   11714
 k-point 36 :   0.0769 0.2500 0.5000  plane waves:   11754
 k-point 37 :   0.1538 0.2500 0.5000  plane waves:   11802
 k-point 38 :   0.2308 0.2500 0.5000  plane waves:   11840
 k-point 39 :   0.3077 0.2500 0.5000  plane waves:   11858
 k-point 40 :   0.3846 0.2500 0.5000  plane waves:   11896
 k-point 41 :   0.4615 0.2500 0.5000  plane waves:   11886
 k-point 42 :  -0.4615 0.2500 0.5000  plane waves:   11852
 k-point 43 :  -0.3846 0.2500 0.5000  plane waves:   11838
 k-point 44 :  -0.3077 0.2500 0.5000  plane waves:   11842
 k-point 45 :  -0.2308 0.2500 0.5000  plane waves:   11840
 k-point 46 :  -0.1538 0.2500 0.5000  plane waves:   11804
 k-point 47 :  -0.0769 0.2500 0.5000  plane waves:   11748
 k-point 48 :   0.0000 0.5000 0.5000  plane waves:   11724
 k-point 49 :   0.0769 0.5000 0.5000  plane waves:   11748
 k-point 50 :   0.1538 0.5000 0.5000  plane waves:   11814
 k-point 51 :   0.2308 0.5000 0.5000  plane waves:   11832
 k-point 52 :   0.3077 0.5000 0.5000  plane waves:   11868
 k-point 53 :   0.3846 0.5000 0.5000  plane waves:   11892
 k-point 54 :   0.4615 0.5000 0.5000  plane waves:   11878

 maximum and minimum number of plane-waves per node :      5964     5832

 maximum number of plane-waves:     11896
 maximum index in each direction: 
   IXMAX=    5   IYMAX=   14   IZMAX=   38
   IXMIN=   -5   IYMIN=  -15   IZMIN=  -39

 WARNING: aliasing errors must be expected set NGX to  22 to avoid them
 NGY is ok and might be reduce to  60
 NGZ is ok and might be reduce to 156
 aliasing errors are usually negligible using standard VASP settings
 and one can safely disregard these warnings

 real space projection operators:
  total allocation   :       3793.25 KBytes
  max/ min on nodes  :       1899.38       1893.88


 parallel 3D FFT for wavefunctions:
    minimum data exchange during FFTs selected (reduces bandwidth)
 parallel 3D FFT for charge:
    minimum data exchange during FFTs selected (reduces bandwidth)


 total amount of memory used by VASP on root node   146493. kBytes
========================================================================

   base      :      30000. kBytes
   nonlr-proj:       3452. kBytes
   fftplans  :       9347. kBytes
   grid      :      14649. kBytes
   one-center:         36. kBytes
   wavefun   :      89009. kBytes
 
     INWAV:  cpu time    0.00: real time    0.00
 Broyden mixing: mesh for mixing (old mesh)
   NGX =  9   NGY = 29   NGZ = 77
  (NGX  = 40   NGY  =120   NGZ  =320)
  gives a total of  20097 points

 initial charge density was supplied:
 charge density of overlapping atoms calculated
 number of electron     108.0000000 magnetization 
 keeping initial charge density in first step


--------------------------------------------------------------------------------------------------------


 Maximum index for non-local projection operator         1333
 Maximum index for augmentation-charges          822 (set IRDMAX)


--------------------------------------------------------------------------------------------------------


 First call to EWALD:  gamma=   0.177
 Maximum number of real-space cells 7x 3x 1
 Maximum number of reciprocal cells 1x 3x 7

 FEWALD executed in parallel
    FEWALD:  cpu time    0.00: real time    0.01


----------------------------------------- Iteration    1(   1)  ---------------------------------------


vdW kernel read from vdw_kernel.bindat
  0.0000  0.2424  0.5071  0.7962  1.1119  1.4567  1.8333  2.2446  2.6937  3.1842
  3.7199  4.3049  4.9438  5.6415  6.4036  7.2358  8.1446  9.1372 10.2212 11.4050
 12.6979 14.1099 15.6519 17.3360 19.1751 21.1837 23.3773 25.7729 28.3892 31.2465
 34.3669 37.7748 41.4965 45.5611 50.0000
 
    POTLOK:  cpu time   16.59: real time   16.68
    SETDIJ:  cpu time    0.01: real time    0.01
     EDDAV:  cpu time   77.45: real time   77.58
       DOS:  cpu time    0.01: real time    0.01
    --------------------------------------------
      LOOP:  cpu time   94.06: real time   94.28

 eigenvalue-minimisations  :  7352
 total energy-change (2. order) : 0.4963008E+03  (-0.2868121E+04)
 number of electron     108.0000000 magnetization 
 augmentation part      108.0000000 magnetization 

 Free energy of the ion-electron system (eV)
  ---------------------------------------------------
  alpha Z        PSCENC =        36.80884744
  Ewald energy   TEWEN  =     11930.73773325
  -Hartree energ DENC   =    -14970.69977455
  -exchange      EXHF   =         0.00000000
  -V(xc)+E(xc)   XCENC  =       -87.80822670
  PAW double counting   =      1056.43050070     -732.41190547
  entropy T*S    EENTRO =        -0.04990913
  eigenvalues    EBANDS =       -90.74775035
  atomic energy  EATOM  =      3354.04126044
  ---------------------------------------------------
  free energy    TOTEN  =       496.30077563 eV

  energy without entropy =      496.35068476  energy(sigma->0) =      496.32573020


--------------------------------------------------------------------------------------------------------




----------------------------------------- Iteration    1(   2)  ---------------------------------------


     EDDAV:  cpu time   97.63: real time   97.70
       DOS:  cpu time    0.01: real time    0.01
    --------------------------------------------
      LOOP:  cpu time   97.64: real time   97.71

 eigenvalue-minimisations  :  9740
 total energy-change (2. order) :-0.5598588E+03  (-0.5447690E+03)
 number of electron     108.0000000 magnetization 
 augmentation part      108.0000000 magnetization 

 Free energy of the ion-electron system (eV)
  ---------------------------------------------------
  alpha Z        PSCENC =        36.80884744
  Ewald energy   TEWEN  =     11930.73773325
  -Hartree energ DENC   =    -14970.69977455
  -exchange      EXHF   =         0.00000000
  -V(xc)+E(xc)   XCENC  =       -87.80822670
  PAW double counting   =      1056.43050070     -732.41190547
  entropy T*S    EENTRO =        -0.02431093
  eigenvalues    EBANDS =      -650.63214530
  atomic energy  EATOM  =      3354.04126044
  ---------------------------------------------------
  free energy    TOTEN  =       -63.55802111 eV

  energy without entropy =      -63.53371018  energy(sigma->0) =      -63.54586565


--------------------------------------------------------------------------------------------------------




----------------------------------------- Iteration    1(   3)  ---------------------------------------


     EDDAV:  cpu time   89.00: real time   89.20
       DOS:  cpu time    0.01: real time    0.01
    --------------------------------------------
      LOOP:  cpu time   89.01: real time   89.21

 eigenvalue-minimisations  :  8836
 total energy-change (2. order) :-0.5736674E+02  (-0.5650245E+02)
 number of electron     108.0000000 magnetization 
 augmentation part      108.0000000 magnetization 

 Free energy of the ion-electron system (eV)
  ---------------------------------------------------
  alpha Z        PSCENC =        36.80884744
  Ewald energy   TEWEN  =     11930.73773325
  -Hartree energ DENC   =    -14970.69977455
  -exchange      EXHF   =         0.00000000
  -V(xc)+E(xc)   XCENC  =       -87.80822670
  PAW double counting   =      1056.43050070     -732.41190547
  entropy T*S    EENTRO =        -0.02312812
  eigenvalues    EBANDS =      -708.00006948
  atomic energy  EATOM  =      3354.04126044
  ---------------------------------------------------
  free energy    TOTEN  =      -120.92476248 eV

  energy without entropy =     -120.90163436  energy(sigma->0) =     -120.91319842


--------------------------------------------------------------------------------------------------------




----------------------------------------- Iteration    1(   4)  ---------------------------------------


     EDDAV:  cpu time  104.39: real time  104.46
       DOS:  cpu time    0.01: real time    0.01
    --------------------------------------------
      LOOP:  cpu time  104.40: real time  104.50

 eigenvalue-minimisations  : 10736
 total energy-change (2. order) :-0.2639813E+01  (-0.2622642E+01)
 number of electron     108.0000000 magnetization 
 augmentation part      108.0000000 magnetization 

 Free energy of the ion-electron system (eV)
  ---------------------------------------------------
  alpha Z        PSCENC =        36.80884744
  Ewald energy   TEWEN  =     11930.73773325
  -Hartree energ DENC   =    -14970.69977455
  -exchange      EXHF   =         0.00000000
  -V(xc)+E(xc)   XCENC  =       -87.80822670
  PAW double counting   =      1056.43050070     -732.41190547
  entropy T*S    EENTRO =        -0.02432716
  eigenvalues    EBANDS =      -710.63868384
  atomic energy  EATOM  =      3354.04126044
  ---------------------------------------------------
  free energy    TOTEN  =      -123.56457588 eV

  energy without entropy =     -123.54024872  energy(sigma->0) =     -123.55241230


--------------------------------------------------------------------------------------------------------




----------------------------------------- Iteration    1(   5)  ---------------------------------------


     EDDAV:  cpu time   98.68: real time   98.87
       DOS:  cpu time    0.01: real time    0.01
    CHARGE:  cpu time    6.58: real time    6.60
    MIXING:  cpu time    0.01: real time    0.01
    --------------------------------------------
      LOOP:  cpu time  105.29: real time  105.49

 eigenvalue-minimisations  : 10128
 total energy-change (2. order) :-0.6860207E-01  (-0.6852295E-01)
 number of electron     107.9999995 magnetization 
 augmentation part       -9.6473032 magnetization 

 Broyden mixing:
  rms(total) = 0.11738E+01    rms(broyden)= 0.11735E+01
  rms(prec ) = 0.12593E+01
  weight for this iteration     100.00

 Free energy of the ion-electron system (eV)
  ---------------------------------------------------
  alpha Z        PSCENC =        36.80884744
  Ewald energy   TEWEN  =     11930.73773325
  -Hartree energ DENC   =    -14970.69977455
  -exchange      EXHF   =         0.00000000
  -V(xc)+E(xc)   XCENC  =       -87.80822670
  PAW double counting   =      1056.43050070     -732.41190547
  entropy T*S    EENTRO =        -0.02440019
  eigenvalues    EBANDS =      -710.70721288
  atomic energy  EATOM  =      3354.04126044
  ---------------------------------------------------
  free energy    TOTEN  =      -123.63317795 eV

  energy without entropy =     -123.60877776  energy(sigma->0) =     -123.62097785


--------------------------------------------------------------------------------------------------------




----------------------------------------- Iteration    1(   6)  ---------------------------------------


    POTLOK:  cpu time   15.06: real time   15.13
    SETDIJ:  cpu time    0.01: real time    0.01
     EDDAV:  cpu time   88.68: real time   88.74
       DOS:  cpu time    0.01: real time    0.01
    CHARGE:  cpu time    4.97: real time    4.97
    MIXING:  cpu time    0.01: real time    0.01
    --------------------------------------------
      LOOP:  cpu time  108.74: real time  108.88

 eigenvalue-minimisations  :  8564
 total energy-change (2. order) : 0.3945097E+01  (-0.1038650E+01)
 number of electron     107.9999995 magnetization 
 augmentation part       -9.4796435 magnetization 

 Broyden mixing:
  rms(total) = 0.57730E+00    rms(broyden)= 0.57728E+00
  rms(prec ) = 0.61197E+00
  weight for this iteration     100.00

 eigenvalues of (default mixing * dielectric matrix)
  average eigenvalue GAMMA=   1.6239
  1.6239

 Free energy of the ion-electron system (eV)
  ---------------------------------------------------
  alpha Z        PSCENC =        36.80884744
  Ewald energy   TEWEN  =     11930.73773325
  -Hartree energ DENC   =    -15017.78664724
  -exchange      EXHF   =         0.00000000
  -V(xc)+E(xc)   XCENC  =       -84.46568631
  PAW double counting   =      1122.90535024     -800.74423032
  entropy T*S    EENTRO =        -0.02606343
  eigenvalues    EBANDS =      -661.15864479
  atomic energy  EATOM  =      3354.04126044
  ---------------------------------------------------
  free energy    TOTEN  =      -119.68808071 eV

  energy without entropy =     -119.66201728  energy(sigma->0) =     -119.67504899


--------------------------------------------------------------------------------------------------------




----------------------------------------- Iteration    1(   7)  ---------------------------------------


    POTLOK:  cpu time   14.91: real time   15.02
    SETDIJ:  cpu time    0.01: real time    0.01
     EDDAV:  cpu time   86.52: real time   86.63
       DOS:  cpu time    0.01: real time    0.01
    CHARGE:  cpu time    5.89: real time    5.89
    MIXING:  cpu time    0.02: real time    0.02
    --------------------------------------------
      LOOP:  cpu time  107.36: real time  107.58

 eigenvalue-minimisations  :  8536
 total energy-change (2. order) : 0.1736492E+00  (-0.6177169E+00)
 number of electron     107.9999995 magnetization 
 augmentation part       -9.3816934 magnetization 

 Broyden mixing:
  rms(total) = 0.23774E+00    rms(broyden)= 0.23768E+00
  rms(prec ) = 0.24948E+00
  weight for this iteration     100.00

 eigenvalues of (default mixing * dielectric matrix)
  average eigenvalue GAMMA=   1.4806
  1.1247  1.8364

 Free energy of the ion-electron system (eV)
  ---------------------------------------------------
  alpha Z        PSCENC =        36.80884744
  Ewald energy   TEWEN  =     11930.73773325
  -Hartree energ DENC   =    -15044.03308386
  -exchange      EXHF   =         0.00000000
  -V(xc)+E(xc)   XCENC  =       -81.73123697
  PAW double counting   =      1166.86821623     -845.94171758
  entropy T*S    EENTRO =        -0.02330283
  eigenvalues    EBANDS =      -636.24114770
  atomic energy  EATOM  =      3354.04126044
  ---------------------------------------------------
  free energy    TOTEN  =      -119.51443155 eV

  energy without entropy =     -119.49112873  energy(sigma->0) =     -119.50278014


--------------------------------------------------------------------------------------------------------




----------------------------------------- Iteration    1(   8)  ---------------------------------------


    POTLOK:  cpu time   15.01: real time   15.03
    SETDIJ:  cpu time    0.02: real time    0.02
     EDDAV:  cpu time   88.87: real time   88.93
       DOS:  cpu time    0.01: real time    0.01
    CHARGE:  cpu time    5.50: real time    5.50
    MIXING:  cpu time    0.01: real time    0.01
    --------------------------------------------
      LOOP:  cpu time  109.42: real time  109.50

 eigenvalue-minimisations  :  9016
 total energy-change (2. order) :-0.2205531E-01  (-0.6611563E-01)
 number of electron     107.9999995 magnetization 
 augmentation part       -9.3776793 magnetization 

 Broyden mixing:
  rms(total) = 0.11554E+00    rms(broyden)= 0.11553E+00
  rms(prec ) = 0.12189E+00
  weight for this iteration     100.00

 eigenvalues of (default mixing * dielectric matrix)
  average eigenvalue GAMMA=   1.5428
  2.3487  1.0544  1.2255

 Free energy of the ion-electron system (eV)
  ---------------------------------------------------
  alpha Z        PSCENC =        36.80884744
  Ewald energy   TEWEN  =     11930.73773325
  -Hartree energ DENC   =    -15053.61216064
  -exchange      EXHF   =         0.00000000
  -V(xc)+E(xc)   XCENC  =       -80.74555706
  PAW double counting   =      1175.67589398     -855.01479056
  entropy T*S    EENTRO =        -0.02369642
  eigenvalues    EBANDS =      -627.40401731
  atomic energy  EATOM  =      3354.04126044
  ---------------------------------------------------
  free energy    TOTEN  =      -119.53648686 eV

  energy without entropy =     -119.51279044  energy(sigma->0) =     -119.52463865


--------------------------------------------------------------------------------------------------------




----------------------------------------- Iteration    1(   9)  ---------------------------------------


    POTLOK:  cpu time   14.88: real time   14.93
    SETDIJ:  cpu time    0.01: real time    0.01
     EDDAV:  cpu time   89.77: real time   89.84
       DOS:  cpu time    0.01: real time    0.01
    CHARGE:  cpu time    5.07: real time    5.07
    MIXING:  cpu time    0.01: real time    0.01
    --------------------------------------------
      LOOP:  cpu time  109.77: real time  109.89

 eigenvalue-minimisations  :  9088
 total energy-change (2. order) : 0.6310783E-02  (-0.1176097E-01)
 number of electron     107.9999995 magnetization 
 augmentation part       -9.3758650 magnetization 

 Broyden mixing:
  rms(total) = 0.32967E-01    rms(broyden)= 0.32964E-01
  rms(prec ) = 0.35880E-01
  weight for this iteration     100.00

 eigenvalues of (default mixing * dielectric matrix)
  average eigenvalue GAMMA=   1.5148
  2.5785  0.9972  0.9972  1.4861

 Free energy of the ion-electron system (eV)
  ---------------------------------------------------
  alpha Z        PSCENC =        36.80884744
  Ewald energy   TEWEN  =     11930.73773325
  -Hartree energ DENC   =    -15061.50908743
  -exchange      EXHF   =         0.00000000
  -V(xc)+E(xc)   XCENC  =       -80.13456403
  PAW double counting   =      1178.37532245     -857.79757445
  entropy T*S    EENTRO =        -0.02435420
  eigenvalues    EBANDS =      -620.02775956
  atomic energy  EATOM  =      3354.04126044
  ---------------------------------------------------
  free energy    TOTEN  =      -119.53017608 eV

  energy without entropy =     -119.50582188  energy(sigma->0) =     -119.51799898


--------------------------------------------------------------------------------------------------------




----------------------------------------- Iteration    1(  10)  ---------------------------------------


    POTLOK:  cpu time   15.02: real time   15.06
    SETDIJ:  cpu time    0.01: real time    0.01
     EDDAV:  cpu time   88.89: real time   89.04
       DOS:  cpu time    0.01: real time    0.01
    CHARGE:  cpu time    5.42: real time    5.43
    MIXING:  cpu time    0.01: real time    0.01
    --------------------------------------------
      LOOP:  cpu time  109.36: real time  109.56

 eigenvalue-minimisations  :  8816
 total energy-change (2. order) : 0.8385789E-02  (-0.2706586E-02)
 number of electron     107.9999995 magnetization 
 augmentation part       -9.3770118 magnetization 

 Broyden mixing:
  rms(total) = 0.13056E-01    rms(broyden)= 0.13053E-01
  rms(prec ) = 0.14726E-01
  weight for this iteration     100.00

 eigenvalues of (default mixing * dielectric matrix)
  average eigenvalue GAMMA=   1.4605
  2.6181  1.3547  1.3547  0.9875  0.9875

 Free energy of the ion-electron system (eV)
  ---------------------------------------------------
  alpha Z        PSCENC =        36.80884744
  Ewald energy   TEWEN  =     11930.73773325
  -Hartree energ DENC   =    -15062.90242190
  -exchange      EXHF   =         0.00000000
  -V(xc)+E(xc)   XCENC  =       -79.99193354
  PAW double counting   =      1177.15243127     -856.54322075
  entropy T*S    EENTRO =        -0.02436048
  eigenvalues    EBANDS =      -618.80012604
  atomic energy  EATOM  =      3354.04126044
  ---------------------------------------------------
  free energy    TOTEN  =      -119.52179029 eV

  energy without entropy =     -119.49742981  energy(sigma->0) =     -119.50961005


--------------------------------------------------------------------------------------------------------




----------------------------------------- Iteration    1(  11)  ---------------------------------------


    POTLOK:  cpu time   14.82: real time   14.84
    SETDIJ:  cpu time    0.01: real time    0.01
     EDDAV:  cpu time   90.59: real time   90.64
       DOS:  cpu time    0.01: real time    0.01
    CHARGE:  cpu time    5.09: real time    5.10
    MIXING:  cpu time    0.01: real time    0.01
    --------------------------------------------
      LOOP:  cpu time  110.54: real time  110.63

 eigenvalue-minimisations  :  9096
 total energy-change (2. order) : 0.5993185E-02  (-0.3577188E-03)
 number of electron     107.9999995 magnetization 
 augmentation part       -9.3769193 magnetization 

 Broyden mixing:
  rms(total) = 0.71662E-02    rms(broyden)= 0.71657E-02
  rms(prec ) = 0.85346E-02
  weight for this iteration     100.00

 eigenvalues of (default mixing * dielectric matrix)
  average eigenvalue GAMMA=   1.4800
  2.6239  1.7117  1.7117  0.9645  0.9645  0.9036

 Free energy of the ion-electron system (eV)
  ---------------------------------------------------
  alpha Z        PSCENC =        36.80884744
  Ewald energy   TEWEN  =     11930.73773325
  -Hartree energ DENC   =    -15064.08240544
  -exchange      EXHF   =         0.00000000
  -V(xc)+E(xc)   XCENC  =       -79.96678883
  PAW double counting   =      1176.35883617     -855.72770704
  entropy T*S    EENTRO =        -0.02430748
  eigenvalues    EBANDS =      -617.66126564
  atomic energy  EATOM  =      3354.04126044
  ---------------------------------------------------
  free energy    TOTEN  =      -119.51579711 eV

  energy without entropy =     -119.49148963  energy(sigma->0) =     -119.50364337


--------------------------------------------------------------------------------------------------------




----------------------------------------- Iteration    1(  12)  ---------------------------------------


    POTLOK:  cpu time   14.85: real time   14.88
    SETDIJ:  cpu time    0.01: real time    0.01
     EDDAV:  cpu time   91.32: real time   91.40
       DOS:  cpu time    0.01: real time    0.01
    CHARGE:  cpu time    5.11: real time    5.11
    MIXING:  cpu time    0.01: real time    0.01
    --------------------------------------------
      LOOP:  cpu time  111.32: real time  111.43

 eigenvalue-minimisations  :  9032
 total energy-change (2. order) : 0.6042195E-02  (-0.1287239E-03)
 number of electron     107.9999995 magnetization 
 augmentation part       -9.3768475 magnetization 

 Broyden mixing:
  rms(total) = 0.36950E-02    rms(broyden)= 0.36946E-02
  rms(prec ) = 0.48640E-02
  weight for this iteration     100.00

 eigenvalues of (default mixing * dielectric matrix)
  average eigenvalue GAMMA=   1.4697
  2.6887  2.2033  1.3294  1.3294  0.8421  0.9476  0.9476

 Free energy of the ion-electron system (eV)
  ---------------------------------------------------
  alpha Z        PSCENC =        36.80884744
  Ewald energy   TEWEN  =     11930.73773325
  -Hartree energ DENC   =    -15065.37085908
  -exchange      EXHF   =         0.00000000
  -V(xc)+E(xc)   XCENC  =       -79.95660123
  PAW double counting   =      1175.44955795     -854.79444407
  entropy T*S    EENTRO =        -0.02420735
  eigenvalues    EBANDS =      -616.40104227
  atomic energy  EATOM  =      3354.04126044
  ---------------------------------------------------
  free energy    TOTEN  =      -119.50975491 eV

  energy without entropy =     -119.48554756  energy(sigma->0) =     -119.49765124


--------------------------------------------------------------------------------------------------------




----------------------------------------- Iteration    1(  13)  ---------------------------------------


    POTLOK:  cpu time   14.68: real time   14.83
    SETDIJ:  cpu time    0.01: real time    0.01
     EDDAV:  cpu time   92.17: real time   92.38
       DOS:  cpu time    0.01: real time    0.01
    CHARGE:  cpu time    5.76: real time    5.76
    MIXING:  cpu time    0.01: real time    0.01
    --------------------------------------------
      LOOP:  cpu time  112.65: real time  113.01

 eigenvalue-minimisations  :  8976
 total energy-change (2. order) : 0.3112327E-02  (-0.3773339E-04)
 number of electron     107.9999995 magnetization 
 augmentation part       -9.3773026 magnetization 

 Broyden mixing:
  rms(total) = 0.16898E-02    rms(broyden)= 0.16896E-02
  rms(prec ) = 0.28376E-02
  weight for this iteration     100.00

 eigenvalues of (default mixing * dielectric matrix)
  average eigenvalue GAMMA=   1.4827
  2.7773  2.3264  1.4729  1.3099  1.3099  0.9386  0.9386  0.7881

 Free energy of the ion-electron system (eV)
  ---------------------------------------------------
  alpha Z        PSCENC =        36.80884744
  Ewald energy   TEWEN  =     11930.73773325
  -Hartree energ DENC   =    -15066.08568033
  -exchange      EXHF   =         0.00000000
  -V(xc)+E(xc)   XCENC  =       -79.95398376
  PAW double counting   =      1174.94247871     -854.27427369
  entropy T*S    EENTRO =        -0.02422682
  eigenvalues    EBANDS =      -615.69879784
  atomic energy  EATOM  =      3354.04126044
  ---------------------------------------------------
  free energy    TOTEN  =      -119.50664258 eV

  energy without entropy =     -119.48241577  energy(sigma->0) =     -119.49452918


--------------------------------------------------------------------------------------------------------




----------------------------------------- Iteration    1(  14)  ---------------------------------------


    POTLOK:  cpu time   14.86: real time   14.91
    SETDIJ:  cpu time    0.01: real time    0.01
     EDDAV:  cpu time   91.64: real time   91.70
       DOS:  cpu time    0.01: real time    0.01
    CHARGE:  cpu time    5.56: real time    5.57
    MIXING:  cpu time    0.01: real time    0.01
    --------------------------------------------
      LOOP:  cpu time  112.11: real time  112.21

 eigenvalue-minimisations  :  9160
 total energy-change (2. order) : 0.1088653E-02  (-0.1175282E-04)
 number of electron     107.9999995 magnetization 
 augmentation part       -9.3769207 magnetization 

 Broyden mixing:
  rms(total) = 0.10805E-02    rms(broyden)= 0.10805E-02
  rms(prec ) = 0.19129E-02
  weight for this iteration     100.00

 eigenvalues of (default mixing * dielectric matrix)
  average eigenvalue GAMMA=   1.5108
  2.9979  2.5841  1.7685  1.3178  1.3178  0.9332  0.9332  0.9834  0.7613

 Free energy of the ion-electron system (eV)
  ---------------------------------------------------
  alpha Z        PSCENC =        36.80884744
  Ewald energy   TEWEN  =     11930.73773325
  -Hartree energ DENC   =    -15066.92956162
  -exchange      EXHF   =         0.00000000
  -V(xc)+E(xc)   XCENC  =       -79.94727355
  PAW double counting   =      1174.81519703     -854.14406566
  entropy T*S    EENTRO =        -0.02420811
  eigenvalues    EBANDS =      -614.86348317
  atomic energy  EATOM  =      3354.04126044
  ---------------------------------------------------
  free energy    TOTEN  =      -119.50555393 eV

  energy without entropy =     -119.48134583  energy(sigma->0) =     -119.49344988


--------------------------------------------------------------------------------------------------------




----------------------------------------- Iteration    1(  15)  ---------------------------------------


    POTLOK:  cpu time   15.02: real time   15.18
    SETDIJ:  cpu time    0.01: real time    0.01
     EDDAV:  cpu time   86.32: real time   86.39
       DOS:  cpu time    0.01: real time    0.01
    CHARGE:  cpu time    5.91: real time    5.91
    MIXING:  cpu time    0.02: real time    0.02
    --------------------------------------------
      LOOP:  cpu time  107.29: real time  107.54

 eigenvalue-minimisations  :  8472
 total energy-change (2. order) : 0.4949655E-03  (-0.6242952E-05)
 number of electron     107.9999995 magnetization 
 augmentation part       -9.3766795 magnetization 

 Broyden mixing:
  rms(total) = 0.69131E-03    rms(broyden)= 0.69128E-03
  rms(prec ) = 0.11755E-02
  weight for this iteration     100.00

 eigenvalues of (default mixing * dielectric matrix)
  average eigenvalue GAMMA=   1.5712
  3.4476  2.6440  1.9234  1.5679  1.2747  1.2747  0.9311  0.9311  0.9676  0.7498

 Free energy of the ion-electron system (eV)
  ---------------------------------------------------
  alpha Z        PSCENC =        36.80884744
  Ewald energy   TEWEN  =     11930.73773325
  -Hartree energ DENC   =    -15067.78053111
  -exchange      EXHF   =         0.00000000
  -V(xc)+E(xc)   XCENC  =       -79.94230197
  PAW double counting   =      1174.72630446     -854.05315783
  entropy T*S    EENTRO =        -0.02420549
  eigenvalues    EBANDS =      -614.01900817
  atomic energy  EATOM  =      3354.04126044
  ---------------------------------------------------
  free energy    TOTEN  =      -119.50505897 eV

  energy without entropy =     -119.48085348  energy(sigma->0) =     -119.49295622


--------------------------------------------------------------------------------------------------------




----------------------------------------- Iteration    1(  16)  ---------------------------------------


    POTLOK:  cpu time   14.76: real time   14.83
    SETDIJ:  cpu time    0.01: real time    0.01
     EDDAV:  cpu time   83.96: real time   84.06
       DOS:  cpu time    0.01: real time    0.01
    CHARGE:  cpu time    5.21: real time    5.21
    MIXING:  cpu time    0.02: real time    0.02
    --------------------------------------------
      LOOP:  cpu time  103.97: real time  104.14

 eigenvalue-minimisations  :  8200
 total energy-change (2. order) :-0.3197189E-03  (-0.5770006E-05)
 number of electron     107.9999995 magnetization 
 augmentation part       -9.3766561 magnetization 

 Broyden mixing:
  rms(total) = 0.39532E-03    rms(broyden)= 0.39530E-03
  rms(prec ) = 0.69287E-03
  weight for this iteration     100.00

 eigenvalues of (default mixing * dielectric matrix)
  average eigenvalue GAMMA=   1.7059
  4.6648  2.7433  2.3829  1.6416  1.2912  1.2912  1.2060  0.9186  0.9186  0.9667
  0.7399

 Free energy of the ion-electron system (eV)
  ---------------------------------------------------
  alpha Z        PSCENC =        36.80884744
  Ewald energy   TEWEN  =     11930.73773325
  -Hartree energ DENC   =    -15068.32398297
  -exchange      EXHF   =         0.00000000
  -V(xc)+E(xc)   XCENC  =       -79.93924432
  PAW double counting   =      1174.72691963     -854.05384196
  entropy T*S    EENTRO =        -0.02420723
  eigenvalues    EBANDS =      -613.47886297
  atomic energy  EATOM  =      3354.04126044
  ---------------------------------------------------
  free energy    TOTEN  =      -119.50537869 eV

  energy without entropy =     -119.48117145  energy(sigma->0) =     -119.49327507


--------------------------------------------------------------------------------------------------------




----------------------------------------- Iteration    1(  17)  ---------------------------------------


    POTLOK:  cpu time   15.10: real time   15.20
    SETDIJ:  cpu time    0.01: real time    0.01
     EDDAV:  cpu time   87.02: real time   87.11
       DOS:  cpu time    0.01: real time    0.01
    CHARGE:  cpu time    4.85: real time    4.87
    MIXING:  cpu time    0.02: real time    0.02
    --------------------------------------------
      LOOP:  cpu time  107.02: real time  107.22

 eigenvalue-minimisations  :  8328
 total energy-change (2. order) :-0.4795660E-03  (-0.1651323E-04)
 number of electron     107.9999995 magnetization 
 augmentation part       -9.3766120 magnetization 

 Broyden mixing:
  rms(total) = 0.23023E-03    rms(broyden)= 0.23021E-03
  rms(prec ) = 0.38566E-03
  weight for this iteration     100.00

 eigenvalues of (default mixing * dielectric matrix)
  average eigenvalue GAMMA=   1.7831
  5.6276  2.8126  2.4863  1.7780  1.6086  1.2630  1.2630  0.9151  0.9151  0.9944
  0.9944  0.7396

 Free energy of the ion-electron system (eV)
  ---------------------------------------------------
  alpha Z        PSCENC =        36.80884744
  Ewald energy   TEWEN  =     11930.73773325
  -Hartree energ DENC   =    -15068.78841824
  -exchange      EXHF   =         0.00000000
  -V(xc)+E(xc)   XCENC  =       -79.93693490
  PAW double counting   =      1174.76010813     -854.08778994
  entropy T*S    EENTRO =        -0.02420992
  eigenvalues    EBANDS =      -613.01645451
  atomic energy  EATOM  =      3354.04126044
  ---------------------------------------------------
  free energy    TOTEN  =      -119.50585825 eV

  energy without entropy =     -119.48164833  energy(sigma->0) =     -119.49375329


--------------------------------------------------------------------------------------------------------




----------------------------------------- Iteration    1(  18)  ---------------------------------------


    POTLOK:  cpu time   14.78: real time   14.83
    SETDIJ:  cpu time    0.01: real time    0.01
     EDDAV:  cpu time   80.71: real time   80.85
       DOS:  cpu time    0.01: real time    0.01
    CHARGE:  cpu time    5.70: real time    5.70
    MIXING:  cpu time    0.02: real time    0.02
    --------------------------------------------
      LOOP:  cpu time  101.23: real time  101.43

 eigenvalue-minimisations  :  7600
 total energy-change (2. order) :-0.1211785E-03  (-0.4747045E-05)
 number of electron     107.9999995 magnetization 
 augmentation part       -9.3765867 magnetization 

 Broyden mixing:
  rms(total) = 0.13960E-03    rms(broyden)= 0.13959E-03
  rms(prec ) = 0.25079E-03
  weight for this iteration     100.00

 eigenvalues of (default mixing * dielectric matrix)
  average eigenvalue GAMMA=   1.8120
  6.1013  2.9222  2.5739  2.1287  1.5150  1.2898  1.2898  1.2069  0.9121  0.9121
  0.9820  0.9820  0.7399

 Free energy of the ion-electron system (eV)
  ---------------------------------------------------
  alpha Z        PSCENC =        36.80884744
  Ewald energy   TEWEN  =     11930.73773325
  -Hartree energ DENC   =    -15068.97339653
  -exchange      EXHF   =         0.00000000
  -V(xc)+E(xc)   XCENC  =       -79.93619606
  PAW double counting   =      1174.76957593     -854.09739652
  entropy T*S    EENTRO =        -0.02420952
  eigenvalues    EBANDS =      -612.83219788
  atomic energy  EATOM  =      3354.04126044
  ---------------------------------------------------
  free energy    TOTEN  =      -119.50597943 eV

  energy without entropy =     -119.48176991  energy(sigma->0) =     -119.49387467


--------------------------------------------------------------------------------------------------------




----------------------------------------- Iteration    1(  19)  ---------------------------------------


    POTLOK:  cpu time   14.84: real time   14.89
    SETDIJ:  cpu time    0.01: real time    0.01
     EDDAV:  cpu time   67.11: real time   67.18
       DOS:  cpu time    0.01: real time    0.01
    CHARGE:  cpu time    5.69: real time    5.70
    MIXING:  cpu time    0.01: real time    0.02
    --------------------------------------------
      LOOP:  cpu time   87.68: real time   87.82

 eigenvalue-minimisations  :  6152
 total energy-change (2. order) :-0.2814440E-04  (-0.9410880E-06)
 number of electron     107.9999995 magnetization 
 augmentation part       -9.3765909 magnetization 

 Broyden mixing:
  rms(total) = 0.99187E-04    rms(broyden)= 0.99184E-04
  rms(prec ) = 0.17291E-03
  weight for this iteration     100.00

 eigenvalues of (default mixing * dielectric matrix)
  average eigenvalue GAMMA=   1.8428
  6.5744  3.1652  2.6800  2.1400  1.5992  1.5992  1.2548  1.2548  1.1027  0.9142
  0.9142  0.9304  0.9304  0.7396

 Free energy of the ion-electron system (eV)
  ---------------------------------------------------
  alpha Z        PSCENC =        36.80884744
  Ewald energy   TEWEN  =     11930.73773325
  -Hartree energ DENC   =    -15069.06608872
  -exchange      EXHF   =         0.00000000
  -V(xc)+E(xc)   XCENC  =       -79.93608525
  PAW double counting   =      1174.76815586     -854.09588967
  entropy T*S    EENTRO =        -0.02421032
  eigenvalues    EBANDS =      -612.73973062
  atomic energy  EATOM  =      3354.04126044
  ---------------------------------------------------
  free energy    TOTEN  =      -119.50600757 eV

  energy without entropy =     -119.48179725  energy(sigma->0) =     -119.49390241


--------------------------------------------------------------------------------------------------------




----------------------------------------- Iteration    1(  20)  ---------------------------------------


    POTLOK:  cpu time   14.79: real time   14.88
    SETDIJ:  cpu time    0.01: real time    0.01
     EDDAV:  cpu time   73.55: real time   73.80
       DOS:  cpu time    0.01: real time    0.01
    CHARGE:  cpu time    5.24: real time    5.25
    MIXING:  cpu time    0.02: real time    0.02
    --------------------------------------------
      LOOP:  cpu time   93.62: real time   93.97

 eigenvalue-minimisations  :  6944
 total energy-change (2. order) :-0.3122812E-04  (-0.2417822E-05)
 number of electron     107.9999995 magnetization 
 augmentation part       -9.3765944 magnetization 

 Broyden mixing:
  rms(total) = 0.68728E-04    rms(broyden)= 0.68724E-04
  rms(prec ) = 0.11157E-03
  weight for this iteration     100.00

 eigenvalues of (default mixing * dielectric matrix)
  average eigenvalue GAMMA=   1.8601
  6.8451  3.4163  2.7161  2.3632  1.7880  1.2688  1.2688  1.2812  1.2812  1.2691
  0.9160  0.9160  0.7388  0.9167  0.9167

 Free energy of the ion-electron system (eV)
  ---------------------------------------------------
  alpha Z        PSCENC =        36.80884744
  Ewald energy   TEWEN  =     11930.73773325
  -Hartree energ DENC   =    -15069.12251696
  -exchange      EXHF   =         0.00000000
  -V(xc)+E(xc)   XCENC  =       -79.93605214
  PAW double counting   =      1174.76774748     -854.09547068
  entropy T*S    EENTRO =        -0.02421115
  eigenvalues    EBANDS =      -612.68337649
  atomic energy  EATOM  =      3354.04126044
  ---------------------------------------------------
  free energy    TOTEN  =      -119.50603880 eV

  energy without entropy =     -119.48182765  energy(sigma->0) =     -119.49393323


--------------------------------------------------------------------------------------------------------




----------------------------------------- Iteration    1(  21)  ---------------------------------------


    POTLOK:  cpu time   14.81: real time   14.85
    SETDIJ:  cpu time    0.01: real time    0.01
     EDDAV:  cpu time   72.66: real time   72.79
       DOS:  cpu time    0.01: real time    0.01
    CHARGE:  cpu time    4.58: real time    4.58
    MIXING:  cpu time    0.01: real time    0.02
    --------------------------------------------
      LOOP:  cpu time   92.09: real time   92.27

 eigenvalue-minimisations  :  6608
 total energy-change (2. order) : 0.2156353E-04  (-0.1526916E-05)
 number of electron     107.9999995 magnetization 
 augmentation part       -9.3765933 magnetization 

 Broyden mixing:
  rms(total) = 0.47044E-04    rms(broyden)= 0.47041E-04
  rms(prec ) = 0.70001E-04
  weight for this iteration     100.00

 eigenvalues of (default mixing * dielectric matrix)
  average eigenvalue GAMMA=   1.9588
  7.1603  4.5484  2.8171  2.5542  1.8106  1.8106  1.2475  1.2475  1.3669  1.3669
  0.9163  0.9163  0.7387  1.0072  0.9166  0.9166

 Free energy of the ion-electron system (eV)
  ---------------------------------------------------
  alpha Z        PSCENC =        36.80884744
  Ewald energy   TEWEN  =     11930.73773325
  -Hartree energ DENC   =    -15069.14921949
  -exchange      EXHF   =         0.00000000
  -V(xc)+E(xc)   XCENC  =       -79.93612902
  PAW double counting   =      1174.76433193     -854.09198444
  entropy T*S    EENTRO =        -0.02421099
  eigenvalues    EBANDS =      -612.65664637
  atomic energy  EATOM  =      3354.04126044
  ---------------------------------------------------
  free energy    TOTEN  =      -119.50601724 eV

  energy without entropy =     -119.48180625  energy(sigma->0) =     -119.49391174


--------------------------------------------------------------------------------------------------------




----------------------------------------- Iteration    1(  22)  ---------------------------------------


    POTLOK:  cpu time   14.21: real time   14.40
    SETDIJ:  cpu time    0.01: real time    0.01
     EDDAV:  cpu time   61.51: real time   61.86
       DOS:  cpu time    0.01: real time    0.01
    CHARGE:  cpu time    5.74: real time    5.75
    MIXING:  cpu time    0.02: real time    0.02
    --------------------------------------------
      LOOP:  cpu time   81.50: real time   82.05

 eigenvalue-minimisations  :  6368
 total energy-change (2. order) : 0.6296324E-04  (-0.1198409E-05)
 number of electron     107.9999995 magnetization 
 augmentation part       -9.3765926 magnetization 

 Broyden mixing:
  rms(total) = 0.23265E-04    rms(broyden)= 0.23263E-04
  rms(prec ) = 0.31898E-04
  weight for this iteration     100.00

 eigenvalues of (default mixing * dielectric matrix)
  average eigenvalue GAMMA=   2.0456
  7.6567  5.7428  2.9764  2.6447  2.2084  1.7214  1.3904  1.3904  1.2502  1.2502
  0.9154  0.9154  1.0765  1.0765  0.7386  0.9105  0.9105

 Free energy of the ion-electron system (eV)
  ---------------------------------------------------
  alpha Z        PSCENC =        36.80884744
  Ewald energy   TEWEN  =     11930.73773325
  -Hartree energ DENC   =    -15069.16058821
  -exchange      EXHF   =         0.00000000
  -V(xc)+E(xc)   XCENC  =       -79.93618453
  PAW double counting   =      1174.76275846     -854.09038688
  entropy T*S    EENTRO =        -0.02421036
  eigenvalues    EBANDS =      -612.64518389
  atomic energy  EATOM  =      3354.04126044
  ---------------------------------------------------
  free energy    TOTEN  =      -119.50595428 eV

  energy without entropy =     -119.48174391  energy(sigma->0) =     -119.49384909


--------------------------------------------------------------------------------------------------------




----------------------------------------- Iteration    1(  23)  ---------------------------------------


    POTLOK:  cpu time   14.80: real time   14.99
    SETDIJ:  cpu time    0.01: real time    0.01
     EDDAV:  cpu time   70.12: real time   70.20
       DOS:  cpu time    0.01: real time    0.01
    CHARGE:  cpu time    5.93: real time    5.94
    MIXING:  cpu time    0.02: real time    0.02
    --------------------------------------------
      LOOP:  cpu time   90.89: real time   91.21

 eigenvalue-minimisations  :  6288
 total energy-change (2. order) : 0.3978555E-04  (-0.6289518E-06)
 number of electron     107.9999995 magnetization 
 augmentation part       -9.3765916 magnetization 

 Broyden mixing:
  rms(total) = 0.12779E-04    rms(broyden)= 0.12777E-04
  rms(prec ) = 0.16071E-04
  weight for this iteration     100.00

 eigenvalues of (default mixing * dielectric matrix)
  average eigenvalue GAMMA=   2.1179
  8.1991  6.5756  3.1035  2.7208  2.2953  1.6601  1.6601  1.5973  1.2498  1.2498
  1.2191  1.2191  0.9163  0.9163  0.7387  0.9624  0.9195  0.9195

 Free energy of the ion-electron system (eV)
  ---------------------------------------------------
  alpha Z        PSCENC =        36.80884744
  Ewald energy   TEWEN  =     11930.73773325
  -Hartree energ DENC   =    -15069.16749881
  -exchange      EXHF   =         0.00000000
  -V(xc)+E(xc)   XCENC  =       -79.93617059
  PAW double counting   =      1174.76239943     -854.09002733
  entropy T*S    EENTRO =        -0.02421044
  eigenvalues    EBANDS =      -612.63824788
  atomic energy  EATOM  =      3354.04126044
  ---------------------------------------------------
  free energy    TOTEN  =      -119.50591449 eV

  energy without entropy =     -119.48170405  energy(sigma->0) =     -119.49380927


[...]
     31      -4.0355      2.00000
     32      -3.9551      2.00000
     33      -3.7599      2.00000
     34      -3.5635      2.00000
     35      -3.3832      2.00000
     36      -3.2650      2.00000
     37      -3.2165      2.00000
     38      -3.1412      2.00000
     39      -3.0881      2.00000
     40      -2.7948      2.00000
     41      -2.6900      2.00000
     42      -2.5854      2.00000
     43      -2.5635      2.00000
     44      -2.2408      2.00000
     45      -2.1515      2.00000
     46      -2.0097      2.00000
     47      -1.8877      2.00000
     48      -1.7914      2.00000
     49      -1.4125      2.00000
     50      -1.2324      2.00000
     51      -1.0620      2.00000
     52      -0.7913      2.00000
     53      -0.1991      2.00000
     54       0.1133      1.54086
     55       0.4468      0.00007
     56       0.9602      0.00000
     57       1.1827      0.00000
     58       1.4289      0.00000
     59       1.5649      0.00000
     60       1.7542      0.00000
     61       2.1207      0.00000
     62       2.1972      0.00000
     63       2.5318      0.00000
     64       2.6410      0.00000
     65       2.6854      0.00000
     66       3.0147      0.00000
     67       3.0371      0.00000
     68       3.2226      0.00000

 k-point    52 :       0.3077    0.5000    0.5000
  band No.  band energies     occupation 
      1     -13.9468      2.00000
      2     -12.5348      2.00000
      3     -12.1913      2.00000
      4     -12.1296      2.00000
      5     -11.6705      2.00000
      6     -11.4437      2.00000
      7     -11.3469      2.00000
      8     -11.0406      2.00000
      9     -10.8352      2.00000
     10     -10.7187      2.00000
     11     -10.4205      2.00000
     12     -10.1886      2.00000
     13      -8.9482      2.00000
     14      -8.3883      2.00000
     15      -7.8005      2.00000
     16      -7.5181      2.00000
     17      -7.0921      2.00000
     18      -6.9925      2.00000
     19      -6.9338      2.00000
     20      -6.5972      2.00000
     21      -6.3647      2.00000
     22      -6.2063      2.00000
     23      -5.9532      2.00000
     24      -5.8816      2.00000
     25      -5.3842      2.00000
     26      -5.0373      2.00000
     27      -4.9240      2.00000
     28      -4.7555      2.00000
     29      -4.5333      2.00000
     30      -4.4685      2.00000
     31      -4.3340      2.00000
     32      -4.1705      2.00000
     33      -4.1041      2.00000
     34      -3.8115      2.00000
     35      -3.3685      2.00000
     36      -3.2791      2.00000
     37      -3.1592      2.00000
     38      -3.1067      2.00000
     39      -3.0103      2.00000
     40      -2.9192      2.00000
     41      -2.8017      2.00000
     42      -2.6778      2.00000
     43      -2.5676      2.00000
     44      -2.4124      2.00000
     45      -2.2498      2.00000
     46      -2.1358      2.00000
     47      -1.9671      2.00000
     48      -1.8939      2.00000
     49      -1.7658      2.00000
     50      -1.3393      2.00000
     51      -1.1859      2.00000
     52      -0.8147      2.00000
     53      -0.4904      2.00000
     54      -0.1982      2.00000
     55       0.2099      0.53147
     56       0.5735      0.00000
     57       0.8485      0.00000
     58       1.2623      0.00000
     59       1.3190      0.00000
     60       1.5076      0.00000
     61       1.8775      0.00000
     62       2.1491      0.00000
     63       2.2265      0.00000
     64       2.3595      0.00000
     65       2.4341      0.00000
     66       2.5421      0.00000
     67       2.8573      0.00000
     68       2.9232      0.00000

 k-point    53 :       0.3846    0.5000    0.5000
  band No.  band energies     occupation 
      1     -13.7752      2.00000
      2     -12.0585      2.00000
      3     -11.6952      2.00000
      4     -11.6793      2.00000
      5     -11.2745      2.00000
      6     -11.0953      2.00000
      7     -11.0246      2.00000
      8     -10.7961      2.00000
      9     -10.6444      2.00000
     10     -10.5703      2.00000
     11     -10.4872      2.00000
     12      -9.8830      2.00000
     13      -8.9326      2.00000
     14      -8.6798      2.00000
     15      -8.2753      2.00000
     16      -7.7521      2.00000
     17      -7.6415      2.00000
     18      -7.4814      2.00000
     19      -7.4043      2.00000
     20      -7.1402      2.00000
     21      -6.7467      2.00000
     22      -6.6914      2.00000
     23      -6.6768      2.00000
     24      -6.1591      2.00000
     25      -5.3264      2.00000
     26      -5.1864      2.00000
     27      -5.1072      2.00000
     28      -4.7020      2.00000
     29      -4.6129      2.00000
     30      -4.4548      2.00000
     31      -4.1639      2.00000
     32      -4.0696      2.00000
     33      -3.9910      2.00000
     34      -3.7014      2.00000
     35      -3.5580      2.00000
     36      -3.4255      2.00000
     37      -3.2188      2.00000
     38      -3.1540      2.00000
     39      -3.0667      2.00000
     40      -2.9988      2.00000
     41      -2.8996      2.00000
     42      -2.7399      2.00000
     43      -2.6451      2.00000
     44      -2.5008      2.00000
     45      -2.3587      2.00000
     46      -2.2864      2.00000
     47      -2.1189      2.00000
     48      -2.0649      2.00000
     49      -1.8793      2.00000
     50      -1.4885      2.00000
     51      -1.2871      2.00000
     52      -0.8449      2.00000
     53      -0.6962      2.00000
     54      -0.4181      2.00000
     55      -0.0418      1.99665
     56       0.4339      0.00015
     57       0.5710      0.00000
     58       1.2182      0.00000
     59       1.2878      0.00000
     60       1.4822      0.00000
     61       1.7705      0.00000
     62       1.8734      0.00000
     63       2.0639      0.00000
     64       2.1300      0.00000
     65       2.2623      0.00000
     66       2.3494      0.00000
     67       2.5195      0.00000
     68       2.6741      0.00000

 k-point    54 :       0.4615    0.5000    0.5000
  band No.  band energies     occupation 
      1     -13.6706      2.00000
      2     -11.5154      2.00000
      3     -11.2213      2.00000
      4     -11.1952      2.00000
      5     -10.9725      2.00000
      6     -10.8957      2.00000
      7     -10.8741      2.00000
      8     -10.7745      2.00000
      9     -10.7479      2.00000
     10     -10.6481      2.00000
     11     -10.6361      2.00000
     12      -9.7145      2.00000
     13      -8.7849      2.00000
     14      -8.6908      2.00000
     15      -8.4657      2.00000
     16      -8.1445      2.00000
     17      -8.0364      2.00000
     18      -7.8215      2.00000
     19      -7.5840      2.00000
     20      -7.4173      2.00000
     21      -7.3136      2.00000
     22      -7.1982      2.00000
     23      -7.1608      2.00000
     24      -6.1444      2.00000
     25      -5.3980      2.00000
     26      -5.1386      2.00000
     27      -4.9702      2.00000
     28      -4.5049      2.00000
     29      -4.3434      2.00000
     30      -4.2132      2.00000
     31      -4.0939      2.00000
     32      -3.9804      2.00000
     33      -3.8142      2.00000
     34      -3.7953      2.00000
     35      -3.6731      2.00000
     36      -3.5863      2.00000
     37      -3.4942      2.00000
     38      -3.2850      2.00000
     39      -3.2187      2.00000
     40      -3.0509      2.00000
     41      -2.9886      2.00000
     42      -2.8157      2.00000
     43      -2.7168      2.00000
     44      -2.6035      2.00000
     45      -2.4283      2.00000
     46      -2.3691      2.00000
     47      -2.2136      2.00000
     48      -2.1120      2.00000
     49      -1.7462      2.00000
     50      -1.5607      2.00000
     51      -1.3431      2.00000
     52      -0.9239      2.00000
     53      -0.8309      2.00000
     54      -0.4225      2.00000
     55      -0.2161      2.00000
     56       0.3962      0.00111
     57       0.4732      0.00001
     58       1.1482      0.00000
     59       1.3293      0.00000
     60       1.5530      0.00000
     61       1.6284      0.00000
     62       1.8585      0.00000
     63       1.8835      0.00000
     64       2.0315      0.00000
     65       2.1282      0.00000
     66       2.3310      0.00000
     67       2.4307      0.00000
     68       2.5051      0.00000


--------------------------------------------------------------------------------------------------------


 soft charge-density along one line, spin component           1
         0         1         2         3         4         5         6         7         8         9
 total charge-density along one line
 
 pseudopotential strength for first ion, spin component:           1
 29.781   0.008  -0.001  -0.023  -0.000  -0.000  -0.001  -0.000
  0.008   0.009  -0.000  -0.000   0.000   0.000   0.000  -0.000
 -0.001  -0.000   6.549  -0.001  -0.000  -0.003   0.000   0.000
 -0.023  -0.000  -0.001   6.544  -0.000   0.000  -0.002   0.000
 -0.000   0.000  -0.000  -0.000   6.550   0.000   0.000  -0.003
 -0.000   0.000  -0.003   0.000   0.000   0.015  -0.000  -0.000
 -0.001   0.000   0.000  -0.002   0.000  -0.000   0.015   0.000
 -0.000  -0.000   0.000   0.000  -0.003  -0.000   0.000   0.015
 total augmentation occupancy for first ion, spin component:           1
  1.816  -0.349   0.006   0.254   0.000   0.004   0.115  -0.001
 -0.349   1.298   0.024   0.859   0.000   0.003  -0.433  -0.000
  0.006   0.024   1.141   0.012  -0.000  -0.502   0.014  -0.000
  0.254   0.859   0.012   1.286   0.001   0.014  -0.417  -0.000
  0.000   0.000  -0.000   0.001   1.144  -0.000  -0.000  -0.526
  0.004   0.003  -0.502   0.014  -0.000   0.291  -0.015   0.000
  0.115  -0.433   0.014  -0.417  -0.000  -0.015   0.226   0.000
 -0.001  -0.000  -0.000  -0.000  -0.526   0.000   0.000   0.325


------------------------ aborting loop because EDIFF is reached ----------------------------------------


    CHARGE:  cpu time    4.85: real time    4.85
    FORLOC:  cpu time    0.06: real time    0.06
    FORNL :  cpu time   23.29: real time   23.33
    STRESS:  cpu time   67.30: real time   67.36
    FORCOR:  cpu time   15.08: real time   15.10
    FORHAR:  cpu time    0.15: real time    0.15
    MIXING:  cpu time    0.02: real time    0.02
    OFIELD:  cpu time    0.00: real time    0.00

  FORCE on cell =-STRESS in cart. coord.  units (eV):
  Direction    XX          YY          ZZ          XY          YZ          ZX
  --------------------------------------------------------------------------------------
  Alpha Z    36.80885    36.80885    36.80885
  Ewald   14333.94812 13997.24555-16400.46345   -10.46613     3.53168   -46.32366
  Hartree 14890.14210 14607.81278-14428.78607    -2.83319     7.46100    -7.17416
  E(xc)    -357.93144  -357.54476  -356.36809    -0.27322     0.10712     0.24401
  Local  -30783.33185-30162.74662 29247.75175    12.36428   -15.45194    52.24019
  n-local  1157.90052  1163.27395  1158.85432     2.37991    -3.02650   -10.52412
  augment  -202.76057  -203.52120  -205.18238    -0.08725    -0.22074     0.84846
  Kinetic   928.83258   935.82382   979.83540    -0.82570    -0.43854    -7.14095
  Fock        0.00000     0.00000     0.00000     0.00000     0.00000     0.00000
  -------------------------------------------------------------------------------------
  Total       3.60830    17.15237    32.45032     0.25870    -8.03792   -17.83022
  in kB       5.76776    27.41753    51.87083     0.41353   -12.84837   -28.50105
  external pressure =       28.35 kB  Pullay stress =        0.00 kB


 VOLUME and BASIS-vectors are now :
 -----------------------------------------------------------------------------
  energy-cutoff  :      300.00
  volume of cell :     1002.32
      direct lattice vectors                 reciprocal lattice vectors
     3.540400000  0.000000000  0.000000000     0.282453960  0.048570342  0.000000000
    -1.770200000 10.294348000  0.000000000     0.000000000  0.097140683  0.000000000
     0.000000000  0.000000000 27.501429000     0.000000000  0.000000000  0.036361747

  length of vectors
     3.540400000 10.445439617 27.501429000     0.286599577  0.097140683  0.036361747


 FORCES acting on ions
    electron-ion (+dipol)            ewald-force                    non-local-force                 convergence-correction
 -----------------------------------------------------------------------------------------------
   0.567E-01 0.103E+02 0.274E+02   0.242E-02 -.102E+02 -.228E+02   -.324E-01 -.182E+00 -.453E+01   0.513E-07 0.176E-05 -.501E-05
   0.683E-01 0.599E+01 -.572E+03   -.349E+00 -.630E+01 0.576E+03   -.108E+00 0.106E+00 -.348E+01   -.538E-07 0.124E-05 0.136E-04
   0.133E-02 0.622E+02 0.476E+02   0.224E-02 -.637E+02 -.434E+02   -.130E-02 0.152E+01 -.411E+01   -.108E-07 0.276E-05 -.741E-05
   0.196E+00 0.444E+02 -.516E+03   0.719E-01 -.456E+02 0.520E+03   -.473E+00 0.131E+01 -.347E+01   0.128E-06 -.939E-06 0.825E-05
   -.449E-02 -.573E+02 0.526E+03   0.102E-03 0.589E+02 -.531E+03   0.144E-02 -.154E+01 0.429E+01   -.662E-07 -.219E-05 -.106E-04
   -.273E+02 -.109E+03 0.274E+01   0.261E+02 0.109E+03 -.135E+01   0.858E+01 0.870E+01 -.213E+02   0.441E-06 -.125E-05 -.286E-05
   0.691E-02 0.538E+02 0.526E+03   0.126E-04 -.557E+02 -.530E+03   -.213E-02 0.191E+01 0.417E+01   0.224E-07 0.185E-05 -.752E-05
   0.285E+00 0.800E+02 -.772E+02   0.464E-01 -.824E+02 0.750E+02   0.294E+00 0.280E+01 0.323E+01   0.325E-07 0.263E-05 -.160E-06
   0.371E-03 0.190E+01 0.572E+03   -.875E-04 -.210E+01 -.577E+03   0.140E-02 0.206E+00 0.478E+01   -.100E-07 0.182E-05 -.112E-04
   0.690E+00 0.111E+01 -.170E+02   -.343E+00 -.197E+01 0.141E+02   0.908E-01 0.116E+01 0.245E+01   0.214E-06 0.157E-06 -.204E-05
   0.536E-02 -.642E+02 0.606E+02   -.698E-02 0.661E+02 -.565E+02   0.263E-02 -.192E+01 -.403E+01   0.534E-07 -.419E-05 -.685E-05
   0.935E+00 -.509E+02 -.540E+03   -.131E+01 0.532E+02 0.545E+03   -.146E+00 -.237E+01 -.444E+01   0.571E-06 -.170E-05 0.115E-04
   -.114E-01 0.304E+02 0.208E+03   -.225E-03 -.326E+02 -.209E+03   0.139E-01 0.213E+01 0.355E+00   -.895E-08 0.221E-05 -.475E-05
   0.110E+01 -.127E+02 -.238E+03   -.177E+01 0.105E+02 0.238E+03   0.254E+00 0.289E+01 0.328E+00   0.760E-07 0.272E-05 0.674E-05
   -.701E-02 -.117E+02 0.139E+03   0.125E-02 0.119E+02 -.142E+03   0.334E-02 -.249E+00 0.254E+01   0.483E-08 -.197E-05 -.446E-05
   -.120E+01 -.353E+01 -.334E+03   0.674E+00 0.252E+01 0.332E+03   0.390E+00 0.304E+00 0.127E+01   -.817E-07 0.322E-05 0.608E-05
   0.106E-02 -.504E+01 0.346E+03   0.892E-04 0.552E+01 -.343E+03   0.228E-03 -.472E+00 -.251E+01   -.110E-07 -.124E-05 -.656E-05
   -.102E+02 0.169E+02 -.115E+03   0.852E+01 -.142E+02 0.117E+03   0.393E+01 -.942E+01 -.693E+01   -.412E-07 -.506E-05 -.503E-06
   0.454E-02 0.989E+01 0.335E+03   -.527E-05 -.101E+02 -.332E+03   -.198E-02 0.235E+00 -.253E+01   -.984E-08 0.258E-05 -.482E-05
   -.212E-01 0.272E+02 -.151E+03   -.532E+00 -.281E+02 0.149E+03   0.429E+00 0.838E+00 0.969E+00   -.117E-06 0.259E-05 -.506E-06
   -.491E-01 0.118E+02 0.126E+03   0.728E-04 -.121E+02 -.128E+03   0.452E-01 0.347E+00 0.253E+01   -.138E-07 0.256E-05 -.448E-05
   -.113E+01 0.183E+02 -.326E+03   0.102E+01 -.187E+02 0.328E+03   -.213E-01 0.129E+00 -.202E+01   0.289E-06 -.103E-05 0.613E-05
   0.595E-02 -.316E+02 0.254E+03   -.238E-03 0.337E+02 -.254E+03   -.237E-02 -.212E+01 -.380E+00   0.124E-07 -.298E-05 -.557E-05
   0.365E+02 -.289E+02 -.285E+03   -.322E+02 0.324E+02 0.277E+03   -.133E+02 -.592E+01 0.309E+02   -.349E-06 -.371E-05 0.531E-05
 -----------------------------------------------------------------------------------------------
   0.301E-01 -.382E+00 0.188E+01   -.711E-14 0.711E-13 0.114E-12   -.247E-01 0.381E+00 -.188E+01   0.112E-05 0.182E-05 -.277E-04
 
 
 POSITION                                       TOTAL-FORCE (eV/Angst)
 -----------------------------------------------------------------------------------
      0.00000      2.34757      6.41229         0.026529     -0.035285      0.043593
      1.23914      1.31814     14.16300        -0.388791     -0.209406      0.458394
     -0.00000      9.43147      5.75866         0.002054     -0.009552      0.083267
      1.23914      8.40203     13.50937        -0.205170      0.108699      0.094848
     -0.00000      6.40009      2.31424        -0.003178     -0.003435      0.006089
     -0.00000      6.40009     10.06495         7.451385      8.809236    -19.871253
      1.77020     10.27849      2.37372         0.004568     -0.003282     -0.000739
      1.77020     10.27849     10.12443         0.624864      0.445361      1.065434
      1.77020      3.18974      1.66157         0.001458     -0.000549      0.016309
      1.77020      3.18974      9.41228         0.437491      0.298536     -0.484093
      1.77020      5.55354      5.69975         0.000786      0.006401      0.093050
     -0.53106      4.52411     13.45047        -0.516542     -0.052151      0.929481
      1.77020      9.05319      4.34076         0.002101     -0.003317      0.004678
     -0.53106      8.02375     12.09147        -0.414823      0.760428      0.506094
      0.00000      4.22380      5.10944        -0.002639      0.011954      0.068525
      1.23914      3.19437     12.86016        -0.134485     -0.704743     -0.476831
     -0.00000      4.15582      2.74166         0.001155      0.000734     -0.025090
     -0.00000      4.15582     10.49237         2.297926     -6.735750     -4.865534
      1.77020      1.31366      2.96438         0.002331     -0.015532     -0.013334
      1.77020      1.31366     10.71510        -0.123856     -0.034816     -0.277501
      1.77020      1.38163      5.33187        -0.004081     -0.020073      0.005890
      3.00934      0.35219     13.08259        -0.130860     -0.270650     -0.357652
      1.77020      6.77850      3.73234         0.003121      0.011711     -0.002837
     -0.53106      5.74906     11.48306        -8.931341     -2.354519     22.999211
 -----------------------------------------------------------------------------------
    total drift:                                0.005427     -0.001047      0.003552


--------------------------------------------------------------------------------------------------------



  FREE ENERGIE OF THE ION-ELECTRON SYSTEM (eV)
  ---------------------------------------------------
  free  energy   TOTEN  =      -119.50588033 eV

  energy  without entropy=     -119.48166992  energy(sigma->0) =     -119.49377513
 


--------------------------------------------------------------------------------------------------------


    POTLOK:  cpu time   14.83: real time   14.84


--------------------------------------------------------------------------------------------------------


     LOOP+:  cpu time 2897.97: real time 2904.29
    4ORBIT:  cpu time    0.00: real time    0.00

 total amount of memory used by VASP on root node   146493. kBytes
========================================================================

   base      :      30000. kBytes
   nonlr-proj:       3452. kBytes
   fftplans  :       9347. kBytes
   grid      :      14649. kBytes
   one-center:         36. kBytes
   wavefun   :      89009. kBytes
 
  
  
 General timing and accounting informations for this job:
 ========================================================
  
                  Total CPU time used (sec):     2916.882
                            User time (sec):     2871.570
                          System time (sec):       45.311
                         Elapsed time (sec):     2924.385
  
                   Maximum memory used (kb):      335264.
                   Average memory used (kb):           0.
  
                          Minor page faults:      8071809
                          Major page faults:           14
                 Voluntary context switches:         1385
