<?xml version="1.0" encoding="ISO-8859-1"?>
<modeling>
 <generator>
  <i name="program" type="string">vasp </i>
  <i name="version" type="string">5.4.1  </i>
  <i name="subversion" type="string">24Jun15 (build May 10 2016 14:18:23) complex                          parallel </i>
  <i name="platform" type="string">IFC91_ompi </i>
  <i name="date" type="string">2016 12 09 </i>
  <i name="time" type="string">14:58:05 </i>
 </generator>
 <incar>
  <i type="string" name="PREC">accurate</i>
  <i type="string" name="ALGO"> Fast</i>
  <i type="int" name="ISPIN">     2</i>
  <i type="int" name="IBRION">     2</i>
  <i name="EDIFF">      0.00010000</i>
  <i type="int" name="NSW">     0</i>
  <i type="int" name="ISIF">     3</i>
  <i name="ENCUT">    500.00000000</i>
  <v name="MAGMOM">      6.00000000      0.50000000      0.50000000      6.00000000      0.50000000      0.50000000</v>
  <i type="string" name="LREAL"> Auto</i>
  <i type="int" name="ISMEAR">     1</i>
  <i name="SIGMA">      0.10000000</i>
  <i type="logical" name="LWAVE"> F  </i>
  <i type="logical" name="LCHARG"> F  </i>
  <i type="logical" name="LVTOT"> T  </i>
  <i type="logical" name="LVHAR"> T  </i>
  <i type="logical" name="LAECHG"> F  </i>
  <v type="int" name="KPOINT_BSE">    -1     0     0     0</v>
  <i type="string" name="GGA"> Bo</i>
  <i name="PARAM1">      0.18333333</i>
  <i name="PARAM2">      0.22000000</i>
  <i type="logical" name="LUSE_VDW"> T  </i>
  <i name="AGGAC">      0.00000000</i>
 </incar>
 <kpoints>
  <generation param="Gamma">
   <v type="int" name="divisions">      13       13        1 </v>
   <v name="usershift">      0.00000000       0.00000000       0.00000000 </v>
   <v name="genvec1">      0.07692308       0.00000000       0.00000000 </v>
   <v name="genvec2">      0.00000000       0.07692308       0.00000000 </v>
   <v name="genvec3">      0.00000000       0.00000000       1.00000000 </v>
   <v name="shift">      0.00000000       0.00000000       0.00000000 </v>
  </generation>
  <varray name="kpointlist" >
   <v>       0.00000000       0.00000000       0.00000000 </v>
   <v>       0.07692308      -0.00000000       0.00000000 </v>
   <v>       0.15384615       0.00000000       0.00000000 </v>
   <v>       0.23076923       0.00000000       0.00000000 </v>
   <v>       0.30769231      -0.00000000       0.00000000 </v>
   <v>       0.38461538       0.00000000       0.00000000 </v>
   <v>       0.46153846       0.00000000       0.00000000 </v>
   <v>       0.00000000       0.07692308       0.00000000 </v>
   <v>       0.07692308       0.07692308       0.00000000 </v>
   <v>       0.15384615       0.07692308       0.00000000 </v>
   <v>       0.23076923       0.07692308       0.00000000 </v>
   <v>       0.30769231       0.07692308       0.00000000 </v>
   <v>       0.38461538       0.07692308       0.00000000 </v>
   <v>       0.46153846       0.07692308       0.00000000 </v>
   <v>      -0.46153846       0.07692308       0.00000000 </v>
   <v>      -0.38461538       0.07692308       0.00000000 </v>
   <v>      -0.30769231       0.07692308       0.00000000 </v>
   <v>      -0.23076923       0.07692308       0.00000000 </v>
   <v>      -0.15384615       0.07692308       0.00000000 </v>
   <v>       0.00000000       0.15384615       0.00000000 </v>
   <v>       0.07692308       0.15384615       0.00000000 </v>
   <v>       0.15384615       0.15384615       0.00000000 </v>
   <v>       0.23076923       0.15384615       0.00000000 </v>
   <v>       0.30769231       0.15384615       0.00000000 </v>
   <v>       0.38461538       0.15384615       0.00000000 </v>
   <v>       0.46153846       0.15384615       0.00000000 </v>
   <v>      -0.46153846       0.15384615       0.00000000 </v>
   <v>      -0.38461538       0.15384615       0.00000000 </v>
   <v>      -0.30769231       0.15384615       0.00000000 </v>
   <v>       0.00000000       0.23076923       0.00000000 </v>
   <v>       0.07692308       0.23076923       0.00000000 </v>
   <v>       0.15384615       0.23076923       0.00000000 </v>
   <v>       0.23076923       0.23076923       0.00000000 </v>
   <v>       0.30769231       0.23076923       0.00000000 </v>
   <v>       0.38461538       0.23076923       0.00000000 </v>
   <v>       0.46153846       0.23076923       0.00000000 </v>
   <v>      -0.46153846       0.23076923       0.00000000 </v>
   <v>       0.00000000       0.30769231       0.00000000 </v>
   <v>       0.07692308       0.30769231       0.00000000 </v>
   <v>       0.15384615       0.30769231       0.00000000 </v>
   <v>       0.23076923       0.30769231       0.00000000 </v>
   <v>       0.30769231       0.30769231       0.00000000 </v>
   <v>       0.38461538       0.30769231       0.00000000 </v>
   <v>       0.00000000       0.38461538       0.00000000 </v>
   <v>       0.07692308       0.38461538       0.00000000 </v>
   <v>       0.15384615       0.38461538       0.00000000 </v>
   <v>       0.23076923       0.38461538       0.00000000 </v>
   <v>       0.00000000       0.46153846       0.00000000 </v>
   <v>       0.07692308       0.46153846       0.00000000 </v>
  </varray>
  <varray name="weights" >
   <v>       0.00591716 </v>
   <v>       0.02366864 </v>
   <v>       0.02366864 </v>
   <v>       0.02366864 </v>
   <v>       0.02366864 </v>
   <v>       0.02366864 </v>
   <v>       0.02366864 </v>
   <v>       0.01183432 </v>
   <v>       0.02366864 </v>
   <v>       0.02366864 </v>
   <v>       0.02366864 </v>
   <v>       0.02366864 </v>
   <v>       0.02366864 </v>
   <v>       0.02366864 </v>
   <v>       0.02366864 </v>
   <v>       0.02366864 </v>
   <v>       0.02366864 </v>
   <v>       0.02366864 </v>
   <v>       0.01183432 </v>
   <v>       0.01183432 </v>
   <v>       0.02366864 </v>
   <v>       0.02366864 </v>
   <v>       0.02366864 </v>
   <v>       0.02366864 </v>
   <v>       0.02366864 </v>
   <v>       0.02366864 </v>
   <v>       0.02366864 </v>
   <v>       0.02366864 </v>
   <v>       0.01183432 </v>
   <v>       0.01183432 </v>
   <v>       0.02366864 </v>
   <v>       0.02366864 </v>
   <v>       0.02366864 </v>
   <v>       0.02366864 </v>
   <v>       0.02366864 </v>
   <v>       0.02366864 </v>
   <v>       0.01183432 </v>
   <v>       0.01183432 </v>
   <v>       0.02366864 </v>
   <v>       0.02366864 </v>
   <v>       0.02366864 </v>
   <v>       0.02366864 </v>
   <v>       0.01183432 </v>
   <v>       0.01183432 </v>
   <v>       0.02366864 </v>
   <v>       0.02366864 </v>
   <v>       0.01183432 </v>
   <v>       0.01183432 </v>
   <v>       0.01183432 </v>
  </varray>
 </kpoints>
 <parameters>
  <separator name="general" >
   <i type="string" name="SYSTEM">unknown system</i>
   <i type="logical" name="LCOMPAT"> F  </i>
  </separator>
  <separator name="electronic" >
   <i type="string" name="PREC">accura</i>
   <i name="ENMAX">    500.00000000</i>
   <i name="ENAUG">    392.42700000</i>
   <i name="EDIFF">      0.00010000</i>
   <i type="int" name="IALGO">    68</i>
   <i type="int" name="IWAVPR">    10</i>
   <i type="int" name="NBANDS">    36</i>
   <i name="NELECT">     48.00000000</i>
   <i type="int" name="TURBO">     0</i>
   <i type="int" name="IRESTART">     0</i>
   <i type="int" name="NREBOOT">     0</i>
   <i type="int" name="NMIN">     0</i>
   <i name="EREF">      0.00000000</i>
   <separator name="electronic smearing" >
    <i type="int" name="ISMEAR">     1</i>
    <i name="SIGMA">      0.10000000</i>
    <i name="KSPACING">      0.50000000</i>
    <i type="logical" name="KGAMMA"> T  </i>
   </separator>
   <separator name="electronic projectors" >
    <i type="logical" name="LREAL"> T  </i>
    <v name="ROPT">     -0.00025000     -0.00025000     -0.00025000     -0.00025000</v>
    <i type="int" name="LMAXPAW">  -100</i>
    <i type="int" name="LMAXMIX">     2</i>
    <i type="logical" name="NLSPLINE"> F  </i>
   </separator>
   <separator name="electronic startup" >
    <i type="int" name="ISTART">     0</i>
    <i type="int" name="ICHARG">     2</i>
    <i type="int" name="INIWAV">     1</i>
   </separator>
   <separator name="electronic spin" >
    <i type="int" name="ISPIN">     2</i>
    <i type="logical" name="LNONCOLLINEAR"> F  </i>
    <v name="MAGMOM">      6.00000000      0.50000000      0.50000000      6.00000000      0.50000000      0.50000000</v>
    <i name="NUPDOWN">     -1.00000000</i>
    <i type="logical" name="LSORBIT"> F  </i>
    <v name="SAXIS">      0.00000000      0.00000000      1.00000000</v>
    <i type="logical" name="LSPIRAL"> F  </i>
    <v name="QSPIRAL">      0.00000000      0.00000000      0.00000000</v>
    <i type="logical" name="LZEROZ"> F  </i>
   </separator>
   <separator name="electronic exchange-correlation" >
    <i type="logical" name="LASPH"> F  </i>
    <i type="logical" name="LMETAGGA"> F  </i>
   </separator>
   <separator name="electronic convergence" >
    <i type="int" name="NELM">    60</i>
    <i type="int" name="NELMDL">     0</i>
    <i type="int" name="NELMIN">     2</i>
    <i name="ENINI">    500.00000000</i>
    <separator name="electronic convergence detail" >
     <i type="logical" name="LDIAG"> T  </i>
     <i type="logical" name="LSUBROT"> F  </i>
     <i name="WEIMIN">      0.00000000</i>
     <i name="EBREAK">      0.00000069</i>
     <i name="DEPER">      0.30000000</i>
     <i type="int" name="NRMM">     4</i>
     <i name="TIME">      0.40000000</i>
    </separator>
   </separator>
   <separator name="electronic mixer" >
    <i name="AMIX">      0.40000000</i>
    <i name="BMIX">      1.00000000</i>
    <i name="AMIN">      0.10000000</i>
    <i name="AMIX_MAG">      1.60000000</i>
    <i name="BMIX_MAG">      1.00000000</i>
    <separator name="electronic mixer details" >
     <i type="int" name="IMIX">     4</i>
     <i type="logical" name="MIXFIRST"> F  </i>
     <i type="int" name="MAXMIX">   -45</i>
     <i name="WC">    100.00000000</i>
     <i type="int" name="INIMIX">     1</i>
     <i type="int" name="MIXPRE">     1</i>
     <i type="int" name="MREMOVE">     5</i>
    </separator>
   </separator>
   <separator name="electronic dipolcorrection" >
    <i type="logical" name="LDIPOL"> F  </i>
    <i type="logical" name="LMONO"> F  </i>
    <i type="int" name="IDIPOL">     0</i>
    <i name="EPSILON">      1.00000000</i>
    <v name="DIPOL">   -100.00000000   -100.00000000   -100.00000000</v>
    <i name="EFIELD">      0.00000000</i>
   </separator>
  </separator>
  <separator name="grids" >
   <i type="int" name="NGX">    24</i>
   <i type="int" name="NGY">    24</i>
   <i type="int" name="NGZ">   180</i>
   <i type="int" name="NGXF">    48</i>
   <i type="int" name="NGYF">    48</i>
   <i type="int" name="NGZF">   360</i>
   <i type="logical" name="ADDGRID"> F  </i>
  </separator>
  <separator name="ionic" >
   <i type="int" name="NSW">     0</i>
   <i type="int" name="IBRION">    -1</i>
   <i type="int" name="ISIF">     3</i>
   <i name="PSTRESS">      0.00000000</i>
   <i name="EDIFFG">      0.00100000</i>
   <i type="int" name="NFREE">     1</i>
   <i name="POTIM">      0.50000000</i>
   <i name="SMASS">     -3.00000000</i>
   <i name="SCALEE">      1.00000000</i>
  </separator>
  <separator name="ionic md" >
   <i name="TEBEG">      0.00010000</i>
   <i name="TEEND">      0.00010000</i>
   <i type="int" name="NBLOCK">     1</i>
   <i type="int" name="KBLOCK">     1</i>
   <i type="int" name="NPACO">   256</i>
   <i name="APACO">     16.00000000</i>
  </separator>
  <separator name="symmetry" >
   <i type="int" name="ISYM">     2</i>
   <i name="SYMPREC">      0.00001000</i>
  </separator>
  <separator name="dos" >
   <i type="logical" name="LORBIT"> F  </i>
   <v name="RWIGS">     -1.00000000     -1.00000000     -1.00000000     -1.00000000</v>
   <i type="int" name="NEDOS">   301</i>
   <i name="EMIN">     10.00000000</i>
   <i name="EMAX">    -10.00000000</i>
   <i name="EFERMI">      0.00000000</i>
  </separator>
  <separator name="writing" >
   <i type="int" name="NWRITE">     2</i>
   <i type="logical" name="LWAVE"> F  </i>
   <i type="logical" name="LCHARG"> F  </i>
   <i type="logical" name="LPARD"> F  </i>
   <i type="logical" name="LVTOT"> F  </i>
   <i type="logical" name="LVHAR"> T  </i>
   <i type="logical" name="LELF"> F  </i>
   <i type="logical" name="LOPTICS"> F  </i>
   <v name="STM">      0.00000000      0.00000000      0.00000000      0.00000000      0.00000000      0.00000000      0.00000000</v>
  </separator>
  <separator name="performance" >
   <i type="int" name="NPAR">     4</i>
   <i type="int" name="NSIM">     4</i>
   <i type="int" name="NBLK">    -1</i>
   <i type="logical" name="LPLANE"> T  </i>
   <i type="logical" name="LSCALAPACK"> T  </i>
   <i type="logical" name="LSCAAWARE"> F  </i>
   <i type="logical" name="LSCALU"> F  </i>
   <i type="logical" name="LASYNC"> F  </i>
   <i type="logical" name="LORBITALREAL"> F  </i>
  </separator>
  <separator name="miscellaneous" >
   <i type="int" name="IDIOT">     3</i>
   <i type="logical" name="LMUSIC"> F  </i>
   <v name="POMASS">     95.94000000     32.06600000     95.94000000     32.06600000</v>
   <v name="DARWINR">      0.00000000      0.00000000      0.00000000      0.00000000</v>
   <v name="DARWINV">      1.00000000      1.00000000      1.00000000      1.00000000</v>
   <i type="logical" name="LCORR"> T  </i>
  </separator>
  <i type="logical" name="GGA_COMPAT"> T  </i>
  <i type="logical" name="LBERRY"> F  </i>
  <i type="int" name="ICORELEVEL">     0</i>
  <i type="logical" name="LDAU"> F  </i>
  <i type="int" name="I_CONSTRAINED_M">     0</i>
  <separator name="electronic exchange-correlation" >
   <i type="string" name="GGA">BO</i>
   <i type="int" name="VOSKOWN">     0</i>
   <i type="logical" name="LHFCALC"> F  </i>
   <i type="string" name="PRECFOCK"></i>
   <i type="logical" name="LSYMGRAD"> F  </i>
   <i type="logical" name="LHFONE"> F  </i>
   <i type="logical" name="LRHFCALC"> F  </i>
   <i type="logical" name="LTHOMAS"> F  </i>
   <i type="logical" name="LMODELHF"> F  </i>
   <i name="ENCUT4O">     -1.00000000</i>
   <i type="int" name="EXXOEP">     0</i>
   <i type="int" name="FOURORBIT">     0</i>
   <i name="AEXX">      0.00000000</i>
   <i name="HFALPHA">      0.00000000</i>
   <i name="MCALPHA">      0.00000000</i>
   <i name="ALDAX">      1.00000000</i>
   <i name="AGGAX">      1.00000000</i>
   <i name="ALDAC">      1.00000000</i>
   <i name="AGGAC">      0.00000000</i>
   <i type="int" name="NKREDX">     1</i>
   <i type="int" name="NKREDY">     1</i>
   <i type="int" name="NKREDZ">     1</i>
   <i type="logical" name="SHIFTRED"> F  </i>
   <i type="logical" name="ODDONLY"> F  </i>
   <i type="logical" name="EVENONLY"> F  </i>
   <i type="int" name="LMAXFOCK">     0</i>
   <i type="int" name="NMAXFOCKAE">     0</i>
   <i type="logical" name="LFOCKAEDFT"> F  </i>
   <i name="HFSCREEN">      0.00000000</i>
   <i name="HFSCREENC">      0.00000000</i>
   <i type="int" name="NBANDSGWLOW">     0</i>
  </separator>
  <separator name="vdW DFT" >
   <i type="logical" name="LUSE_VDW"> T  </i>
   <i name="Zab_VDW">     -0.84910000</i>
   <i name="PARAM1">      0.18333333</i>
   <i name="PARAM2">      0.22000000</i>
   <i name="PARAM3">      0.00000000</i>
  </separator>
  <separator name="model GW" >
   <i type="int" name="MODEL_GW">     0</i>
   <i name="MODEL_EPS0">     20.39722663</i>
   <i name="MODEL_ALPHA">      1.00000000</i>
  </separator>
  <separator name="linear response parameters" >
   <i type="logical" name="LEPSILON"> F  </i>
   <i type="logical" name="LRPA"> F  </i>
   <i type="logical" name="LNABLA"> F  </i>
   <i type="logical" name="LVEL"> F  </i>
   <i type="int" name="KINTER">     0</i>
   <i name="CSHIFT">      0.10000000</i>
   <i name="OMEGAMAX">     -1.00000000</i>
   <i name="DEG_THRESHOLD">      0.00200000</i>
  </separator>
  <separator name="orbital magnetization" >
   <i type="logical" name="NUCIND"> F  </i>
   <v name="MAGPOS">      0.00000000      0.00000000      0.00000000</v>
   <i type="logical" name="LNICSALL"> T  </i>
   <i type="logical" name="ORBITALMAG"> F  </i>
   <i type="logical" name="LMAGBLOCH"> F  </i>
   <i type="logical" name="LCHIMAG"> F  </i>
   <i type="logical" name="LGAUGE"> T  </i>
   <i type="int" name="MAGATOM">     0</i>
   <v name="MAGDIPOL">      0.00000000      0.00000000      0.00000000</v>
   <v name="AVECCONST">      0.00000000      0.00000000      0.00000000</v>
  </separator>
  <separator name="response functions" >
   <i type="logical" name="LADDER"> F  </i>
   <i type="logical" name="LFXC"> F  </i>
   <i type="logical" name="LHARTREE"> T  </i>
   <i type="int" name="IBSE">     0</i>
   <v type="int" name="KPOINT">    -1     0     0     0</v>
   <i type="logical" name="LTCTE"> F  </i>
   <i type="logical" name="LTETE"> F  </i>
   <i type="logical" name="LTRIPLET"> F  </i>
   <i type="logical" name="LFXCEPS"> F  </i>
   <i type="logical" name="LFXHEG"> F  </i>
   <i type="int" name="NATURALO">     0</i>
   <i type="logical" name="L2ORDER"> F  </i>
   <i type="logical" name="LUSEW"> F  </i>
   <i name="ENCUTGW">     -2.00000000</i>
   <i name="ENCUTGWSOFT">     -2.00000000</i>
   <i name="ENCUTLF">     -1.00000000</i>
   <i type="int" name="LMAXMP2">    -1</i>
   <i name="SCISSOR">      0.00000000</i>
   <i type="int" name="NOMEGA">     0</i>
   <i type="int" name="NOMEGAR">     0</i>
   <i type="int" name="NBANDSGW">    -1</i>
   <i type="int" name="NBANDSO">    -1</i>
   <i type="int" name="NBANDSV">    -1</i>
   <i type="int" name="NELM">     1</i>
   <i type="int" name="NELMHF">     1</i>
   <i type="int" name="DIM">     3</i>
   <i type="int" name="ANTIRES">     0</i>
   <i name="OMEGAMAX">    -30.00000000</i>
   <i name="OMEGAMIN">    -30.00000000</i>
   <i name="OMEGATL">   -200.00000000</i>
   <i type="int" name="OMEGAGRID">     0</i>
   <i name="CSHIFT">     -0.10000000</i>
   <i type="logical" name="SELFENERGY"> F  </i>
   <i type="logical" name="LSPECTRAL"> F  </i>
   <i type="logical" name="LSPECTRALGW"> F  </i>
   <i type="logical" name="LSINGLES"> F  </i>
   <i type="logical" name="LFERMIGW"> F  </i>
   <i type="logical" name="ODDONLYGW"> F  </i>
   <i type="logical" name="EVENONLYGW"> F  </i>
   <i type="int" name="NKREDLFX">     1</i>
   <i type="int" name="NKREDLFY">     1</i>
   <i type="int" name="NKREDLFZ">     1</i>
   <i type="int" name="MAXMEM">  1800</i>
   <i type="int" name="TELESCOPE">     0</i>
   <i type="int" name="TAUPAR">     1</i>
   <i type="int" name="OMEGAPAR">    -1</i>
   <i name="LAMBDA">      1.00000000</i>
  </separator>
  <separator name="External order field" >
   <i name="OFIELD_KAPPA">      0.00000000</i>
   <v name="OFIELD_K">      0.00000000      0.00000000      0.00000000</v>
   <i name="OFIELD_Q6_NEAR">      0.00000000</i>
   <i name="OFIELD_Q6_FAR">      0.00000000</i>
   <i name="OFIELD_A">      0.00000000</i>
  </separator>
 </parameters>
 <atominfo>
  <atoms>       6 </atoms>
  <types>       4 </types>
  <array name="atoms" >
   <dimension dim="1">ion</dimension>
   <field type="string">element</field>
   <field type="int">atomtype</field>
   <set>
    <rc><c>Mo</c><c>   1</c></rc>
    <rc><c>S </c><c>   2</c></rc>
    <rc><c>S </c><c>   2</c></rc>
    <rc><c>Mo</c><c>   3</c></rc>
    <rc><c>S </c><c>   4</c></rc>
    <rc><c>S </c><c>   4</c></rc>
   </set>
  </array>
  <array name="atomtypes" >
   <dimension dim="1">type</dimension>
   <field type="int">atomspertype</field>
   <field type="string">element</field>
   <field>mass</field>
   <field>valence</field>
   <field type="string">pseudopotential</field>
   <set>
    <rc><c>   1</c><c>Mo</c><c>     95.94000000</c><c>     12.00000000</c><c> PAW_PBE Mo_pv 08Apr2002                </c></rc>
    <rc><c>   2</c><c>S </c><c>     32.06600000</c><c>      6.00000000</c><c>  PAW_PBE S 17Jan2003                   </c></rc>
    <rc><c>   1</c><c>Mo</c><c>     95.94000000</c><c>     12.00000000</c><c> PAW_PBE Mo_pv 08Apr2002                </c></rc>
    <rc><c>   2</c><c>S </c><c>     32.06600000</c><c>      6.00000000</c><c>  PAW_PBE S 17Jan2003                   </c></rc>
   </set>
  </array>
 </atominfo>
 <structure name="initialpos" >
  <crystal>
   <varray name="basis" >
    <v>       3.19031700       0.00000000       0.00000000 </v>
    <v>      -1.59515800       2.76289700       0.00000000 </v>
    <v>       0.00000000       0.00000000      23.14049200 </v>
   </varray>
   <i name="volume">    203.97226633 </i>
   <varray name="rec_basis" >
    <v>       0.31344848       0.18096941       0.00000000 </v>
    <v>       0.00000000       0.36193894       0.00000000 </v>
    <v>       0.00000000       0.00000000       0.04321429 </v>
   </varray>
  </crystal>
  <varray name="positions" >
   <v>       0.66666700       0.33333300       0.06785900 </v>
   <v>       0.33333300       0.66666700       0.00000000 </v>
   <v>       0.33333300       0.66666700       0.13571500 </v>
   <v>       0.80952414       0.61904729       0.35482300 </v>
   <v>       0.47619014       0.95238129       0.28696500 </v>
   <v>       0.47619014       0.95238129       0.42267900 </v>
  </varray>
 </structure>
 <calculation>
  <scstep>
   <time name="dav">   62.95   63.03</time>
   <time name="total">   82.52   82.65</time>
   <energy>
    <i name="alphaZ">    104.15310261 </i>
    <i name="ewald">   7699.20989328 </i>
    <i name="hartreedc"> -11109.25159770 </i>
    <i name="XCdc">    128.46785278 </i>
    <i name="pawpsdc">   2252.92270536 </i>
    <i name="pawaedc">  -2205.68654582 </i>
    <i name="eentropy">     -0.00081932 </i>
    <i name="bandstr">   -160.07636136 </i>
    <i name="atom">   3688.31848598 </i>
    <i name="e_fr_energy">    398.05671582 </i>
    <i name="e_wo_entrp">    398.05753513 </i>
    <i name="e_0_energy">    398.05698892 </i>
   </energy>
  </scstep>
  <scstep>
   <time name="dav">   68.21   68.31</time>
   <time name="total">   68.22   68.46</time>
   <energy>
    <i name="e_fr_energy">     -1.62351949 </i>
    <i name="e_wo_entrp">     -1.62240864 </i>
    <i name="e_0_energy">     -1.62314921 </i>
   </energy>
  </scstep>
  <scstep>
   <time name="dav">   70.14   70.23</time>
   <time name="total">   70.15   70.25</time>
   <energy>
    <i name="e_fr_energy">    -32.94905975 </i>
    <i name="e_wo_entrp">    -32.95041577 </i>
    <i name="e_0_energy">    -32.94951176 </i>
   </energy>
  </scstep>
  <scstep>
   <time name="dav">   66.80   66.91</time>
   <time name="total">   66.81   66.92</time>
   <energy>
    <i name="e_fr_energy">    -33.83496722 </i>
    <i name="e_wo_entrp">    -33.83588710 </i>
    <i name="e_0_energy">    -33.83527385 </i>
   </energy>
  </scstep>
  <scstep>
   <time name="dav">   69.48   69.54</time>
   <time name="total">   75.01   75.08</time>
   <energy>
    <i name="e_fr_energy">    -33.86225155 </i>
    <i name="e_wo_entrp">    -33.86312952 </i>
    <i name="e_0_energy">    -33.86254420 </i>
   </energy>
  </scstep>
  <scstep>
   <time name="diag">   13.01   13.02</time>
   <time name="diis">   46.27   46.31</time>
   <time name="orth">    0.44    0.44</time>
   <time name="total">   83.98   84.05</time>
   <energy>
    <i name="e_fr_energy">    -30.07085169 </i>
    <i name="e_wo_entrp">    -30.07081178 </i>
    <i name="e_0_energy">    -30.07083839 </i>
   </energy>
  </scstep>
  <scstep>
   <time name="diag">   12.99   13.00</time>
   <time name="diis">   46.07   46.11</time>
   <time name="orth">    0.43    0.44</time>
   <time name="total">   83.85   83.92</time>
   <energy>
    <i name="e_fr_energy">    -32.82163942 </i>
    <i name="e_wo_entrp">    -32.82227542 </i>
    <i name="e_0_energy">    -32.82185142 </i>
   </energy>
  </scstep>
  <scstep>
   <time name="diag">   12.98   12.99</time>
   <time name="diis">   45.76   45.80</time>
   <time name="orth">    0.44    0.44</time>
   <time name="total">   83.38   83.45</time>
   <energy>
    <i name="e_fr_energy">    -34.43816444 </i>
    <i name="e_wo_entrp">    -34.43832832 </i>
    <i name="e_0_energy">    -34.43821907 </i>
   </energy>
  </scstep>
  <scstep>
   <time name="diag">   12.93   12.95</time>
   <time name="diis">   45.03   45.07</time>
   <time name="orth">    0.44    0.44</time>
   <time name="total">   82.79   83.15</time>
   <energy>
    <i name="e_fr_energy">    -37.07198367 </i>
    <i name="e_wo_entrp">    -37.07215005 </i>
    <i name="e_0_energy">    -37.07203913 </i>
   </energy>
  </scstep>
  <scstep>
   <time name="diag">   12.94   12.95</time>
   <time name="diis">   42.04   42.08</time>
   <time name="orth">    0.44    0.44</time>
   <time name="total">   79.85   79.92</time>
   <energy>
    <i name="e_fr_energy">    -39.09022119 </i>
    <i name="e_wo_entrp">    -39.09038735 </i>
    <i name="e_0_energy">    -39.09027658 </i>
   </energy>
  </scstep>
  <scstep>
   <time name="diag">   12.95   12.96</time>
   <time name="diis">   44.79   44.82</time>
   <time name="orth">    0.44    0.44</time>
   <time name="total">   82.61   82.67</time>
   <energy>
    <i name="e_fr_energy">    -39.36859772 </i>
    <i name="e_wo_entrp">    -39.36892632 </i>
    <i name="e_0_energy">    -39.36870725 </i>
   </energy>
  </scstep>
  <scstep>
   <time name="diag">   12.95   12.96</time>
   <time name="diis">   47.33   47.37</time>
   <time name="orth">    0.44    0.44</time>
   <time name="total">   85.15   85.23</time>
   <energy>
    <i name="e_fr_energy">    -39.38609564 </i>
    <i name="e_wo_entrp">    -39.38642584 </i>
    <i name="e_0_energy">    -39.38620571 </i>
   </energy>
  </scstep>
  <scstep>
   <time name="diag">   12.92   12.93</time>
   <time name="diis">   49.48   49.52</time>
   <time name="orth">    0.44    0.44</time>
   <time name="total">   87.40   87.48</time>
   <energy>
    <i name="e_fr_energy">    -39.40103199 </i>
    <i name="e_wo_entrp">    -39.40136226 </i>
    <i name="e_0_energy">    -39.40114208 </i>
   </energy>
  </scstep>
  <scstep>
   <time name="diag">   12.93   12.94</time>
   <time name="diis">   46.93   46.97</time>
   <time name="orth">    0.44    0.44</time>
   <time name="total">   84.70   84.80</time>
   <energy>
    <i name="e_fr_energy">    -39.40485327 </i>
    <i name="e_wo_entrp">    -39.40518433 </i>
    <i name="e_0_energy">    -39.40496362 </i>
   </energy>
  </scstep>
  <scstep>
   <time name="diag">   12.82   12.83</time>
   <time name="diis">   41.48   41.51</time>
   <time name="orth">    0.44    0.44</time>
   <time name="total">   79.15   79.21</time>
   <energy>
    <i name="e_fr_energy">    -39.40428136 </i>
    <i name="e_wo_entrp">    -39.40461242 </i>
    <i name="e_0_energy">    -39.40439171 </i>
   </energy>
  </scstep>
  <scstep>
   <time name="diag">   12.78   12.79</time>
   <time name="diis">   33.63   33.65</time>
   <time name="orth">    0.44    0.44</time>
   <time name="total">   65.43   65.48</time>
   <energy>
    <i name="alphaZ">    104.15310261 </i>
    <i name="ewald">   7699.20989328 </i>
    <i name="hartreedc"> -11093.73514877 </i>
    <i name="XCdc">    122.67660841 </i>
    <i name="pawpsdc">   2398.93280128 </i>
    <i name="pawaedc">  -2361.10695364 </i>
    <i name="eentropy">      0.00033113 </i>
    <i name="bandstr">   -597.85346055 </i>
    <i name="atom">   3688.31848598 </i>
    <i name="e_fr_energy">    -39.40434026 </i>
    <i name="e_wo_entrp">    -39.40467139 </i>
    <i name="e_0_energy">    -39.40445064 </i>
   </energy>
  </scstep>
  <structure>
   <crystal>
    <varray name="basis" >
     <v>       3.19031700       0.00000000       0.00000000 </v>
     <v>      -1.59515800       2.76289700       0.00000000 </v>
     <v>       0.00000000       0.00000000      23.14049200 </v>
    </varray>
    <i name="volume">    203.97226633 </i>
    <varray name="rec_basis" >
     <v>       0.31344848       0.18096941       0.00000000 </v>
     <v>       0.00000000       0.36193894       0.00000000 </v>
     <v>       0.00000000       0.00000000       0.04321429 </v>
    </varray>
   </crystal>
   <varray name="positions" >
    <v>       0.66666700       0.33333300       0.06785900 </v>
    <v>       0.33333300       0.66666700       0.00000000 </v>
    <v>       0.33333300       0.66666700       0.13571500 </v>
    <v>       0.80952414       0.61904729       0.35482300 </v>
    <v>       0.47619014       0.95238129       0.28696500 </v>
    <v>       0.47619014       0.95238129       0.42267900 </v>
   </varray>
  </structure>
  <varray name="forces" >
   <v>      -0.00000000      -0.00652946      -0.00990868 </v>
   <v>       0.00000000       0.00082012      -0.05918811 </v>
   <v>      -0.00000001      -0.03675594       0.06980256 </v>
   <v>       0.00000000       0.00551479       0.01163878 </v>
   <v>       0.00000001       0.03505940      -0.07974206 </v>
   <v>       0.00000000       0.00189109       0.06739751 </v>
  </varray>
  <varray name="stress" >
   <v>       3.25421594       0.00000064       0.00000023 </v>
   <v>       0.00000064       3.55006642       1.29535389 </v>
   <v>       0.00000023       1.29535384       1.63628963 </v>
  </varray>
  <energy>
   <i name="e_fr_energy">    -39.40434026 </i>
   <i name="e_wo_entrp">    -39.40445064 </i>
   <i name="e_0_energy">      0.00033113 </i>
  </energy>
  <time name="totalsc"> 1389.76 1391.82</time>
  <eigenvalues>
   <array>
    <dimension dim="1">band</dimension>
    <dimension dim="2">kpoint</dimension>
    <dimension dim="3">spin</dimension>
    <field>eigene</field>
    <field>occ</field>
    <set>
     <set comment="spin 1">
      <set comment="kpoint 1">
       <r>  -34.9751    1.0000 </r>
       <r>  -34.9702    1.0000 </r>
       <r>  -34.7837    1.0000 </r>
       <r>  -34.7835    1.0000 </r>
       <r>  -34.7790    1.0000 </r>
       <r>  -34.7788    1.0000 </r>
       <r>  -13.9594    1.0000 </r>
       <r>  -13.9011    1.0000 </r>
       <r>  -12.6943    1.0000 </r>
       <r>  -12.5973    1.0000 </r>
       <r>   -5.6768    1.0000 </r>
       <r>   -5.3775    1.0000 </r>
       <r>   -2.6053    1.0000 </r>
       <r>   -2.6047    1.0000 </r>
       <r>   -2.5992    1.0000 </r>
       <r>   -2.5986    1.0000 </r>
       <r>   -2.1748    1.0000 </r>
       <r>   -1.5130    1.0000 </r>
       <r>   -1.5124    1.0000 </r>
       <r>   -1.5059    1.0000 </r>
       <r>   -1.5043    1.0000 </r>
       <r>   -1.4477    1.0000 </r>
       <r>   -0.2120    1.0000 </r>
       <r>    0.2467    0.8002 </r>
       <r>    2.7087   -0.0000 </r>
       <r>    2.7193   -0.0000 </r>
       <r>    2.7255   -0.0000 </r>
       <r>    2.7340   -0.0000 </r>
       <r>    2.8898   -0.0000 </r>
       <r>    2.9015   -0.0000 </r>
       <r>    2.9083   -0.0000 </r>
       <r>    2.9218   -0.0000 </r>
       <r>    5.3766    0.0000 </r>
       <r>    5.7027    0.0000 </r>
       <r>    6.2547    0.0000 </r>
       <r>    6.5942    0.0000 </r>
      </set>
      <set comment="kpoint 2">
       <r>  -34.9710    1.0000 </r>
       <r>  -34.9661    1.0000 </r>
       <r>  -34.8048    1.0000 </r>
       <r>  -34.8002    1.0000 </r>
       <r>  -34.7885    1.0000 </r>
       <r>  -34.7837    1.0000 </r>
       <r>  -13.8728    1.0000 </r>
       <r>  -13.8145    1.0000 </r>
       <r>  -12.6577    1.0000 </r>
       <r>  -12.5628    1.0000 </r>
       <r>   -5.5778    1.0000 </r>
       <r>   -5.2785    1.0000 </r>
       <r>   -2.7931    1.0000 </r>
       <r>   -2.7848    1.0000 </r>
       <r>   -2.5143    1.0000 </r>
       <r>   -2.5087    1.0000 </r>
       <r>   -2.4540    1.0000 </r>
       <r>   -2.0519    1.0000 </r>
       <r>   -1.6494    1.0000 </r>
       <r>   -1.6430    1.0000 </r>
       <r>   -1.3559    1.0000 </r>
       <r>   -1.0428    1.0000 </r>
       <r>   -0.2334    1.0000 </r>
       <r>    0.1752    1.0326 </r>
       <r>    2.5815   -0.0000 </r>
       <r>    2.6265   -0.0000 </r>
       <r>    2.6510   -0.0000 </r>
       <r>    2.7455   -0.0000 </r>
       <r>    2.8045   -0.0000 </r>
       <r>    2.8175   -0.0000 </r>
       <r>    2.8653   -0.0000 </r>
       <r>    2.8747   -0.0000 </r>
       <r>    5.5086    0.0000 </r>
       <r>    5.8486    0.0000 </r>
       <r>    6.5822    0.0000 </r>
       <r>    6.9666    0.0000 </r>
      </set>
      <set comment="kpoint 3">
       <r>  -34.9596    1.0000 </r>
       <r>  -34.9548    1.0000 </r>
       <r>  -34.8633    1.0000 </r>
       <r>  -34.8587    1.0000 </r>
       <r>  -34.8019    1.0000 </r>
       <r>  -34.7971    1.0000 </r>
       <r>  -13.6245    1.0000 </r>
       <r>  -13.5665    1.0000 </r>
       <r>  -12.5529    1.0000 </r>
       <r>  -12.4641    1.0000 </r>
       <r>   -5.3182    1.0000 </r>
       <r>   -5.0243    1.0000 </r>
       <r>   -3.2486    1.0000 </r>
       <r>   -3.2285    1.0000 </r>
       <r>   -2.9493    1.0000 </r>
       <r>   -2.6685    1.0000 </r>
       <r>   -2.2586    1.0000 </r>
       <r>   -2.2527    1.0000 </r>
       <r>   -1.9845    1.0000 </r>
       <r>   -1.9781    1.0000 </r>
       <r>   -1.2843    1.0000 </r>
       <r>   -0.9055    1.0000 </r>
       <r>   -0.3655    1.0000 </r>
       <r>   -0.0929    1.0000 </r>
       <r>    2.1711   -0.0000 </r>
       <r>    2.3814   -0.0000 </r>
       <r>    2.5027   -0.0000 </r>
       <r>    2.5757   -0.0000 </r>
       <r>    2.5892   -0.0000 </r>
       <r>    2.6522   -0.0000 </r>
       <r>    3.2128    0.0000 </r>
       <r>    3.2240    0.0000 </r>
       <r>    5.8622    0.0000 </r>
       <r>    6.2000    0.0000 </r>
       <r>    6.9584    0.0000 </r>
       <r>    7.7894    0.0000 </r>
      </set>
      <set comment="kpoint 4">
       <r>  -34.9448    1.0000 </r>
       <r>  -34.9435    1.0000 </r>
       <r>  -34.9403    1.0000 </r>
       <r>  -34.9385    1.0000 </r>
       <r>  -34.8207    1.0000 </r>
       <r>  -34.8159    1.0000 </r>
       <r>  -13.2497    1.0000 </r>
       <r>  -13.1929    1.0000 </r>
       <r>  -12.3956    1.0000 </r>
       <r>  -12.3163    1.0000 </r>
       <r>   -5.0531    1.0000 </r>
       <r>   -4.8088    1.0000 </r>
       <r>   -3.7258    1.0000 </r>
       <r>   -3.6469    1.0000 </r>
       <r>   -3.4776    1.0000 </r>
       <r>   -3.2860    1.0000 </r>
       <r>   -2.3797    1.0000 </r>
       <r>   -2.3730    1.0000 </r>
       <r>   -1.8896    1.0000 </r>
       <r>   -1.8833    1.0000 </r>
       <r>   -1.4692    1.0000 </r>
       <r>   -1.0850    1.0000 </r>
       <r>   -0.6855    1.0000 </r>
       <r>   -0.5377    1.0000 </r>
       <r>    1.9459   -0.0000 </r>
       <r>    2.2564   -0.0000 </r>
       <r>    2.3276   -0.0000 </r>
       <r>    2.3386   -0.0000 </r>
       <r>    2.6987   -0.0000 </r>
       <r>    2.9274   -0.0000 </r>
       <r>    3.5954    0.0000 </r>
       <r>    3.6090    0.0000 </r>
       <r>    6.3971    0.0000 </r>
       <r>    6.6932    0.0000 </r>
       <r>    7.3890    0.0000 </r>
       <r>    8.1666    0.0000 </r>
      </set>
      <set comment="kpoint 5">
       <r>  -35.0301    1.0000 </r>
       <r>  -35.0254    1.0000 </r>
       <r>  -34.9264    1.0000 </r>
       <r>  -34.9215    1.0000 </r>
       <r>  -34.8406    1.0000 </r>
       <r>  -34.8359    1.0000 </r>
       <r>  -12.8102    1.0000 </r>
       <r>  -12.7559    1.0000 </r>
       <r>  -12.2138    1.0000 </r>
       <r>  -12.1459    1.0000 </r>
       <r>   -5.1031    1.0000 </r>
       <r>   -4.9791    1.0000 </r>
       <r>   -4.0600    1.0000 </r>
       <r>   -3.9067    1.0000 </r>
       <r>   -3.8720    1.0000 </r>
       <r>   -3.7059    1.0000 </r>
       <r>   -2.7350    1.0000 </r>
       <r>   -2.7282    1.0000 </r>
       <r>   -1.7508    1.0000 </r>
       <r>   -1.4952    1.0000 </r>
       <r>   -1.4863    1.0000 </r>
       <r>   -1.3715    1.0000 </r>
       <r>   -0.9774    1.0000 </r>
       <r>   -0.8646    1.0000 </r>
       <r>    2.0437   -0.0000 </r>
       <r>    2.1586   -0.0000 </r>
       <r>    2.1692   -0.0000 </r>
       <r>    2.3376   -0.0000 </r>
       <r>    3.1018    0.0000 </r>
       <r>    3.3782    0.0000 </r>
       <r>    3.8990    0.0000 </r>
       <r>    3.9158    0.0000 </r>
       <r>    7.0579    0.0000 </r>
       <r>    7.2579    0.0000 </r>
       <r>    7.7987    0.0000 </r>
       <r>    8.0492    0.0000 </r>
      </set>
      <set comment="kpoint 6">
       <r>  -35.0998    1.0000 </r>
       <r>  -35.0952    1.0000 </r>
       <r>  -34.9121    1.0000 </r>
       <r>  -34.9073    1.0000 </r>
       <r>  -34.8571    1.0000 </r>
       <r>  -34.8523    1.0000 </r>
       <r>  -12.4004    1.0000 </r>
       <r>  -12.3499    1.0000 </r>
       <r>  -12.0486    1.0000 </r>
       <r>  -11.9918    1.0000 </r>
       <r>   -5.4202    1.0000 </r>
       <r>   -5.3486    1.0000 </r>
       <r>   -4.4743    1.0000 </r>
       <r>   -4.3609    1.0000 </r>
       <r>   -3.9747    1.0000 </r>
       <r>   -3.7756    1.0000 </r>
       <r>   -2.9949    1.0000 </r>
       <r>   -2.9880    1.0000 </r>
       <r>   -1.9668    1.0000 </r>
       <r>   -1.5966    1.0000 </r>
       <r>   -1.1770    1.0000 </r>
       <r>   -1.1680    1.0000 </r>
       <r>   -0.9376    1.0000 </r>
       <r>   -0.7982    1.0000 </r>
       <r>    2.1146   -0.0000 </r>
       <r>    2.1219   -0.0000 </r>
       <r>    2.3118   -0.0000 </r>
       <r>    2.5109   -0.0000 </r>
       <r>    3.4832    0.0000 </r>
       <r>    3.7736    0.0000 </r>
       <r>    4.0882    0.0000 </r>
       <r>    4.1079    0.0000 </r>
       <r>    6.7621    0.0000 </r>
       <r>    7.2432    0.0000 </r>
       <r>    7.6591    0.0000 </r>
       <r>    7.9261    0.0000 </r>
      </set>
      <set comment="kpoint 7">
       <r>  -35.1389    1.0000 </r>
       <r>  -35.1342    1.0000 </r>
       <r>  -34.9041    1.0000 </r>
       <r>  -34.8992    1.0000 </r>
       <r>  -34.8664    1.0000 </r>
       <r>  -34.8616    1.0000 </r>
       <r>  -12.1442    1.0000 </r>
       <r>  -12.0969    1.0000 </r>
       <r>  -11.9475    1.0000 </r>
       <r>  -11.8983    1.0000 </r>
       <r>   -5.6615    1.0000 </r>
       <r>   -5.5995    1.0000 </r>
       <r>   -4.7256    1.0000 </r>
       <r>   -4.6264    1.0000 </r>
       <r>   -4.0764    1.0000 </r>
       <r>   -3.8888    1.0000 </r>
       <r>   -3.1308    1.0000 </r>
       <r>   -3.1240    1.0000 </r>
       <r>   -2.0725    1.0000 </r>
       <r>   -1.7077    1.0000 </r>
       <r>   -1.0104    1.0000 </r>
       <r>   -1.0000    1.0000 </r>
       <r>   -0.7265    1.0000 </r>
       <r>   -0.5598    1.0000 </r>
       <r>    2.1410   -0.0000 </r>
       <r>    2.1467   -0.0000 </r>
       <r>    2.5659   -0.0000 </r>
       <r>    2.6616   -0.0000 </r>
       <r>    3.6830    0.0000 </r>
       <r>    3.9784    0.0000 </r>
       <r>    4.1737    0.0000 </r>
       <r>    4.1954    0.0000 </r>
       <r>    5.9763    0.0000 </r>
       <r>    6.5807    0.0000 </r>
       <r>    7.8781    0.0000 </r>
       <r>    8.1212    0.0000 </r>
      </set>
      <set comment="kpoint 8">
       <r>  -34.9710    1.0000 </r>
       <r>  -34.9661    1.0000 </r>
       <r>  -34.8050    1.0000 </r>
       <r>  -34.8001    1.0000 </r>
       <r>  -34.7884    1.0000 </r>
       <r>  -34.7838    1.0000 </r>
       <r>  -13.8727    1.0000 </r>
       <r>  -13.8146    1.0000 </r>
       <r>  -12.6576    1.0000 </r>
       <r>  -12.5629    1.0000 </r>
       <r>   -5.5777    1.0000 </r>
       <r>   -5.2786    1.0000 </r>
       <r>   -2.7929    1.0000 </r>
       <r>   -2.7850    1.0000 </r>
       <r>   -2.5148    1.0000 </r>
       <r>   -2.5077    1.0000 </r>
       <r>   -2.4549    1.0000 </r>
       <r>   -2.0518    1.0000 </r>
       <r>   -1.6510    1.0000 </r>
       <r>   -1.6413    1.0000 </r>
       <r>   -1.3510    1.0000 </r>
       <r>   -1.0467    1.0000 </r>
       <r>   -0.2328    1.0000 </r>
       <r>    0.1718    1.0340 </r>
       <r>    2.5960   -0.0000 </r>
       <r>    2.6253   -0.0000 </r>
       <r>    2.6561   -0.0000 </r>
       <r>    2.7320   -0.0000 </r>
       <r>    2.7879   -0.0000 </r>
       <r>    2.8255   -0.0000 </r>
       <r>    2.8614   -0.0000 </r>
       <r>    2.8853   -0.0000 </r>
       <r>    5.5087    0.0000 </r>
       <r>    5.8485    0.0000 </r>
       <r>    6.5654    0.0000 </r>
       <r>    6.9676    0.0000 </r>
      </set>
      <set comment="kpoint 9">
       <r>  -34.9633    1.0000 </r>
       <r>  -34.9584    1.0000 </r>
       <r>  -34.8439    1.0000 </r>
       <r>  -34.8391    1.0000 </r>
       <r>  -34.7985    1.0000 </r>
       <r>  -34.7938    1.0000 </r>
       <r>  -13.7051    1.0000 </r>
       <r>  -13.6473    1.0000 </r>
       <r>  -12.5868    1.0000 </r>
       <r>  -12.4963    1.0000 </r>
       <r>   -5.3963    1.0000 </r>
       <r>   -5.0996    1.0000 </r>
       <r>   -3.1095    1.0000 </r>
       <r>   -3.0956    1.0000 </r>
       <r>   -2.7892    1.0000 </r>
       <r>   -2.4663    1.0000 </r>
       <r>   -2.3468    1.0000 </r>
       <r>   -2.3394    1.0000 </r>
       <r>   -1.9661    1.0000 </r>
       <r>   -1.9524    1.0000 </r>
       <r>   -1.2020    1.0000 </r>
       <r>   -0.8596    1.0000 </r>
       <r>   -0.3080    1.0000 </r>
       <r>   -0.0008    1.0002 </r>
       <r>    2.2955   -0.0000 </r>
       <r>    2.4386   -0.0000 </r>
       <r>    2.4689   -0.0000 </r>
       <r>    2.5747   -0.0000 </r>
       <r>    2.6261   -0.0000 </r>
       <r>    2.6650   -0.0000 </r>
       <r>    3.1338    0.0000 </r>
       <r>    3.1669    0.0000 </r>
       <r>    5.7496    0.0000 </r>
       <r>    6.0930    0.0000 </r>
       <r>    6.9153    0.0000 </r>
       <r>    7.5996    0.0000 </r>
      </set>
      <set comment="kpoint 10">
       <r>  -34.9495    1.0000 </r>
       <r>  -34.9447    1.0000 </r>
       <r>  -34.9114    1.0000 </r>
       <r>  -34.9067    1.0000 </r>
       <r>  -34.8170    1.0000 </r>
       <r>  -34.8123    1.0000 </r>
       <r>  -13.3929    1.0000 </r>
       <r>  -13.3359    1.0000 </r>
       <r>  -12.4550    1.0000 </r>
       <r>  -12.3725    1.0000 </r>
       <r>   -5.1169    1.0000 </r>
       <r>   -4.8415    1.0000 </r>
       <r>   -3.5605    1.0000 </r>
       <r>   -3.5193    1.0000 </r>
       <r>   -3.2214    1.0000 </r>
       <r>   -2.9872    1.0000 </r>
       <r>   -2.4562    1.0000 </r>
       <r>   -2.4224    1.0000 </r>
       <r>   -2.0631    1.0000 </r>
       <r>   -2.0547    1.0000 </r>
       <r>   -1.1941    1.0000 </r>
       <r>   -0.8585    1.0000 </r>
       <r>   -0.5405    1.0000 </r>
       <r>   -0.3645    1.0000 </r>
       <r>    1.9559   -0.0000 </r>
       <r>    2.2058   -0.0000 </r>
       <r>    2.3972   -0.0000 </r>
       <r>    2.4402   -0.0000 </r>
       <r>    2.4786   -0.0000 </r>
       <r>    2.6508   -0.0000 </r>
       <r>    3.5364    0.0000 </r>
       <r>    3.5866    0.0000 </r>
       <r>    6.1942    0.0000 </r>
       <r>    6.5172    0.0000 </r>
       <r>    7.2338    0.0000 </r>
       <r>    8.2026    0.0000 </r>
      </set>
      <set comment="kpoint 11">
       <r>  -34.9917    1.0000 </r>
       <r>  -34.9870    1.0000 </r>
       <r>  -34.9329    1.0000 </r>
       <r>  -34.9280    1.0000 </r>
       <r>  -34.8394    1.0000 </r>
       <r>  -34.8347    1.0000 </r>
       <r>  -12.9836    1.0000 </r>
       <r>  -12.9286    1.0000 </r>
       <r>  -12.2835    1.0000 </r>
       <r>  -12.2116    1.0000 </r>
       <r>   -4.9892    1.0000 </r>
       <r>   -4.8135    1.0000 </r>
       <r>   -3.8816    1.0000 </r>
       <r>   -3.7400    1.0000 </r>
       <r>   -3.7085    1.0000 </r>
       <r>   -3.5763    1.0000 </r>
       <r>   -2.8522    1.0000 </r>
       <r>   -2.7840    1.0000 </r>
       <r>   -1.7829    1.0000 </r>
       <r>   -1.7683    1.0000 </r>
       <r>   -1.4155    1.0000 </r>
       <r>   -1.0967    1.0000 </r>
       <r>   -0.8446    1.0000 </r>
       <r>   -0.7449    1.0000 </r>
       <r>    1.8556   -0.0000 </r>
       <r>    2.0824   -0.0000 </r>
       <r>    2.2837   -0.0000 </r>
       <r>    2.3911   -0.0000 </r>
       <r>    2.7559   -0.0000 </r>
       <r>    2.9690   -0.0000 </r>
       <r>    3.8835    0.0000 </r>
       <r>    3.9558    0.0000 </r>
       <r>    6.8132    0.0000 </r>
       <r>    7.0680    0.0000 </r>
       <r>    7.7908    0.0000 </r>
       <r>    8.3505    0.0000 </r>
      </set>
      <set comment="kpoint 12">
       <r>  -35.0664    1.0000 </r>
       <r>  -35.0617    1.0000 </r>
       <r>  -34.9172    1.0000 </r>
       <r>  -34.9123    1.0000 </r>
       <r>  -34.8604    1.0000 </r>
       <r>  -34.8557    1.0000 </r>
       <r>  -12.5537    1.0000 </r>
       <r>  -12.5021    1.0000 </r>
       <r>  -12.1063    1.0000 </r>
       <r>  -12.0457    1.0000 </r>
       <r>   -5.2089    1.0000 </r>
       <r>   -5.1218    1.0000 </r>
       <r>   -4.2880    1.0000 </r>
       <r>   -4.1839    1.0000 </r>
       <r>   -3.8966    1.0000 </r>
       <r>   -3.6955    1.0000 </r>
       <r>   -3.0657    1.0000 </r>
       <r>   -2.9966    1.0000 </r>
       <r>   -1.7354    1.0000 </r>
       <r>   -1.6152    1.0000 </r>
       <r>   -1.6009    1.0000 </r>
       <r>   -1.3910    1.0000 </r>
       <r>   -0.8670    1.0000 </r>
       <r>   -0.7899    1.0000 </r>
       <r>    1.9662   -0.0000 </r>
       <r>    2.1169   -0.0000 </r>
       <r>    2.3255   -0.0000 </r>
       <r>    2.4523   -0.0000 </r>
       <r>    3.1783    0.0000 </r>
       <r>    3.3912    0.0000 </r>
       <r>    4.0754    0.0000 </r>
       <r>    4.1791    0.0000 </r>
       <r>    7.3313    0.0000 </r>
       <r>    7.5585    0.0000 </r>
       <r>    7.6059    0.0000 </r>
       <r>    8.1645    0.0000 </r>
      </set>
      <set comment="kpoint 13">
       <r>  -35.1187    1.0000 </r>
       <r>  -35.1140    1.0000 </r>
       <r>  -34.9060    1.0000 </r>
       <r>  -34.9012    1.0000 </r>
       <r>  -34.8753    1.0000 </r>
       <r>  -34.8705    1.0000 </r>
       <r>  -12.2129    1.0000 </r>
       <r>  -12.1651    1.0000 </r>
       <r>  -11.9687    1.0000 </r>
       <r>  -11.9176    1.0000 </r>
       <r>   -5.4918    1.0000 </r>
       <r>   -5.4279    1.0000 </r>
       <r>   -4.6743    1.0000 </r>
       <r>   -4.5898    1.0000 </r>
       <r>   -4.0007    1.0000 </r>
       <r>   -3.8046    1.0000 </r>
       <r>   -3.1529    1.0000 </r>
       <r>   -3.1031    1.0000 </r>
       <r>   -1.9684    1.0000 </r>
       <r>   -1.6412    1.0000 </r>
       <r>   -1.4894    1.0000 </r>
       <r>   -1.4278    1.0000 </r>
       <r>   -0.6577    1.0000 </r>
       <r>   -0.5602    1.0000 </r>
       <r>    2.1134   -0.0000 </r>
       <r>    2.1831   -0.0000 </r>
       <r>    2.5036   -0.0000 </r>
       <r>    2.6099   -0.0000 </r>
       <r>    3.5718    0.0000 </r>
       <r>    3.7576    0.0000 </r>
       <r>    4.0679    0.0000 </r>
       <r>    4.2193    0.0000 </r>
       <r>    6.3878    0.0000 </r>
       <r>    6.9790    0.0000 </r>
       <r>    8.0691    0.0000 </r>
       <r>    8.2856    0.0000 </r>
      </set>
      <set comment="kpoint 14">
       <r>  -35.1375    1.0000 </r>
       <r>  -35.1328    1.0000 </r>
       <r>  -34.9020    1.0000 </r>
       <r>  -34.8972    1.0000 </r>
       <r>  -34.8807    1.0000 </r>
       <r>  -34.8759    1.0000 </r>
       <r>  -12.0810    1.0000 </r>
       <r>  -12.0344    1.0000 </r>
       <r>  -11.9157    1.0000 </r>
       <r>  -11.8684    1.0000 </r>
       <r>   -5.6099    1.0000 </r>
       <r>   -5.5491    1.0000 </r>
       <r>   -4.8172    1.0000 </r>
       <r>   -4.7366    1.0000 </r>
       <r>   -4.0681    1.0000 </r>
       <r>   -3.8803    1.0000 </r>
       <r>   -3.1721    1.0000 </r>
       <r>   -3.1350    1.0000 </r>
       <r>   -2.0597    1.0000 </r>
       <r>   -1.7204    1.0000 </r>
       <r>   -1.4288    1.0000 </r>
       <r>   -1.3561    1.0000 </r>
       <r>   -0.5279    1.0000 </r>
       <r>   -0.4136    1.0000 </r>
       <r>    2.1518   -0.0000 </r>
       <r>    2.1804   -0.0000 </r>
       <r>    2.6510   -0.0000 </r>
       <r>    2.7292   -0.0000 </r>
       <r>    3.8176    0.0000 </r>
       <r>    3.9138    0.0000 </r>
       <r>    3.9845    0.0000 </r>
       <r>    4.1441    0.0000 </r>
       <r>    5.9514    0.0000 </r>
       <r>    6.5945    0.0000 </r>
       <r>    8.3200    0.0000 </r>
       <r>    8.3993    0.0000 </r>
      </set>
      <set comment="kpoint 15">
       <r>  -35.1187    1.0000 </r>
       <r>  -35.1141    1.0000 </r>
       <r>  -34.9060    1.0000 </r>
       <r>  -34.9012    1.0000 </r>
       <r>  -34.8753    1.0000 </r>
       <r>  -34.8705    1.0000 </r>
       <r>  -12.2134    1.0000 </r>
       <r>  -12.1648    1.0000 </r>
       <r>  -11.9691    1.0000 </r>
       <r>  -11.9172    1.0000 </r>
       <r>   -5.4919    1.0000 </r>
       <r>   -5.4277    1.0000 </r>
       <r>   -4.6748    1.0000 </r>
       <r>   -4.5894    1.0000 </r>
       <r>   -4.0008    1.0000 </r>
       <r>   -3.8043    1.0000 </r>
       <r>   -3.1526    1.0000 </r>
       <r>   -3.1040    1.0000 </r>
       <r>   -1.9710    1.0000 </r>
       <r>   -1.6422    1.0000 </r>
       <r>   -1.4951    1.0000 </r>
       <r>   -1.4169    1.0000 </r>
       <r>   -0.6570    1.0000 </r>
       <r>   -0.5610    1.0000 </r>
       <r>    2.1155   -0.0000 </r>
       <r>    2.1801   -0.0000 </r>
       <r>    2.5025   -0.0000 </r>
       <r>    2.6112   -0.0000 </r>
       <r>    3.5594    0.0000 </r>
       <r>    3.7694    0.0000 </r>
       <r>    4.0735    0.0000 </r>
       <r>    4.2158    0.0000 </r>
       <r>    6.3873    0.0000 </r>
       <r>    6.9796    0.0000 </r>
       <r>    8.0580    0.0000 </r>
       <r>    8.2141    0.0000 </r>
      </set>
      <set comment="kpoint 16">
       <r>  -35.0663    1.0000 </r>
       <r>  -35.0617    1.0000 </r>
       <r>  -34.9172    1.0000 </r>
       <r>  -34.9123    1.0000 </r>
       <r>  -34.8605    1.0000 </r>
       <r>  -34.8557    1.0000 </r>
       <r>  -12.5542    1.0000 </r>
       <r>  -12.5017    1.0000 </r>
       <r>  -12.1068    1.0000 </r>
       <r>  -12.0451    1.0000 </r>
       <r>   -5.2090    1.0000 </r>
       <r>   -5.1216    1.0000 </r>
       <r>   -4.2890    1.0000 </r>
       <r>   -4.1832    1.0000 </r>
       <r>   -3.8972    1.0000 </r>
       <r>   -3.6942    1.0000 </r>
       <r>   -3.0664    1.0000 </r>
       <r>   -2.9971    1.0000 </r>
       <r>   -1.7431    1.0000 </r>
       <r>   -1.6155    1.0000 </r>
       <r>   -1.5980    1.0000 </r>
       <r>   -1.3838    1.0000 </r>
       <r>   -0.8670    1.0000 </r>
       <r>   -0.7893    1.0000 </r>
       <r>    1.9647   -0.0000 </r>
       <r>    2.1163   -0.0000 </r>
       <r>    2.3255   -0.0000 </r>
       <r>    2.4535   -0.0000 </r>
       <r>    3.1673    0.0000 </r>
       <r>    3.4034    0.0000 </r>
       <r>    4.0772    0.0000 </r>
       <r>    4.1765    0.0000 </r>
       <r>    7.3297    0.0000 </r>
       <r>    7.5657    0.0000 </r>
       <r>    7.5986    0.0000 </r>
       <r>    8.1765    0.0000 </r>
      </set>
      <set comment="kpoint 17">
       <r>  -34.9917    1.0000 </r>
       <r>  -34.9871    1.0000 </r>
       <r>  -34.9329    1.0000 </r>
       <r>  -34.9280    1.0000 </r>
       <r>  -34.8395    1.0000 </r>
       <r>  -34.8346    1.0000 </r>
       <r>  -12.9840    1.0000 </r>
       <r>  -12.9282    1.0000 </r>
       <r>  -12.2840    1.0000 </r>
       <r>  -12.2110    1.0000 </r>
       <r>   -4.9892    1.0000 </r>
       <r>   -4.8136    1.0000 </r>
       <r>   -3.8835    1.0000 </r>
       <r>   -3.7378    1.0000 </r>
       <r>   -3.7096    1.0000 </r>
       <r>   -3.5751    1.0000 </r>
       <r>   -2.8538    1.0000 </r>
       <r>   -2.7834    1.0000 </r>
       <r>   -1.7819    1.0000 </r>
       <r>   -1.7705    1.0000 </r>
       <r>   -1.4185    1.0000 </r>
       <r>   -1.0925    1.0000 </r>
       <r>   -0.8445    1.0000 </r>
       <r>   -0.7416    1.0000 </r>
       <r>    1.8523   -0.0000 </r>
       <r>    2.0845   -0.0000 </r>
       <r>    2.2836   -0.0000 </r>
       <r>    2.3921   -0.0000 </r>
       <r>    2.7478   -0.0000 </r>
       <r>    2.9767   -0.0000 </r>
       <r>    3.8855    0.0000 </r>
       <r>    3.9522    0.0000 </r>
       <r>    6.8136    0.0000 </r>
       <r>    7.0679    0.0000 </r>
       <r>    7.7863    0.0000 </r>
       <r>    8.3044    0.0000 </r>
      </set>
      <set comment="kpoint 18">
       <r>  -34.9495    1.0000 </r>
       <r>  -34.9447    1.0000 </r>
       <r>  -34.9113    1.0000 </r>
       <r>  -34.9067    1.0000 </r>
       <r>  -34.8171    1.0000 </r>
       <r>  -34.8122    1.0000 </r>
       <r>  -13.3932    1.0000 </r>
       <r>  -13.3357    1.0000 </r>
       <r>  -12.4554    1.0000 </r>
       <r>  -12.3721    1.0000 </r>
       <r>   -5.1174    1.0000 </r>
       <r>   -4.8412    1.0000 </r>
       <r>   -3.5609    1.0000 </r>
       <r>   -3.5190    1.0000 </r>
       <r>   -3.2205    1.0000 </r>
       <r>   -2.9879    1.0000 </r>
       <r>   -2.4575    1.0000 </r>
       <r>   -2.4216    1.0000 </r>
       <r>   -2.0623    1.0000 </r>
       <r>   -2.0556    1.0000 </r>
       <r>   -1.1999    1.0000 </r>
       <r>   -0.8542    1.0000 </r>
       <r>   -0.5419    1.0000 </r>
       <r>   -0.3566    1.0000 </r>
       <r>    1.9516   -0.0000 </r>
       <r>    2.2051   -0.0000 </r>
       <r>    2.3995   -0.0000 </r>
       <r>    2.4427   -0.0000 </r>
       <r>    2.4720   -0.0000 </r>
       <r>    2.6541   -0.0000 </r>
       <r>    3.5410    0.0000 </r>
       <r>    3.5808    0.0000 </r>
       <r>    6.1944    0.0000 </r>
       <r>    6.5175    0.0000 </r>
       <r>    7.2338    0.0000 </r>
       <r>    8.2324    0.0000 </r>
      </set>
      <set comment="kpoint 19">
       <r>  -34.9633    1.0000 </r>
       <r>  -34.9584    1.0000 </r>
       <r>  -34.8437    1.0000 </r>
       <r>  -34.8392    1.0000 </r>
       <r>  -34.7986    1.0000 </r>
       <r>  -34.7937    1.0000 </r>
       <r>  -13.7053    1.0000 </r>
       <r>  -13.6471    1.0000 </r>
       <r>  -12.5870    1.0000 </r>
       <r>  -12.4961    1.0000 </r>
       <r>   -5.3968    1.0000 </r>
       <r>   -5.0992    1.0000 </r>
       <r>   -3.1092    1.0000 </r>
       <r>   -3.0960    1.0000 </r>
       <r>   -2.7882    1.0000 </r>
       <r>   -2.4672    1.0000 </r>
       <r>   -2.3458    1.0000 </r>
       <r>   -2.3403    1.0000 </r>
       <r>   -1.9653    1.0000 </r>
       <r>   -1.9536    1.0000 </r>
       <r>   -1.2085    1.0000 </r>
       <r>   -0.8543    1.0000 </r>
       <r>   -0.3096    1.0000 </r>
       <r>    0.0078    1.0003 </r>
       <r>    2.2828   -0.0000 </r>
       <r>    2.4374   -0.0000 </r>
       <r>    2.4662   -0.0000 </r>
       <r>    2.5846   -0.0000 </r>
       <r>    2.6329   -0.0000 </r>
       <r>    2.6599   -0.0000 </r>
       <r>    3.1417    0.0000 </r>
       <r>    3.1580    0.0000 </r>
       <r>    5.7492    0.0000 </r>
       <r>    6.0933    0.0000 </r>
       <r>    6.9379    0.0000 </r>
       <r>    7.6171    0.0000 </r>
      </set>
      <set comment="kpoint 20">
       <r>  -34.9596    1.0000 </r>
       <r>  -34.9548    1.0000 </r>
       <r>  -34.8635    1.0000 </r>
       <r>  -34.8586    1.0000 </r>
       <r>  -34.8018    1.0000 </r>
       <r>  -34.7972    1.0000 </r>
       <r>  -13.6242    1.0000 </r>
       <r>  -13.5667    1.0000 </r>
       <r>  -12.5525    1.0000 </r>
       <r>  -12.4645    1.0000 </r>
       <r>   -5.3176    1.0000 </r>
       <r>   -5.0247    1.0000 </r>
       <r>   -3.2476    1.0000 </r>
       <r>   -3.2294    1.0000 </r>
       <r>   -2.9498    1.0000 </r>
       <r>   -2.6687    1.0000 </r>
       <r>   -2.2601    1.0000 </r>
       <r>   -2.2514    1.0000 </r>
       <r>   -1.9870    1.0000 </r>
       <r>   -1.9755    1.0000 </r>
       <r>   -1.2716    1.0000 </r>
       <r>   -0.9153    1.0000 </r>
       <r>   -0.3628    1.0000 </r>
       <r>   -0.1056    1.0000 </r>
       <r>    2.1873   -0.0000 </r>
       <r>    2.3797   -0.0000 </r>
       <r>    2.5080   -0.0000 </r>
       <r>    2.5604   -0.0000 </r>
       <r>    2.6031   -0.0000 </r>
       <r>    2.6414   -0.0000 </r>
       <r>    3.2014    0.0000 </r>
       <r>    3.2363    0.0000 </r>
       <r>    5.8622    0.0000 </r>
       <r>    6.1991    0.0000 </r>
       <r>    7.0128    0.0000 </r>
       <r>    7.8444    0.0000 </r>
      </set>
      <set comment="kpoint 21">
       <r>  -34.9495    1.0000 </r>
       <r>  -34.9447    1.0000 </r>
       <r>  -34.9115    1.0000 </r>
       <r>  -34.9066    1.0000 </r>
       <r>  -34.8169    1.0000 </r>
       <r>  -34.8124    1.0000 </r>
       <r>  -13.3927    1.0000 </r>
       <r>  -13.3361    1.0000 </r>
       <r>  -12.4547    1.0000 </r>
       <r>  -12.3729    1.0000 </r>
       <r>   -5.1166    1.0000 </r>
       <r>   -4.8417    1.0000 </r>
       <r>   -3.5587    1.0000 </r>
       <r>   -3.5212    1.0000 </r>
       <r>   -3.2212    1.0000 </r>
       <r>   -2.9879    1.0000 </r>
       <r>   -2.4574    1.0000 </r>
       <r>   -2.4208    1.0000 </r>
       <r>   -2.0643    1.0000 </r>
       <r>   -2.0534    1.0000 </r>
       <r>   -1.1853    1.0000 </r>
       <r>   -0.8648    1.0000 </r>
       <r>   -0.5387    1.0000 </r>
       <r>   -0.3735    1.0000 </r>
       <r>    1.9616   -0.0000 </r>
       <r>    2.2059   -0.0000 </r>
       <r>    2.3934   -0.0000 </r>
       <r>    2.4492   -0.0000 </r>
       <r>    2.4751   -0.0000 </r>
       <r>    2.6488   -0.0000 </r>
       <r>    3.5307    0.0000 </r>
       <r>    3.5918    0.0000 </r>
       <r>    6.1950    0.0000 </r>
       <r>    6.5162    0.0000 </r>
       <r>    7.2349    0.0000 </r>
       <r>    8.2096    0.0000 </r>
      </set>
      <set comment="kpoint 22">
       <r>  -34.9736    1.0000 </r>
       <r>  -34.9688    1.0000 </r>
       <r>  -34.9352    1.0000 </r>
       <r>  -34.9304    1.0000 </r>
       <r>  -34.8433    1.0000 </r>
       <r>  -34.8387    1.0000 </r>
       <r>  -13.0444    1.0000 </r>
       <r>  -12.9895    1.0000 </r>
       <r>  -12.3072    1.0000 </r>
       <r>  -12.2345    1.0000 </r>
       <r>   -4.9417    1.0000 </r>
       <r>   -4.7377    1.0000 </r>
       <r>   -3.8152    1.0000 </r>
       <r>   -3.7056    1.0000 </r>
       <r>   -3.5109    1.0000 </r>
       <r>   -3.3826    1.0000 </r>
       <r>   -3.0887    1.0000 </r>
       <r>   -2.9734    1.0000 </r>
       <r>   -1.9367    1.0000 </r>
       <r>   -1.9185    1.0000 </r>
       <r>   -1.1719    1.0000 </r>
       <r>   -0.8989    1.0000 </r>
       <r>   -0.7765    1.0000 </r>
       <r>   -0.6817    1.0000 </r>
       <r>    1.7636   -0.0000 </r>
       <r>    2.0095   -0.0000 </r>
       <r>    2.3253   -0.0000 </r>
       <r>    2.4265   -0.0000 </r>
       <r>    2.5258   -0.0000 </r>
       <r>    2.7297   -0.0000 </r>
       <r>    3.9193    0.0000 </r>
       <r>    4.0188    0.0000 </r>
       <r>    6.7319    0.0000 </r>
       <r>    7.0086    0.0000 </r>
       <r>    7.7506    0.0000 </r>
       <r>    8.5693    0.0000 </r>
      </set>
      <set comment="kpoint 23">
       <r>  -35.0364    1.0000 </r>
       <r>  -35.0316    1.0000 </r>
       <r>  -34.9201    1.0000 </r>
       <r>  -34.9152    1.0000 </r>
       <r>  -34.8737    1.0000 </r>
       <r>  -34.8690    1.0000 </r>
       <r>  -12.6389    1.0000 </r>
       <r>  -12.5872    1.0000 </r>
       <r>  -12.1357    1.0000 </r>
       <r>  -12.0737    1.0000 </r>
       <r>   -5.0142    1.0000 </r>
       <r>   -4.9065    1.0000 </r>
       <r>   -4.0911    1.0000 </r>
       <r>   -4.0335    1.0000 </r>
       <r>   -3.8098    1.0000 </r>
       <r>   -3.6141    1.0000 </r>
       <r>   -3.3040    1.0000 </r>
       <r>   -3.1420    1.0000 </r>
       <r>   -2.0672    1.0000 </r>
       <r>   -2.0363    1.0000 </r>
       <r>   -1.3924    1.0000 </r>
       <r>   -1.1288    1.0000 </r>
       <r>   -0.8329    1.0000 </r>
       <r>   -0.7836    1.0000 </r>
       <r>    1.7936   -0.0000 </r>
       <r>    2.0620   -0.0000 </r>
       <r>    2.3962   -0.0000 </r>
       <r>    2.4667   -0.0000 </r>
       <r>    2.7882   -0.0000 </r>
       <r>    2.9843   -0.0000 </r>
       <r>    4.1672    0.0000 </r>
       <r>    4.3079    0.0000 </r>
       <r>    7.4052    0.0000 </r>
       <r>    7.5941    0.0000 </r>
       <r>    8.0618    0.0000 </r>
       <r>    8.5530    0.0000 </r>
      </set>
      <set comment="kpoint 24">
       <r>  -35.0870    1.0000 </r>
       <r>  -35.0822    1.0000 </r>
       <r>  -34.9075    1.0000 </r>
       <r>  -34.9026    1.0000 </r>
       <r>  -34.8997    1.0000 </r>
       <r>  -34.8949    1.0000 </r>
       <r>  -12.2660    1.0000 </r>
       <r>  -12.2182    1.0000 </r>
       <r>  -11.9786    1.0000 </r>
       <r>  -11.9265    1.0000 </r>
       <r>   -5.2142    1.0000 </r>
       <r>   -5.1441    1.0000 </r>
       <r>   -4.6335    1.0000 </r>
       <r>   -4.5845    1.0000 </r>
       <r>   -3.8417    1.0000 </r>
       <r>   -3.6308    1.0000 </r>
       <r>   -3.2751    1.0000 </r>
       <r>   -3.1397    1.0000 </r>
       <r>   -2.2079    1.0000 </r>
       <r>   -2.1534    1.0000 </r>
       <r>   -1.7316    1.0000 </r>
       <r>   -1.4593    1.0000 </r>
       <r>   -0.6591    1.0000 </r>
       <r>   -0.6132    1.0000 </r>
       <r>    2.0176   -0.0000 </r>
       <r>    2.2358   -0.0000 </r>
       <r>    2.5179   -0.0000 </r>
       <r>    2.5703   -0.0000 </r>
       <r>    3.1405    0.0000 </r>
       <r>    3.3000    0.0000 </r>
       <r>    4.2280    0.0000 </r>
       <r>    4.4203    0.0000 </r>
       <r>    7.0234    0.0000 </r>
       <r>    7.5729    0.0000 </r>
       <r>    8.2201    0.0000 </r>
       <r>    8.5157    0.0000 </r>
      </set>
      <set comment="kpoint 25">
       <r>  -35.1151    1.0000 </r>
       <r>  -35.1104    1.0000 </r>
       <r>  -34.9146    1.0000 </r>
       <r>  -34.9098    1.0000 </r>
       <r>  -34.9003    1.0000 </r>
       <r>  -34.8954    1.0000 </r>
       <r>  -12.0371    1.0000 </r>
       <r>  -11.9915    1.0000 </r>
       <r>  -11.8817    1.0000 </r>
       <r>  -11.8360    1.0000 </r>
       <r>   -5.3461    1.0000 </r>
       <r>   -5.2861    1.0000 </r>
       <r>   -4.9417    1.0000 </r>
       <r>   -4.8928    1.0000 </r>
       <r>   -3.9751    1.0000 </r>
       <r>   -3.7820    1.0000 </r>
       <r>   -3.1861    1.0000 </r>
       <r>   -3.0871    1.0000 </r>
       <r>   -2.2275    1.0000 </r>
       <r>   -2.1363    1.0000 </r>
       <r>   -1.9864    1.0000 </r>
       <r>   -1.6980    1.0000 </r>
       <r>   -0.4354    1.0000 </r>
       <r>   -0.3681    1.0000 </r>
       <r>    2.0699   -0.0000 </r>
       <r>    2.1298   -0.0000 </r>
       <r>    2.7641   -0.0000 </r>
       <r>    2.8860   -0.0000 </r>
       <r>    3.3989    0.0000 </r>
       <r>    3.5257    0.0000 </r>
       <r>    4.1645    0.0000 </r>
       <r>    4.4112    0.0000 </r>
       <r>    6.2922    0.0000 </r>
       <r>    6.9604    0.0000 </r>
       <r>    8.7595    0.0000 </r>
       <r>    8.8837    0.0000 </r>
      </set>
      <set comment="kpoint 26">
       <r>  -35.1151    1.0000 </r>
       <r>  -35.1104    1.0000 </r>
       <r>  -34.9146    1.0000 </r>
       <r>  -34.9098    1.0000 </r>
       <r>  -34.9003    1.0000 </r>
       <r>  -34.8954    1.0000 </r>
       <r>  -12.0377    1.0000 </r>
       <r>  -11.9912    1.0000 </r>
       <r>  -11.8821    1.0000 </r>
       <r>  -11.8354    1.0000 </r>
       <r>   -5.3462    1.0000 </r>
       <r>   -5.2858    1.0000 </r>
       <r>   -4.9420    1.0000 </r>
       <r>   -4.8927    1.0000 </r>
       <r>   -3.9752    1.0000 </r>
       <r>   -3.7820    1.0000 </r>
       <r>   -3.1858    1.0000 </r>
       <r>   -3.0880    1.0000 </r>
       <r>   -2.2350    1.0000 </r>
       <r>   -2.1324    1.0000 </r>
       <r>   -1.9832    1.0000 </r>
       <r>   -1.6960    1.0000 </r>
       <r>   -0.4355    1.0000 </r>
       <r>   -0.3683    1.0000 </r>
       <r>    2.0711   -0.0000 </r>
       <r>    2.1286   -0.0000 </r>
       <r>    2.7643   -0.0000 </r>
       <r>    2.8856   -0.0000 </r>
       <r>    3.3828    0.0000 </r>
       <r>    3.5434    0.0000 </r>
       <r>    4.1651    0.0000 </r>
       <r>    4.4107    0.0000 </r>
       <r>    6.2910    0.0000 </r>
       <r>    6.9605    0.0000 </r>
       <r>    8.7106    0.0000 </r>
       <r>    8.8476    0.0000 </r>
      </set>
      <set comment="kpoint 27">
       <r>  -35.0869    1.0000 </r>
       <r>  -35.0823    1.0000 </r>
       <r>  -34.9075    1.0000 </r>
       <r>  -34.9027    1.0000 </r>
       <r>  -34.8997    1.0000 </r>
       <r>  -34.8948    1.0000 </r>
       <r>  -12.2672    1.0000 </r>
       <r>  -12.2174    1.0000 </r>
       <r>  -11.9796    1.0000 </r>
       <r>  -11.9253    1.0000 </r>
       <r>   -5.2142    1.0000 </r>
       <r>   -5.1436    1.0000 </r>
       <r>   -4.6342    1.0000 </r>
       <r>   -4.5837    1.0000 </r>
       <r>   -3.8433    1.0000 </r>
       <r>   -3.6300    1.0000 </r>
       <r>   -3.2760    1.0000 </r>
       <r>   -3.1401    1.0000 </r>
       <r>   -2.2174    1.0000 </r>
       <r>   -2.1467    1.0000 </r>
       <r>   -1.7292    1.0000 </r>
       <r>   -1.4546    1.0000 </r>
       <r>   -0.6589    1.0000 </r>
       <r>   -0.6142    1.0000 </r>
       <r>    2.0196   -0.0000 </r>
       <r>    2.2320   -0.0000 </r>
       <r>    2.5169   -0.0000 </r>
       <r>    2.5726   -0.0000 </r>
       <r>    3.1219    0.0000 </r>
       <r>    3.3214    0.0000 </r>
       <r>    4.2286    0.0000 </r>
       <r>    4.4186    0.0000 </r>
       <r>    7.0232    0.0000 </r>
       <r>    7.5723    0.0000 </r>
       <r>    8.1991    0.0000 </r>
       <r>    8.4841    0.0000 </r>
      </set>
      <set comment="kpoint 28">
       <r>  -35.0362    1.0000 </r>
       <r>  -35.0317    1.0000 </r>
       <r>  -34.9201    1.0000 </r>
       <r>  -34.9152    1.0000 </r>
       <r>  -34.8738    1.0000 </r>
       <r>  -34.8689    1.0000 </r>
       <r>  -12.6400    1.0000 </r>
       <r>  -12.5864    1.0000 </r>
       <r>  -12.1368    1.0000 </r>
       <r>  -12.0723    1.0000 </r>
       <r>   -5.0137    1.0000 </r>
       <r>   -4.9066    1.0000 </r>
       <r>   -4.0919    1.0000 </r>
       <r>   -4.0307    1.0000 </r>
       <r>   -3.8164    1.0000 </r>
       <r>   -3.6108    1.0000 </r>
       <r>   -3.3056    1.0000 </r>
       <r>   -3.1409    1.0000 </r>
       <r>   -2.0652    1.0000 </r>
       <r>   -2.0391    1.0000 </r>
       <r>   -1.3958    1.0000 </r>
       <r>   -1.1207    1.0000 </r>
       <r>   -0.8296    1.0000 </r>
       <r>   -0.7857    1.0000 </r>
       <r>    1.7923   -0.0000 </r>
       <r>    2.0619   -0.0000 </r>
       <r>    2.3961   -0.0000 </r>
       <r>    2.4690   -0.0000 </r>
       <r>    2.7775   -0.0000 </r>
       <r>    2.9942   -0.0000 </r>
       <r>    4.1673    0.0000 </r>
       <r>    4.3063    0.0000 </r>
       <r>    7.4057    0.0000 </r>
       <r>    7.5941    0.0000 </r>
       <r>    8.0708    0.0000 </r>
       <r>    8.5095    0.0000 </r>
      </set>
      <set comment="kpoint 29">
       <r>  -34.9734    1.0000 </r>
       <r>  -34.9689    1.0000 </r>
       <r>  -34.9352    1.0000 </r>
       <r>  -34.9304    1.0000 </r>
       <r>  -34.8435    1.0000 </r>
       <r>  -34.8386    1.0000 </r>
       <r>  -13.0452    1.0000 </r>
       <r>  -12.9889    1.0000 </r>
       <r>  -12.3082    1.0000 </r>
       <r>  -12.2334    1.0000 </r>
       <r>   -4.9415    1.0000 </r>
       <r>   -4.7381    1.0000 </r>
       <r>   -3.8195    1.0000 </r>
       <r>   -3.7000    1.0000 </r>
       <r>   -3.5120    1.0000 </r>
       <r>   -3.3830    1.0000 </r>
       <r>   -3.0915    1.0000 </r>
       <r>   -2.9712    1.0000 </r>
       <r>   -1.9334    1.0000 </r>
       <r>   -1.9221    1.0000 </r>
       <r>   -1.1829    1.0000 </r>
       <r>   -0.8923    1.0000 </r>
       <r>   -0.7759    1.0000 </r>
       <r>   -0.6707    1.0000 </r>
       <r>    1.7602   -0.0000 </r>
       <r>    2.0102   -0.0000 </r>
       <r>    2.3248   -0.0000 </r>
       <r>    2.4283   -0.0000 </r>
       <r>    2.5200   -0.0000 </r>
       <r>    2.7322   -0.0000 </r>
       <r>    3.9230    0.0000 </r>
       <r>    4.0142    0.0000 </r>
       <r>    6.7315    0.0000 </r>
       <r>    7.0101    0.0000 </r>
       <r>    7.7494    0.0000 </r>
       <r>    8.6162    0.0000 </r>
      </set>
      <set comment="kpoint 30">
       <r>  -34.9451    1.0000 </r>
       <r>  -34.9434    1.0000 </r>
       <r>  -34.9405    1.0000 </r>
       <r>  -34.9382    1.0000 </r>
       <r>  -34.8206    1.0000 </r>
       <r>  -34.8160    1.0000 </r>
       <r>  -13.2490    1.0000 </r>
       <r>  -13.1934    1.0000 </r>
       <r>  -12.3947    1.0000 </r>
       <r>  -12.3173    1.0000 </r>
       <r>   -5.0527    1.0000 </r>
       <r>   -4.8090    1.0000 </r>
       <r>   -3.7192    1.0000 </r>
       <r>   -3.6533    1.0000 </r>
       <r>   -3.4765    1.0000 </r>
       <r>   -3.2883    1.0000 </r>
       <r>   -2.3830    1.0000 </r>
       <r>   -2.3697    1.0000 </r>
       <r>   -1.8924    1.0000 </r>
       <r>   -1.8801    1.0000 </r>
       <r>   -1.4471    1.0000 </r>
       <r>   -1.1028    1.0000 </r>
       <r>   -0.6809    1.0000 </r>
       <r>   -0.5555    1.0000 </r>
       <r>    1.9568   -0.0000 </r>
       <r>    2.2566   -0.0000 </r>
       <r>    2.3109   -0.0000 </r>
       <r>    2.3540   -0.0000 </r>
       <r>    2.7038   -0.0000 </r>
       <r>    2.9222   -0.0000 </r>
       <r>    3.5776    0.0000 </r>
       <r>    3.6273    0.0000 </r>
       <r>    6.3983    0.0000 </r>
       <r>    6.6899    0.0000 </r>
       <r>    7.4071    0.0000 </r>
       <r>    8.2072    0.0000 </r>
      </set>
      <set comment="kpoint 31">
       <r>  -34.9918    1.0000 </r>
       <r>  -34.9870    1.0000 </r>
       <r>  -34.9329    1.0000 </r>
       <r>  -34.9280    1.0000 </r>
       <r>  -34.8393    1.0000 </r>
       <r>  -34.8347    1.0000 </r>
       <r>  -12.9828    1.0000 </r>
       <r>  -12.9292    1.0000 </r>
       <r>  -12.2825    1.0000 </r>
       <r>  -12.2126    1.0000 </r>
       <r>   -4.9896    1.0000 </r>
       <r>   -4.8134    1.0000 </r>
       <r>   -3.8740    1.0000 </r>
       <r>   -3.7496    1.0000 </r>
       <r>   -3.7040    1.0000 </r>
       <r>   -3.5784    1.0000 </r>
       <r>   -2.8533    1.0000 </r>
       <r>   -2.7829    1.0000 </r>
       <r>   -1.7858    1.0000 </r>
       <r>   -1.7658    1.0000 </r>
       <r>   -1.3974    1.0000 </r>
       <r>   -1.1109    1.0000 </r>
       <r>   -0.8423    1.0000 </r>
       <r>   -0.7567    1.0000 </r>
       <r>    1.8556   -0.0000 </r>
       <r>    2.0865   -0.0000 </r>
       <r>    2.2819   -0.0000 </r>
       <r>    2.3957   -0.0000 </r>
       <r>    2.7518   -0.0000 </r>
       <r>    2.9742   -0.0000 </r>
       <r>    3.8739    0.0000 </r>
       <r>    3.9634    0.0000 </r>
       <r>    6.8146    0.0000 </r>
       <r>    7.0635    0.0000 </r>
       <r>    7.7759    0.0000 </r>
       <r>    8.2946    0.0000 </r>
      </set>
      <set comment="kpoint 32">
       <r>  -35.0364    1.0000 </r>
       <r>  -35.0316    1.0000 </r>
       <r>  -34.9201    1.0000 </r>
       <r>  -34.9152    1.0000 </r>
       <r>  -34.8736    1.0000 </r>
       <r>  -34.8690    1.0000 </r>
       <r>  -12.6383    1.0000 </r>
       <r>  -12.5877    1.0000 </r>
       <r>  -12.1350    1.0000 </r>
       <r>  -12.0745    1.0000 </r>
       <r>   -5.0144    1.0000 </r>
       <r>   -4.9069    1.0000 </r>
       <r>   -4.0906    1.0000 </r>
       <r>   -4.0391    1.0000 </r>
       <r>   -3.7949    1.0000 </r>
       <r>   -3.6195    1.0000 </r>
       <r>   -3.3059    1.0000 </r>
       <r>   -3.1445    1.0000 </r>
       <r>   -2.0687    1.0000 </r>
       <r>   -2.0353    1.0000 </r>
       <r>   -1.3826    1.0000 </r>
       <r>   -1.1366    1.0000 </r>
       <r>   -0.8336    1.0000 </r>
       <r>   -0.7858    1.0000 </r>
       <r>    1.7913   -0.0000 </r>
       <r>    2.0622   -0.0000 </r>
       <r>    2.3977   -0.0000 </r>
       <r>    2.4691   -0.0000 </r>
       <r>    2.7800   -0.0000 </r>
       <r>    2.9934   -0.0000 </r>
       <r>    4.1679    0.0000 </r>
       <r>    4.3058    0.0000 </r>
       <r>    7.4064    0.0000 </r>
       <r>    7.5934    0.0000 </r>
       <r>    8.0936    0.0000 </r>
       <r>    8.6213    0.0000 </r>
      </set>
      <set comment="kpoint 33">
       <r>  -35.0689    1.0000 </r>
       <r>  -35.0641    1.0000 </r>
       <r>  -34.9152    1.0000 </r>
       <r>  -34.9106    1.0000 </r>
       <r>  -34.9079    1.0000 </r>
       <r>  -34.9031    1.0000 </r>
       <r>  -12.2853    1.0000 </r>
       <r>  -12.2386    1.0000 </r>
       <r>  -11.9807    1.0000 </r>
       <r>  -11.9295    1.0000 </r>
       <r>   -5.0679    1.0000 </r>
       <r>   -4.9919    1.0000 </r>
       <r>   -4.6131    1.0000 </r>
       <r>   -4.5846    1.0000 </r>
       <r>   -3.6954    1.0000 </r>
       <r>   -3.4837    1.0000 </r>
       <r>   -3.3369    1.0000 </r>
       <r>   -3.1665    1.0000 </r>
       <r>   -2.5997    1.0000 </r>
       <r>   -2.5603    1.0000 </r>
       <r>   -1.6087    1.0000 </r>
       <r>   -1.3681    1.0000 </r>
       <r>   -0.6824    1.0000 </r>
       <r>   -0.6508    1.0000 </r>
       <r>    1.9624   -0.0000 </r>
       <r>    2.2436   -0.0000 </r>
       <r>    2.5351   -0.0000 </r>
       <r>    2.5643   -0.0000 </r>
       <r>    2.9133   -0.0000 </r>
       <r>    3.1004    0.0000 </r>
       <r>    4.3411    0.0000 </r>
       <r>    4.5174    0.0000 </r>
       <r>    7.4876    0.0000 </r>
       <r>    7.8900    0.0000 </r>
       <r>    8.1851    0.0000 </r>
       <r>    8.5479    0.0000 </r>
      </set>
      <set comment="kpoint 34">
       <r>  -35.0857    1.0000 </r>
       <r>  -35.0809    1.0000 </r>
       <r>  -34.9508    1.0000 </r>
       <r>  -34.9461    1.0000 </r>
       <r>  -34.8994    1.0000 </r>
       <r>  -34.8945    1.0000 </r>
       <r>  -12.0154    1.0000 </r>
       <r>  -11.9715    1.0000 </r>
       <r>  -11.8590    1.0000 </r>
       <r>  -11.8151    1.0000 </r>
       <r>   -5.0614    1.0000 </r>
       <r>   -5.0184    1.0000 </r>
       <r>   -5.0050    1.0000 </r>
       <r>   -4.9738    1.0000 </r>
       <r>   -3.7710    1.0000 </r>
       <r>   -3.5769    1.0000 </r>
       <r>   -3.1889    1.0000 </r>
       <r>   -3.0487    1.0000 </r>
       <r>   -2.9596    1.0000 </r>
       <r>   -2.8801    1.0000 </r>
       <r>   -1.9480    1.0000 </r>
       <r>   -1.6880    1.0000 </r>
       <r>   -0.4137    1.0000 </r>
       <r>   -0.3822    1.0000 </r>
       <r>    1.9560   -0.0000 </r>
       <r>    2.0400   -0.0000 </r>
       <r>    2.8377   -0.0000 </r>
       <r>    2.9855   -0.0000 </r>
       <r>    3.0610    0.0000 </r>
       <r>    3.2166    0.0000 </r>
       <r>    4.4443    0.0000 </r>
       <r>    4.6437    0.0000 </r>
       <r>    6.8547    0.0000 </r>
       <r>    7.4700    0.0000 </r>
       <r>    8.2640    0.0000 </r>
       <r>    8.7155    0.0000 </r>
      </set>
      <set comment="kpoint 35">
       <r>  -35.0900    1.0000 </r>
       <r>  -35.0853    1.0000 </r>
       <r>  -34.9653    1.0000 </r>
       <r>  -34.9606    1.0000 </r>
       <r>  -34.8963    1.0000 </r>
       <r>  -34.8914    1.0000 </r>
       <r>  -11.9150    1.0000 </r>
       <r>  -11.8706    1.0000 </r>
       <r>  -11.8114    1.0000 </r>
       <r>  -11.7699    1.0000 </r>
       <r>   -5.1918    1.0000 </r>
       <r>   -5.1585    1.0000 </r>
       <r>   -4.9847    1.0000 </r>
       <r>   -4.9330    1.0000 </r>
       <r>   -3.9226    1.0000 </r>
       <r>   -3.7506    1.0000 </r>
       <r>   -3.0790    1.0000 </r>
       <r>   -3.0338    1.0000 </r>
       <r>   -2.9530    1.0000 </r>
       <r>   -2.9066    1.0000 </r>
       <r>   -2.1339    1.0000 </r>
       <r>   -1.8575    1.0000 </r>
       <r>   -0.2441    1.0000 </r>
       <r>   -0.2018    1.0000 </r>
       <r>    1.8407   -0.0000 </r>
       <r>    1.8619   -0.0000 </r>
       <r>    3.0201    0.0000 </r>
       <r>    3.1071    0.0000 </r>
       <r>    3.2264    0.0000 </r>
       <r>    3.3054    0.0000 </r>
       <r>    4.4833    0.0000 </r>
       <r>    4.6905    0.0000 </r>
       <r>    6.5056    0.0000 </r>
       <r>    7.1830    0.0000 </r>
       <r>    8.1477    0.0000 </r>
       <r>    8.7211    0.0000 </r>
      </set>
      <set comment="kpoint 36">
       <r>  -35.0856    1.0000 </r>
       <r>  -35.0810    1.0000 </r>
       <r>  -34.9509    1.0000 </r>
       <r>  -34.9461    1.0000 </r>
       <r>  -34.8994    1.0000 </r>
       <r>  -34.8945    1.0000 </r>
       <r>  -12.0172    1.0000 </r>
       <r>  -11.9705    1.0000 </r>
       <r>  -11.8600    1.0000 </r>
       <r>  -11.8133    1.0000 </r>
       <r>   -5.0613    1.0000 </r>
       <r>   -5.0164    1.0000 </r>
       <r>   -5.0068    1.0000 </r>
       <r>   -4.9730    1.0000 </r>
       <r>   -3.7724    1.0000 </r>
       <r>   -3.5783    1.0000 </r>
       <r>   -3.1913    1.0000 </r>
       <r>   -3.0474    1.0000 </r>
       <r>   -2.9670    1.0000 </r>
       <r>   -2.8727    1.0000 </r>
       <r>   -1.9423    1.0000 </r>
       <r>   -1.6890    1.0000 </r>
       <r>   -0.4136    1.0000 </r>
       <r>   -0.3830    1.0000 </r>
       <r>    1.9571   -0.0000 </r>
       <r>    2.0395   -0.0000 </r>
       <r>    2.8333   -0.0000 </r>
       <r>    2.9925   -0.0000 </r>
       <r>    3.0466    0.0000 </r>
       <r>    3.2319    0.0000 </r>
       <r>    4.4424    0.0000 </r>
       <r>    4.6475    0.0000 </r>
       <r>    6.8430    0.0000 </r>
       <r>    7.4542    0.0000 </r>
       <r>    8.2407    0.0000 </r>
       <r>    8.6702    0.0000 </r>
      </set>
      <set comment="kpoint 37">
       <r>  -35.0687    1.0000 </r>
       <r>  -35.0642    1.0000 </r>
       <r>  -34.9154    1.0000 </r>
       <r>  -34.9106    1.0000 </r>
       <r>  -34.9079    1.0000 </r>
       <r>  -34.9030    1.0000 </r>
       <r>  -12.2874    1.0000 </r>
       <r>  -12.2372    1.0000 </r>
       <r>  -11.9824    1.0000 </r>
       <r>  -11.9271    1.0000 </r>
       <r>   -5.0679    1.0000 </r>
       <r>   -4.9911    1.0000 </r>
       <r>   -4.6132    1.0000 </r>
       <r>   -4.5827    1.0000 </r>
       <r>   -3.7090    1.0000 </r>
       <r>   -3.4792    1.0000 </r>
       <r>   -3.3368    1.0000 </r>
       <r>   -3.1623    1.0000 </r>
       <r>   -2.5943    1.0000 </r>
       <r>   -2.5653    1.0000 </r>
       <r>   -1.6100    1.0000 </r>
       <r>   -1.3616    1.0000 </r>
       <r>   -0.6777    1.0000 </r>
       <r>   -0.6563    1.0000 </r>
       <r>    1.9647   -0.0000 </r>
       <r>    2.2422   -0.0000 </r>
       <r>    2.5343   -0.0000 </r>
       <r>    2.5654   -0.0000 </r>
       <r>    2.9056   -0.0000 </r>
       <r>    3.1108    0.0000 </r>
       <r>    4.3356    0.0000 </r>
       <r>    4.5220    0.0000 </r>
       <r>    7.4681    0.0000 </r>
       <r>    7.8921    0.0000 </r>
       <r>    8.1800    0.0000 </r>
       <r>    8.3925    0.0000 </r>
      </set>
      <set comment="kpoint 38">
       <r>  -35.0302    1.0000 </r>
       <r>  -35.0253    1.0000 </r>
       <r>  -34.9264    1.0000 </r>
       <r>  -34.9215    1.0000 </r>
       <r>  -34.8405    1.0000 </r>
       <r>  -34.8360    1.0000 </r>
       <r>  -12.8086    1.0000 </r>
       <r>  -12.7571    1.0000 </r>
       <r>  -12.2120    1.0000 </r>
       <r>  -12.1480    1.0000 </r>
       <r>   -5.1029    1.0000 </r>
       <r>   -4.9805    1.0000 </r>
       <r>   -4.0516    1.0000 </r>
       <r>   -3.9181    1.0000 </r>
       <r>   -3.8534    1.0000 </r>
       <r>   -3.7211    1.0000 </r>
       <r>   -2.7389    1.0000 </r>
       <r>   -2.7244    1.0000 </r>
       <r>   -1.7204    1.0000 </r>
       <r>   -1.5002    1.0000 </r>
       <r>   -1.4806    1.0000 </r>
       <r>   -1.3997    1.0000 </r>
       <r>   -0.9727    1.0000 </r>
[...]
       <r>    -2.1535     1.9818    18.5407 </r>
       <r>    -1.9912     3.7885    19.1552 </r>
       <r>    -1.8290     3.1583    19.6675 </r>
       <r>    -1.6668     3.3323    20.2080 </r>
       <r>    -1.5046     2.6765    20.6421 </r>
       <r>    -1.3424     3.5976    21.2257 </r>
       <r>    -1.1802     1.3905    21.4512 </r>
       <r>    -1.0180     1.9655    21.7700 </r>
       <r>    -0.8558     2.2327    22.1322 </r>
       <r>    -0.6936     3.5457    22.7073 </r>
       <r>    -0.5314     2.7451    23.1525 </r>
       <r>    -0.3692     2.3410    23.5323 </r>
       <r>    -0.2070     1.5544    23.7844 </r>
       <r>    -0.0448     0.8669    23.9250 </r>
       <r>     0.1174     0.2359    23.9633 </r>
       <r>     0.2796     0.2244    23.9997 </r>
       <r>     0.4418     0.0025    24.0001 </r>
       <r>     0.6040    -0.0005    24.0000 </r>
       <r>     0.7662    -0.0000    24.0000 </r>
       <r>     0.9284    -0.0000    24.0000 </r>
       <r>     1.0906    -0.0000    24.0000 </r>
       <r>     1.2528    -0.0000    24.0000 </r>
       <r>     1.4150    -0.0001    24.0000 </r>
       <r>     1.5772    -0.0202    23.9967 </r>
       <r>     1.7394     0.4513    24.0699 </r>
       <r>     1.9016     1.5339    24.3187 </r>
       <r>     2.0638     3.4987    24.8862 </r>
       <r>     2.2260     5.1258    25.7176 </r>
       <r>     2.3882     3.6709    26.3131 </r>
       <r>     2.5504     5.1748    27.1524 </r>
       <r>     2.7126     4.4527    27.8746 </r>
       <r>     2.8748     3.2358    28.3995 </r>
       <r>     3.0370     2.6971    28.8370 </r>
       <r>     3.1992     2.7995    29.2910 </r>
       <r>     3.3614     2.0732    29.6273 </r>
       <r>     3.5236     1.7154    29.9056 </r>
       <r>     3.6858     1.8805    30.2106 </r>
       <r>     3.8480     1.0325    30.3780 </r>
       <r>     4.0102     2.1177    30.7215 </r>
       <r>     4.1724     2.6175    31.1461 </r>
       <r>     4.3346     2.2610    31.5128 </r>
       <r>     4.4968     1.5933    31.7713 </r>
       <r>     4.6590     0.8114    31.9029 </r>
       <r>     4.8212     0.5195    31.9871 </r>
       <r>     4.9834     0.0834    32.0007 </r>
       <r>     5.1456    -0.0042    32.0000 </r>
       <r>     5.3078     0.0000    32.0000 </r>
       <r>     5.4700     0.0806    32.0131 </r>
       <r>     5.6322     0.1748    32.0414 </r>
       <r>     5.7944     0.2496    32.0819 </r>
       <r>     5.9566     0.5738    32.1750 </r>
       <r>     6.1188     0.4682    32.2509 </r>
       <r>     6.2810     0.8391    32.3870 </r>
       <r>     6.4432     0.8477    32.5245 </r>
       <r>     6.6054     1.2858    32.7331 </r>
       <r>     6.7676     0.7443    32.8538 </r>
       <r>     6.9298     1.6210    33.1168 </r>
       <r>     7.0920     2.2322    33.4788 </r>
       <r>     7.2542     0.9785    33.6375 </r>
       <r>     7.4164     1.4878    33.8788 </r>
       <r>     7.5786     1.8020    34.1711 </r>
       <r>     7.7408     1.6375    34.4367 </r>
       <r>     7.9030     1.2283    34.6360 </r>
       <r>     8.0653     0.9322    34.7872 </r>
       <r>     8.2275     2.7995    35.2413 </r>
       <r>     8.3897     1.6962    35.5164 </r>
       <r>     8.5519     0.8473    35.6538 </r>
       <r>     8.7141     1.1218    35.8358 </r>
       <r>     8.8763     0.8468    35.9731 </r>
       <r>     9.0385     0.1741    36.0014 </r>
       <r>     9.2007    -0.0084    36.0000 </r>
       <r>     9.3629    -0.0000    36.0000 </r>
       <r>     9.5251    -0.0000    36.0000 </r>
       <r>     9.6873     0.0000    36.0000 </r>
       <r>     9.8495     0.0000    36.0000 </r>
       <r>    10.0117     0.0000    36.0000 </r>
       <r>    10.1739     0.0000    36.0000 </r>
       <r>    10.3361     0.0000    36.0000 </r>
       <r>    10.4983     0.0000    36.0000 </r>
       <r>    10.6605     0.0000    36.0000 </r>
       <r>    10.8227     0.0000    36.0000 </r>
       <r>    10.9849     0.0000    36.0000 </r>
       <r>    11.1471     0.0000    36.0000 </r>
       <r>    11.3093     0.0000    36.0000 </r>
      </set>
      <set comment="spin 2">
       <r>   -37.3512     0.0000     0.0000 </r>
       <r>   -37.1890     0.0000     0.0000 </r>
       <r>   -37.0268     0.0000     0.0000 </r>
       <r>   -36.8646     0.0000     0.0000 </r>
       <r>   -36.7024     0.0000     0.0000 </r>
       <r>   -36.5402     0.0000     0.0000 </r>
       <r>   -36.3780     0.0000     0.0000 </r>
       <r>   -36.2158     0.0000     0.0000 </r>
       <r>   -36.0536    -0.0000    -0.0000 </r>
       <r>   -35.8914    -0.0000    -0.0000 </r>
       <r>   -35.7292    -0.0000    -0.0000 </r>
       <r>   -35.5670    -0.0000    -0.0000 </r>
       <r>   -35.4048    -0.0008    -0.0001 </r>
       <r>   -35.2426    -0.1901    -0.0310 </r>
       <r>   -35.0804     4.1987     0.6501 </r>
       <r>   -34.9182    15.3942     3.1470 </r>
       <r>   -34.7560    17.6248     6.0058 </r>
       <r>   -34.5938    -0.0107     6.0041 </r>
       <r>   -34.4316    -0.0251     6.0000 </r>
       <r>   -34.2694    -0.0000     6.0000 </r>
       <r>   -34.1072    -0.0000     6.0000 </r>
       <r>   -33.9450     0.0000     6.0000 </r>
       <r>   -33.7828     0.0000     6.0000 </r>
       <r>   -33.6206     0.0000     6.0000 </r>
       <r>   -33.4584     0.0000     6.0000 </r>
       <r>   -33.2962     0.0000     6.0000 </r>
       <r>   -33.1340     0.0000     6.0000 </r>
       <r>   -32.9718     0.0000     6.0000 </r>
       <r>   -32.8096     0.0000     6.0000 </r>
       <r>   -32.6474     0.0000     6.0000 </r>
       <r>   -32.4852     0.0000     6.0000 </r>
       <r>   -32.3229     0.0000     6.0000 </r>
       <r>   -32.1607     0.0000     6.0000 </r>
       <r>   -31.9985     0.0000     6.0000 </r>
       <r>   -31.8363     0.0000     6.0000 </r>
       <r>   -31.6741     0.0000     6.0000 </r>
       <r>   -31.5119     0.0000     6.0000 </r>
       <r>   -31.3497     0.0000     6.0000 </r>
       <r>   -31.1875     0.0000     6.0000 </r>
       <r>   -31.0253     0.0000     6.0000 </r>
       <r>   -30.8631     0.0000     6.0000 </r>
       <r>   -30.7009     0.0000     6.0000 </r>
       <r>   -30.5387     0.0000     6.0000 </r>
       <r>   -30.3765     0.0000     6.0000 </r>
       <r>   -30.2143     0.0000     6.0000 </r>
       <r>   -30.0521     0.0000     6.0000 </r>
       <r>   -29.8899     0.0000     6.0000 </r>
       <r>   -29.7277     0.0000     6.0000 </r>
       <r>   -29.5655     0.0000     6.0000 </r>
       <r>   -29.4033     0.0000     6.0000 </r>
       <r>   -29.2411     0.0000     6.0000 </r>
       <r>   -29.0789     0.0000     6.0000 </r>
       <r>   -28.9167     0.0000     6.0000 </r>
       <r>   -28.7545     0.0000     6.0000 </r>
       <r>   -28.5923     0.0000     6.0000 </r>
       <r>   -28.4301     0.0000     6.0000 </r>
       <r>   -28.2679     0.0000     6.0000 </r>
       <r>   -28.1057     0.0000     6.0000 </r>
       <r>   -27.9435     0.0000     6.0000 </r>
       <r>   -27.7813     0.0000     6.0000 </r>
       <r>   -27.6191     0.0000     6.0000 </r>
       <r>   -27.4569     0.0000     6.0000 </r>
       <r>   -27.2947     0.0000     6.0000 </r>
       <r>   -27.1325     0.0000     6.0000 </r>
       <r>   -26.9703     0.0000     6.0000 </r>
       <r>   -26.8081     0.0000     6.0000 </r>
       <r>   -26.6459     0.0000     6.0000 </r>
       <r>   -26.4837     0.0000     6.0000 </r>
       <r>   -26.3215     0.0000     6.0000 </r>
       <r>   -26.1593     0.0000     6.0000 </r>
       <r>   -25.9971     0.0000     6.0000 </r>
       <r>   -25.8349     0.0000     6.0000 </r>
       <r>   -25.6727     0.0000     6.0000 </r>
       <r>   -25.5105     0.0000     6.0000 </r>
       <r>   -25.3483     0.0000     6.0000 </r>
       <r>   -25.1861     0.0000     6.0000 </r>
       <r>   -25.0239     0.0000     6.0000 </r>
       <r>   -24.8617     0.0000     6.0000 </r>
       <r>   -24.6995     0.0000     6.0000 </r>
       <r>   -24.5373     0.0000     6.0000 </r>
       <r>   -24.3751     0.0000     6.0000 </r>
       <r>   -24.2129     0.0000     6.0000 </r>
       <r>   -24.0507     0.0000     6.0000 </r>
       <r>   -23.8885     0.0000     6.0000 </r>
       <r>   -23.7263     0.0000     6.0000 </r>
       <r>   -23.5641     0.0000     6.0000 </r>
       <r>   -23.4019     0.0000     6.0000 </r>
       <r>   -23.2397     0.0000     6.0000 </r>
       <r>   -23.0775     0.0000     6.0000 </r>
       <r>   -22.9153     0.0000     6.0000 </r>
       <r>   -22.7531     0.0000     6.0000 </r>
       <r>   -22.5909     0.0000     6.0000 </r>
       <r>   -22.4287     0.0000     6.0000 </r>
       <r>   -22.2664     0.0000     6.0000 </r>
       <r>   -22.1042     0.0000     6.0000 </r>
       <r>   -21.9420     0.0000     6.0000 </r>
       <r>   -21.7798     0.0000     6.0000 </r>
       <r>   -21.6176     0.0000     6.0000 </r>
       <r>   -21.4554     0.0000     6.0000 </r>
       <r>   -21.2932     0.0000     6.0000 </r>
       <r>   -21.1310     0.0000     6.0000 </r>
       <r>   -20.9688     0.0000     6.0000 </r>
       <r>   -20.8066     0.0000     6.0000 </r>
       <r>   -20.6444     0.0000     6.0000 </r>
       <r>   -20.4822     0.0000     6.0000 </r>
       <r>   -20.3200     0.0000     6.0000 </r>
       <r>   -20.1578     0.0000     6.0000 </r>
       <r>   -19.9956     0.0000     6.0000 </r>
       <r>   -19.8334     0.0000     6.0000 </r>
       <r>   -19.6712     0.0000     6.0000 </r>
       <r>   -19.5090     0.0000     6.0000 </r>
       <r>   -19.3468     0.0000     6.0000 </r>
       <r>   -19.1846     0.0000     6.0000 </r>
       <r>   -19.0224     0.0000     6.0000 </r>
       <r>   -18.8602     0.0000     6.0000 </r>
       <r>   -18.6980     0.0000     6.0000 </r>
       <r>   -18.5358     0.0000     6.0000 </r>
       <r>   -18.3736     0.0000     6.0000 </r>
       <r>   -18.2114     0.0000     6.0000 </r>
       <r>   -18.0492     0.0000     6.0000 </r>
       <r>   -17.8870     0.0000     6.0000 </r>
       <r>   -17.7248     0.0000     6.0000 </r>
       <r>   -17.5626     0.0000     6.0000 </r>
       <r>   -17.4004     0.0000     6.0000 </r>
       <r>   -17.2382     0.0000     6.0000 </r>
       <r>   -17.0760     0.0000     6.0000 </r>
       <r>   -16.9138     0.0000     6.0000 </r>
       <r>   -16.7516     0.0000     6.0000 </r>
       <r>   -16.5894     0.0000     6.0000 </r>
       <r>   -16.4272     0.0000     6.0000 </r>
       <r>   -16.2650     0.0000     6.0000 </r>
       <r>   -16.1028     0.0000     6.0000 </r>
       <r>   -15.9406     0.0000     6.0000 </r>
       <r>   -15.7784     0.0000     6.0000 </r>
       <r>   -15.6162     0.0000     6.0000 </r>
       <r>   -15.4540     0.0000     6.0000 </r>
       <r>   -15.2918     0.0000     6.0000 </r>
       <r>   -15.1296     0.0000     6.0000 </r>
       <r>   -14.9674     0.0000     6.0000 </r>
       <r>   -14.8052    -0.0000     6.0000 </r>
       <r>   -14.6430    -0.0000     6.0000 </r>
       <r>   -14.4808    -0.0000     6.0000 </r>
       <r>   -14.3186    -0.0000     6.0000 </r>
       <r>   -14.1564    -0.0004     5.9999 </r>
       <r>   -13.9942    -0.0029     5.9995 </r>
       <r>   -13.8320     0.3213     6.0516 </r>
       <r>   -13.6698     0.4699     6.1278 </r>
       <r>   -13.5076     0.5737     6.2209 </r>
       <r>   -13.3454     0.5764     6.3144 </r>
       <r>   -13.1832     0.6603     6.4215 </r>
       <r>   -13.0210     0.3959     6.4857 </r>
       <r>   -12.8588     1.0465     6.6554 </r>
       <r>   -12.6966     0.4464     6.7278 </r>
       <r>   -12.5344     2.0258     7.0564 </r>
       <r>   -12.3722     2.1172     7.3998 </r>
       <r>   -12.2100     3.1631     7.9129 </r>
       <r>   -12.0477     3.9911     8.5602 </r>
       <r>   -11.8855     5.6969     9.4843 </r>
       <r>   -11.7233     3.1541     9.9959 </r>
       <r>   -11.5611     0.0314    10.0010 </r>
       <r>   -11.3989    -0.0059    10.0000 </r>
       <r>   -11.2367    -0.0000    10.0000 </r>
       <r>   -11.0745    -0.0000    10.0000 </r>
       <r>   -10.9123     0.0000    10.0000 </r>
       <r>   -10.7501     0.0000    10.0000 </r>
       <r>   -10.5879     0.0000    10.0000 </r>
       <r>   -10.4257     0.0000    10.0000 </r>
       <r>   -10.2635     0.0000    10.0000 </r>
       <r>   -10.1013     0.0000    10.0000 </r>
       <r>    -9.9391     0.0000    10.0000 </r>
       <r>    -9.7769     0.0000    10.0000 </r>
       <r>    -9.6147     0.0000    10.0000 </r>
       <r>    -9.4525     0.0000    10.0000 </r>
       <r>    -9.2903     0.0000    10.0000 </r>
       <r>    -9.1281     0.0000    10.0000 </r>
       <r>    -8.9659     0.0000    10.0000 </r>
       <r>    -8.8037     0.0000    10.0000 </r>
       <r>    -8.6415     0.0000    10.0000 </r>
       <r>    -8.4793     0.0000    10.0000 </r>
       <r>    -8.3171     0.0000    10.0000 </r>
       <r>    -8.1549     0.0000    10.0000 </r>
       <r>    -7.9927     0.0000    10.0000 </r>
       <r>    -7.8305     0.0000    10.0000 </r>
       <r>    -7.6683     0.0000    10.0000 </r>
       <r>    -7.5061     0.0000    10.0000 </r>
       <r>    -7.3439     0.0000    10.0000 </r>
       <r>    -7.1817     0.0000    10.0000 </r>
       <r>    -7.0195     0.0000    10.0000 </r>
       <r>    -6.8573     0.0000    10.0000 </r>
       <r>    -6.6951     0.0000    10.0000 </r>
       <r>    -6.5329    -0.0000    10.0000 </r>
       <r>    -6.3707    -0.0000    10.0000 </r>
       <r>    -6.2085    -0.0000    10.0000 </r>
       <r>    -6.0463    -0.0000    10.0000 </r>
       <r>    -5.8841    -0.0011     9.9998 </r>
       <r>    -5.7219    -0.0049     9.9990 </r>
       <r>    -5.5597     0.8644    10.1392 </r>
       <r>    -5.3975     1.3679    10.3611 </r>
       <r>    -5.2353     2.3186    10.7372 </r>
       <r>    -5.0731     3.1737    11.2520 </r>
       <r>    -4.9109     4.7626    12.0245 </r>
       <r>    -4.7487     2.2490    12.3892 </r>
       <r>    -4.5865     2.6101    12.8126 </r>
       <r>    -4.4243     0.9023    12.9589 </r>
       <r>    -4.2621     0.5266    13.0444 </r>
       <r>    -4.0999     0.8762    13.1865 </r>
       <r>    -3.9377     2.3482    13.5674 </r>
       <r>    -3.7755     4.3833    14.2784 </r>
       <r>    -3.6133     4.0509    14.9354 </r>
       <r>    -3.4511     2.5805    15.3540 </r>
       <r>    -3.2889     1.2638    15.5590 </r>
       <r>    -3.1267     4.3185    16.2594 </r>
       <r>    -2.9645     4.9396    17.0606 </r>
       <r>    -2.8023     2.6643    17.4928 </r>
       <r>    -2.6401     1.4024    17.7203 </r>
       <r>    -2.4779     1.2248    17.9189 </r>
       <r>    -2.3157     1.8534    18.2196 </r>
       <r>    -2.1535     1.9862    18.5417 </r>
       <r>    -1.9912     3.7910    19.1566 </r>
       <r>    -1.8290     3.1522    19.6679 </r>
       <r>    -1.6668     3.3400    20.2097 </r>
       <r>    -1.5046     2.6720    20.6431 </r>
       <r>    -1.3424     3.5963    21.2264 </r>
       <r>    -1.1802     1.3897    21.4518 </r>
       <r>    -1.0180     1.9666    21.7708 </r>
       <r>    -0.8558     2.2399    22.1341 </r>
       <r>    -0.6936     3.5372    22.7078 </r>
       <r>    -0.5314     2.7449    23.1531 </r>
       <r>    -0.3692     2.3415    23.5329 </r>
       <r>    -0.2070     1.5526    23.7847 </r>
       <r>    -0.0448     0.8648    23.9250 </r>
       <r>     0.1174     0.2359    23.9633 </r>
       <r>     0.2796     0.2244    23.9997 </r>
       <r>     0.4418     0.0025    24.0001 </r>
       <r>     0.6040    -0.0005    24.0000 </r>
       <r>     0.7662    -0.0000    24.0000 </r>
       <r>     0.9284    -0.0000    24.0000 </r>
       <r>     1.0906    -0.0000    24.0000 </r>
       <r>     1.2528    -0.0000    24.0000 </r>
       <r>     1.4150    -0.0001    24.0000 </r>
       <r>     1.5772    -0.0202    23.9967 </r>
       <r>     1.7394     0.4516    24.0700 </r>
       <r>     1.9016     1.5334    24.3187 </r>
       <r>     2.0638     3.5069    24.8875 </r>
       <r>     2.2260     5.1256    25.7189 </r>
       <r>     2.3882     3.6734    26.3147 </r>
       <r>     2.5504     5.1711    27.1535 </r>
       <r>     2.7126     4.4494    27.8752 </r>
       <r>     2.8748     3.2350    28.3999 </r>
       <r>     3.0370     2.6979    28.8375 </r>
       <r>     3.1992     2.7993    29.2916 </r>
       <r>     3.3614     2.0718    29.6276 </r>
       <r>     3.5236     1.7151    29.9058 </r>
       <r>     3.6858     1.8793    30.2106 </r>
       <r>     3.8480     1.0328    30.3782 </r>
       <r>     4.0102     2.1184    30.7218 </r>
       <r>     4.1724     2.6179    31.1464 </r>
       <r>     4.3346     2.2603    31.5130 </r>
       <r>     4.4968     1.5927    31.7713 </r>
       <r>     4.6590     0.8119    31.9030 </r>
       <r>     4.8212     0.5187    31.9872 </r>
       <r>     4.9834     0.0833    32.0007 </r>
       <r>     5.1456    -0.0042    32.0000 </r>
       <r>     5.3078    -0.0006    31.9999 </r>
       <r>     5.4700     0.0723    32.0116 </r>
       <r>     5.6322     0.1819    32.0411 </r>
       <r>     5.7944     0.2038    32.0742 </r>
       <r>     5.9566     0.5639    32.1657 </r>
       <r>     6.1188     0.3945    32.2296 </r>
       <r>     6.2810     0.8771    32.3719 </r>
       <r>     6.4432     1.0611    32.5440 </r>
       <r>     6.6054     1.0315    32.7113 </r>
       <r>     6.7676     0.9338    32.8628 </r>
       <r>     6.9298     1.8339    33.1603 </r>
       <r>     7.0920     1.6502    33.4279 </r>
       <r>     7.2542     1.3771    33.6513 </r>
       <r>     7.4164     1.3711    33.8737 </r>
       <r>     7.5786     1.6306    34.1382 </r>
       <r>     7.7408     2.4105    34.5292 </r>
       <r>     7.9030     0.5816    34.6235 </r>
       <r>     8.0653     0.9714    34.7811 </r>
       <r>     8.2275     2.5140    35.1888 </r>
       <r>     8.3897     2.3166    35.5646 </r>
       <r>     8.5519     0.9180    35.7135 </r>
       <r>     8.7141     0.3768    35.7746 </r>
       <r>     8.8763     0.8865    35.9184 </r>
       <r>     9.0385     0.2899    35.9654 </r>
       <r>     9.2007     0.2214    36.0013 </r>
       <r>     9.3629    -0.0082    36.0000 </r>
       <r>     9.5251    -0.0001    36.0000 </r>
       <r>     9.6873    -0.0000    36.0000 </r>
       <r>     9.8495    -0.0000    36.0000 </r>
       <r>    10.0117     0.0000    36.0000 </r>
       <r>    10.1739     0.0000    36.0000 </r>
       <r>    10.3361     0.0000    36.0000 </r>
       <r>    10.4983     0.0000    36.0000 </r>
       <r>    10.6605     0.0000    36.0000 </r>
       <r>    10.8227     0.0000    36.0000 </r>
       <r>    10.9849     0.0000    36.0000 </r>
       <r>    11.1471     0.0000    36.0000 </r>
       <r>    11.3093     0.0000    36.0000 </r>
      </set>
     </set>
    </array>
   </total>
  </dos>
 </calculation>
 <structure name="finalpos" >
  <crystal>
   <varray name="basis" >
    <v>       3.19031700       0.00000000       0.00000000 </v>
    <v>      -1.59515800       2.76289700       0.00000000 </v>
    <v>       0.00000000       0.00000000      23.14049200 </v>
   </varray>
   <i name="volume">    203.97226633 </i>
   <varray name="rec_basis" >
    <v>       0.31344848       0.18096941       0.00000000 </v>
    <v>       0.00000000       0.36193894       0.00000000 </v>
    <v>       0.00000000       0.00000000       0.04321429 </v>
   </varray>
  </crystal>
  <varray name="positions" >
   <v>       0.66666700       0.33333300       0.06785900 </v>
   <v>       0.33333300       0.66666700       0.00000000 </v>
   <v>       0.33333300       0.66666700       0.13571500 </v>
   <v>       0.80952414       0.61904729       0.35482300 </v>
   <v>       0.47619014       0.95238129       0.28696500 </v>
   <v>       0.47619014       0.95238129       0.42267900 </v>
  </varray>
 </structure>
</modeling>
