  24  24   0   0
  0.4176334E+02  0.3540400E-09  0.1044544E-08  0.2750143E-08  0.5000000E-15
  1.000000000000000E-004
  CAR 
 unknown system                          
      4.31855607    -14.52922996  301      0.10970802      1.00000000
    -14.529  0.0000E+00  0.0000E+00
    -14.466  0.0000E+00  0.0000E+00
    -14.404  0.0000E+00  0.0000E+00
    -14.341  0.0000E+00  0.0000E+00
    -14.278  0.0000E+00  0.0000E+00
    -14.215  0.0000E+00  0.0000E+00
    -14.152  0.0000E+00  0.0000E+00
    -14.089  0.7137E-15  0.4484E-16
    -14.027  0.6205E-12  0.3903E-13
    -13.964  0.2492E-09  0.1570E-10
    -13.901  0.4676E-07  0.2954E-08
    -13.838  0.4160E-05  0.2643E-06
    -13.775  0.1796E-03  0.1155E-04
    -13.712  0.3904E-02  0.2568E-03
    -13.650  0.4487E-01  0.3076E-02
    -13.587  0.2878E+00  0.2115E-01
    -13.524  0.1079E+01  0.8896E-01
    -13.461  0.2468E+01  0.2440E+00
    -13.398  0.3657E+01  0.4738E+00
    -13.336  0.3993E+01  0.7246E+00
    -13.273  0.3884E+01  0.9686E+00
    -13.210  0.3733E+01  0.1203E+01
    -13.147  0.3489E+01  0.1422E+01
    -13.084  0.3180E+01  0.1622E+01
    -13.021  0.3315E+01  0.1830E+01
    -12.959  0.4395E+01  0.2107E+01
    -12.896  0.5652E+01  0.2462E+01
    -12.833  0.5767E+01  0.2824E+01
    -12.770  0.4611E+01  0.3114E+01
    -12.707  0.3445E+01  0.3330E+01
    -12.644  0.3525E+01  0.3552E+01
    -12.582  0.4746E+01  0.3850E+01
    -12.519  0.5937E+01  0.4223E+01
    -12.456  0.6617E+01  0.4638E+01
    -12.393  0.6995E+01  0.5078E+01
    -12.330  0.6848E+01  0.5508E+01
    -12.267  0.6285E+01  0.5903E+01
    -12.205  0.5905E+01  0.6274E+01
    -12.142  0.5814E+01  0.6639E+01
    -12.079  0.5922E+01  0.7011E+01
    -12.016  0.6655E+01  0.7429E+01
    -11.953  0.7695E+01  0.7913E+01
    -11.891  0.7720E+01  0.8398E+01
    -11.828  0.6555E+01  0.8810E+01
    -11.765  0.5595E+01  0.9161E+01
    -11.702  0.6191E+01  0.9550E+01
    -11.639  0.8152E+01  0.1006E+02
    -11.576  0.9582E+01  0.1066E+02
    -11.514  0.9465E+01  0.1126E+02
    -11.451  0.9217E+01  0.1184E+02
    -11.388  0.9528E+01  0.1244E+02
    -11.325  0.9577E+01  0.1304E+02
    -11.262  0.1011E+02  0.1367E+02
    -11.199  0.1082E+02  0.1435E+02
    -11.137  0.9582E+01  0.1496E+02
    -11.074  0.8153E+01  0.1547E+02
    -11.011  0.9515E+01  0.1607E+02
    -10.948  0.1236E+02  0.1684E+02
    -10.885  0.1387E+02  0.1771E+02
    -10.822  0.1379E+02  0.1858E+02
    -10.760  0.1316E+02  0.1941E+02
    -10.697  0.1199E+02  0.2016E+02
    -10.634  0.1116E+02  0.2086E+02
    -10.571  0.1135E+02  0.2157E+02
    -10.508  0.1065E+02  0.2224E+02
    -10.446  0.9094E+01  0.2281E+02
    -10.383  0.8308E+01  0.2334E+02
    -10.320  0.6472E+01  0.2374E+02
    -10.257  0.3128E+01  0.2394E+02
    -10.194  0.8306E+00  0.2399E+02
    -10.131  0.1165E+00  0.2400E+02
    -10.069  0.8422E-02  0.2400E+02
    -10.006  0.3061E-03  0.2400E+02
     -9.943  0.5467E-05  0.2400E+02
     -9.880  0.4704E-07  0.2400E+02
     -9.817  0.1920E-09  0.2400E+02
     -9.754  0.3673E-12  0.2400E+02
     -9.692  0.4078E-15  0.2400E+02
     -9.629  0.0000E+00  0.2400E+02
     -9.566  0.0000E+00  0.2400E+02
     -9.503  0.5437E-15  0.2400E+02
     -9.440  0.6392E-12  0.2400E+02
     -9.378  0.3169E-09  0.2400E+02
     -9.315  0.7328E-07  0.2400E+02
     -9.252  0.7945E-05  0.2400E+02
     -9.189  0.4069E-03  0.2400E+02
     -9.126  0.9943E-02  0.2400E+02
     -9.063  0.1177E+00  0.2401E+02
     -9.001  0.6897E+00  0.2405E+02
     -8.938  0.2085E+01  0.2418E+02
     -8.875  0.3566E+01  0.2441E+02
     -8.812  0.4432E+01  0.2468E+02
     -8.749  0.5840E+01  0.2505E+02
     -8.686  0.7685E+01  0.2553E+02
     -8.624  0.7700E+01  0.2602E+02
     -8.561  0.6032E+01  0.2640E+02
     -8.498  0.5122E+01  0.2672E+02
     -8.435  0.5943E+01  0.2709E+02
     -8.372  0.7459E+01  0.2756E+02
     -8.309  0.7829E+01  0.2805E+02
     -8.247  0.6406E+01  0.2846E+02
     -8.184  0.4716E+01  0.2875E+02
     -8.121  0.4377E+01  0.2903E+02
     -8.058  0.4898E+01  0.2933E+02
     -7.995  0.4584E+01  0.2962E+02
     -7.933  0.3444E+01  0.2984E+02
     -7.870  0.3046E+01  0.3003E+02
     -7.807  0.3666E+01  0.3026E+02
     -7.744  0.4452E+01  0.3054E+02
     -7.681  0.4880E+01  0.3085E+02
     -7.618  0.5316E+01  0.3118E+02
     -7.556  0.6262E+01  0.3157E+02
     -7.493  0.6756E+01  0.3200E+02
     -7.430  0.6784E+01  0.3242E+02
     -7.367  0.7794E+01  0.3291E+02
     -7.304  0.9530E+01  0.3351E+02
     -7.241  0.1006E+02  0.3414E+02
     -7.179  0.8449E+01  0.3468E+02
     -7.116  0.6630E+01  0.3509E+02
     -7.053  0.5881E+01  0.3546E+02
     -6.990  0.5510E+01  0.3581E+02
     -6.927  0.5399E+01  0.3615E+02
     -6.864  0.5732E+01  0.3651E+02
     -6.802  0.6803E+01  0.3693E+02
     -6.739  0.9513E+01  0.3753E+02
     -6.676  0.1352E+02  0.3838E+02
     -6.613  0.1601E+02  0.3939E+02
     -6.550  0.1518E+02  0.4034E+02
     -6.488  0.1228E+02  0.4111E+02
     -6.425  0.8889E+01  0.4167E+02
     -6.362  0.5483E+01  0.4202E+02
     -6.299  0.3051E+01  0.4221E+02
     -6.236  0.2258E+01  0.4235E+02
     -6.173  0.2653E+01  0.4252E+02
     -6.111  0.3407E+01  0.4273E+02
     -6.048  0.3322E+01  0.4294E+02
     -5.985  0.2504E+01  0.4310E+02
     -5.922  0.2790E+01  0.4327E+02
     -5.859  0.4075E+01  0.4353E+02
     -5.796  0.5119E+01  0.4385E+02
     -5.734  0.6521E+01  0.4426E+02
     -5.671  0.7963E+01  0.4476E+02
     -5.608  0.7547E+01  0.4523E+02
     -5.545  0.5331E+01  0.4557E+02
     -5.482  0.3003E+01  0.4576E+02
     -5.419  0.1852E+01  0.4587E+02
     -5.357  0.2640E+01  0.4604E+02
     -5.294  0.4719E+01  0.4634E+02
     -5.231  0.5952E+01  0.4671E+02
     -5.168  0.5539E+01  0.4706E+02
     -5.105  0.4577E+01  0.4734E+02
     -5.043  0.4506E+01  0.4763E+02
     -4.980  0.6239E+01  0.4802E+02
     -4.917  0.8712E+01  0.4857E+02
     -4.854  0.1027E+02  0.4921E+02
     -4.791  0.1068E+02  0.4988E+02
     -4.728  0.1069E+02  0.5055E+02
     -4.666  0.1097E+02  0.5124E+02
     -4.603  0.1139E+02  0.5196E+02
     -4.540  0.1155E+02  0.5268E+02
     -4.477  0.1180E+02  0.5343E+02
     -4.414  0.1201E+02  0.5418E+02
     -4.351  0.1179E+02  0.5492E+02
     -4.289  0.1194E+02  0.5567E+02
     -4.226  0.1261E+02  0.5646E+02
     -4.163  0.1333E+02  0.5730E+02
     -4.100  0.1431E+02  0.5820E+02
     -4.037  0.1570E+02  0.5919E+02
     -3.974  0.1665E+02  0.6023E+02
     -3.912  0.1572E+02  0.6122E+02
     -3.849  0.1269E+02  0.6202E+02
     -3.786  0.9994E+01  0.6265E+02
     -3.723  0.1014E+02  0.6328E+02
     -3.660  0.1185E+02  0.6403E+02
     -3.598  0.1245E+02  0.6481E+02
     -3.535  0.1215E+02  0.6557E+02
     -3.472  0.1223E+02  0.6634E+02
     -3.409  0.1249E+02  0.6713E+02
     -3.346  0.1296E+02  0.6794E+02
     -3.283  0.1395E+02  0.6882E+02
     -3.221  0.1478E+02  0.6975E+02
     -3.158  0.1545E+02  0.7072E+02
     -3.095  0.1688E+02  0.7178E+02
     -3.032  0.1900E+02  0.7297E+02
     -2.969  0.1994E+02  0.7422E+02
     -2.906  0.1852E+02  0.7539E+02
     -2.844  0.1559E+02  0.7637E+02
     -2.781  0.1321E+02  0.7720E+02
     -2.718  0.1360E+02  0.7805E+02
     -2.655  0.1612E+02  0.7906E+02
     -2.592  0.1802E+02  0.8020E+02
     -2.529  0.1825E+02  0.8134E+02
     -2.467  0.1806E+02  0.8248E+02
     -2.404  0.1833E+02  0.8363E+02
     -2.341  0.1816E+02  0.8477E+02
     -2.278  0.1633E+02  0.8580E+02
     -2.215  0.1434E+02  0.8670E+02
     -2.153  0.1463E+02  0.8762E+02
     -2.090  0.1720E+02  0.8870E+02
     -2.027  0.2016E+02  0.8996E+02
     -1.964  0.2228E+02  0.9136E+02
     -1.901  0.2281E+02  0.9280E+02
     -1.838  0.2202E+02  0.9418E+02
     -1.776  0.2222E+02  0.9557E+02
     -1.713  0.2303E+02  0.9702E+02
     -1.650  0.2104E+02  0.9834E+02
     -1.587  0.1594E+02  0.9934E+02
     -1.524  0.1130E+02  0.1001E+03
     -1.461  0.9865E+01  0.1007E+03
     -1.399  0.1166E+02  0.1014E+03
     -1.336  0.1400E+02  0.1023E+03
     -1.273  0.1324E+02  0.1031E+03
     -1.210  0.1023E+02  0.1038E+03
     -1.147  0.9064E+01  0.1043E+03
     -1.084  0.1004E+02  0.1050E+03
     -1.022  0.1044E+02  0.1056E+03
     -0.959  0.9037E+01  0.1062E+03
     -0.896  0.6220E+01  0.1066E+03
     -0.833  0.3671E+01  0.1068E+03
     -0.770  0.2669E+01  0.1070E+03
     -0.708  0.2266E+01  0.1071E+03
     -0.645  0.1432E+01  0.1072E+03
     -0.582  0.9763E+00  0.1073E+03
     -0.519  0.1687E+01  0.1074E+03
     -0.456  0.2896E+01  0.1076E+03
     -0.393  0.3309E+01  0.1078E+03
     -0.331  0.2411E+01  0.1079E+03
     -0.268  0.1055E+01  0.1080E+03
     -0.205  0.2581E+00  0.1080E+03
     -0.142  0.3309E-01  0.1080E+03
     -0.079  0.2126E-02  0.1080E+03
     -0.016  0.6642E-04  0.1080E+03
      0.046  0.9900E-06  0.1080E+03
      0.109  0.6949E-08  0.1080E+03
      0.172  0.2278E-10  0.1080E+03
      0.235  0.3446E-13  0.1080E+03
      0.298  0.0000E+00  0.1080E+03
      0.361  0.0000E+00  0.1080E+03
      0.423  0.0000E+00  0.1080E+03
      0.486  0.1038E-13  0.1080E+03
      0.549  0.7243E-11  0.1080E+03
      0.612  0.2377E-08  0.1080E+03
      0.675  0.3701E-06  0.1080E+03
      0.737  0.2755E-04  0.1080E+03
      0.800  0.9893E-03  0.1080E+03
      0.863  0.1730E-01  0.1080E+03
      0.926  0.1499E+00  0.1080E+03
      0.989  0.6699E+00  0.1081E+03
      1.052  0.1723E+01  0.1082E+03
      1.114  0.3195E+01  0.1084E+03
      1.177  0.5131E+01  0.1087E+03
      1.240  0.7000E+01  0.1091E+03
      1.303  0.8284E+01  0.1096E+03
      1.366  0.9559E+01  0.1102E+03
      1.429  0.1056E+02  0.1109E+03
      1.491  0.1033E+02  0.1116E+03
      1.554  0.1049E+02  0.1122E+03
      1.617  0.1276E+02  0.1130E+03
      1.680  0.1472E+02  0.1139E+03
      1.743  0.1425E+02  0.1148E+03
      1.806  0.1363E+02  0.1157E+03
      1.868  0.1426E+02  0.1166E+03
      1.931  0.1473E+02  0.1175E+03
      1.994  0.1475E+02  0.1184E+03
      2.057  0.1572E+02  0.1194E+03
      2.120  0.1701E+02  0.1205E+03
      2.182  0.1704E+02  0.1216E+03
      2.245  0.1692E+02  0.1226E+03
      2.308  0.1719E+02  0.1237E+03
      2.371  0.1661E+02  0.1248E+03
      2.434  0.1604E+02  0.1258E+03
      2.497  0.1602E+02  0.1268E+03
      2.559  0.1577E+02  0.1278E+03
      2.622  0.1592E+02  0.1288E+03
      2.685  0.1688E+02  0.1298E+03
      2.748  0.1731E+02  0.1309E+03
      2.811  0.1616E+02  0.1319E+03
      2.874  0.1403E+02  0.1328E+03
      2.936  0.1160E+02  0.1335E+03
      2.999  0.9580E+01  0.1341E+03
      3.062  0.8413E+01  0.1347E+03
      3.125  0.7513E+01  0.1351E+03
      3.188  0.6158E+01  0.1355E+03
      3.251  0.4225E+01  0.1358E+03
      3.313  0.2199E+01  0.1359E+03
      3.376  0.8695E+00  0.1360E+03
      3.439  0.2633E+00  0.1360E+03
      3.502  0.5171E-01  0.1360E+03
      3.565  0.5484E-02  0.1360E+03
      3.627  0.2864E-03  0.1360E+03
      3.690  0.7107E-05  0.1360E+03
      3.753  0.8253E-07  0.1360E+03
      3.816  0.4450E-09  0.1360E+03
      3.879  0.1108E-11  0.1360E+03
      3.942  0.1223E-14  0.1360E+03
      4.004  0.0000E+00  0.1360E+03
      4.067  0.0000E+00  0.1360E+03
      4.130  0.0000E+00  0.1360E+03
      4.193  0.0000E+00  0.1360E+03
      4.256  0.0000E+00  0.1360E+03
      4.319  0.0000E+00  0.1360E+03
