   24   24    1    1
  0.4176334E+02  0.3540400E-09  0.1044544E-08  0.2750143E-08  0.5000000E-15
  1.000000000000000E-004
  CAR 
 unknown system                          
    108     54     68
 
  0.0000000E+00  0.0000000E+00  0.0000000E+00  0.9615385E-02
    1      -13.529230
    2      -13.479470
    3      -12.806575
    4      -12.744515
    5      -12.470884
    6      -12.394585
    7      -12.098305
    8      -12.017905
    9      -11.404776
   10      -11.376988
   11      -11.002887
   12      -10.929057
   13       -8.018621
   14       -7.940139
   15       -7.772394
   16       -7.757569
   17       -6.848240
   18       -6.696303
   19       -6.470985
   20       -6.429561
   21       -5.795375
   22       -5.752415
   23       -4.746229
   24       -4.678324
   25       -3.919971
   26       -3.690696
   27       -3.624466
   28       -3.450923
   29       -3.137953
   30       -3.001248
   31       -2.952893
   32       -2.854084
   33       -2.787649
   34       -2.682118
   35       -2.454635
   36       -2.405898
   37       -2.369038
   38       -2.321579
   39       -2.103216
   40       -1.981983
   41       -1.955815
   42       -1.780088
   43       -1.740716
   44       -1.671215
   45       -1.653583
   46       -1.585966
   47       -1.529671
   48       -1.496023
   49       -1.374936
   50       -1.260092
   51       -1.120211
   52       -1.001242
   53       -0.982418
   54       -0.476188
   55        1.023874
   56        1.216161
   57        1.346989
   58        1.381666
   59        1.580232
   60        1.774650
   61        1.917777
   62        1.989608
   63        2.045150
   64        2.110563
   65        2.299919
   66        2.470827
   67        2.510508
   68        2.709107
 
  0.7692308E-01 -0.1387779E-16  0.0000000E+00  0.1923077E-01
    1      -13.468447
    2      -13.418178
    3      -12.756877
    4      -12.692324
    5      -12.415073
    6      -12.338905
    7      -12.036429
    8      -11.955799
    9      -11.356124
   10      -11.328053
   11      -10.954705
   12      -10.880785
   13       -8.054741
   14       -7.991719
   15       -7.740990
   16       -7.695063
   17       -6.811652
   18       -6.665070
   19       -6.464377
   20       -6.423652
   21       -5.763146
   22       -5.717950
   23       -4.751975
   24       -4.683035
   25       -3.900882
   26       -3.714577
   27       -3.664445
   28       -3.571526
   29       -3.430221
   30       -3.310548
   31       -3.211174
   32       -3.164676
   33       -3.133635
   34       -2.912736
   35       -2.716928
   36       -2.670366
   37       -2.430362
   38       -2.407422
   39       -2.194316
   40       -2.152878
   41       -2.073586
   42       -1.988987
   43       -1.957007
   44       -1.910852
   45       -1.817653
   46       -1.783440
   47       -1.697263
   48       -1.559186
   49       -1.460240
   50       -1.318254
   51       -1.183780
   52       -1.044408
   53       -0.969516
   54       -0.442197
   55        1.427505
   56        1.618717
   57        1.747723
   58        1.812615
   59        2.000864
   60        2.067608
   61        2.183275
   62        2.221515
   63        2.272971
   64        2.358706
   65        2.490149
   66        2.660692
   67        2.815457
   68        2.841732
 
  0.1538462E+00 -0.2775558E-16  0.0000000E+00  0.1923077E-01
    1      -13.287355
    2      -13.235379
    3      -12.608908
    4      -12.536501
    5      -12.249572
    6      -12.174024
    7      -11.855389
    8      -11.773751
    9      -11.214798
   10      -11.186087
   11      -10.815781
   12      -10.742299
   13       -8.158809
   14       -8.103235
   15       -7.697827
   16       -7.610736
   17       -6.726763
   18       -6.599314
   19       -6.468548
   20       -6.434338
   21       -5.692931
   22       -5.642541
   23       -4.883595
   24       -4.808127
   25       -4.223150
   26       -4.157571
   27       -4.042676
   28       -3.991250
   29       -3.943601
   30       -3.903990
   31       -3.708089
   32       -3.658259
   33       -3.495746
   34       -3.238331
   35       -3.142082
   36       -2.999445
   37       -2.921737
   38       -2.881486
   39       -2.844032
   40       -2.615870
   41       -2.326731
   42       -2.280337
   43       -2.124909
   44       -2.091449
   45       -1.951338
   46       -1.884147
   47       -1.747426
   48       -1.680556
   49       -1.616869
   50       -1.552590
   51       -1.185189
   52       -1.113898
   53       -1.013470
   54       -0.517874
   55        1.877123
   56        1.958457
   57        2.148255
   58        2.288547
   59        2.324575
   60        2.413977
   61        2.484257
   62        2.638814
   63        2.712411
   64        2.797179
   65        2.887045
   66        2.997424
   67        3.096218
   68        3.147994
 
  0.2307692E+00 -0.4163336E-16  0.0000000E+00  0.1923077E-01
    1      -12.990304
    2      -12.934683
    3      -12.367402
    4      -12.280182
    5      -11.981278
    6      -11.907476
    7      -11.571202
    8      -11.486667
    9      -10.997803
   10      -10.969315
   11      -10.608661
   12      -10.539793
   13       -8.371883
   14       -8.300207
   15       -7.767508
   16       -7.622165
   17       -6.708054
   18       -6.629874
   19       -6.577080
   20       -6.525029
   21       -5.716472
   22       -5.665646
   23       -5.358331
   24       -5.281702
   25       -4.829288
   26       -4.747863
   27       -4.558811
   28       -4.479103
   29       -4.471799
   30       -4.431869
   31       -4.153139
   32       -4.123117
   33       -3.788553
   34       -3.703736
   35       -3.473243
   36       -3.412464
   37       -3.264639
   38       -2.979001
   39       -2.896428
   40       -2.702511
   41       -2.525012
   42       -2.464886
   43       -2.414065
   44       -2.343714
   45       -1.929227
   46       -1.867986
   47       -1.801800
   48       -1.781001
   49       -1.681101
   50       -1.619663
   51       -1.404581
   52       -1.368906
   53       -1.136067
   54       -0.745482
   55        1.673296
   56        1.881405
   57        1.929982
   58        2.068394
   59        2.209142
   60        2.280480
   61        2.397673
   62        2.500495
   63        2.555014
   64        2.737421
   65        2.856652
   66        2.940090
   67        2.992965
   68        3.075985
 
  0.3076923E+00 -0.5551115E-16  0.0000000E+00  0.1923077E-01
    1      -12.586930
    2      -12.523469
    3      -12.045113
    4      -11.931880
    5      -11.626339
    6      -11.556611
    7      -11.221975
    8      -11.129786
    9      -10.746709
   10      -10.725106
   11      -10.401593
   12      -10.354883
   13       -8.701952
   14       -8.595831
   15       -8.026589
   16       -7.818810
   17       -7.023643
   18       -6.937262
   19       -6.864231
   20       -6.818850
   21       -6.109766
   22       -6.072360
   23       -5.917766
   24       -5.883406
   25       -5.211850
   26       -5.150068
   27       -4.762608
   28       -4.701811
   29       -4.677774
   30       -4.623664
   31       -4.301452
   32       -4.248596
   33       -4.190356
   34       -4.146037
   35       -3.404947
   36       -3.336443
   37       -3.117066
   38       -3.034948
   39       -3.009295
   40       -2.856903
   41       -2.765560
   42       -2.635822
   43       -2.507847
   44       -2.359626
   45       -2.102446
   46       -2.000586
   47       -1.876459
   48       -1.850991
   49       -1.806552
   50       -1.746532
   51       -1.693890
   52       -1.623494
   53       -1.292492
   54       -1.046810
   55        1.348769
   56        1.632445
   57        1.678574
   58        1.801376
   59        1.997175
   60        2.089741
   61        2.169921
   62        2.243727
   63        2.438871
   64        2.496916
   65        2.617664
   66        2.718975
   67        2.781778
   68        2.910264
 
  0.3846154E+00 -0.8326673E-16  0.0000000E+00  0.1923077E-01
    1      -12.100897
    2      -12.016030
    3      -11.672828
    4      -11.512798
    5      -11.221970
    6      -11.161385
    7      -10.904677
    8      -10.789282
    9      -10.572471
   10      -10.550101
   11      -10.397726
   12      -10.379256
   13       -8.922666
   14       -8.772734
   15       -8.319150
   16       -8.095954
   17       -7.535553
   18       -7.407529
   19       -7.377506
   20       -7.346787
   21       -6.704876
   22       -6.686561
   23       -6.603583
   24       -6.433273
   25       -5.207944
   26       -5.151144
   27       -4.652745
   28       -4.537880
   29       -4.511495
   30       -4.457363
   31       -4.247369
   32       -4.161116
   33       -4.050551
   34       -4.003806
   35       -3.633139
   36       -3.596681
   37       -3.271914
   38       -3.211132
   39       -3.117032
   40       -3.030116
   41       -2.762430
   42       -2.721559
   43       -2.518490
   44       -2.376590
   45       -2.321237
   46       -2.214423
   47       -2.095557
   48       -2.028963
   49       -1.975675
   50       -1.931870
   51       -1.799830
   52       -1.742957
   53       -1.342078
   54       -1.259987
   55        1.204399
   56        1.443862
   57        1.469901
   58        1.682291
   59        1.756682
   60        1.875236
   61        2.031526
   62        2.136781
   63        2.240219
   64        2.298725
   65        2.339305
   66        2.520217
   67        2.633535
   68        2.799788
 
  0.4615385E+00 -0.8326673E-16  0.0000000E+00  0.1923077E-01
    1      -11.631697
    2      -11.443731
    3      -11.304992
    4      -11.090063
    5      -10.921403
    6      -10.886811
    7      -10.820335
    8      -10.783624
    9      -10.671171
   10      -10.614398
   11      -10.577657
   12      -10.482143
   13       -8.755013
   14       -8.631699
   15       -8.381667
   16       -8.268745
   17       -8.128418
   18       -8.020601
   19       -7.560715
   20       -7.512890
   21       -7.254752
   22       -7.227461
   23       -7.123423
   24       -6.819372
   25       -4.927372
   26       -4.857677
   27       -4.475377
   28       -4.447533
   29       -4.274917
   30       -4.176506
   31       -4.027193
   32       -4.012151
   33       -3.929386
   34       -3.872913
   35       -3.828611
   36       -3.772975
   37       -3.541832
   38       -3.503167
   39       -3.200586
   40       -3.156992
   41       -2.985029
   42       -2.919377
   43       -2.649644
   44       -2.601718
   45       -2.431811
   46       -2.301995
   47       -2.161294
   48       -2.100904
   49       -2.071607
   50       -1.976421
   51       -1.707793
   52       -1.613650
   53       -1.472714
   54       -1.364817
   55        1.178254
   56        1.285219
   57        1.424268
   58        1.589590
   59        1.676307
   60        1.787576
   61        1.911825
   62        1.947927
   63        2.013659
   64        2.144251
   65        2.368875
   66        2.407677
   67        2.604594
   68        2.629547
 
  0.0000000E+00  0.2500000E+00  0.0000000E+00  0.1923077E-01
    1      -13.472877
    2      -13.423462
    3      -12.979101
    4      -12.917663
    5      -12.470780
    6      -12.390219
    7      -11.894179
    8      -11.808707
    9      -11.447457
   10      -11.421851
   11      -11.007258
   12      -10.938887
   13       -8.470991
   14       -8.442773
   15       -7.386945
   16       -7.243538
   17       -6.655622
   18       -6.609144
   19       -6.584618
   20       -6.506754
   21       -5.732138
   22       -5.665434
   23       -4.660800
   24       -4.563852
   25       -4.046238
   26       -3.950218
   27       -3.743220
   28       -3.434580
   29       -3.275774
   30       -3.073243
   31       -3.028164
   32       -2.969969
   33       -2.654140
   34       -2.642319
   35       -2.451507
   36       -2.337409
   37       -2.325103
   38       -2.289393
   39       -2.201989
   40       -2.080123
   41       -2.005341
   42       -1.913741
   43       -1.825818
   44       -1.698184
   45       -1.628031
   46       -1.571719
   47       -1.481409
   48       -1.374236
   49       -1.305480
   50       -1.189105
   51       -1.057827
   52       -0.982810
   53       -0.912769
   54       -0.412011
   55        1.050744
   56        1.253330
   57        1.364594
   58        1.480256
   59        1.607762
   60        1.696895
   61        1.790644
   62        1.920153
   63        2.104541
   64        2.306417
   65        2.400115
   66        2.549432
   67        2.660348
   68        2.714045
 
  0.7692308E-01  0.2500000E+00  0.0000000E+00  0.1923077E-01
    1      -13.395022
    2      -13.346276
    3      -12.964730
    4      -12.898600
    5      -12.413429
    6      -12.332860
    7      -11.795505
    8      -11.709301
    9      -11.404862
   10      -11.380593
   11      -10.962347
   12      -10.894890
   13       -8.531759
   14       -8.508518
   15       -7.334039
   16       -7.178658
   17       -6.664485
   18       -6.616101
   19       -6.499307
   20       -6.428360
   21       -5.691715
   22       -5.621263
   23       -4.717955
   24       -4.624452
   25       -4.086737
   26       -4.031676
   27       -3.715668
   28       -3.588916
   29       -3.517454
   30       -3.357085
   31       -3.306972
   32       -3.049828
   33       -2.995961
   34       -2.950924
   35       -2.689408
   36       -2.620177
   37       -2.451236
   38       -2.420057
   39       -2.337702
   40       -2.236298
   41       -2.198573
   42       -2.057027
   43       -2.003385
   44       -1.939974
   45       -1.783005
   46       -1.763959
   47       -1.686979
   48       -1.432705
   49       -1.389823
   50       -1.259265
   51       -1.089327
   52       -0.980941
   53       -0.917667
   54       -0.371166
   55        1.428092
   56        1.618764
   57        1.755052
   58        1.815339
   59        1.904553
   60        2.016808
   61        2.089487
   62        2.266792
   63        2.435100
   64        2.562010
   65        2.693601
   66        2.729375
   67        2.830634
   68        2.894942
 
  0.1538462E+00  0.2500000E+00  0.0000000E+00  0.1923077E-01
    1      -13.198599
    2      -13.149477
    3      -12.836430
    4      -12.762200
    5      -12.246338
    6      -12.166708
    7      -11.603756
    8      -11.512099
    9      -11.262317
   10      -11.241256
   11      -10.821435
   12      -10.754079
   13       -8.595089
   14       -8.578764
   15       -7.287457
   16       -7.143432
   17       -6.648432
   18       -6.595712
   19       -6.455306
   20       -6.380928
   21       -5.653335
   22       -5.580702
   23       -4.892880
   24       -4.783974
   25       -4.370489
   26       -4.323845
   27       -4.250626
   28       -4.188045
   29       -3.947763
   30       -3.912906
   31       -3.649482
   32       -3.536808
   33       -3.418878
   34       -3.143904
   35       -3.029122
   36       -2.914962
   37       -2.901407
   38       -2.767452
   39       -2.718717
   40       -2.617793
   41       -2.563406
   42       -2.510509
   43       -2.269393
   44       -2.254387
   45       -1.981497
   46       -1.863840
   47       -1.843035
   48       -1.739520
   49       -1.452666
   50       -1.379348
   51       -1.131215
   52       -1.038644
   53       -0.970202
   54       -0.457457
   55        1.631991
   56        1.695353
   57        2.011930
   58        2.138625
   59        2.200505
   60        2.394409
   61        2.697859
   62        2.752814
   63        2.789983
   64        2.862296
   65        2.973799
   66        3.100401
   67        3.175520
   68        3.236216
 
  0.2307692E+00  0.2500000E+00  0.0000000E+00  0.1923077E-01
    1      -12.889237
    2      -12.838030
    3      -12.598049
    4      -12.510979
    5      -11.977116
    6      -11.899883
    7      -11.341057
    8      -11.236515
    9      -11.034053
   10      -11.019589
   11      -10.602905
   12      -10.537282
   13       -8.718244
   14       -8.712610
   15       -7.349272
   16       -7.231266
   17       -6.710728
   18       -6.636854
   19       -6.593042
   20       -6.538544
   21       -5.805282
   22       -5.742977
   23       -5.229117
   24       -5.151734
   25       -4.994856
   26       -4.958429
   27       -4.631999
   28       -4.600957
   29       -4.524004
   30       -4.440983
   31       -4.030244
   32       -3.949011
   33       -3.745657
   34       -3.657850
   35       -3.266720
   36       -3.170907
   37       -3.150329
   38       -3.036736
   39       -2.990821
   40       -2.697233
   41       -2.607266
   42       -2.539830
   43       -2.471323
   44       -2.372312
   45       -2.046867
   46       -1.940141
   47       -1.910760
   48       -1.753864
   49       -1.704473
   50       -1.625888
   51       -1.348436
   52       -1.316430
   53       -1.086798
   54       -0.719733
   55        1.381982
   56        1.514337
   57        1.559590
   58        1.672434
   59        2.070807
   60        2.258652
   61        2.460631
   62        2.596632
   63        2.649620
   64        2.768205
   65        3.036663
   66        3.097084
   67        3.187728
   68        3.229142
 
  0.3076923E+00  0.2500000E+00  0.0000000E+00  0.1923077E-01
    1      -12.480115
    2      -12.421872
    3      -12.258432
    4      -12.152108
    5      -11.622755
    6      -11.550628
    7      -11.052554
    8      -10.923851
    9      -10.758731
   10      -10.755804
   11      -10.380853
   12      -10.332441
   13       -8.916735
   14       -8.907723
   15       -7.649911
   16       -7.563810
   17       -7.085243
   18       -7.054179
   19       -6.942833
   20       -6.895183
   21       -6.144100
   22       -6.066166
   23       -5.879154
   24       -5.853380
   25       -5.342474
   26       -5.313630
   27       -4.915137
   28       -4.868333
   29       -4.447297
   30       -4.354267
   31       -4.323200
   32       -4.218697
   33       -4.032180
   34       -3.953728
   35       -3.296823
   36       -3.264352
   37       -3.056679
   38       -2.959620
   39       -2.935890
   40       -2.885462
   41       -2.806599
   42       -2.556216
   43       -2.473301
   44       -2.388630
   45       -2.268907
   46       -2.183487
   47       -1.940168
   48       -1.911294
   49       -1.874292
   50       -1.741666
   51       -1.690224
   52       -1.682005
   53       -1.280371
   54       -1.080700
   55        1.111748
   56        1.248286
   57        1.289005
   58        1.415453
   59        1.906377
   60        2.196793
   61        2.262508
   62        2.282164
   63        2.460847
   64        2.556233
   65        2.627530
   66        2.713510
   67        2.928301
   68        3.057650
 
  0.3846154E+00  0.2500000E+00  0.0000000E+00  0.1923077E-01
    1      -12.009123
    2      -11.920522
    3      -11.830359
    4      -11.702263
    5      -11.221253
    6      -11.160200
    7      -10.835102
    8      -10.666387
    9      -10.545911
   10      -10.534673
   11      -10.410206
   12      -10.368125
   13       -8.930941
   14       -8.903313
   15       -8.081785
   16       -8.051515
   17       -7.721911
   18       -7.625836
   19       -7.360165
   20       -7.295885
   21       -6.674995
   22       -6.635051
   23       -6.602568
   24       -6.446812
   25       -5.310852
   26       -5.278084
   27       -4.773900
   28       -4.721253
   29       -4.513732
   30       -4.320520
   31       -4.108483
   32       -4.034721
   33       -3.855704
   34       -3.800062
   35       -3.389712
   36       -3.295556
   37       -3.249221
   38       -3.213360
   39       -3.074681
   40       -3.059658
   41       -2.888172
   42       -2.855601
   43       -2.661681
   44       -2.498961
   45       -2.361406
   46       -2.245678
   47       -2.105196
   48       -2.038009
   49       -2.022458
   50       -1.956581
   51       -1.793581
   52       -1.775103
   53       -1.391211
   54       -1.313585
   55        1.055452
   56        1.236443
   57        1.296846
   58        1.364088
   59        1.690496
   60        1.854073
   61        1.958627
   62        2.079424
   63        2.119397
   64        2.296938
   65        2.555984
   66        2.625260
   67        2.721257
   68        2.866321
 
  0.4615385E+00  0.2500000E+00  0.0000000E+00  0.1923077E-01
    1      -11.607566
    2      -11.374445
    3      -11.334629
    4      -11.207127
    5      -10.932935
    6      -10.899791
    7      -10.842620
    8      -10.800517
    9      -10.642032
   10      -10.605824
   11      -10.523619
   12      -10.448168
   13       -8.667986
   14       -8.498214
   15       -8.456754
   16       -8.342382
   17       -8.268203
   18       -8.015030
   19       -7.538129
   20       -7.459078
   21       -7.273763
   22       -7.253853
   23       -7.083709
   24       -6.865373
   25       -4.998772
   26       -4.958094
   27       -4.456933
   28       -4.414856
   29       -4.264820
   30       -4.140227
   31       -4.075049
   32       -4.027645
   33       -3.900669
   34       -3.870321
   35       -3.673530
   36       -3.600459
   37       -3.481641
   38       -3.426981
   39       -3.212975
   40       -3.195604
   41       -2.986688
   42       -2.926716
   43       -2.612664
   44       -2.579659
   45       -2.551681
   46       -2.522093
   47       -2.173459
   48       -2.082570
   49       -2.067566
   50       -1.966571
   51       -1.686220
   52       -1.595321
   53       -1.511514
   54       -1.373860
   55        1.188459
   56        1.254222
   57        1.466091
   58        1.528481
   59        1.594889
   60        1.621900
   61        1.775824
   62        1.933235
   63        2.045876
   64        2.176696
   65        2.320671
   66        2.431821
   67        2.557601
   68        2.706635
 
 -0.4615385E+00  0.2500000E+00  0.0000000E+00  0.1923077E-01
    1      -11.665896
    2      -11.477196
    3      -11.238951
    4      -11.013537
    5      -10.911877
    6      -10.872565
    7      -10.810228
    8      -10.753438
    9      -10.697141
   10      -10.652568
   11      -10.644412
   12      -10.496358
   13       -8.858656
   14       -8.699807
   15       -8.375956
   16       -8.291208
   17       -7.894813
   18       -7.885858
   19       -7.554712
   20       -7.544139
   21       -7.281285
   22       -7.223430
   23       -7.162036
   24       -6.923388
   25       -4.753137
   26       -4.662478
   27       -4.556194
   28       -4.522841
   29       -4.325071
   30       -4.299587
   31       -4.040966
   32       -3.999426
   33       -3.927649
   34       -3.905539
   35       -3.827196
   36       -3.804218
   37       -3.625955
   38       -3.578051
   39       -3.322910
   40       -3.289989
   41       -2.842977
   42       -2.736908
   43       -2.640332
   44       -2.558142
   45       -2.395626
   46       -2.319931
   47       -2.138227
   48       -2.112415
   49       -2.070538
   50       -1.980035
   51       -1.696374
   52       -1.565734
   53       -1.441357
   54       -1.346412
   55        1.146529
   56        1.376770
   57        1.416977
   58        1.655504
   59        1.709286
   60        1.775939
   61        1.838277
   62        2.047778
   63        2.108821
   64        2.238398
   65        2.317353
   66        2.443281
   67        2.502328
   68        2.631378
 
 -0.3846154E+00  0.2500000E+00  0.0000000E+00  0.1923077E-01
    1      -12.139163
    2      -12.042823
    3      -11.562402
    4      -11.428391
    5      -11.220400
    6      -11.161080
    7      -10.998063
    8      -10.868822
    9      -10.575389
   10      -10.553139
   11      -10.394176
   12      -10.390799
   13       -8.735544
   14       -8.684241
   15       -8.432226
   16       -8.383887
   17       -7.462053
   18       -7.381917
   19       -7.270397
   20       -7.179132
   21       -6.758078
   22       -6.744402
   23       -6.610185
   24       -6.519304
   25       -5.029852
   26       -4.970834
   27       -4.851823
   28       -4.780684
   29       -4.408823
   30       -4.351180
   31       -4.238814
   32       -4.166345
   33       -4.069377
   34       -4.026092
   35       -3.686718
   36       -3.662961
   37       -3.414605
   38       -3.348027
   39       -3.136017
   40       -3.059910
   41       -2.761052
   42       -2.685388
   43       -2.525403
   44       -2.413257
   45       -2.259340
   46       -2.179766
   47       -2.057429
   48       -1.940875
   49       -1.908243
   50       -1.888351
   51       -1.773952
   52       -1.669004
   53       -1.329833
   54       -1.250026
   55        1.172235
   56        1.418133
   57        1.553779
   58        1.825920
   59        1.872159
   60        1.943284
   61        2.062467
   62        2.109072
   63        2.297714
   64        2.323987
   65        2.416459
   66        2.515319
   67        2.592020
   68        2.723223
 
 -0.3076923E+00  0.2500000E+00  0.0000000E+00  0.1923077E-01
    1      -12.607160
    2      -12.536106
    3      -11.977331
    4      -11.890496
    5      -11.626878
    6      -11.557723
    7      -11.292424
    8      -11.176581
    9      -10.731896
   10      -10.716152
   11      -10.424130
   12      -10.361684
   13       -8.497683
   14       -8.330312
   15       -8.264723
   16       -8.128052
   17       -7.020448
   18       -6.941250
   19       -6.816876
   20       -6.711884
   21       -6.104924
   22       -6.095564
   23       -5.922883
   24       -5.884922
   25       -5.097233
   26       -5.040658
   27       -4.916650
   28       -4.828009
   29       -4.620906
   30       -4.586046
   31       -4.328976
   32       -4.246006
   33       -4.206503
   34       -4.122423
   35       -3.412962
   36       -3.398084
   37       -3.139307
   38       -3.078117
   39       -3.013891
   40       -2.867504
   41       -2.776198
   42       -2.647631
   43       -2.563699
   44       -2.369037
   45       -2.007160
   46       -1.968464
   47       -1.847616
   48       -1.828884
   49       -1.769877
   50       -1.716616
   51       -1.682625
   52       -1.612235
   53       -1.310275
   54       -1.066290
   55        1.394514
   56        1.651091
   57        1.821845
   58        1.913687
   59        2.000588
   60        2.052489
   61        2.114365
   62        2.312282
   63        2.360896
   64        2.448572
   65        2.696021
   66        2.740972
   67        2.838055
   68        2.920401
 
 -0.2307692E+00  0.2500000E+00  0.0000000E+00  0.1923077E-01
    1      -12.990739
    2      -12.930669
    3      -12.363104
    4      -12.294803
    5      -11.982631
    6      -11.907952
    7      -11.574154
    8      -11.470777
    9      -10.995924
   10      -10.972725
   11      -10.614176
   12      -10.538904
   13       -8.342702
   14       -8.223932
   15       -7.824686
   16       -7.721447
   17       -6.714861
   18       -6.630846
   19       -6.577298
   20       -6.516488
   21       -5.697836
   22       -5.646354
   23       -5.284750
   24       -5.274966
   25       -4.786807
   26       -4.744517
   27       -4.636082
   28       -4.545963
   29       -4.467650
   30       -4.432384
   31       -4.143167
   32       -4.104685
   33       -3.769024
   34       -3.694071
   35       -3.402284
   36       -3.377918
   37       -3.268751
   38       -3.042601
   39       -2.923525
   40       -2.750192
   41       -2.614136
   42       -2.485498
   43       -2.397777
   44       -2.324507
   45       -1.899237
   46       -1.828815
   47       -1.796943
   48       -1.740193
   49       -1.674287
   50       -1.638017
   51       -1.410359
   52       -1.350050
   53       -1.150673
   54       -0.771239
   55        1.623935
   56        1.864679
   57        1.923604
   58        2.036616
   59        2.192631
   60        2.280198
   61        2.346597
   62        2.429155
   63        2.712846
   64        2.767589
   65        2.894466
   66        2.951973
   67        2.994503
   68        3.040019
 
 -0.1538462E+00  0.2500000E+00  0.0000000E+00  0.1923077E-01
    1      -13.268219
    2      -13.213880
    3      -12.671050
    4      -12.609812
    5      -12.250979
    6      -12.173097
    7      -11.780920
    8      -11.686780
    9      -11.230520
   10      -11.205213
   11      -10.814591
   12      -10.740884
   13       -8.325300
   14       -8.260721
   15       -7.541166
   16       -7.460423
   17       -6.686223
   18       -6.581415
   19       -6.499831
   20       -6.485481
   21       -5.657171
   22       -5.601776
   23       -4.817310
   24       -4.774691
   25       -4.290736
   26       -4.232526
   27       -4.134275
   28       -4.094605
   29       -3.919381
   30       -3.838134
   31       -3.659232
   32       -3.580165
   33       -3.479737
   34       -3.200669
   35       -3.107520
   36       -2.994196
   37       -2.935053
   38       -2.877509
   39       -2.837137
   40       -2.621387
   41       -2.507814
   42       -2.445588
   43       -2.138572
   44       -2.107416
   45       -1.952850
   46       -1.815074
   47       -1.742427
   48       -1.666436
   49       -1.545927
   50       -1.489605
   51       -1.177638
   52       -1.089627
   53       -1.013498
   54       -0.522540
   55        1.688621
   56        1.824002
   57        2.029320
   58        2.254456
   59        2.421114
   60        2.512686
   61        2.560153
   62        2.687229
   63        2.762511
   64        2.839676
   65        2.938214
   66        3.041694
   67        3.104470
   68        3.196265
 
 -0.7692308E-01  0.2500000E+00  0.0000000E+00  0.1923077E-01
    1      -13.430305
    2      -13.379167
    3      -12.879781
    4      -12.820127
    5      -12.416009