    3    3    1    2
  0.6822125E+02  0.3196409E-09  0.3196409E-09  0.2313053E-08  0.5000000E-15
  1.000000000000000E-004
  CAR 
 unknown system                          
     24     84     24
 
  0.0000000E+00  0.0000000E+00  0.0000000E+00  0.5917160E-02
    1      -41.012648    -40.989887   1.000000   1.000000
    2      -40.800372    -40.773314   1.000000   1.000000
    3      -40.800357    -40.773298   1.000000   1.000000
    4      -18.953444    -18.966762   1.000000   1.000000
    5      -17.529730    -17.545931   1.000000   1.000000
    6       -9.639304     -9.640989   1.000000   1.000000
    7       -6.312247     -6.300654   1.000000   1.000000
    8       -6.312235     -6.300642   1.000000   1.000000
    9       -5.388921     -5.400120   1.000000   1.000000
   10       -4.989565     -4.981241   1.000000   1.000000
   11       -4.989498     -4.981175   1.000000   1.000000
   12       -3.387172     -3.371972   0.982060   0.895591
   13        0.159946      0.160588   0.000000   0.000000
   14        0.160008      0.160646   0.000000   0.000000
   15        0.368756      0.363414   0.000000   0.000000
   16        0.368785      0.363423   0.000000   0.000000
   17        2.667529      2.668093   0.000000   0.000000
   18        2.832419      2.832131   0.000000   0.000000
   19        3.325973      3.325603   0.000000   0.000000
   20        3.935349      3.933018   0.000000   0.000000
   21        4.118403      4.117283   0.000000   0.000000
   22        4.987947      4.986975   0.000000   0.000000
   23        6.193328      6.283204   0.000000   0.000000
   24        7.175400      7.449047   0.000000   0.000000
 
  0.7692308E-01  0.0000000E+00  0.0000000E+00  0.3550296E-01
    1      -41.007936    -40.985166   1.000000   1.000000
    2      -40.825329    -40.798298   1.000000   1.000000
    3      -40.806055    -40.778997   1.000000   1.000000
    4      -18.857824    -18.871237   1.000000   1.000000
    5      -17.490350    -17.506512   1.000000   1.000000
    6       -9.526196     -9.527939   1.000000   1.000000
    7       -6.528342     -6.518387   1.000000   1.000000
    8       -6.210281     -6.199399   1.000000   1.000000
    9       -5.821346     -5.823098   1.000000   1.000000
   10       -5.145184     -5.137386   1.000000   1.000000
   11       -4.720299     -4.724259   1.000000   1.000000
   12       -3.441676     -3.426722   1.034345   1.032454
   13        0.034173      0.038290   0.000000   0.000000
   14        0.110322      0.107326   0.000000   0.000000
   15        0.258497      0.254352   0.000000   0.000000
   16        0.326195      0.327574   0.000000   0.000000
   17        2.819115      2.819448   0.000000   0.000000
   18        2.950332      2.950032   0.000000   0.000000
   19        3.467876      3.467443   0.000000   0.000000
   20        4.233256      4.232121   0.000000   0.000000
   21        4.315112      4.314272   0.000000   0.000000
   22        5.123302      5.123571   0.000000   0.000000
   23        6.250370      6.248984   0.000000   0.000000
   24        7.430322      7.392503   0.000000   0.000000
 
  0.1538462E+00  0.0000000E+00  0.0000000E+00  0.3550296E-01
    1      -40.994819    -40.972024   1.000000   1.000000
    2      -40.893955    -40.866998   1.000000   1.000000
    3      -40.821795    -40.794740   1.000000   1.000000
    4      -18.583857    -18.597542   1.000000   1.000000
    5      -17.377509    -17.393555   1.000000   1.000000
    6       -9.229761     -9.231400   1.000000   1.000000
    7       -7.051383     -7.045845   1.000000   1.000000
    8       -6.459967     -6.459535   1.000000   1.000000
    9       -5.923210     -5.914655   1.000000   1.000000
   10       -5.526992     -5.520282   1.000000   1.000000
   11       -4.625908     -4.637782   1.000000   1.000000
   12       -3.661554     -3.647116   1.000004   1.000016
   13       -0.332050     -0.330227   0.000000   0.000000
   14       -0.053067     -0.042432   0.000000   0.000000
   15       -0.007252     -0.007771   0.000000   0.000000
   16        0.722653      0.725678   0.000000   0.000000
   17        3.185016      3.185245   0.000000   0.000000
   18        3.294788      3.294456   0.000000   0.000000
   19        3.829736      3.829237   0.000000   0.000000
   20        4.571527      4.570256   0.000000   0.000000
   21        5.155050      5.129086   0.000000   0.000000
   22        5.815477      5.641095   0.000000   0.000000
   23        6.700276      6.607820   0.000000   0.000000
   24        7.856038      7.534441   0.000000   0.000000
 
  0.2307692E+00  0.0000000E+00  0.0000000E+00  0.3550296E-01
    1      -40.989455    -40.962597   1.000000   1.000000
    2      -40.976225    -40.953394   1.000000   1.000000
    3      -40.843951    -40.816898   1.000000   1.000000
    4      -18.170720    -18.184819   1.000000   1.000000
    5      -17.207900    -17.223754   1.000000   1.000000
    6       -8.937548     -8.937683   1.000000   1.000000
    7       -7.585314     -7.586828   1.000000   1.000000
    8       -7.129547     -7.130746   1.000000   1.000000
    9       -5.980063     -5.974369   1.000000   1.000000
   10       -5.509407     -5.505259   1.000000   1.000000
   11       -4.846445     -4.859839   1.000000   1.000000
   12       -4.073622     -4.059038   1.000000   1.000000
   13       -0.537699     -0.530739   0.000000   0.000000
   14       -0.293437     -0.287705   0.000000   0.000000
   15        0.201248      0.215025   0.000000   0.000000
   16        1.159378      1.164062   0.000000   0.000000
   17        3.715454      3.715622   0.000000   0.000000
   18        3.845737      3.845290   0.000000   0.000000
   19        4.385452      4.384840   0.000000   0.000000
   20        5.113747      5.112379   0.000000   0.000000
   21        5.693893      5.717413   0.000000   0.000000
   22        6.436794      6.437214   0.000000   0.000000
   23        6.969443      6.961801   0.000000   0.000000
   24        8.107755      7.409939   0.000000   0.000000
 
  0.3076923E+00  0.0000000E+00  0.0000000E+00  0.3550296E-01
    1      -41.089331    -41.062571   1.000000   1.000000
    2      -40.956342    -40.933471   1.000000   1.000000
    3      -40.867414    -40.840359   1.000000   1.000000
    4      -17.686819    -17.701398   1.000000   1.000000
    5      -17.011750    -17.027354   1.000000   1.000000
    6       -9.050442     -9.050194   1.000000   1.000000
    7       -7.778328     -7.782774   1.000000   1.000000
    8       -7.773198     -7.779495   1.000000   1.000000
    9       -6.389460     -6.384491   1.000000   1.000000
   10       -5.165622     -5.175941   1.000000   1.000000
   11       -5.066714     -5.069214   1.000000   1.000000
   12       -4.417387     -4.402632   1.000000   1.000000
   13       -0.483469     -0.468873   0.000000   0.000000
   14       -0.444112     -0.432711   0.000000   0.000000
   15        0.683796      0.696828   0.000000   0.000000
   16        1.505314      1.511215   0.000000   0.000000
   17        4.361909      4.361822   0.000000   0.000000
   18        4.555600      4.554668   0.000000   0.000000
   19        5.132118      5.131366   0.000000   0.000000
   20        5.766454      5.764262   0.000000   0.000000
   21        5.818096      5.816783   0.000000   0.000000
   22        6.367638      6.366891   0.000000   0.000000
   23        6.534725      6.457719   0.000000   0.000000
   24        7.468367      7.663729   0.000000   0.000000
 
  0.3846154E+00  0.0000000E+00  0.0000000E+00  0.3550296E-01
    1      -41.171008    -41.144325   1.000000   1.000000
    2      -40.939755    -40.916853   1.000000   1.000000
    3      -40.886820    -40.859761   1.000000   1.000000
    4      -17.236042    -17.251062   1.000000   1.000000
    5      -16.833604    -16.848955   1.000000   1.000000
    6       -9.452026     -9.455802   1.000000   1.000000
    7       -8.312739     -8.320058   1.000000   1.000000
    8       -7.824872     -7.827407   1.000000   1.000000
    9       -6.689785     -6.685257   1.000000   1.000000
   10       -5.407905     -5.414667   1.000000   1.000000
   11       -4.710430     -4.720361   1.000000   1.000000
   12       -4.384705     -4.372904   1.000000   1.000000
   13       -0.532474     -0.508134   0.000000   0.000000
   14       -0.196927     -0.181420   0.000000   0.000000
   15        1.136598      1.147318   0.000000   0.000000
   16        1.719877      1.726457   0.000000   0.000000
   17        4.560389      4.562454   0.000000   0.000000
   18        5.229019      5.226425   0.000000   0.000000
   19        5.266121      5.264720   0.000000   0.000000
   20        5.995910      5.994676   0.000000   0.000000
   21        6.085174      6.084485   0.000000   0.000000
   22        6.857686      6.848697   0.000000   0.000000
   23        6.908243      6.866412   0.000000   0.000000
   24        8.382375      7.948262   0.000000   0.000000
 
  0.4615385E+00  0.0000000E+00  0.0000000E+00  0.3550296E-01
    1      -41.216683    -41.190041   1.000000   1.000000
    2      -40.930348    -40.907428   1.000000   1.000000
    3      -40.897749    -40.870688   1.000000   1.000000
    4      -16.953865    -16.969154   1.000000   1.000000
    5      -16.725446    -16.740629   1.000000   1.000000
    6       -9.737941     -9.744682   1.000000   1.000000
    7       -8.618396     -8.627255   1.000000   1.000000
    8       -7.926193     -7.924342   1.000000   1.000000
    9       -6.847140     -6.842816   1.000000   1.000000
   10       -5.527446     -5.532185   1.000000   1.000000
   11       -4.520928     -4.535819   1.000000   1.000000
   12       -4.161841     -4.153637   1.000000   1.000000
   13       -0.502613     -0.471663   0.000000   0.000000
   14        0.031061      0.050001   0.000000   0.000000
   15        1.380945      1.389674   0.000000   0.000000
   16        1.816961      1.823811   0.000000   0.000000
   17        3.814966      3.817630   0.000000   0.000000
   18        5.489503      5.486788   0.000000   0.000000
   19        5.746528      5.743657   0.000000   0.000000
   20        6.414277      6.414841   0.000000   0.000000
   21        7.098091      7.097654   0.000000   0.000000
   22        7.487509      7.491700   0.000000   0.000000
   23        7.492520      7.488581   0.000000   0.000000
   24        8.407919      8.201199   0.000000   0.000000
 
  0.7692308E-01  0.7692308E-01  0.0000000E+00  0.3550296E-01
    1      -40.999023    -40.976236   1.000000   1.000000
    2      -40.871045    -40.844063   1.000000   1.000000
    3      -40.817846    -40.790793   1.000000   1.000000
    4      -18.672948    -18.686545   1.000000   1.000000
    5      -17.414154    -17.430239   1.000000   1.000000
    6       -9.319054     -9.320806   1.000000   1.000000
    7       -6.892022     -6.884839   1.000000   1.000000
    8       -6.251592     -6.251399   1.000000   1.000000
    9       -6.022375     -6.013271   1.000000   1.000000
   10       -5.503716     -5.497594   1.000000   1.000000
   11       -4.545657     -4.555071   1.000000   1.000000
   12       -3.579575     -3.564965   1.000466   1.001269
   13       -0.222507     -0.222416   0.000000   0.000000
   14       -0.106840     -0.097884   0.000000   0.000000
   15        0.059832      0.058529   0.000000   0.000000
   16        0.640405      0.643213   0.000000   0.000000
   17        3.072851      3.073088   0.000000   0.000000
   18        3.181737      3.181437   0.000000   0.000000
   19        3.715581      3.715191   0.000000   0.000000
   20        4.460008      4.460608   0.000000   0.000000
   21        4.944715      5.363487   0.000000   0.000000
   22        5.509767      5.464186   0.000000   0.000000
   23        6.465843      6.803139   0.000000   0.000000
   24        8.087866      8.055248   0.000000   0.000000
 
  0.1538462E+00  0.7692308E-01  0.0000000E+00  0.7100592E-01
    1      -40.983172    -40.960354   1.000000   1.000000
    2      -40.950260    -40.923359   1.000000   1.000000
    3      -40.839603    -40.812556   1.000000   1.000000
    4      -18.328761    -18.342704   1.000000   1.000000
    5      -17.272246    -17.288180   1.000000   1.000000
    6       -9.002346     -9.003478   1.000000   1.000000
    7       -7.408275     -7.406224   1.000000   1.000000
    8       -6.800813     -6.801243   1.000000   1.000000
    9       -6.056851     -6.052347   1.000000   1.000000
   10       -5.706236     -5.701305   1.000000   1.000000
   11       -4.560501     -4.573210   1.000000   1.000000
   12       -3.904463     -3.889663   1.000000   1.000000
   13       -0.550773     -0.546622   0.000000   0.000000
   14       -0.186278     -0.181658   0.000000   0.000000
   15       -0.073790     -0.060261   0.000000   0.000000
   16        1.102666      1.107480   0.000000   0.000000
   17        3.521315      3.521504   0.000000   0.000000
   18        3.631694      3.631337   0.000000   0.000000
   19        4.173333      4.172818   0.000000   0.000000
   20        4.903009      4.901754   0.000000   0.000000
   21        5.580169      5.579302   0.000000   0.000000
   22        6.433201      6.402636   0.000000   0.000000
   23        7.097786      6.856497   0.000000   0.000000
   24        7.905383      8.115744   0.000000   0.000000
 
  0.2307692E+00  0.7692308E-01  0.0000000E+00  0.7100592E-01
    1      -41.044331    -41.017524   1.000000   1.000000
    2      -40.963928    -40.941073   1.000000   1.000000
    3      -40.865943    -40.838903   1.000000   1.000000
    4      -17.877911    -17.892307   1.000000   1.000000
    5      -17.087237    -17.102955   1.000000   1.000000
    6       -8.890781     -8.890128   1.000000   1.000000
    7       -7.724737     -7.729558   1.000000   1.000000
    8       -7.450944     -7.453960   1.000000   1.000000
    9       -6.494121     -6.490180   1.000000   1.000000
   10       -5.391201     -5.392449   1.000000   1.000000
   11       -4.829302     -4.840991   1.000000   1.000000
   12       -4.270695     -4.254668   1.000000   1.000000
   13       -0.676901     -0.667879  -0.000000  -0.000000
   14       -0.296464     -0.284453   0.000000   0.000000
   15        0.272660      0.286871   0.000000   0.000000
   16        1.506456      1.513082   0.000000   0.000000
   17        4.128035      4.128096   0.000000   0.000000
   18        4.271867      4.271294   0.000000   0.000000
   19        4.829732      4.829148   0.000000   0.000000
   20        5.530988      5.529504   0.000000   0.000000
   21        6.106027      6.098651   0.000000   0.000000
   22        6.565342      6.604544   0.000000   0.000000
   23        7.604717      7.010133   0.000000   0.000000
   24        7.884461      7.587060   0.000000   0.000000
 
  0.3076923E+00  0.7692308E-01  0.0000000E+00  0.7100592E-01
    1      -41.131654    -41.104932   1.000000   1.000000
    2      -40.945690    -40.922799   1.000000   1.000000
    3      -40.890716    -40.863680   1.000000   1.000000
    4      -17.404970    -17.419840   1.000000   1.000000
    5      -16.895999    -16.911473   1.000000   1.000000
    6       -9.198062     -9.199920   1.000000   1.000000
    7       -8.094878     -8.100317   1.000000   1.000000
    8       -7.745686     -7.750625   1.000000   1.000000
    9       -6.741982     -6.738739   1.000000   1.000000
   10       -5.213542     -5.218992   1.000000   1.000000
   11       -5.171638     -5.180185   1.000000   1.000000
   12       -4.303241     -4.290205   1.000000   1.000000
   13       -0.607119     -0.590842  -0.000000  -0.000000
   14       -0.236970     -0.219351   0.000000   0.000000
   15        0.760337      0.772757   0.000000   0.000000
   16        1.739476      1.747262   0.000000   0.000000
   17        4.757119      4.757274   0.000000   0.000000
   18        5.028457      5.027116   0.000000   0.000000
   19        5.497587      5.498369   0.000000   0.000000
   20        5.710764      5.709893   0.000000   0.000000
   21        6.131256      6.129348   0.000000   0.000000
   22        6.673157      6.679580   0.000000   0.000000
   23        6.715730      6.765302   0.000000   0.000000
   24        7.803360      8.181731   0.000000   0.000000
 
  0.3846154E+00  0.7692308E-01  0.0000000E+00  0.7100592E-01
    1      -41.192874    -41.166211   1.000000   1.000000
    2      -40.932688    -40.909772   1.000000   1.000000
    3      -40.908237    -40.881201   1.000000   1.000000
    4      -17.029936    -17.045174   1.000000   1.000000
    5      -16.748002    -16.763273   1.000000   1.000000
    6       -9.542864     -9.548576   1.000000   1.000000
    7       -8.559565     -8.566513   1.000000   1.000000
    8       -7.839978     -7.840068   1.000000   1.000000
    9       -6.857169     -6.854813   1.000000   1.000000
   10       -5.431768     -5.437486   1.000000   1.000000
   11       -5.067074     -5.077309   1.000000   1.000000
   12       -4.062796     -4.053541   1.000000   1.000000
   13       -0.507870     -0.483427   0.000000   0.000000
   14       -0.036126     -0.015913   0.000000   0.000000
   15        1.205432      1.215791   0.000000   0.000000
   16        1.752266      1.760280   0.000000   0.000000
   17        4.240059      4.242605   0.000000   0.000000
   18        5.687958      5.684992   0.000000   0.000000
   19        5.716225      5.713965   0.000000   0.000000
   20        6.379503      6.377444   0.000000   0.000000
   21        6.730429      6.729689   0.000000   0.000000
   22        7.331299      7.328871   0.000000   0.000000
   23        7.369919      7.382818   0.000000   0.000000
   24        8.202074      8.458888   0.000000   0.000000
 
  0.4615385E+00  0.7692308E-01  0.0000000E+00  0.3550296E-01
    1      -41.214827    -41.188185   1.000000   1.000000
    2      -40.927983    -40.905058   1.000000   1.000000
    3      -40.914553    -40.887518   1.000000   1.000000
    4      -16.883969    -16.899348   1.000000   1.000000
    5      -16.691596    -16.706786   1.000000   1.000000
    6       -9.682119     -9.689442   1.000000   1.000000
    7       -8.728274     -8.735726   1.000000   1.000000
    8       -7.911436     -7.909085   1.000000   1.000000
    9       -6.888931     -6.887003   1.000000   1.000000
   10       -5.527428     -5.532016   1.000000   1.000000
   11       -4.995580     -5.008398   1.000000   1.000000
   12       -3.914051     -3.906039   1.000000   1.000000
   13       -0.494380     -0.466600   0.000000   0.000000
   14        0.116595      0.138104   0.000000   0.000000
   15        1.482210      1.492356   0.000000   0.000000
   16        1.618971      1.626236   0.000000   0.000000
   17        3.795814      3.798274   0.000000   0.000000
   18        5.984394      5.980950   0.000000   0.000000
   19        6.115159      6.116974   0.000000   0.000000
   20        6.556379      6.560164   0.000000   0.000000
   21        7.377473      7.377114   0.000000   0.000000
   22        7.627474      7.687399   0.000000   0.000000
   23        7.966026      8.106765   0.000000   0.000000
   24        8.316922      8.363262   0.000000   0.000000
 
  0.1538462E+00  0.1538462E+00  0.0000000E+00  0.3550296E-01
    1      -41.022936    -40.996103   1.000000   1.000000
    2      -40.966673    -40.943823   1.000000   1.000000
    3      -40.870569    -40.843544   1.000000   1.000000
    4      -17.945163    -17.959498   1.000000   1.000000
    5      -17.113279    -17.129040   1.000000   1.000000
    6       -8.822798     -8.822648   1.000000   1.000000
    7       -7.683288     -7.686116   1.000000   1.000000
    8       -7.190147     -7.193598   1.000000   1.000000
    9       -6.753389     -6.749072   1.000000   1.000000
   10       -5.568011     -5.570277   1.000000   1.000000
   11       -4.585820     -4.598634   1.000000   1.000000
   12       -4.200069     -4.182989   1.000000   1.000000
   13       -0.769926     -0.762131  -0.000000  -0.000000
   14       -0.237236     -0.225394   0.000000   0.000000
   15        0.011993      0.027482   0.000000   0.000000
   16        1.557802      1.564973   0.000000   0.000000
   17        4.054077      4.054145   0.000000   0.000000
   18        4.176670      4.176229   0.000000   0.000000
   19        4.733877      4.733322   0.000000   0.000000
   20        5.441632      5.440610   0.000000   0.000000
   21        6.153456      6.155407   0.000000   0.000000
   22        6.870598      7.027893   0.000000   0.000000
   23        7.507795      7.732735   0.000000   0.000000
   24        8.083550      7.957277   0.000000   0.000000
 
  0.2307692E+00  0.1538462E+00  0.0000000E+00  0.7100592E-01
    1      -41.096259    -41.069497   1.000000   1.000000
    2      -40.949078    -40.926193   1.000000   1.000000
    3      -40.906264    -40.879265   1.000000   1.000000
    4      -17.499095    -17.513892   1.000000   1.000000
    5      -16.928202    -16.943764   1.000000   1.000000
    6       -8.960648     -8.961417   1.000000   1.000000
    7       -7.887838     -7.891300   1.000000   1.000000
    8       -7.646449     -7.652009   1.000000   1.000000
    9       -6.983008     -6.981565   1.000000   1.000000
   10       -5.709710     -5.716135   1.000000   1.000000
   11       -4.855634     -4.866496   1.000000   1.000000
   12       -4.259092     -4.242098   1.000000   1.000000
   13       -0.738012     -0.726213  -0.000000  -0.000000
   14       -0.182188     -0.163266   0.000000   0.000000
   15        0.323942      0.338735   0.000000   0.000000
   16        1.860300      1.869706   0.000000   0.000000
   17        4.717509      4.717384   0.000000   0.000000
   18        4.891184      4.890608   0.000000   0.000000
   19        5.491230      5.490627   0.000000   0.000000
   20        6.145043      6.144775   0.000000   0.000000
   21        6.166895      6.336165   0.000000   0.000000
   22        6.778716      7.000986   0.000000   0.000000
   23        7.148221      7.551643   0.000000   0.000000
   24        8.359864      8.355904   0.000000   0.000000
 
  0.3076923E+00  0.1538462E+00  0.0000000E+00  0.7100592E-01
    1      -41.155222    -41.128521   1.000000   1.000000
    2      -40.936892    -40.911511   1.000000   1.000000
    3      -40.934424    -40.909914   1.000000   1.000000
    4      -17.088894    -17.104116   1.000000   1.000000
    5      -16.758799    -16.774183   1.000000   1.000000
    6       -9.222173     -9.226435   1.000000   1.000000
    7       -8.520099     -8.523823   1.000000   1.000000
    8       -7.655224     -7.658169   1.000000   1.000000
    9       -6.969885     -6.971003   1.000000   1.000000
   10       -5.865249     -5.874475   1.000000   1.000000
   11       -5.229210     -5.236879   1.000000   1.000000
   12       -4.046957     -4.031311   1.000000   1.000000
   13       -0.548550     -0.533819   0.000000   0.000000
   14       -0.050076     -0.025766   0.000000   0.000000
   15        0.712482      0.725064   0.000000   0.000000
   16        1.956445      1.967284   0.000000   0.000000
   17        4.860162      4.861883   0.000000   0.000000
   18        5.698514      5.697521   0.000000   0.000000
   19        5.776255      5.774004   0.000000   0.000000
   20        6.479292      6.477588   0.000000   0.000000
   21        6.836360      6.825980   0.000000   0.000000
   22        7.323737      7.330689   0.000000   0.000000
   23        7.530831      7.380863   0.000000   0.000000
   24        8.430407      9.213688   0.000000   0.000000
 
  0.3846154E+00  0.1538462E+00  0.0000000E+00  0.7100592E-01
    1      -41.187966    -41.161303   1.000000   1.000000
    2      -40.954428    -40.927460   1.000000   1.000000
    3      -40.926127    -40.903198   1.000000   1.000000
    4      -16.835962    -16.851442   1.000000   1.000000
    5      -16.655277    -16.670557   1.000000   1.000000
    6       -9.385792     -9.393074   1.000000   1.000000
    7       -8.873754     -8.877734   1.000000   1.000000
    8       -7.800946     -7.799845   1.000000   1.000000
    9       -6.893546     -6.896706   1.000000   1.000000
   10       -5.871454     -5.883699   1.000000   1.000000
   11       -5.507765     -5.512721   1.000000   1.000000
   12       -3.777046     -3.761820   1.000000   1.000000
   13       -0.600306     -0.579912  -0.000000   0.000000
   14        0.269216      0.292499   0.000000   0.000000
   15        0.993609      1.004265   0.000000   0.000000
   16        1.912577      1.924123   0.000000   0.000000
   17        4.161147      4.163482   0.000000   0.000000
   18        6.478075      6.476328   0.000000   0.000000
   19        6.500251      6.497676   0.000000   0.000000
   20        7.116101      7.131792   0.000000   0.000000
   21        7.276010      7.272512   0.000000   0.000000
   22        7.658535      7.652786   0.000000   0.000000
   23        7.828528      7.897037   0.000000   0.000000
   24        8.577070      8.442918   0.000000   0.000000
 
  0.2307692E+00  0.2307692E+00  0.0000000E+00  0.3550296E-01
    1      -41.133666    -41.106941   1.000000   1.000000
    2      -40.955289    -40.928345   1.000000   1.000000
    3      -40.935064    -40.912151   1.000000   1.000000
    4      -17.111031    -17.126252   1.000000   1.000000
    5      -16.761661    -16.777097   1.000000   1.000000
    6       -9.051254     -9.054593   1.000000   1.000000
    7       -8.501064     -8.503154   1.000000   1.000000
    8       -7.492508     -7.497198   1.000000   1.000000
    9       -7.039812     -7.042590   1.000000   1.000000
   10       -6.306809     -6.315584   1.000000   1.000000
   11       -5.118343     -5.127230   1.000000   1.000000
   12       -4.063560     -4.045042   1.000000   1.000000
   13       -0.581227     -0.570139   0.000000   0.000000
   14       -0.041055     -0.015311   0.000000   0.000000
   15        0.477640      0.491560   0.000000   0.000000
   16        2.077308      2.089419   0.000000   0.000000
   17        5.200272      5.200945   0.000000   0.000000
   18        5.655353      5.654392   0.000000   0.000000
   19        5.830802      5.831356   0.000000   0.000000
   20        6.362187      6.361425   0.000000   0.000000
   21        6.898224      6.895964   0.000000   0.000000
   22        7.083932      7.077560   0.000000   0.000000
   23        7.818833      7.574473   0.000000   0.000000
   24        8.378783      8.319056   0.000000   0.000000
 
  0.3076923E+00  0.2307692E+00  0.0000000E+00  0.7100592E-01
    1      -41.152533    -41.125838   1.000000   1.000000
    2      -40.997459    -40.970561   1.000000   1.000000
    3      -40.925117    -40.902184   1.000000   1.000000
    4      -16.813188    -16.828740   1.000000   1.000000
    5      -16.631218    -16.646586   1.000000   1.000000
    6       -9.041563     -9.047746   1.000000   1.000000
    7       -8.977393     -8.978866   1.000000   1.000000
    8       -7.575140     -7.577161   1.000000   1.000000
    9       -6.883281     -6.890124   1.000000   1.000000
   10       -6.714809     -6.725328   1.000000   1.000000
   11       -5.483715     -5.489136   1.000000   1.000000
   12       -3.734769     -3.713791   1.000000   1.000000
   13       -0.735982     -0.720210  -0.000000  -0.000000
   14        0.391303      0.414192   0.000000   0.000000
   15        0.613926      0.626148   0.000000   0.000000
   16        2.208146      2.222252   0.000000   0.000000
   17        4.743614      4.745894   0.000000   0.000000
   18        6.021191      6.020580   0.000000   0.000000
   19        6.454189      6.452464   0.000000   0.000000
   20        6.991402      6.989467   0.000000   0.000000
   21        7.579971      7.573374   0.000000   0.000000
   22        7.641630      7.629039   0.000000   0.000000
   23        8.425380      8.834479   0.000000   0.000000
   24        8.809559      9.384112   0.000000   0.000000
 
  0.3846154E+00  0.2307692E+00  0.0000000E+00  0.3550296E-01
    1      -41.157227    -41.130546   1.000000   1.000000
    2      -41.014741    -40.987859   1.000000   1.000000
    3      -40.921523    -40.898584   1.000000   1.000000
    4      -16.700302    -16.715978   1.000000   1.000000
    5      -16.581139    -16.596489   1.000000   1.000000
    6       -9.151406     -9.152714   1.000000   1.000000
    7       -8.993431     -9.001471   1.000000   1.000000
    8       -7.742295     -7.742639   1.000000   1.000000
    9       -6.791399     -6.802200   1.000000   1.000000
   10       -6.763168     -6.772711   1.000000   1.000000
   11       -5.680869     -5.683648   1.000000   1.000000
   12       -3.529713     -3.507503   1.003980   1.010746
   13       -0.916576     -0.899348  -0.000000  -0.000000
   14        0.660681      0.672142   0.000000   0.000000
   15        0.668025      0.689477   0.000000   0.000000
   16        2.256238      2.270981   0.000000   0.000000
   17        4.380983      4.383749   0.000000   0.000000
   18        6.054027      6.054282   0.000000   0.000000
   19        6.935268      6.933825   0.000000   0.000000
   20        7.471049      7.471873   0.000000   0.000000
   21        8.165631      8.166282   0.000000   0.000000
   22        8.425860      8.394655   0.000000   0.000000
   23        8.749731      8.803661   0.000000   0.000000
   24        9.022594      9.077526   0.000000   0.000000
 
  0.3076923E+00  0.3076923E+00  0.0000000E+00  0.3550296E-01
    1      -41.126088    -41.099394   1.000000   1.000000
    2      -41.056613    -41.029773   1.000000   1.000000
    3      -40.919870    -40.896927   1.000000   1.000000
    4      -16.652043    -16.667796   1.000000   1.000000
    5      -16.552446    -16.567836   1.000000   1.000000
    6       -9.260413     -9.260776   1.000000   1.000000
    7       -8.674568     -8.681724   1.000000   1.000000
    8       -7.683405     -7.691541   1.000000   1.000000
    9       -7.342344     -7.346377   1.000000   1.000000
   10       -6.663569     -6.676946   1.000000   1.000000
   11       -5.790475     -5.790934   1.000000   1.000000