 vasp.5.4.1 24Jun15 (build Apr 18 2017 08:46:47) complex                        
  
 executed on           IFC91_ompi date 2017.04.30  12:39:27
 running on   64 total cores
 distrk:  each k-point on   64 cores,    1 groups
 distr:  one band on NCORES_PER_BAND=   8 cores,    8 groups


--------------------------------------------------------------------------------------------------------


 INCAR:
 POTCAR:   PAW_PBE Mo_pv 08Apr2002                
 POTCAR:    PAW_PBE S 17Jan2003                   
 POTCAR:   PAW_PBE Mo_pv 08Apr2002                
   VRHFIN =Mo: 4p5s4d                                                           
   LEXCH  = PE                                                                  
   EATOM  =  1284.3009 eV,   94.3935 Ry                                         
                                                                                
   TITEL  = PAW_PBE Mo_pv 08Apr2002                                             
   LULTRA =        F    use ultrasoft PP ?                                      
   IUNSCR =        1    unscreen: 0-lin 1-nonlin 2-no                           
   RPACOR =    2.200    partial core radius                                     
   POMASS =   95.940; ZVAL   =   12.000    mass and valenz                      
   RCORE  =    2.600    outmost cutoff radius                                   
   RWIGS  =    2.750; RWIGS  =    1.455    wigner-seitz radius (au A)           
   ENMAX  =  224.584; ENMIN  =  168.438 eV                                      
   RCLOC  =    1.902    cutoff for local pot                                    
   LCOR   =        T    correct aug charges                                     
   LPAW   =        T    paw PP                                                  
   EAUG   =  392.427                                                            
   DEXC   =    -.006                                                            
   RMAX   =    3.077    core radius for proj-oper                               
   RAUG   =    1.300    factor for augmentation sphere                          
   RDEP   =    2.641    radius for radial grids                                 
   QCUT   =   -4.063; QGAM   =    8.126    optimization parameters              
                                                                                
   Description                                                                  
     l     E      TYP  RCUT    TYP  RCUT                                        
     1   .000     23  2.500                                                     
     1  -.200     23  2.500                                                     
     2   .000     23  2.500                                                     
     2   .000     23  2.500                                                     
     0   .000     23  2.600                                                     
     0  1.000     23  2.600                                                     
     3   .000      7   .000                                                     
  local pseudopotential read in
  partial core-charges read in
  atomic valenz-charges read in
  non local Contribution for L=           1  read in
    real space projection operators read in
  non local Contribution for L=           1  read in
    real space projection operators read in
  non local Contribution for L=           2  read in
    real space projection operators read in
  non local Contribution for L=           2  read in
    real space projection operators read in
  non local Contribution for L=           0  read in
    real space projection operators read in
  non local Contribution for L=           0  read in
    real space projection operators read in
    PAW grid and wavefunctions read in
 
   number of l-projection  operators is LMAX  =           6
   number of lm-projection operators is LMMAX =          18
 
 POTCAR:    PAW_PBE S 17Jan2003                   
   VRHFIN =S : s2p4                                                             
   LEXCH  = PE                                                                  
   EATOM  =   276.8230 eV,   20.3459 Ry                                         
                                                                                
   TITEL  = PAW_PBE S 17Jan2003                                                 
   LULTRA =        F    use ultrasoft PP ?                                      
   IUNSCR =        1    unscreen: 0-lin 1-nonlin 2-no                           
   RPACOR =    1.500    partial core radius                                     
   POMASS =   32.066; ZVAL   =    6.000    mass and valenz                      
   RCORE  =    1.900    outmost cutoff radius                                   
   RWIGS  =    2.200; RWIGS  =    1.164    wigner-seitz radius (au A)           
   ENMAX  =  280.000; ENMIN  =  194.016 eV                                      
   ICORE  =        2    local potential                                         
   LCOR   =        T    correct aug charges                                     
   LPAW   =        T    paw PP                                                  
   EAUG   =  335.092                                                            
   DEXC   =     .000                                                            
   RMAX   =    2.867    core radius for proj-oper                               
   RAUG   =    1.300    factor for augmentation sphere                          
   RDEP   =    1.954    radius for radial grids                                 
   QCUT   =   -4.360; QGAM   =    8.721    optimization parameters              
                                                                                
   Description                                                                  
     l     E      TYP  RCUT    TYP  RCUT                                        
     0   .000     23  1.900                                                     
     0   .000     23  1.900                                                     
     1   .000     23  1.900                                                     
     1   .000     23  1.900                                                     
     2   .000     23  1.900                                                     
  local pseudopotential read in
  partial core-charges read in
  atomic valenz-charges read in
  non local Contribution for L=           0  read in
    real space projection operators read in
  non local Contribution for L=           0  read in
    real space projection operators read in
  non local Contribution for L=           1  read in
    real space projection operators read in
  non local Contribution for L=           1  read in
    real space projection operators read in
    PAW grid and wavefunctions read in
 
   number of l-projection  operators is LMAX  =           4
   number of lm-projection operators is LMMAX =           8
 
 PAW_PBE Mo_pv 08Apr2002                :
 energy of atom  1       EATOM=-1284.3009
 kinetic energy error for atom=    0.0035 (will be added to EATOM!!)
  PAW_PBE S 17Jan2003                   :
 energy of atom  2       EATOM= -276.8230
 kinetic energy error for atom=    0.0033 (will be added to EATOM!!)
 
 
 POSCAR: Mo1                                     
  positions in direct lattice
  velocities in cartesian coordinates
 exchange correlation table for  LEXCH =        8
   RHO(1)=    0.500       N(1)  =     2000
   RHO(2)=  100.500       N(2)  =     4000
 


--------------------------------------------------------------------------------------------------------


 ion  position               nearest neighbor table
   1  0.000  0.000  0.068-   3 2.42   3 2.42   3 2.42   2 2.42   2 2.42   2 2.42
   2  0.333  0.667  0.136-   1 2.42   1 2.42   1 2.42
   3  0.333  0.667  1.000-   1 2.42   1 2.42   1 2.42
 
  LATTYP: Found a hexagonal cell.
 ALAT       =     3.1964094306
 C/A-ratio  =     7.2364111577
  
  Lattice vectors:
  
 A1 = (   1.5982047153,  -2.7681710047,   0.0000000000)
 A2 = (   1.5982047153,   2.7681710047,   0.0000000000)
 A3 = (   0.0000000000,   0.0000000000,  23.1305328680)


Analysis of symmetry for initial positions (statically):
=====================================================================
 Subroutine PRICEL returns:
 Original cell was already a primitive cell.
 

 Routine SETGRP: Setting up the symmetry group for a 
 hexagonal supercell.


 Subroutine GETGRP returns: Found 12 space group operations
 (whereof  6 operations were pure point group operations)
 out of a pool of 24 trial point group operations.


The static configuration has the point symmetry C_3v.
 The point group associated with its full space group is D_3h.


Analysis of symmetry for dynamics (positions and initial velocities):
=====================================================================
 Subroutine PRICEL returns:
 Original cell was already a primitive cell.
 

 Routine SETGRP: Setting up the symmetry group for a 
 hexagonal supercell.


 Subroutine GETGRP returns: Found 12 space group operations
 (whereof  6 operations were pure point group operations)
 out of a pool of 24 trial point group operations.


The dynamic configuration has the point symmetry C_3v.
 The point group associated with its full space group is D_3h.


Analysis of magnetic symmetry:
=====================================================================
 Subroutine PRICEL returns:
 Original cell was already a primitive cell.
 

 Subroutine MAGSYM returns: Found 12 space group operations
 (whereof  6 operations were pure point group operations)
 out of a pool of 12 trial space group operations
 (whereof  6 operations were pure point group operations)
 and found also     1 'primitive' translations


The magnetic configuration has the point symmetry C_3v.
 The point group associated with its full space group is D_3h.
 
 
 KPOINTS: Automatically generated mesh            
  k-points in reciprocal lattice
Space group operators:
 irot       det(A)        alpha          n_x          n_y          n_z        tau_x        tau_y        tau_z
    1     1.000000     0.000000     1.000000     0.000000     0.000000     0.000000     0.000000     0.000000
    2     1.000000   120.000000     0.000000     0.000000    -1.000000     0.000000     0.000000     0.000000
    3     1.000000   120.000000     0.000000     0.000000     1.000000     0.000000     0.000000     0.000000
    4    -1.000000   180.000000     0.500000    -0.866025     0.000000     0.000000     0.000000     0.000000
    5    -1.000000   180.000000    -0.500000    -0.866025     0.000000     0.000000     0.000000     0.000000
    6    -1.000000   180.000000     1.000000     0.000000     0.000000     0.000000     0.000000     0.000000
    7    -1.000000    60.000000     0.000000     0.000000    -1.000000     0.000000     0.000000     0.135338
    8    -1.000000   180.000000     0.000000     0.000000     1.000000     0.000000     0.000000     0.135338
    9    -1.000000    60.000000     0.000000     0.000000     1.000000     0.000000     0.000000     0.135338
   10     1.000000   180.000000     0.000000     1.000000     0.000000     0.000000     0.000000     0.135338
   11     1.000000   180.000000     0.866025     0.500000     0.000000     0.000000     0.000000     0.135338
   12     1.000000   180.000000     0.866025    -0.500000     0.000000     0.000000     0.000000     0.135338

 ----------------------------------------------------------------------------- 
|                                                                             |
|           W    W    AA    RRRRR   N    N  II  N    N   GGGG   !!!           |
|           W    W   A  A   R    R  NN   N  II  NN   N  G    G  !!!           |
|           W    W  A    A  R    R  N N  N  II  N N  N  G       !!!           |
|           W WW W  AAAAAA  RRRRR   N  N N  II  N  N N  G  GGG   !            |
|           WW  WW  A    A  R   R   N   NN  II  N   NN  G    G                |
|           W    W  A    A  R    R  N    N  II  N    N   GGGG   !!!           |
|                                                                             |
|      Your generating k-point grid is not commensurate to the symmetry       |
|      of the lattice.  This can cause   slow convergence with respect        |
|      to k-points for HF type calculations                                   |
|      suggested SOLUTIONS:                                                   |
|       ) if not already the case, use automatic k-point generation           |
|       ) shift your grid to Gamma (G) (e.g. required for hex or fcc lattice) |
|                                                                             |
 ----------------------------------------------------------------------------- 

 
 Subroutine IBZKPT_HF returns following result:
 ==============================================
 
 Found    232 k-points in 1st BZ
 the following    232 k-points will be used (e.g. in the exchange kernel)
 Following reciprocal coordinates:   # in IRBZ
  0.000000  0.000000  0.000000    0.00591716   1 t-inv F
  0.076923  0.000000  0.000000    0.00591716   2 t-inv F
  0.153846  0.000000  0.000000    0.00591716   3 t-inv F
  0.230769  0.000000  0.000000    0.00591716   4 t-inv F
  0.307692  0.000000  0.000000    0.00591716   5 t-inv F
  0.384615  0.000000  0.000000    0.00591716   6 t-inv F
  0.461538  0.000000  0.000000    0.00591716   7 t-inv F
  0.076923  0.076923  0.000000    0.00591716   8 t-inv F
  0.153846  0.076923  0.000000    0.00591716   9 t-inv F
  0.230769  0.076923  0.000000    0.00591716  10 t-inv F
  0.307692  0.076923  0.000000    0.00591716  11 t-inv F
  0.384615  0.076923  0.000000    0.00591716  12 t-inv F
  0.461538  0.076923  0.000000    0.00591716  13 t-inv F
  0.153846  0.153846  0.000000    0.00591716  14 t-inv F
  0.230769  0.153846  0.000000    0.00591716  15 t-inv F
  0.307692  0.153846  0.000000    0.00591716  16 t-inv F
  0.384615  0.153846  0.000000    0.00591716  17 t-inv F
  0.230769  0.230769  0.000000    0.00591716  18 t-inv F
  0.307692  0.230769  0.000000    0.00591716  19 t-inv F
  0.384615  0.230769  0.000000    0.00591716  20 t-inv F
  0.307692  0.307692  0.000000    0.00591716  21 t-inv F
  0.000000  0.000000  0.000000    0.00000000  22 t-inv F
  0.016667  0.016667  0.000000    0.00000000  23 t-inv F
  0.033333  0.033333  0.000000    0.00000000  24 t-inv F
  0.050000  0.050000  0.000000    0.00000000  25 t-inv F
  0.066667  0.066667  0.000000    0.00000000  26 t-inv F
  0.083333  0.083333  0.000000    0.00000000  27 t-inv F
  0.100000  0.100000  0.000000    0.00000000  28 t-inv F
  0.116667  0.116667  0.000000    0.00000000  29 t-inv F
  0.133333  0.133333  0.000000    0.00000000  30 t-inv F
  0.150000  0.150000  0.000000    0.00000000  31 t-inv F
  0.166667  0.166667  0.000000    0.00000000  32 t-inv F
  0.183333  0.183333  0.000000    0.00000000  33 t-inv F
  0.200000  0.200000  0.000000    0.00000000  34 t-inv F
  0.216667  0.216667  0.000000    0.00000000  35 t-inv F
  0.233333  0.233333  0.000000    0.00000000  36 t-inv F
  0.250000  0.250000  0.000000    0.00000000  37 t-inv F
  0.266667  0.266667  0.000000    0.00000000  38 t-inv F
  0.283333  0.283333  0.000000    0.00000000  39 t-inv F
  0.300000  0.300000  0.000000    0.00000000  40 t-inv F
  0.316667  0.316667  0.000000    0.00000000  41 t-inv F
  0.333333  0.333333  0.000000    0.00000000  42 t-inv F
  0.333333  0.333333  0.000000    0.00000000  43 t-inv F
  0.341667  0.316667  0.000000    0.00000000  44 t-inv F
  0.350000  0.300000  0.000000    0.00000000  45 t-inv F
  0.358333  0.283333  0.000000    0.00000000  46 t-inv F
  0.366667  0.266667  0.000000    0.00000000  47 t-inv F
  0.375000  0.250000  0.000000    0.00000000  48 t-inv F
  0.383333  0.233333  0.000000    0.00000000  49 t-inv F
  0.391667  0.216667  0.000000    0.00000000  50 t-inv F
  0.400000  0.200000  0.000000    0.00000000  51 t-inv F
  0.408333  0.183333  0.000000    0.00000000  52 t-inv F
  0.416667  0.166667  0.000000    0.00000000  53 t-inv F
  0.425000  0.150000  0.000000    0.00000000  54 t-inv F
  0.433333  0.133333  0.000000    0.00000000  55 t-inv F
  0.441667  0.116667  0.000000    0.00000000  56 t-inv F
  0.450000  0.100000  0.000000    0.00000000  57 t-inv F
  0.458333  0.083333  0.000000    0.00000000  58 t-inv F
  0.466667  0.066667  0.000000    0.00000000  59 t-inv F
  0.475000  0.050000  0.000000    0.00000000  60 t-inv F
  0.483333  0.033333  0.000000    0.00000000  61 t-inv F
  0.491667  0.016667  0.000000    0.00000000  62 t-inv F
  0.500000  0.000000  0.000000    0.00000000  63 t-inv F
  0.500000  0.000000  0.000000    0.00000000  64 t-inv F
  0.475000  0.000000  0.000000    0.00000000  65 t-inv F
  0.450000  0.000000  0.000000    0.00000000  66 t-inv F
  0.425000  0.000000  0.000000    0.00000000  67 t-inv F
  0.400000  0.000000  0.000000    0.00000000  68 t-inv F
  0.375000  0.000000  0.000000    0.00000000  69 t-inv F
  0.350000  0.000000  0.000000    0.00000000  70 t-inv F
  0.325000  0.000000  0.000000    0.00000000  71 t-inv F
  0.300000  0.000000  0.000000    0.00000000  72 t-inv F
  0.275000  0.000000  0.000000    0.00000000  73 t-inv F
  0.250000  0.000000  0.000000    0.00000000  74 t-inv F
  0.225000  0.000000  0.000000    0.00000000  75 t-inv F
  0.200000  0.000000  0.000000    0.00000000  76 t-inv F
  0.175000  0.000000  0.000000    0.00000000  77 t-inv F
  0.150000  0.000000  0.000000    0.00000000  78 t-inv F
  0.125000  0.000000  0.000000    0.00000000  79 t-inv F
  0.100000  0.000000  0.000000    0.00000000  80 t-inv F
  0.075000  0.000000  0.000000    0.00000000  81 t-inv F
  0.050000  0.000000  0.000000    0.00000000  82 t-inv F
  0.025000  0.000000  0.000000    0.00000000  83 t-inv F
  0.000000  0.000000  0.000000    0.00000000  84 t-inv F
 -0.076923  0.076923  0.000000    0.00591716   2 t-inv F
  0.000000 -0.076923  0.000000    0.00591716   2 t-inv F
 -0.153846  0.153846  0.000000    0.00591716   3 t-inv F
  0.000000 -0.153846  0.000000    0.00591716   3 t-inv F
 -0.230769  0.230769  0.000000    0.00591716   4 t-inv F
  0.000000 -0.230769  0.000000    0.00591716   4 t-inv F
 -0.307692  0.307692  0.000000    0.00591716   5 t-inv F
  0.000000 -0.307692  0.000000    0.00591716   5 t-inv F
 -0.384615  0.384615  0.000000    0.00591716   6 t-inv F
  0.000000 -0.384615  0.000000    0.00591716   6 t-inv F
 -0.461538  0.461538  0.000000    0.00591716   7 t-inv F
  0.000000 -0.461538  0.000000    0.00591716   7 t-inv F
 -0.153846  0.076923  0.000000    0.00591716   8 t-inv F
  0.076923 -0.153846  0.000000    0.00591716   8 t-inv F
 -0.076923  0.153846  0.000000    0.00591716   8 t-inv F
  0.153846 -0.076923  0.000000    0.00591716   8 t-inv F
 -0.076923 -0.076923  0.000000    0.00591716   8 t-inv F
 -0.230769  0.153846  0.000000    0.00591716   9 t-inv F
  0.076923 -0.230769  0.000000    0.00591716   9 t-inv F
 -0.153846  0.230769  0.000000    0.00591716   9 t-inv F
  0.230769 -0.076923  0.000000    0.00591716   9 t-inv F
 -0.076923 -0.153846  0.000000    0.00591716   9 t-inv F
 -0.307692  0.230769  0.000000    0.00591716  10 t-inv F
  0.076923 -0.307692  0.000000    0.00591716  10 t-inv F
 -0.230769  0.307692  0.000000    0.00591716  10 t-inv F
  0.307692 -0.076923  0.000000    0.00591716  10 t-inv F
 -0.076923 -0.230769  0.000000    0.00591716  10 t-inv F
 -0.384615  0.307692  0.000000    0.00591716  11 t-inv F
  0.076923 -0.384615  0.000000    0.00591716  11 t-inv F
 -0.307692  0.384615  0.000000    0.00591716  11 t-inv F
  0.384615 -0.076923  0.000000    0.00591716  11 t-inv F
 -0.076923 -0.307692  0.000000    0.00591716  11 t-inv F
 -0.461538  0.384615  0.000000    0.00591716  12 t-inv F
  0.076923 -0.461538  0.000000    0.00591716  12 t-inv F
 -0.384615  0.461538  0.000000    0.00591716  12 t-inv F
  0.461538 -0.076923  0.000000    0.00591716  12 t-inv F
 -0.076923 -0.384615  0.000000    0.00591716  12 t-inv F
 -0.538462  0.461538  0.000000    0.00591716  13 t-inv F
  0.076923 -0.538462  0.000000    0.00591716  13 t-inv F
 -0.461538  0.538462  0.000000    0.00591716  13 t-inv F
  0.538462 -0.076923  0.000000    0.00591716  13 t-inv F
 -0.076923 -0.461538  0.000000    0.00591716  13 t-inv F
 -0.307692  0.153846  0.000000    0.00591716  14 t-inv F
  0.153846 -0.307692  0.000000    0.00591716  14 t-inv F
 -0.153846  0.307692  0.000000    0.00591716  14 t-inv F
  0.307692 -0.153846  0.000000    0.00591716  14 t-inv F
 -0.153846 -0.153846  0.000000    0.00591716  14 t-inv F
 -0.384615  0.230769  0.000000    0.00591716  15 t-inv F
  0.153846 -0.384615  0.000000    0.00591716  15 t-inv F
 -0.230769  0.384615  0.000000    0.00591716  15 t-inv F
  0.384615 -0.153846  0.000000    0.00591716  15 t-inv F
 -0.153846 -0.230769  0.000000    0.00591716  15 t-inv F
 -0.461538  0.307692  0.000000    0.00591716  16 t-inv F
  0.153846 -0.461538  0.000000    0.00591716  16 t-inv F
 -0.307692  0.461538  0.000000    0.00591716  16 t-inv F
  0.461538 -0.153846  0.000000    0.00591716  16 t-inv F
 -0.153846 -0.307692  0.000000    0.00591716  16 t-inv F
 -0.538462  0.384615  0.000000    0.00591716  17 t-inv F
  0.153846 -0.538462  0.000000    0.00591716  17 t-inv F
 -0.384615  0.538462  0.000000    0.00591716  17 t-inv F
  0.538462 -0.153846  0.000000    0.00591716  17 t-inv F
 -0.153846 -0.384615  0.000000    0.00591716  17 t-inv F
 -0.461538  0.230769  0.000000    0.00591716  18 t-inv F
  0.230769 -0.461538  0.000000    0.00591716  18 t-inv F
 -0.230769  0.461538  0.000000    0.00591716  18 t-inv F
  0.461538 -0.230769  0.000000    0.00591716  18 t-inv F
 -0.230769 -0.230769  0.000000    0.00591716  18 t-inv F
 -0.538462  0.307692  0.000000    0.00591716  19 t-inv F
  0.230769 -0.538462  0.000000    0.00591716  19 t-inv F
 -0.307692  0.538462  0.000000    0.00591716  19 t-inv F
  0.538462 -0.230769  0.000000    0.00591716  19 t-inv F
 -0.230769 -0.307692  0.000000    0.00591716  19 t-inv F
 -0.615385  0.384615  0.000000    0.00591716  20 t-inv F
  0.230769 -0.615385  0.000000    0.00591716  20 t-inv F
 -0.384615  0.615385  0.000000    0.00591716  20 t-inv F
  0.615385 -0.230769  0.000000    0.00591716  20 t-inv F
 -0.230769 -0.384615  0.000000    0.00591716  20 t-inv F
 -0.615385  0.307692  0.000000    0.00591716  21 t-inv F
  0.307692 -0.615385  0.000000    0.00591716  21 t-inv F
 -0.307692  0.615385  0.000000    0.00591716  21 t-inv F
  0.615385 -0.307692  0.000000    0.00591716  21 t-inv F
 -0.307692 -0.307692  0.000000    0.00591716  21 t-inv F
 -0.076923  0.000000  0.000000    0.00591716   2 t-inv T
  0.076923 -0.076923  0.000000    0.00591716   2 t-inv T
  0.000000  0.076923  0.000000    0.00591716   2 t-inv T
 -0.153846  0.000000  0.000000    0.00591716   3 t-inv T
  0.153846 -0.153846  0.000000    0.00591716   3 t-inv T
  0.000000  0.153846  0.000000    0.00591716   3 t-inv T
 -0.230769  0.000000  0.000000    0.00591716   4 t-inv T
  0.230769 -0.230769  0.000000    0.00591716   4 t-inv T
  0.000000  0.230769  0.000000    0.00591716   4 t-inv T
 -0.307692  0.000000  0.000000    0.00591716   5 t-inv T
  0.307692 -0.307692  0.000000    0.00591716   5 t-inv T
  0.000000  0.307692  0.000000    0.00591716   5 t-inv T
 -0.384615  0.000000  0.000000    0.00591716   6 t-inv T
  0.384615 -0.384615  0.000000    0.00591716   6 t-inv T
  0.000000  0.384615  0.000000    0.00591716   6 t-inv T
 -0.461538  0.000000  0.000000    0.00591716   7 t-inv T
  0.461538 -0.461538  0.000000    0.00591716   7 t-inv T
  0.000000  0.461538  0.000000    0.00591716   7 t-inv T
 -0.153846 -0.076923  0.000000    0.00591716   9 t-inv T
  0.230769 -0.153846  0.000000    0.00591716   9 t-inv T
 -0.076923  0.230769  0.000000    0.00591716   9 t-inv T
  0.153846 -0.230769  0.000000    0.00591716   9 t-inv T
 -0.230769  0.076923  0.000000    0.00591716   9 t-inv T
  0.076923  0.153846  0.000000    0.00591716   9 t-inv T
 -0.230769 -0.076923  0.000000    0.00591716  10 t-inv T
  0.307692 -0.230769  0.000000    0.00591716  10 t-inv T
 -0.076923  0.307692  0.000000    0.00591716  10 t-inv T
  0.230769 -0.307692  0.000000    0.00591716  10 t-inv T
 -0.307692  0.076923  0.000000    0.00591716  10 t-inv T
  0.076923  0.230769  0.000000    0.00591716  10 t-inv T
 -0.307692 -0.076923  0.000000    0.00591716  11 t-inv T
  0.384615 -0.307692  0.000000    0.00591716  11 t-inv T
 -0.076923  0.384615  0.000000    0.00591716  11 t-inv T
  0.307692 -0.384615  0.000000    0.00591716  11 t-inv T
 -0.384615  0.076923  0.000000    0.00591716  11 t-inv T
  0.076923  0.307692  0.000000    0.00591716  11 t-inv T
 -0.384615 -0.076923  0.000000    0.00591716  12 t-inv T
  0.461538 -0.384615  0.000000    0.00591716  12 t-inv T
 -0.076923  0.461538  0.000000    0.00591716  12 t-inv T
  0.384615 -0.461538  0.000000    0.00591716  12 t-inv T
 -0.461538  0.076923  0.000000    0.00591716  12 t-inv T
  0.076923  0.384615  0.000000    0.00591716  12 t-inv T
 -0.230769 -0.153846  0.000000    0.00591716  15 t-inv T
  0.384615 -0.230769  0.000000    0.00591716  15 t-inv T
 -0.153846  0.384615  0.000000    0.00591716  15 t-inv T
  0.230769 -0.384615  0.000000    0.00591716  15 t-inv T
 -0.384615  0.153846  0.000000    0.00591716  15 t-inv T
  0.153846  0.230769  0.000000    0.00591716  15 t-inv T
 -0.307692 -0.153846  0.000000    0.00591716  16 t-inv T
  0.461538 -0.307692  0.000000    0.00591716  16 t-inv T
 -0.153846  0.461538  0.000000    0.00591716  16 t-inv T
  0.307692 -0.461538  0.000000    0.00591716  16 t-inv T
 -0.461538  0.153846  0.000000    0.00591716  16 t-inv T
  0.153846  0.307692  0.000000    0.00591716  16 t-inv T
 -0.384615 -0.153846  0.000000    0.00591716  17 t-inv T
  0.538462 -0.384615  0.000000    0.00591716  17 t-inv T
 -0.153846  0.538462  0.000000    0.00591716  17 t-inv T
  0.384615 -0.538462  0.000000    0.00591716  17 t-inv T
 -0.538462  0.153846  0.000000    0.00591716  17 t-inv T
  0.153846  0.384615  0.000000    0.00591716  17 t-inv T
 -0.307692 -0.230769  0.000000    0.00591716  19 t-inv T
  0.538462 -0.307692  0.000000    0.00591716  19 t-inv T
 -0.230769  0.538462  0.000000    0.00591716  19 t-inv T
  0.307692 -0.538462  0.000000    0.00591716  19 t-inv T
 -0.538462  0.230769  0.000000    0.00591716  19 t-inv T
  0.230769  0.307692  0.000000    0.00591716  19 t-inv T


--------------------------------------------------------------------------------------------------------




 Dimension of arrays:
   k-points           NKPTS =     84   k-points in BZ     NKDIM =    232   number of bands    NBANDS=     24
   number of dos      NEDOS =    301   number of ions     NIONS =      3
   non local maximal  LDIM  =      6   non local SUM 2l+1 LMDIM =     18
   total plane-waves  NPLWV =  92160
   max r-space proj   IRMAX =      1   max aug-charges    IRDMAX=  24057
   dimension x,y,z NGX =    24 NGY =   24 NGZ =  160
   dimension x,y,z NGXF=    48 NGYF=   48 NGZF=  320
   support grid    NGXF=    48 NGYF=   48 NGZF=  320
   ions per type =               1   2
 NGX,Y,Z   is equivalent  to a cutoff of  12.48, 12.48, 11.50 a.u.
 NGXF,Y,Z  is equivalent  to a cutoff of  24.96, 24.96, 23.00 a.u.


 I would recommend the setting:
   dimension x,y,z NGX =    22 NGY =   22 NGZ =  160
 SYSTEM =  unknown system                          
 POSCAR =  Mo1                                     

 Startparameter for this run:
   NWRITE =      2    write-flag & timer
   PREC   = accura    normal or accurate (medium, high low for compatibility)
   ISTART =      0    job   : 0-new  1-cont  2-samecut
   ICHARG =      2    charge: 1-file 2-atom 10-const
   ISPIN  =      2    spin polarized calculation?
   LNONCOLLINEAR =      F non collinear calculations
   LSORBIT =      F    spin-orbit coupling
   INIWAV =      1    electr: 0-lowe 1-rand  2-diag
   LASPH  =      F    aspherical Exc in radial PAW
   METAGGA=      F    non-selfconsistent MetaGGA calc.

 Electronic Relaxation 1
   ENCUT  =  450.0 eV  33.07 Ry    5.75 a.u.   5.53  5.53 40.01*2*pi/ulx,y,z
   ENINI  =  450.0     initial cutoff
   ENAUG  =  392.4 eV  augmentation charge cutoff
   NELM   =     60;   NELMIN=  2; NELMDL= -5     # of ELM steps 
   EDIFF  = 0.1E-03   stopping-criterion for ELM
   LREAL  =      F    real-space projection
   NLSPLINE    = F    spline interpolate recip. space projectors
   LCOMPAT=      F    compatible to vasp.4.4
   GGA_COMPAT  = T    GGA compatible to vasp.4.4-vasp.4.6
   LMAXPAW     = -100 max onsite density
   LMAXMIX     =    2 max onsite mixed and CHGCAR
   VOSKOWN=      0    Vosko Wilk Nusair interpolation
   ROPT   =    0.00000   0.00000
 Ionic relaxation
   EDIFFG = 0.1E-02   stopping-criterion for IOM
   NSW    =      0    number of steps for IOM
   NBLOCK =      1;   KBLOCK =      1    inner block; outer block 
   IBRION =     -1    ionic relax: 0-MD 1-quasi-New 2-CG
   NFREE  =      1    steps in history (QN), initial steepest desc. (CG)
   ISIF   =      3    stress and relaxation
   IWAVPR =     10    prediction:  0-non 1-charg 2-wave 3-comb
   ISYM   =      3    0-nonsym 1-usesym 2-fastsym
   LCORR  =      T    Harris-Foulkes like correction to forces

   POTIM  = 0.5000    time-step for ionic-motion
   TEIN   =    0.0    initial temperature
   TEBEG  =    0.0;   TEEND  =   0.0 temperature during run
   SMASS  =  -3.00    Nose mass-parameter (am)
   estimated Nose-frequenzy (Omega)   =  0.10E-29 period in steps =****** mass=  -0.233E-27a.u.
   SCALEE = 1.0000    scale energy and forces
   NPACO  =    256;   APACO  = 16.0  distance and # of slots for P.C.
   PSTRESS=    0.0 pullay stress

  Mass of Ions in am
   POMASS =  95.94 32.07
  Ionic Valenz
   ZVAL   =  12.00  6.00
  Atomic Wigner-Seitz radii
   RWIGS  =  -1.00 -1.00
  virtual crystal weights 
   VCA    =   1.00  1.00
   NELECT =      24.0000    total number of electrons
   NUPDOWN=      -1.0000    fix difference up-down

 DOS related values:
   EMIN   =  10.00;   EMAX   =-10.00  energy-range for DOS
   EFERMI =   0.00
   ISMEAR =     1;   SIGMA  =   0.10  broadening in eV -4-tet -1-fermi 0-gaus

 Electronic relaxation 2 (details)
   IALGO  =     53    algorithm
   LDIAG  =      T    sub-space diagonalisation (order eigenvalues)
   LSUBROT=      F    optimize rotation matrix (better conditioning)
   TURBO    =      0    0=normal 1=particle mesh
   IRESTART =      0    0=no restart 2=restart with 2 vectors
   NREBOOT  =      0    no. of reboots
   NMIN     =      0    reboot dimension
   EREF     =   0.00    reference energy to select bands
   IMIX   =      4    mixing-type and parameters
     AMIX     =   0.40;   BMIX     =  1.00
     AMIX_MAG =   1.60;   BMIX_MAG =  1.00
     AMIN     =   0.10
     WC   =   100.;   INIMIX=   1;  MIXPRE=   1;  MAXMIX= -45

 Intra band minimization:
   WEIMIN = 0.0000     energy-eigenvalue tresh-hold
   EBREAK =  0.10E-05  absolut break condition
   DEPER  =   0.30     relativ break condition  

   TIME   =   0.40     timestep for ELM

  volume/ion in A,a.u.               =      68.22       460.38
  Fermi-wavevector in a.u.,A,eV,Ry     =   0.801306  1.514248  8.736177  0.642091
  Thomas-Fermi vector in A             =   1.908767
 
 Write flags
   LWAVE  =      T    write WAVECAR
   LCHARG =      T    write CHGCAR
   LVTOT  =      F    write LOCPOT, total local potential
   LVHAR  =      T    write LOCPOT, Hartree potential only
   LELF   =      F    write electronic localiz. function (ELF)
   LORBIT =     11    0 simple, 1 ext, 2 COOP (PROOUT)


 Dipole corrections
   LMONO  =      F    monopole corrections only (constant potential shift)
   LDIPOL =      F    correct potential (dipole corrections)
   IDIPOL =      0    1-x, 2-y, 3-z, 4-all directions 
   EPSILON=  1.0000000 bulk dielectric constant

 Exchange correlation treatment:
   GGA     =    --    GGA type
   LEXCH   =     8    internal setting for exchange type
   VOSKOWN=      0    Vosko Wilk Nusair interpolation
   EXXOEP  =     0    0=HF, 1=EXX-LHF (local Hartree Fock) 2=EXX OEP
   LHFCALC =     T    Hartree Fock is set to
   LSYMGRAD=     F    symmetrize gradient (conserves proper symmetry)
   PRECFOCK=normal    Normal, Fast or Accurate (Low or Medium for compatibility)
   LRHFCALC=     F    long range Hartree Fock
   LRSCOR  =     F    long range correlation only (use DFT for short range part)
   LTHOMAS =     F    Thomas Fermi screening in HF
   LMODELHF=     F    short range full HF, long range fraction AEXX
   ENCUT4O =  -1.0   cutoff for four orbital integrals eV
   LMAXFOCK=     4    L truncation for augmentation on plane wave grid
   LMAXFOCKAE=  -1    L truncation for all-electron charge restoration on plane wave grid
   NMAXFOCKAE=   1    number of basis functions for all-electron charge restoration
   LFOCKAEDFT=     F  apply the AE augmentation even for DFT
   NKREDX  =     1    reduce k-point grid by
   NKREDY  =     1    reduce k-point grid by
   NKREDZ  =     1    reduce k-point grid by
   SHIFTRED=     F    shift reduced grid of Gamma
   HFKIDENT=     F    idential grid for each k-point
   ODDONLY =     F    use only odd q-grid points
   EVENONLY=     F    use only even q-grid points
   HFALPHA =   -1.0000 decay constant for conv. correction
   MCALPHA =    0.0000 extent of test-charge in conv. correction in multipole expansion
   AEXX    =    0.2500 exact exchange contribution
   HFSCREEN=    0.2000 screening length (either q_TF or 0.3 A-1)
   HFSCREENC=   0.2000 screening length for correlation (either q_TF or 0.3 A-1)
   HFRCUT  =    0.0000 spherical cutoff for potential kernel
   ALDAX   =    0.7500 LDA exchange part
   AGGAX   =    0.7500 GGA exchange part
   ALDAC   =    1.0000 LDA correlation
   AGGAC   =    1.0000 GGA correlation
   NBANDSGWLOW=     1    first orbital included in HF term
   ENCUTFOCK=  -1.0 apply spherical cutoff to Coloumb kernel
 Linear response parameters
   LEPSILON=     F    determine dielectric tensor
   LRPA    =     F    only Hartree local field effects (RPA)
   LNABLA  =     F    use nabla operator in PAW spheres
   LVEL    =     F    velocity operator in full k-point grid
   LINTERFAST=   F  fast interpolation
   KINTER  =     0    interpolate to denser k-point grid
   CSHIFT  =0.1000    complex shift for real part using Kramers Kronig
   OMEGAMAX=  -1.0    maximum frequency
   DEG_THRESHOLD= 0.2000000E-02 threshold for treating states as degnerate
   RTIME   =    0.100 relaxation time in fs

 Orbital magnetization related:
   ORBITALMAG=     F  switch on orbital magnetization
   LCHIMAG   =     F  perturbation theory with respect to B field
   DQ        =  0.001000  dq finite difference perturbation B field



--------------------------------------------------------------------------------------------------------


 Static calculation
 charge density and potential will be updated during run
 spin polarized calculation
 Conjugate gradient for all bands (Freysoldt, et al. PRB 79, 241103 (2009))
 perform sub-space diagonalisation
    before iterative eigenvector-optimisation
 modified Broyden-mixing scheme, WC =      100.0
 initial mixing is a Kerker type mixing with AMIX =  0.4000 and BMIX =      1.0000
 Hartree-type preconditioning will be used
 using additional bands           12
 reciprocal scheme for non local part
 use partial core corrections
 no Harris-corrections to forces 
 use gradient corrections 
 use of overlap-Matrix (Vanderbilt PP)
 Methfessel and Paxton  Order N= 1 SIGMA  =   0.10


--------------------------------------------------------------------------------------------------------


  energy-cutoff  :      450.00
  volume of cell :      204.66
      direct lattice vectors                 reciprocal lattice vectors
     1.598204715 -2.768171005  0.000000000     0.312851035 -0.180624679  0.000000000
     1.598204715  2.768171005  0.000000000     0.312851035  0.180624679  0.000000000
     0.000000000  0.000000000 23.130532868     0.000000000  0.000000000  0.043232899

  length of vectors
     3.196408770  3.196408770 23.130532868     0.361249284  0.361249284  0.043232899


 
 k-points in units of 2pi/SCALE and weight: Automatically generated mesh            
   0.00000000  0.00000000  0.00000000       0.006
   0.02406546 -0.01389421  0.00000000       0.036
   0.04813093 -0.02778841  0.00000000       0.036
   0.07219639 -0.04168262  0.00000000       0.036
   0.09626186 -0.05557682  0.00000000       0.036
   0.12032732 -0.06947103  0.00000000       0.036
   0.14439279 -0.08336524  0.00000000       0.036
   0.04813093  0.00000000  0.00000000       0.036
   0.07219639 -0.01389421  0.00000000       0.071
   0.09626186 -0.02778841  0.00000000       0.071
   0.12032732 -0.04168262  0.00000000       0.071
   0.14439279 -0.05557682  0.00000000       0.071
   0.16845825 -0.06947103  0.00000000       0.036
   0.09626186 -0.00000000  0.00000000       0.036
   0.12032732 -0.01389421  0.00000000       0.071
   0.14439279 -0.02778841  0.00000000       0.071
   0.16845825 -0.04168262  0.00000000       0.071
   0.14439279 -0.00000000  0.00000000       0.036
   0.16845825 -0.01389421  0.00000000       0.071
   0.19252371 -0.02778841  0.00000000       0.036
   0.19252371 -0.00000000  0.00000000       0.036
   0.00000000  0.00000000  0.00000000       0.000
   0.01042837  0.00000000  0.00000000       0.000
   0.02085674 -0.00000000  0.00000000       0.000
   0.03128510  0.00000000  0.00000000       0.000
   0.04171347 -0.00000000  0.00000000       0.000
   0.05214184  0.00000000  0.00000000       0.000
   0.06257021 -0.00000000  0.00000000       0.000
   0.07299857  0.00000000  0.00000000       0.000
   0.08342694  0.00000000  0.00000000       0.000
   0.09385531 -0.00000000  0.00000000       0.000
   0.10428368  0.00000000  0.00000000       0.000
   0.11471205 -0.00000000  0.00000000       0.000
   0.12514041  0.00000000  0.00000000       0.000
   0.13556878 -0.00000000  0.00000000       0.000
   0.14599715  0.00000000  0.00000000       0.000
   0.15642552  0.00000000  0.00000000       0.000
   0.16685389  0.00000000  0.00000000       0.000
   0.17728225  0.00000000  0.00000000       0.000
   0.18771062 -0.00000000  0.00000000       0.000
   0.19813899 -0.00000000  0.00000000       0.000
   0.20856736  0.00000000  0.00000000       0.000
   0.20856736  0.00000000  0.00000000       0.000
   0.20596026 -0.00451562  0.00000000       0.000
   0.20335317 -0.00903123  0.00000000       0.000
   0.20074608 -0.01354685  0.00000000       0.000
   0.19813899 -0.01806247  0.00000000       0.000
   0.19553190 -0.02257808  0.00000000       0.000
   0.19292481 -0.02709370  0.00000000       0.000
   0.19031771 -0.03160932  0.00000000       0.000
   0.18771062 -0.03612494  0.00000000       0.000
   0.18510353 -0.04064055  0.00000000       0.000
   0.18249644 -0.04515617  0.00000000       0.000
   0.17988935 -0.04967179  0.00000000       0.000
   0.17728225 -0.05418740  0.00000000       0.000
   0.17467516 -0.05870302  0.00000000       0.000
   0.17206807 -0.06321864  0.00000000       0.000
   0.16946098 -0.06773425  0.00000000       0.000
   0.16685389 -0.07224987  0.00000000       0.000
   0.16424679 -0.07676549  0.00000000       0.000
   0.16163970 -0.08128111  0.00000000       0.000
   0.15903261 -0.08579672  0.00000000       0.000
   0.15642552 -0.09031234  0.00000000       0.000
   0.15642552 -0.09031234  0.00000000       0.000
   0.14860424 -0.08579672  0.00000000       0.000
   0.14078297 -0.08128111  0.00000000       0.000
   0.13296169 -0.07676549  0.00000000       0.000
   0.12514041 -0.07224987  0.00000000       0.000
   0.11731914 -0.06773425  0.00000000       0.000
   0.10949786 -0.06321864  0.00000000       0.000
   0.10167659 -0.05870302  0.00000000       0.000
   0.09385531 -0.05418740  0.00000000       0.000
   0.08603403 -0.04967179  0.00000000       0.000
   0.07821276 -0.04515617  0.00000000       0.000
   0.07039148 -0.04064055  0.00000000       0.000
   0.06257021 -0.03612494  0.00000000       0.000
   0.05474893 -0.03160932  0.00000000       0.000
   0.04692766 -0.02709370  0.00000000       0.000
   0.03910638 -0.02257808  0.00000000       0.000
   0.03128510 -0.01806247  0.00000000       0.000
   0.02346383 -0.01354685  0.00000000       0.000
   0.01564255 -0.00903123  0.00000000       0.000
   0.00782128 -0.00451562  0.00000000       0.000
   0.00000000  0.00000000  0.00000000       0.000
 
 k-points in reciprocal lattice and weights: Automatically generated mesh            
   0.00000000  0.00000000  0.00000000       0.006
   0.07692308  0.00000000  0.00000000       0.036
   0.15384615  0.00000000  0.00000000       0.036
   0.23076923  0.00000000  0.00000000       0.036
   0.30769231  0.00000000  0.00000000       0.036
   0.38461538  0.00000000  0.00000000       0.036
   0.46153846  0.00000000  0.00000000       0.036
   0.07692308  0.07692308  0.00000000       0.036
   0.15384615  0.07692308  0.00000000       0.071
   0.23076923  0.07692308  0.00000000       0.071
   0.30769231  0.07692308  0.00000000       0.071
   0.38461538  0.07692308  0.00000000       0.071
   0.46153846  0.07692308  0.00000000       0.036
   0.15384615  0.15384615  0.00000000       0.036
   0.23076923  0.15384615  0.00000000       0.071
   0.30769231  0.15384615  0.00000000       0.071
   0.38461538  0.15384615  0.00000000       0.071
   0.23076923  0.23076923  0.00000000       0.036
   0.30769231  0.23076923  0.00000000       0.071
   0.38461538  0.23076923  0.00000000       0.036
   0.30769231  0.30769231  0.00000000       0.036
   0.00000000  0.00000000  0.00000000       0.000
   0.01666667  0.01666667  0.00000000       0.000
   0.03333333  0.03333333  0.00000000       0.000
   0.05000000  0.05000000  0.00000000       0.000
   0.06666667  0.06666667  0.00000000       0.000
   0.08333333  0.08333333  0.00000000       0.000
   0.10000000  0.10000000  0.00000000       0.000
   0.11666667  0.11666667  0.00000000       0.000
   0.13333333  0.13333333  0.00000000       0.000
   0.15000000  0.15000000  0.00000000       0.000
   0.16666667  0.16666667  0.00000000       0.000
   0.18333333  0.18333333  0.00000000       0.000
   0.20000000  0.20000000  0.00000000       0.000
   0.21666667  0.21666667  0.00000000       0.000
   0.23333333  0.23333333  0.00000000       0.000
   0.25000000  0.25000000  0.00000000       0.000
   0.26666667  0.26666667  0.00000000       0.000
   0.28333333  0.28333333  0.00000000       0.000
   0.30000000  0.30000000  0.00000000       0.000
   0.31666667  0.31666667  0.00000000       0.000
   0.33333333  0.33333333  0.00000000       0.000
   0.33333333  0.33333333  0.00000000       0.000
   0.34166667  0.31666667  0.00000000       0.000
   0.35000000  0.30000000  0.00000000       0.000
   0.35833333  0.28333333  0.00000000       0.000
   0.36666667  0.26666667  0.00000000       0.000
   0.37500000  0.25000000  0.00000000       0.000
   0.38333333  0.23333333  0.00000000       0.000
   0.39166667  0.21666667  0.00000000       0.000
   0.40000000  0.20000000  0.00000000       0.000
   0.40833333  0.18333333  0.00000000       0.000
   0.41666667  0.16666667  0.00000000       0.000
   0.42500000  0.15000000  0.00000000       0.000
   0.43333333  0.13333333  0.00000000       0.000
   0.44166667  0.11666667  0.00000000       0.000
   0.45000000  0.10000000  0.00000000       0.000
   0.45833333  0.08333333  0.00000000       0.000
   0.46666667  0.06666667  0.00000000       0.000
   0.47500000  0.05000000  0.00000000       0.000
   0.48333333  0.03333333  0.00000000       0.000
   0.49166667  0.01666667  0.00000000       0.000
   0.50000000  0.00000000  0.00000000       0.000
   0.50000000  0.00000000  0.00000000       0.000
   0.47500000  0.00000000  0.00000000       0.000
   0.45000000  0.00000000  0.00000000       0.000
   0.42500000  0.00000000  0.00000000       0.000
   0.40000000  0.00000000  0.00000000       0.000
   0.37500000  0.00000000  0.00000000       0.000
   0.35000000  0.00000000  0.00000000       0.000
   0.32500000  0.00000000  0.00000000       0.000
   0.30000000  0.00000000  0.00000000       0.000
   0.27500000  0.00000000  0.00000000       0.000
   0.25000000  0.00000000  0.00000000       0.000
   0.22500000  0.00000000  0.00000000       0.000
   0.20000000  0.00000000  0.00000000       0.000
   0.17500000  0.00000000  0.00000000       0.000
   0.15000000  0.00000000  0.00000000       0.000
   0.12500000  0.00000000  0.00000000       0.000
   0.10000000  0.00000000  0.00000000       0.000
   0.07500000  0.00000000  0.00000000       0.000
   0.05000000  0.00000000  0.00000000       0.000
   0.02500000  0.00000000  0.00000000       0.000
   0.00000000  0.00000000  0.00000000       0.000
 
 position of ions in fractional coordinates (direct lattice) 
   0.00000000  0.00000000  0.06766901
   0.33333400  0.66666600  0.13553901
   0.33333400  0.66666600  0.99980300
 
 position of ions in cartesian coordinates  (Angst):
   0.00000000  0.00000000  1.56522017
   1.59820472  0.92271998  3.13508947
   1.59820472  0.92271998 23.12597627
 


--------------------------------------------------------------------------------------------------------


 k-point  1 :   0.0000 0.0000 0.0000  plane waves:    4521
 k-point  2 :   0.0769 0.0000 0.0000  plane waves:    4513
 k-point  3 :   0.1538 0.0000 0.0000  plane waves:    4483
 k-point  4 :   0.2308 0.0000 0.0000  plane waves:    4452
 k-point  5 :   0.3077 0.0000 0.0000  plane waves:    4426
 k-point  6 :   0.3846 0.0000 0.0000  plane waves:    4430
 k-point  7 :   0.4615 0.0000 0.0000  plane waves:    4394
 k-point  8 :   0.0769 0.0769 0.0000  plane waves:    4493
 k-point  9 :   0.1538 0.0769 0.0000  plane waves:    4473
 k-point 10 :   0.2308 0.0769 0.0000  plane waves:    4447
 k-point 11 :   0.3077 0.0769 0.0000  plane waves:    4434
 k-point 12 :   0.3846 0.0769 0.0000  plane waves:    4398
 k-point 13 :   0.4615 0.0769 0.0000  plane waves:    4378
 k-point 14 :   0.1538 0.1538 0.0000  plane waves:    4447
 k-point 15 :   0.2308 0.1538 0.0000  plane waves:    4449
 k-point 16 :   0.3077 0.1538 0.0000  plane waves:    4427
 k-point 17 :   0.3846 0.1538 0.0000  plane waves:    4405
 k-point 18 :   0.2308 0.2308 0.0000  plane waves:    4429
 k-point 19 :   0.3077 0.2308 0.0000  plane waves:    4424
 k-point 20 :   0.3846 0.2308 0.0000  plane waves:    4424
 k-point 21 :   0.3077 0.3077 0.0000  plane waves:    4436
 k-point 22 :   0.0000 0.0000 0.0000  plane waves:    4521
 k-point 23 :   0.0167 0.0167 0.0000  plane waves:    4529
 k-point 24 :   0.0333 0.0333 0.0000  plane waves:    4515
 k-point 25 :   0.0500 0.0500 0.0000  plane waves:    4513
 k-point 26 :   0.0667 0.0667 0.0000  plane waves:    4497
 k-point 27 :   0.0833 0.0833 0.0000  plane waves:    4481
 k-point 28 :   0.1000 0.1000 0.0000  plane waves:    4471
 k-point 29 :   0.1167 0.1167 0.0000  plane waves:    4461
 k-point 30 :   0.1333 0.1333 0.0000  plane waves:    4451
 k-point 31 :   0.1500 0.1500 0.0000  plane waves:    4439
 k-point 32 :   0.1667 0.1667 0.0000  plane waves:    4443
 k-point 33 :   0.1833 0.1833 0.0000  plane waves:    4441
 k-point 34 :   0.2000 0.2000 0.0000  plane waves:    4441
 k-point 35 :   0.2167 0.2167 0.0000  plane waves:    4441
 k-point 36 :   0.2333 0.2333 0.0000  plane waves:    4425
 k-point 37 :   0.2500 0.2500 0.0000  plane waves:    4424
 k-point 38 :   0.2667 0.2667 0.0000  plane waves:    4422
 k-point 39 :   0.2833 0.2833 0.0000  plane waves:    4418
 k-point 40 :   0.3000 0.3000 0.0000  plane waves:    4430
 k-point 41 :   0.3167 0.3167 0.0000  plane waves:    4426
 k-point 42 :   0.3333 0.3333 0.0000  plane waves:    4440
 k-point 43 :   0.3333 0.3333 0.0000  plane waves:    4440
 k-point 44 :   0.3417 0.3167 0.0000  plane waves:    4432
 k-point 45 :   0.3500 0.3000 0.0000  plane waves:    4426
 k-point 46 :   0.3583 0.2833 0.0000  plane waves:    4424
 k-point 47 :   0.3667 0.2667 0.0000  plane waves:    4426
 k-point 48 :   0.3750 0.2500 0.0000  plane waves:    4426
 k-point 49 :   0.3833 0.2333 0.0000  plane waves:    4422
 k-point 50 :   0.3917 0.2167 0.0000  plane waves:    4420
 k-point 51 :   0.4000 0.2000 0.0000  plane waves:    4414
 k-point 52 :   0.4083 0.1833 0.0000  plane waves:    4414
 k-point 53 :   0.4167 0.1667 0.0000  plane waves:    4408
 k-point 54 :   0.4250 0.1500 0.0000  plane waves:    4408
 k-point 55 :   0.4333 0.1333 0.0000  plane waves:    4410
 k-point 56 :   0.4417 0.1167 0.0000  plane waves:    4398
 k-point 57 :   0.4500 0.1000 0.0000  plane waves:    4396
 k-point 58 :   0.4583 0.0833 0.0000  plane waves:    4378
 k-point 59 :   0.4667 0.0667 0.0000  plane waves:    4376
 k-point 60 :   0.4750 0.0500 0.0000  plane waves:    4374
 k-point 61 :   0.4833 0.0333 0.0000  plane waves:    4380
 k-point 62 :   0.4917 0.0167 0.0000  plane waves:    4394
 k-point 63 :   0.5000 0.0000 0.0000  plane waves:    4400
 k-point 64 :   0.5000 0.0000 0.0000  plane waves:    4400
 k-point 65 :   0.4750 0.0000 0.0000  plane waves:    4400
 k-point 66 :   0.4500 0.0000 0.0000  plane waves:    4388
 k-point 67 :   0.4250 0.0000 0.0000  plane waves:    4396
 k-point 68 :   0.4000 0.0000 0.0000  plane waves:    4434
 k-point 69 :   0.3750 0.0000 0.0000  plane waves:    4430
 k-point 70 :   0.3500 0.0000 0.0000  plane waves:    4430
 k-point 71 :   0.3250 0.0000 0.0000  plane waves:    4426
 k-point 72 :   0.3000 0.0000 0.0000  plane waves:    4436
 k-point 73 :   0.2750 0.0000 0.0000  plane waves:    4444
 k-point 74 :   0.2500 0.0000 0.0000  plane waves:    4448
 k-point 75 :   0.2250 0.0000 0.0000  plane waves:    4458
 k-point 76 :   0.2000 0.0000 0.0000  plane waves:    4473
 k-point 77 :   0.1750 0.0000 0.0000  plane waves:    4471
 k-point 78 :   0.1500 0.0000 0.0000  plane waves:    4479
 k-point 79 :   0.1250 0.0000 0.0000  plane waves:    4491
 k-point 80 :   0.1000 0.0000 0.0000  plane waves:    4499
 k-point 81 :   0.0750 0.0000 0.0000  plane waves:    4515
 k-point 82 :   0.0500 0.0000 0.0000  plane waves:    4521
 k-point 83 :   0.0250 0.0000 0.0000  plane waves:    4531
 k-point 84 :   0.0000 0.0000 0.0000  plane waves:    4521

 maximum and minimum number of plane-waves per node :       579      532

 maximum number of plane-waves:      4531
 maximum index in each direction: 
   IXMAX=    5   IYMAX=    5   IZMAX=   40
   IXMIN=   -6   IYMIN=   -5   IZMIN=  -40

 NGX is ok and might be reduce to  24
 NGY is ok and might be reduce to  22
 WARNING: aliasing errors must be expected set NGZ to 162 to avoid them
 aliasing errors are usually negligible using standard VASP settings
 and one can safely disregard these warnings

 parallel 3D FFT for wavefunctions:
    minimum data exchange during FFTs selected (reduces bandwidth)
 parallel 3D FFT for charge:
    minimum data exchange during FFTs selected (reduces bandwidth)


 FFT grid for exact exchange (Hartree Fock) 
  NGX = 18; NGY = 18; NGZ =126

 
 Radii for the augmentation spheres in the non-local exchange
 for species   1 augmentation radius   1.397 (default was   1.153)
       energy cutoff for augmentation   1800.0
 for species   2 augmentation radius   1.034 (default was   0.970)
       energy cutoff for augmentation   1800.0

 real space projection operators:
  total allocation   :        574.72 KBytes
  max/ min on nodes  :         96.39         62.00

 Maximum index for augmentation-charges in exchange          410
  SETUP_FOCK is finished

 total amount of memory used by VASP on root node    64526. kBytes
========================================================================

   base      :      30000. kBytes
   nonl-proj :      15125. kBytes
   fftplans  :       1235. kBytes
   grid      :       2158. kBytes
   one-center:         31. kBytes
   HF        :         64. kBytes
   nonlr-proj:        238. kBytes
   wavefun   :      15675. kBytes
 
     INWAV:  cpu time    0.0000: real time    0.0000
 Broyden mixing: mesh for mixing (old mesh)
   NGX = 11   NGY = 11   NGZ = 81
  (NGX  = 48   NGY  = 48   NGZ  =320)
  gives a total of   9801 points

 initial charge density was supplied:
 charge density of overlapping atoms calculated
 number of electron      24.0000000 magnetization       7.0000000
 keeping initial charge density in first step


--------------------------------------------------------------------------------------------------------


 Maximum index for augmentation-charges          868 (set IRDMAX)


--------------------------------------------------------------------------------------------------------


 First call to EWALD:  gamma=   0.301
 Maximum number of real-space cells 5x 5x 1
 Maximum number of reciprocal cells 2x 2x 9

 FEWALD executed in parallel
    FEWALD:  cpu time    0.0020: real time    0.0017


----------------------------------------- Iteration    1(   1)  ---------------------------------------


    POTLOK:  cpu time    0.2060: real time    0.2070
    SETDIJ:  cpu time    0.1970: real time    0.1963
    TRIAL :  cpu time    5.1862: real time    5.1903
    CORREC:  cpu time    0.0010: real time    0.0017
    --------------------------------------------
      LOOP:  cpu time    5.5971: real time    5.6037

 eigenvalue-minimisations  : 11960
 total energy-change (2. order) : 0.1000862E+04  (-0.5392874E+04)
 number of electron      24.0000000 magnetization       7.0000000
 augmentation part       24.0000000 magnetization       7.0000000

 Free energy of the ion-electron system (eV)
  ---------------------------------------------------
  alpha Z        PSCENC =        25.95030013
  Ewald energy   TEWEN  =      6098.86548383
  -Hartree energ DENC   =     -7699.37883267
  -exchange      EXHF   =         0.00000000
  -V(xc)+E(xc)   XCENC  =        49.10191003
  PAW double counting   =      1104.86894262    -1078.94814140
  entropy T*S    EENTRO =        -0.00180040
  eigenvalues    EBANDS =       671.58997239
  atomic energy  EATOM  =      1828.81456585
  ---------------------------------------------------
  free energy    TOTEN  =      1000.86240039 eV

  energy without entropy =     1000.86420079  energy(sigma->0) =     1000.86300053
  exchange ACFDT corr.  =         0.00000000  see jH, gK, PRB 81, 115126


--------------------------------------------------------------------------------------------------------




----------------------------------------- Iteration    1(   2)  ---------------------------------------


    TRIAL :  cpu time    6.1541: real time    6.1589
    CORREC:  cpu time    0.0010: real time    0.0018
    --------------------------------------------
      LOOP:  cpu time    6.1571: real time    6.1641

 eigenvalue-minimisations  : 14712
 total energy-change (2. order) :-0.7485717E+03  (-0.7113129E+03)
 number of electron      24.0000000 magnetization       7.0000000
 augmentation part       24.0000000 magnetization       7.0000000

 Free energy of the ion-electron system (eV)
  ---------------------------------------------------
  alpha Z        PSCENC =        25.95030013
  Ewald energy   TEWEN  =      6098.86548383
  -Hartree energ DENC   =     -7699.37883267
  -exchange      EXHF   =         0.00000000
  -V(xc)+E(xc)   XCENC  =        49.10191003
  PAW double counting   =      1104.86894262    -1078.94814140
  entropy T*S    EENTRO =        -0.00308581
  eigenvalues    EBANDS =       -76.98039817
  atomic energy  EATOM  =      1828.81456585
  ---------------------------------------------------
  free energy    TOTEN  =       252.29074441 eV

  energy without entropy =      252.29383022  energy(sigma->0) =      252.29177301
  exchange ACFDT corr.  =         0.00000000  see jH, gK, PRB 81, 115126


--------------------------------------------------------------------------------------------------------




----------------------------------------- Iteration    1(   3)  ---------------------------------------


    TRIAL :  cpu time    6.6510: real time    6.6565
    CORREC:  cpu time    0.0020: real time    0.0017
    --------------------------------------------
      LOOP:  cpu time    6.6550: real time    6.6717

 eigenvalue-minimisations  : 16128
 total energy-change (2. order) :-0.1702600E+03  (-0.1573284E+03)
 number of electron      24.0000000 magnetization       7.0000000
 augmentation part       24.0000000 magnetization       7.0000000

 Free energy of the ion-electron system (eV)
  ---------------------------------------------------
  alpha Z        PSCENC =        25.95030013
  Ewald energy   TEWEN  =      6098.86548383
  -Hartree energ DENC   =     -7699.37883267
  -exchange      EXHF   =         0.00000000
  -V(xc)+E(xc)   XCENC  =        49.10191003
  PAW double counting   =      1104.86894262    -1078.94814140
  entropy T*S    EENTRO =         0.00003626
  eigenvalues    EBANDS =      -247.24354871
  atomic energy  EATOM  =      1828.81456585
  ---------------------------------------------------
  free energy    TOTEN  =        82.03071594 eV

  energy without entropy =       82.03067968  energy(sigma->0) =       82.03070385
  exchange ACFDT corr.  =         0.00000000  see jH, gK, PRB 81, 115126


--------------------------------------------------------------------------------------------------------




----------------------------------------- Iteration    1(   4)  ---------------------------------------


    TRIAL :  cpu time    6.5370: real time    6.9219
    CORREC:  cpu time    0.0010: real time    0.0018
    --------------------------------------------
      LOOP:  cpu time    6.5390: real time    6.9313

 eigenvalue-minimisations  : 16128
 total energy-change (2. order) :-0.4694566E+02  (-0.4424070E+02)
 number of electron      24.0000000 magnetization       7.0000000
 augmentation part       24.0000000 magnetization       7.0000000

 Free energy of the ion-electron system (eV)
  ---------------------------------------------------
  alpha Z        PSCENC =        25.95030013
  Ewald energy   TEWEN  =      6098.86548383
  -Hartree energ DENC   =     -7699.37883267
  -exchange      EXHF   =         0.00000000
  -V(xc)+E(xc)   XCENC  =        49.10191003
  PAW double counting   =      1104.86894262    -1078.94814140
  entropy T*S    EENTRO =         0.00084611
  eigenvalues    EBANDS =      -294.19001899
  atomic energy  EATOM  =      1828.81456585
  ---------------------------------------------------
  free energy    TOTEN  =        35.08505551 eV

  energy without entropy =       35.08420940  energy(sigma->0) =       35.08477347
  exchange ACFDT corr.  =         0.00000000  see jH, gK, PRB 81, 115126


--------------------------------------------------------------------------------------------------------




----------------------------------------- Iteration    1(   5)  ---------------------------------------


    TRIAL :  cpu time    6.5280: real time    6.5338
    CORREC:  cpu time    0.0010: real time    0.0017
    CHARGE:  cpu time    0.3399: real time    0.3402
    --------------------------------------------
      LOOP:  cpu time    6.8710: real time    6.8920

 eigenvalue-minimisations  : 15984
 total energy-change (2. order) :-0.9855179E+01  (-0.9620749E+01)
 number of electron      24.0000004 magnetization       0.0489302
 augmentation part        2.5225589 magnetization       0.1899787

 Free energy of the ion-electron system (eV)
  ---------------------------------------------------
  alpha Z        PSCENC =        25.95030013
  Ewald energy   TEWEN  =      6098.86548383
  -Hartree energ DENC   =     -7699.37883267
  -exchange      EXHF   =         0.00000000
  -V(xc)+E(xc)   XCENC  =        49.10191003
  PAW double counting   =      1104.86894262    -1078.94814140
  entropy T*S    EENTRO =        -0.00052923
  eigenvalues    EBANDS =      -304.04382276
  atomic energy  EATOM  =      1828.81456585
  ---------------------------------------------------
  free energy    TOTEN  =        25.22987641 eV

  energy without entropy =       25.23040564  energy(sigma->0) =       25.23005282
  exchange ACFDT corr.  =         0.00000000  see jH, gK, PRB 81, 115126


--------------------------------------------------------------------------------------------------------




----------------------------------------- Iteration    1(   6)  ---------------------------------------


    POTLOK:  cpu time    0.2000: real time    0.2011
    SETDIJ:  cpu time    0.1950: real time    0.1950
    TRIAL :  cpu time  975.4567: real time  977.0006
    CORREC:  cpu time    0.0020: real time    0.0020
    CHARGE:  cpu time    0.3349: real time    0.3359
    --------------------------------------------
      LOOP:  cpu time  976.1906: real time  977.7499

 eigenvalue-minimisations  :     0
 total energy-change (2. order) :-0.4522417E+02  (-0.1707872E+02)
 number of electron      24.0000004 magnetization       0.0034977
 augmentation part        3.0943019 magnetization       0.1789849

 Free energy of the ion-electron system (eV)
  ---------------------------------------------------
  alpha Z        PSCENC =        25.95030013
  Ewald energy   TEWEN  =      6098.86548383
  -Hartree energ DENC   =     -7479.88302833
  -exchange      EXHF   =        49.08705667
  -V(xc)+E(xc)   XCENC  =        44.84058752
  PAW double counting   =      1020.79990362    -1003.47337454
  entropy T*S    EENTRO =         0.00025392
  eigenvalues    EBANDS =      -604.99525548
  atomic energy  EATOM  =      1828.81456585
  ---------------------------------------------------
  free energy    TOTEN  =       -19.99428994 eV

  energy without entropy =      -19.99454386  energy(sigma->0) =      -19.99437458
  exchange ACFDT corr.  =         0.00098488  see jH, gK, PRB 81, 115126


--------------------------------------------------------------------------------------------------------




----------------------------------------- Iteration    1(   7)  ---------------------------------------


    POTLOK:  cpu time    0.2300: real time    0.2304
    SETDIJ:  cpu time    0.1930: real time    0.1932
    TRIAL :  cpu time  985.4452: real time  989.6106
    CORREC:  cpu time    0.0010: real time    0.0018
    CHARGE:  cpu time    0.3320: real time    0.3347
    --------------------------------------------
      LOOP:  cpu time  986.2031: real time  990.3986

 eigenvalue-minimisations  :     0
 total energy-change (2. order) :-0.5883087E+01  (-0.3879657E+01)
 number of electron      24.0000004 magnetization      -0.0000023
 augmentation part        3.0556948 magnetization       0.1588987

 Free energy of the ion-electron system (eV)
  ---------------------------------------------------
  alpha Z        PSCENC =        25.95030013
  Ewald energy   TEWEN  =      6098.86548383
  -Hartree energ DENC   =     -7702.61974727
  -exchange      EXHF   =        50.50857589
  -V(xc)+E(xc)   XCENC  =        46.69066441
  PAW double counting   =      1147.25247016    -1127.91073798
  entropy T*S    EENTRO =         0.00010983
  eigenvalues    EBANDS =      -393.42920604
  atomic energy  EATOM  =      1828.81456585
  ---------------------------------------------------
  free energy    TOTEN  =       -25.87737711 eV

  energy without entropy =      -25.87748693  energy(sigma->0) =      -25.87741371
  exchange ACFDT corr.  =         0.00634545  see jH, gK, PRB 81, 115126


--------------------------------------------------------------------------------------------------------




----------------------------------------- Iteration    1(   8)  ---------------------------------------


    POTLOK:  cpu time    0.3210: real time    0.3223
    SETDIJ:  cpu time    0.1920: real time    0.1924
    TRIAL :  cpu time  975.0248: real time  979.1686
    CORREC:  cpu time    0.0010: real time    0.0018
    CHARGE:  cpu time    0.3349: real time    0.3346
    --------------------------------------------
      LOOP:  cpu time  975.8766: real time  980.0251

 eigenvalue-minimisations  :     0
 total energy-change (2. order) :-0.1174377E+01  (-0.3460282E+01)
 number of electron      24.0000004 magnetization       0.0000000
 augmentation part        2.9008390 magnetization       0.1365528

 Free energy of the ion-electron system (eV)
  ---------------------------------------------------
  alpha Z        PSCENC =        25.95030013
  Ewald energy   TEWEN  =      6098.86548383
  -Hartree energ DENC   =     -7720.20007183
  -exchange      EXHF   =        50.68877598
  -V(xc)+E(xc)   XCENC  =        46.93053439
  PAW double counting   =      1174.61663272    -1154.34030849
  entropy T*S    EENTRO =         0.00028030
  eigenvalues    EBANDS =      -378.37777647
  atomic energy  EATOM  =      1828.81456585
  ---------------------------------------------------
  free energy    TOTEN  =       -27.05175405 eV

  energy without entropy =      -27.05203436  energy(sigma->0) =      -27.05184749
  exchange ACFDT corr.  =         0.00004090  see jH, gK, PRB 81, 115126


--------------------------------------------------------------------------------------------------------




----------------------------------------- Iteration    1(   9)  ---------------------------------------


    POTLOK:  cpu time    0.4469: real time    0.4481
    SETDIJ:  cpu time    0.1650: real time    0.1931
    TRIAL :  cpu time  978.0213: real time  982.4359
    CORREC:  cpu time    0.0020: real time    0.0018
    CHARGE:  cpu time    0.3359: real time    0.3360
    --------------------------------------------
      LOOP:  cpu time  978.9732: real time  983.4391

 eigenvalue-minimisations  :     0
 total energy-change (2. order) :-0.9255307E+00  (-0.1477062E+01)
 number of electron      24.0000004 magnetization       0.0000000
 augmentation part        2.8903262 magnetization       0.1185570

 Free energy of the ion-electron system (eV)
  ---------------------------------------------------
  alpha Z        PSCENC =        25.95030013
  Ewald energy   TEWEN  =      6098.86548383
  -Hartree energ DENC   =     -7676.19403205
  -exchange      EXHF   =        50.55479837
  -V(xc)+E(xc)   XCENC  =        46.66168306
  PAW double counting   =      1158.76208049    -1138.45765445
  entropy T*S    EENTRO =         0.00026851
  eigenvalues    EBANDS =      -422.93479028
  atomic energy  EATOM  =      1828.81456585
  ---------------------------------------------------
  free energy    TOTEN  =       -27.97728474 eV

  energy without entropy =      -27.97755325  energy(sigma->0) =      -27.97737424
  exchange ACFDT corr.  =         0.00154462  see jH, gK, PRB 81, 115126


--------------------------------------------------------------------------------------------------------




----------------------------------------- Iteration    1(  10)  ---------------------------------------


    POTLOK:  cpu time    0.2010: real time    0.2019
    SETDIJ:  cpu time    0.1940: real time    0.1941
    TRIAL :  cpu time  985.0642: real time  988.5738
    CORREC:  cpu time    0.0010: real time    0.0018
    CHARGE:  cpu time    0.3379: real time    0.3383
    --------------------------------------------
      LOOP:  cpu time  985.8001: real time  989.3352

 eigenvalue-minimisations  :     0
 total energy-change (2. order) :-0.2926091E+00  (-0.8961489E+00)
 number of electron      24.0000004 magnetization       0.0000000
 augmentation part        2.9438478 magnetization       0.1040814

 Free energy of the ion-electron system (eV)
  ---------------------------------------------------
  alpha Z        PSCENC =        25.95030013
  Ewald energy   TEWEN  =      6098.86548383
  -Hartree energ DENC   =     -7675.76596457
  -exchange      EXHF   =        50.56287630
  -V(xc)+E(xc)   XCENC  =        46.65055428
  PAW double counting   =      1161.52708496    -1141.10963038
  entropy T*S    EENTRO =         0.00027107
  eigenvalues    EBANDS =      -423.76543273
  atomic energy  EATOM  =      1828.81456585
  ---------------------------------------------------
  free energy    TOTEN  =       -28.26989383 eV

  energy without entropy =      -28.27016489  energy(sigma->0) =      -28.26998418
  exchange ACFDT corr.  =         0.00326280  see jH, gK, PRB 81, 115126


--------------------------------------------------------------------------------------------------------




----------------------------------------- Iteration    1(  11)  ---------------------------------------


    POTLOK:  cpu time    0.2940: real time    0.3385
    SETDIJ:  cpu time    0.1950: real time    0.1956
    TRIAL :  cpu time  982.4096: real time  986.6214
    CORREC:  cpu time    0.0010: real time    0.0018
    CHARGE:  cpu time    0.3329: real time    0.3341
    --------------------------------------------
      LOOP:  cpu time  983.2355: real time  987.5098

 eigenvalue-minimisations  :     0
 total energy-change (2. order) :-0.2661284E+00  (-0.2235634E+00)
 number of electron      24.0000004 magnetization       0.0000000
 augmentation part        2.9488175 magnetization       0.0899390

 Free energy of the ion-electron system (eV)
  ---------------------------------------------------
  alpha Z        PSCENC =        25.95030013
  Ewald energy   TEWEN  =      6098.86548383
  -Hartree energ DENC   =     -7697.06786565
  -exchange      EXHF   =        50.65872261
  -V(xc)+E(xc)   XCENC  =        46.78416659
  PAW double counting   =      1173.23759083    -1152.61307891
  entropy T*S    EENTRO =         0.00027076
  eigenvalues    EBANDS =      -403.16617862
  atomic energy  EATOM  =      1828.81456585
  ---------------------------------------------------
  free energy    TOTEN  =       -28.53602226 eV

  energy without entropy =      -28.53629302  energy(sigma->0) =      -28.53611252
  exchange ACFDT corr.  =         0.00219635  see jH, gK, PRB 81, 115126


--------------------------------------------------------------------------------------------------------




----------------------------------------- Iteration    1(  12)  ---------------------------------------


    POTLOK:  cpu time    0.2360: real time    0.2484
    SETDIJ:  cpu time    0.2280: real time    0.2279
    TRIAL :  cpu time  981.7238: real time  985.9588
    CORREC:  cpu time    0.0010: real time    0.0018
    CHARGE:  cpu time    0.3399: real time    0.3398
    --------------------------------------------
      LOOP:  cpu time  982.5306: real time  986.8188

 eigenvalue-minimisations  :     0
 total energy-change (2. order) :-0.1026955E+00  (-0.6087950E-01)
 number of electron      24.0000004 magnetization       0.0000000
 augmentation part        2.9325243 magnetization       0.0772863

 Free energy of the ion-electron system (eV)
  ---------------------------------------------------
  alpha Z        PSCENC =        25.95030013
  Ewald energy   TEWEN  =      6098.86548383
  -Hartree energ DENC   =     -7700.30136794
  -exchange      EXHF   =        50.67521516
  -V(xc)+E(xc)   XCENC  =        46.79678648
  PAW double counting   =      1173.78669408    -1153.15390040
  entropy T*S    EENTRO =         0.00027335
  eigenvalues    EBANDS =      -400.07276577
  atomic energy  EATOM  =      1828.81456585
  ---------------------------------------------------
  free energy    TOTEN  =       -28.63871781 eV

  energy without entropy =      -28.63899116  energy(sigma->0) =      -28.63880893
  exchange ACFDT corr.  =         0.00294718  see jH, gK, PRB 81, 115126


--------------------------------------------------------------------------------------------------------




----------------------------------------- Iteration    1(  13)  ---------------------------------------


    POTLOK:  cpu time    0.2250: real time    0.2266
    SETDIJ:  cpu time    0.1940: real time    0.1939
    TRIAL :  cpu time  975.3917: real time  978.7651
    CORREC:  cpu time    0.0020: real time    0.0017
    CHARGE:  cpu time    0.3340: real time    0.3343
    --------------------------------------------
      LOOP:  cpu time  976.1486: real time  979.5252

 eigenvalue-minimisations  :     0
 total energy-change (2. order) :-0.3080008E-01  (-0.3471979E-01)
 number of electron      24.0000004 magnetization       0.0000006
 augmentation part        2.9307075 magnetization       0.0666578

 Free energy of the ion-electron system (eV)
  ---------------------------------------------------
  alpha Z        PSCENC =        25.95030013
  Ewald energy   TEWEN  =      6098.86548383
  -Hartree energ DENC   =     -7693.30458239
  -exchange      EXHF   =        50.64975933
  -V(xc)+E(xc)   XCENC  =        46.74913566
  PAW double counting   =      1169.04767815    -1148.48578761
  entropy T*S    EENTRO =         0.00027618
  eigenvalues    EBANDS =      -406.95634418
  atomic energy  EATOM  =      1828.81456585
  ---------------------------------------------------
  free energy    TOTEN  =       -28.66951789 eV

  energy without entropy =      -28.66979406  energy(sigma->0) =      -28.66960995
  exchange ACFDT corr.  =         0.00402127  see jH, gK, PRB 81, 115126


--------------------------------------------------------------------------------------------------------




----------------------------------------- Iteration    1(  14)  ---------------------------------------


    POTLOK:  cpu time    0.2750: real time    0.2771
    SETDIJ:  cpu time    0.1940: real time    0.1934
    TRIAL :  cpu time  985.0952: real time  988.8062
    CORREC:  cpu time    0.0010: real time    0.0017
    CHARGE:  cpu time    0.3309: real time    0.3316
    --------------------------------------------
      LOOP:  cpu time  985.8991: real time  989.6238

 eigenvalue-minimisations  :     0
 total energy-change (2. order) :-0.1468820E-01  (-0.1538475E-01)
 number of electron      24.0000004 magnetization       0.0000176
 augmentation part        2.9370986 magnetization       0.0576378

 Free energy of the ion-electron system (eV)
  ---------------------------------------------------
  alpha Z        PSCENC =        25.95030013
  Ewald energy   TEWEN  =      6098.86548383
  -Hartree energ DENC   =     -7691.37017488
  -exchange      EXHF   =        50.64383368
  -V(xc)+E(xc)   XCENC  =        46.73858636
  PAW double counting   =      1167.63429720    -1147.07551349
  entropy T*S    EENTRO =         0.00028155
  eigenvalues    EBANDS =      -408.88586097
  atomic energy  EATOM  =      1828.81456585
  ---------------------------------------------------
  free energy    TOTEN  =       -28.68420609 eV

  energy without entropy =      -28.68448765  energy(sigma->0) =      -28.68429994
  exchange ACFDT corr.  =         0.00418511  see jH, gK, PRB 81, 115126


--------------------------------------------------------------------------------------------------------




----------------------------------------- Iteration    1(  15)  ---------------------------------------


    POTLOK:  cpu time    0.2220: real time    0.2235
    SETDIJ:  cpu time    0.1950: real time    0.1955
    TRIAL :  cpu time  979.4231: real time  981.5980
    CORREC:  cpu time    0.0010: real time    0.0018
    CHARGE:  cpu time    0.3379: real time    0.3376
    --------------------------------------------
      LOOP:  cpu time  980.1810: real time  982.3702

 eigenvalue-minimisations  :     0
 total energy-change (2. order) :-0.1004452E-01  (-0.6081810E-02)
 number of electron      24.0000004 magnetization       0.0001542
 augmentation part        2.9398232 magnetization       0.0498868

 Free energy of the ion-electron system (eV)
  ---------------------------------------------------
  alpha Z        PSCENC =        25.95030013
  Ewald energy   TEWEN  =      6098.86548383
  -Hartree energ DENC   =     -7693.22550106
  -exchange      EXHF   =        50.65078591
  -V(xc)+E(xc)   XCENC  =        46.75214790
  PAW double counting   =      1168.58185092    -1147.98688745
  entropy T*S    EENTRO =         0.00029786
  eigenvalues    EBANDS =      -407.09727821
  atomic energy  EATOM  =      1828.81456585
  ---------------------------------------------------
  free energy    TOTEN  =       -28.69425061 eV

  energy without entropy =      -28.69454847  energy(sigma->0) =      -28.69434990
  exchange ACFDT corr.  =         0.00429429  see jH, gK, PRB 81, 115126


--------------------------------------------------------------------------------------------------------




----------------------------------------- Iteration    1(  16)  ---------------------------------------


    POTLOK:  cpu time    0.2030: real time    0.2044
    SETDIJ:  cpu time    0.1930: real time    0.1937
    TRIAL :  cpu time  973.7450: real time  975.9538
    CORREC:  cpu time    0.0010: real time    0.0017
    CHARGE:  cpu time    0.3369: real time    0.3369
    --------------------------------------------
      LOOP:  cpu time  974.4819: real time  976.7175

 eigenvalue-minimisations  :     0
 total energy-change (2. order) :-0.3961331E-02  (-0.4210868E-02)
 number of electron      24.0000004 magnetization       0.0006025
 augmentation part        2.9384975 magnetization       0.0432311

 Free energy of the ion-electron system (eV)
  ---------------------------------------------------
  alpha Z        PSCENC =        25.95030013
  Ewald energy   TEWEN  =      6098.86548383
  -Hartree energ DENC   =     -7694.16077763
  -exchange      EXHF   =        50.65450288
  -V(xc)+E(xc)   XCENC  =        46.75883820
  PAW double counting   =      1169.05225927    -1148.43767632
  entropy T*S    EENTRO =         0.00033727
  eigenvalues    EBANDS =      -406.19600601
  atomic energy  EATOM  =      1828.81456585
  ---------------------------------------------------
  free energy    TOTEN  =       -28.69821194 eV

  energy without entropy =      -28.69854921  energy(sigma->0) =      -28.69832436
  exchange ACFDT corr.  =         0.00457231  see jH, gK, PRB 81, 115126


--------------------------------------------------------------------------------------------------------




----------------------------------------- Iteration    1(  17)  ---------------------------------------


    POTLOK:  cpu time    0.2090: real time    0.2102
    SETDIJ:  cpu time    0.1940: real time    0.1941
    TRIAL :  cpu time  974.8638: real time  978.4685
    CORREC:  cpu time    0.0020: real time    0.0019
    CHARGE:  cpu time    0.3339: real time    0.3383
    --------------------------------------------
      LOOP:  cpu time  975.6047: real time  979.2271

 eigenvalue-minimisations  :     0
 total energy-change (2. order) :-0.3239840E-02  (-0.2260330E-02)
 number of electron      24.0000004 magnetization       0.0014662
 augmentation part        2.9372247 magnetization       0.0375916

 Free energy of the ion-electron system (eV)
  ---------------------------------------------------
  alpha Z        PSCENC =        25.95030013
  Ewald energy   TEWEN  =      6098.86548383
  -Hartree energ DENC   =     -7693.66590704
  -exchange      EXHF   =        50.65327219
  -V(xc)+E(xc)   XCENC  =        46.75572585
  PAW double counting   =      1168.72329180    -1148.11040602
  entropy T*S    EENTRO =         0.00040059
  eigenvalues    EBANDS =      -406.68811565
  atomic energy  EATOM  =      1828.81456585
  ---------------------------------------------------
  free energy    TOTEN  =       -28.70145178 eV

  energy without entropy =      -28.70185237  energy(sigma->0) =      -28.70158531
  exchange ACFDT corr.  =         0.00532566  see jH, gK, PRB 81, 115126


--------------------------------------------------------------------------------------------------------




----------------------------------------- Iteration    1(  18)  ---------------------------------------


    POTLOK:  cpu time    0.3929: real time    0.4821
    SETDIJ:  cpu time    0.1990: real time    0.1993
    TRIAL :  cpu time  982.9806: real time  986.0750
    CORREC:  cpu time    0.0010: real time    0.0019
    CHARGE:  cpu time    0.3359: real time    0.3364
    --------------------------------------------
      LOOP:  cpu time  983.9114: real time  987.1050

 eigenvalue-minimisations  :     0
 total energy-change (2. order) :-0.1857818E-02  (-0.1575653E-02)
 number of electron      24.0000004 magnetization       0.0025861
 augmentation part        2.9373966 magnetization       0.0328232

 Free energy of the ion-electron system (eV)
  ---------------------------------------------------
  alpha Z        PSCENC =        25.95030013
[...]
     20       4.5482      0.00000
     21       5.0940      0.00000
     22       5.6473      0.00000
     23       6.7570      0.00000
     24       8.1621      0.00000

 k-point    79 :       0.1250    0.0000    0.0000
  band No.  band energies     occupation 
      1     -40.9778      1.00000
      2     -40.8370      1.00000
      3     -40.7878      1.00000
      4     -18.7192      1.00000
      5     -17.4437      1.00000
      6      -9.3571      1.00000
      7      -6.8279      1.00000
      8      -6.2141      1.00000
      9      -6.0401      1.00000
     10      -5.3603      1.00000
     11      -4.6286      1.00000
     12      -3.5391      1.00368
     13      -0.1780      0.00000
     14      -0.0452      0.00000
     15       0.1002      0.00000
     16       0.5617      0.00000
     17       3.0278      0.00000
     18       3.1398      0.00000
     19       3.6708      0.00000
     20       4.4181      0.00000
     21       4.8304      0.00000
     22       5.3758      0.00000
     23       6.4251      0.00000
     24       7.4906      0.00000

 k-point    80 :       0.1000    0.0000    0.0000
  band No.  band energies     occupation 
      1     -40.9820      1.00000
      2     -40.8149      1.00000
      3     -40.7828      1.00000
      4     -18.8066      1.00000
      5     -17.4798      1.00000
      6      -9.4537      1.00000
      7      -6.6553      1.00000
      8      -6.1314      1.00000
      9      -6.0071      1.00000
     10      -5.2357      1.00000
     11      -4.6619      1.00000
     12      -3.4710      1.02589
     13      -0.0293      0.00000
     14      -0.0115      0.00000
     15       0.1860      0.00000
     16       0.4315      0.00000
     17       2.9107      0.00000
     18       3.0303      0.00000
     19       3.5555      0.00000
     20       4.3107      0.00000
     21       4.5499      0.00000
     22       5.2221      0.00000
     23       6.4558      0.00000
     24       7.6453      0.00000

 k-point    81 :       0.0750    0.0000    0.0000
  band No.  band energies     occupation 
      1     -40.9854      1.00000
      2     -40.7971      1.00000
      3     -40.7787      1.00000
      4     -18.8759      1.00000
      5     -17.5084      1.00000
      6      -9.5334      1.00000
      7      -6.5082      1.00000
      8      -6.2043      1.00000
      9      -5.8082      1.00000
     10      -5.1301      1.00000
     11      -4.7307      1.00000
     12      -3.4237      1.03072
     13       0.0428      0.00000
     14       0.1182      0.00000
     15       0.2594      0.00000
     16       0.3198      0.00000
     17       2.8126      0.00000
     18       2.9443      0.00000
     19       3.4609      0.00000
     20       4.2265      0.00000
     21       4.2951      0.00000
     22       5.1155      0.00000
     23       6.2444      0.00000
     24       7.2768      0.00000

 k-point    82 :       0.0500    0.0000    0.0000
  band No.  band energies     occupation 
      1     -40.9879      1.00000
      2     -40.7840      1.00000
      3     -40.7757      1.00000
      4     -18.9261      1.00000
      5     -17.5292      1.00000
      6      -9.5925      1.00000
      7      -6.3956      1.00000
      8      -6.2575      1.00000
      9      -5.6236      1.00000
     10      -5.0493      1.00000
     11      -4.8261      1.00000
     12      -3.3937      0.98069
     13       0.1006      0.00000
     14       0.2337      0.00000
     15       0.2453      0.00000
     16       0.3158      0.00000
     17       2.7360      0.00000
     18       2.8822      0.00000
     19       3.3886      0.00000
     20       4.0976      0.00000
     21       4.1660      0.00000
     22       5.0755      0.00000
     23       6.5640      0.00000
     24       7.1615      0.00000

 k-point    83 :       0.0250    0.0000    0.0000
  band No.  band energies     occupation 
      1     -40.9894      1.00000
      2     -40.7760      1.00000
      3     -40.7739      1.00000
      4     -18.9566      1.00000
      5     -17.5417      1.00000
      6      -9.6288      1.00000
      7      -6.3248      1.00000
      8      -6.2898      1.00000
      9      -5.4703      1.00000
     10      -4.9985      1.00000
     11      -4.9279      1.00000
     12      -3.3772      0.92033
     13       0.1444      0.00000
     14       0.1792      0.00000
     15       0.3323      0.00000
     16       0.3513      0.00000
     17       2.6858      0.00000
     18       2.8447      0.00000
     19       3.3419      0.00000
     20       3.9746      0.00000
     21       4.1295      0.00000
     22       5.0010      0.00000
     23       6.2497      0.00000
     24       7.1249      0.00000

 k-point    84 :       0.0000    0.0000    0.0000
  band No.  band energies     occupation 
      1     -40.9899      1.00000
      2     -40.7733      1.00000
      3     -40.7733      1.00000
      4     -18.9668      1.00000
      5     -17.5459      1.00000
      6      -9.6410      1.00000
      7      -6.3007      1.00000
      8      -6.3006      1.00000
      9      -5.4001      1.00000
     10      -4.9812      1.00000
     11      -4.9812      1.00000
     12      -3.3720      0.89558
     13       0.1606      0.00000
     14       0.1606      0.00000
     15       0.3634      0.00000
     16       0.3634      0.00000
     17       2.6681      0.00000
     18       2.8321      0.00000
     19       3.3256      0.00000
     20       3.9330      0.00000
     21       4.1173      0.00000
     22       4.9872      0.00000
     23       6.1960      0.00000
     24       7.5190      0.00000


--------------------------------------------------------------------------------------------------------


 soft charge-density along one line, spin component           1
         0         1         2         3         4         5         6         7         8         9
 total charge-density along one line
 
 soft charge-density along one line, spin component           2
         0         1         2         3         4         5         6         7         8         9
 total charge-density along one line
 
 pseudopotential strength for first ion, spin component:           1
-32.159   0.000  -0.000  17.001  -0.000   0.000   0.000   0.000
  0.000 -32.114  -0.000  -0.000  16.965   0.000  -0.000  -0.000
 -0.000  -0.000 -32.159   0.000   0.000  17.001  -0.014  -0.000
 17.001  -0.000   0.000  -3.183   0.000  -0.000  -0.000  -0.000
 -0.000  16.965   0.000   0.000  -3.162  -0.000   0.000   0.000
  0.000   0.000  17.001  -0.000  -0.000  -3.183   0.009   0.000
  0.000  -0.000  -0.014  -0.000   0.000   0.009  -7.064   0.000
  0.000  -0.000  -0.000  -0.000   0.000   0.000   0.000  -7.062
  0.000   0.000  -0.000  -0.000  -0.000   0.000   0.000   0.000
 -0.000   0.000   0.000   0.000  -0.000  -0.000   0.000  -0.000
 -0.014  -0.000  -0.000   0.009   0.000   0.000   0.000   0.000
 -0.000   0.000   0.001   0.000  -0.000  -0.001  -0.011  -0.000
 -0.000   0.000   0.000   0.000  -0.000  -0.000  -0.000  -0.011
 -0.000  -0.000   0.000   0.000   0.000  -0.000  -0.000  -0.000
  0.000  -0.000  -0.000  -0.000   0.000   0.000  -0.000   0.000
  0.001   0.000   0.000  -0.001  -0.000  -0.000  -0.000  -0.000
  0.000  -0.000  -0.000  -0.000   0.000   0.000   0.000  -0.000
 -0.000   0.000   0.000   0.000  -0.000  -0.000  -0.000   0.000
 pseudopotential strength for first ion, spin component:           2
-32.150   0.000  -0.000  16.995  -0.000   0.000   0.000   0.000
  0.000 -32.107  -0.000  -0.000  16.960   0.000  -0.000  -0.000
 -0.000  -0.000 -32.150   0.000   0.000  16.995  -0.014  -0.000
 16.995  -0.000   0.000  -3.179   0.000  -0.000  -0.000  -0.000
 -0.000  16.960   0.000   0.000  -3.159  -0.000   0.000   0.000
  0.000   0.000  16.995  -0.000  -0.000  -3.179   0.010   0.000
  0.000  -0.000  -0.014  -0.000   0.000   0.010  -7.060   0.000
  0.000  -0.000  -0.000  -0.000   0.000   0.000   0.000  -7.058
  0.000   0.000  -0.000  -0.000  -0.000   0.000   0.000  -0.000
 -0.000   0.000   0.000   0.000  -0.000  -0.000  -0.000  -0.000
 -0.014  -0.000  -0.000   0.010   0.000   0.000   0.000  -0.000
 -0.000   0.000   0.001   0.000  -0.000  -0.001  -0.011  -0.000
 -0.000   0.000   0.000   0.000  -0.000  -0.000  -0.000  -0.012
 -0.000  -0.000   0.000   0.000   0.000  -0.000  -0.000   0.000
  0.000  -0.000  -0.000  -0.000   0.000   0.000   0.000   0.000
  0.001   0.000   0.000  -0.001  -0.000  -0.000  -0.000   0.000
  0.000  -0.000  -0.000  -0.000   0.000   0.000   0.000  -0.000
 -0.000   0.000   0.000   0.000  -0.000  -0.000  -0.000   0.000
 total augmentation occupancy for first ion, spin component:           1
  1.997   0.000  -0.000   0.052   0.000   0.000  -0.000  -0.000   0.000  -0.000   0.020   0.000  -0.000  -0.000  -0.000   0.070
  0.000   2.002  -0.000   0.000   0.071  -0.000  -0.000   0.000  -0.000  -0.000   0.000   0.000   0.000   0.000  -0.000   0.000
 -0.000  -0.000   1.997  -0.000  -0.000   0.052   0.020   0.000   0.000  -0.000   0.000   0.070  -0.000   0.000  -0.000   0.000
  0.052   0.000  -0.000   0.296   0.000  -0.000  -0.000  -0.000   0.000  -0.000   0.080  -0.000  -0.000  -0.000  -0.000   0.172
  0.000   0.071  -0.000   0.000   0.361  -0.000  -0.000   0.000  -0.000  -0.000   0.000   0.000   0.000   0.000   0.000   0.000
  0.000  -0.000   0.052  -0.000  -0.000   0.296   0.080  -0.000   0.000  -0.000   0.000   0.172   0.000   0.000  -0.000   0.000
 -0.000  -0.000   0.020  -0.000  -0.000   0.080   0.940   0.000   0.000  -0.000   0.000   0.692   0.000   0.000  -0.000  -0.000
 -0.000   0.000   0.000  -0.000   0.000  -0.000   0.000   0.879  -0.000   0.000  -0.000  -0.000   0.951  -0.000   0.000  -0.000
  0.000  -0.000   0.000   0.000  -0.000   0.000   0.000  -0.000   1.039  -0.000  -0.000  -0.000   0.000   0.577   0.000  -0.000
 -0.000  -0.000  -0.000  -0.000  -0.000  -0.000  -0.000   0.000  -0.000   0.879  -0.000  -0.000  -0.000  -0.000   0.951   0.000
  0.020   0.000   0.000   0.080   0.000   0.000   0.000  -0.000  -0.000  -0.000   0.940   0.000  -0.000  -0.000  -0.000   0.692
  0.000   0.000   0.070  -0.000   0.000   0.172   0.692  -0.000  -0.000  -0.000   0.000   0.842  -0.000  -0.000  -0.000  -0.000
 -0.000   0.000  -0.000  -0.000   0.000   0.000   0.000   0.951   0.000  -0.000  -0.000  -0.000   1.344  -0.000  -0.000  -0.000
 -0.000   0.000   0.000  -0.000   0.000   0.000   0.000  -0.000   0.577  -0.000  -0.000  -0.000  -0.000   0.582  -0.000  -0.000
 -0.000  -0.000  -0.000  -0.000   0.000  -0.000  -0.000   0.000   0.000   0.951  -0.000  -0.000  -0.000  -0.000   1.344   0.000
  0.070   0.000   0.000   0.172   0.000   0.000  -0.000  -0.000  -0.000   0.000   0.692  -0.000  -0.000  -0.000   0.000   0.842
  0.000  -0.000   0.000   0.000  -0.000   0.000   0.000  -0.000   0.117  -0.000   0.000  -0.000  -0.000   0.064   0.000   0.000
  0.000  -0.000  -0.000   0.000  -0.000  -0.000  -0.000  -0.000  -0.046  -0.000   0.000  -0.000  -0.000  -0.031  -0.000   0.000
 total augmentation occupancy for first ion, spin component:           2
  0.000   0.000  -0.000   0.000   0.000  -0.000   0.000  -0.000   0.000   0.000   0.000   0.000  -0.000   0.000  -0.000  -0.000
  0.000   0.000  -0.000   0.000   0.000  -0.000  -0.000  -0.000  -0.000  -0.000   0.000   0.000   0.000  -0.000  -0.000  -0.000
 -0.000  -0.000   0.000   0.000  -0.000   0.000   0.000  -0.000   0.000  -0.000  -0.000  -0.000   0.000   0.000  -0.000  -0.000
  0.000   0.000   0.000   0.000   0.000  -0.000   0.000  -0.000   0.000   0.000   0.001   0.000  -0.000  -0.000  -0.000  -0.001
  0.000   0.000  -0.000   0.000   0.001  -0.000  -0.000  -0.000  -0.000  -0.000   0.000  -0.000   0.000  -0.000   0.000  -0.000
 -0.000  -0.000   0.000  -0.000  -0.000   0.000   0.001  -0.000   0.000  -0.000  -0.000  -0.001   0.000   0.000  -0.000  -0.000
  0.000  -0.000   0.000   0.000  -0.000   0.001   0.007  -0.000   0.000  -0.000  -0.000  -0.001   0.000   0.000   0.000   0.000
 -0.000  -0.000  -0.000  -0.000  -0.000  -0.000  -0.000   0.006  -0.000  -0.000  -0.000  -0.000  -0.000   0.000   0.000   0.000
  0.000  -0.000   0.000   0.000  -0.000   0.000   0.000  -0.000   0.003  -0.000   0.000  -0.000  -0.000  -0.000   0.000   0.000
  0.000  -0.000  -0.000   0.000  -0.000  -0.000  -0.000  -0.000  -0.000   0.006   0.000   0.000  -0.000   0.000  -0.000   0.000
  0.000   0.000  -0.000   0.001   0.000  -0.000  -0.000  -0.000   0.000   0.000   0.007  -0.000   0.000   0.000  -0.000  -0.001
  0.000   0.000  -0.000   0.000  -0.000  -0.001  -0.001  -0.000  -0.000   0.000  -0.000  -0.004   0.000  -0.000   0.000   0.000
 -0.000   0.000   0.000  -0.000   0.000   0.000   0.000  -0.000  -0.000  -0.000   0.000   0.000  -0.007   0.000   0.000   0.000
  0.000  -0.000   0.000  -0.000  -0.000   0.000   0.000   0.000  -0.000   0.000   0.000  -0.000   0.000  -0.002   0.000   0.000
 -0.000  -0.000  -0.000  -0.000   0.000  -0.000   0.000   0.000   0.000  -0.000  -0.000   0.000   0.000   0.000  -0.007  -0.000
 -0.000  -0.000  -0.000  -0.001  -0.000  -0.000   0.000   0.000   0.000   0.000  -0.001   0.000   0.000   0.000  -0.000  -0.004
  0.000  -0.000   0.000   0.000  -0.000   0.000   0.000   0.000   0.002  -0.000  -0.000  -0.000   0.000  -0.000   0.000  -0.000
 -0.000  -0.000   0.000  -0.000  -0.000   0.000   0.000   0.000  -0.002   0.000  -0.000   0.000   0.000  -0.000   0.000  -0.000


------------------------ aborting loop because EDIFF is reached ----------------------------------------


 


 total charge     
 
# of ion     s       p       d       tot
----------------------------------------
  1        0.329   6.417   3.901  10.647
  2        1.358   2.338   0.000   3.696
  3        1.358   2.338   0.000   3.696
------------------------------------------------
tot        3.045  11.093   3.901  18.039
 


 magnetization (x)
 
# of ion     s       p       d       tot
----------------------------------------
  1        0.001   0.000   0.022   0.023
  2       -0.000  -0.007   0.000  -0.007
  3       -0.000  -0.007   0.000  -0.007
------------------------------------------------
tot       -0.000  -0.013   0.022   0.008
 
    FORLOC:  cpu time    0.0110: real time    0.0108
    FORHF :  cpu time 1289.0930: real time 1290.4480
    FORNL :  cpu time    0.1060: real time    0.1072
    STRESS:  cpu time    0.4599: real time    0.4618
    FORCOR:  cpu time    0.1960: real time    0.1956
    OFIELD:  cpu time    0.0000: real time    0.0002

  FORCE on cell =-STRESS in cart. coord.  units (eV):
  Direction    XX          YY          ZZ          XY          YZ          ZX
  --------------------------------------------------------------------------------------
  Alpha Z    25.95030    25.95030    25.95030
  Ewald    7233.33109  7233.32946 -8367.79513    -0.00000    -0.00000    -0.00000
  Hartree  7538.89198  7538.89211 -7384.34356    -0.00000     0.00000    -0.00000
  E(xc)     -73.43807   -73.43807   -73.71239     0.00000     0.00000     0.00000
  Local  -15134.31014-15134.30907 15381.60366     0.00000    -0.00000     0.00000
  n-local   148.29983   152.59488   156.10491     0.80501    -0.00012     0.00033
  augment    13.26161    13.26164    12.32320    -0.00000     0.00000    -0.00000
  Kinetic   288.56928   301.85312   298.75545     5.51965    -0.00001    -0.00000
  Fock            NaN         NaN         NaN         NaN         NaN         NaN
  -------------------------------------------------------------------------------------
  Total           NaN         NaN         NaN         NaN         NaN         NaN
  in kB           NaN         NaN         NaN         NaN         NaN         NaN
  external pressure =         NaN kB  Pullay stress =        0.00 kB


 VOLUME and BASIS-vectors are now :
 -----------------------------------------------------------------------------
  energy-cutoff  :      450.00
  volume of cell :      204.66
      direct lattice vectors                 reciprocal lattice vectors
     1.598204715 -2.768171005  0.000000000     0.312851035 -0.180624679  0.000000000
     1.598204715  2.768171005  0.000000000     0.312851035  0.180624679  0.000000000
     0.000000000  0.000000000 23.130532868     0.000000000  0.000000000  0.043232899

  length of vectors
     3.196408770  3.196408770 23.130532868     0.361249284  0.361249284  0.043232899


 FORCES acting on ions:
    Electron-Ion                     Ewald-Force                    Non-Local-Force
 -----------------------------------------------------------------------------------------------
   0.113E-05 -.871E-04 0.596E-02   -.951E-14 -.360E-03 -.478E-02   0.110E-16 0.104E-16 0.447E-21
   0.160E-04 0.184E-02 -.846E+03   0.307E-13 0.180E-03 0.851E+03   -.864E-17 -.767E-17 -.495E+01
   -.671E-05 0.183E-02 0.846E+03   0.176E-13 0.180E-03 -.851E+03   0.261E-17 -.110E-16 0.495E+01
 -----------------------------------------------------------------------------------------------
   0.106E-04 0.362E-02 0.519E-03   0.388E-13 -.286E-14 0.000E+00   0.500E-17 -.826E-17 0.000E+00
 
 
 POSITION                                       TOTAL-FORCE (eV/Angst)
 -----------------------------------------------------------------------------------
      0.00000      0.00000      1.56522              NaN           NaN           NaN
      1.59820      0.92272      3.13509              NaN           NaN           NaN
      1.59820      0.92272     23.12598              NaN           NaN           NaN
 -----------------------------------------------------------------------------------
    total drift:                                     NaN           NaN           NaN


--------------------------------------------------------------------------------------------------------



  FREE ENERGIE OF THE ION-ELECTRON SYSTEM (eV)
  ---------------------------------------------------
  free  energy   TOTEN  =       -28.70815295 eV

  energy  without entropy=      -28.70876136  energy(sigma->0) =      -28.70835576
 


--------------------------------------------------------------------------------------------------------


    POTLOK:  cpu time    1.3178: real time    1.3193


--------------------------------------------------------------------------------------------------------


 writing wavefunctions
     LOOP+:  cpu time23909.7122: real time23985.4118
    4ORBIT:  cpu time    0.0000: real time    0.0000
 


 total charge     
 
# of ion     s       p       d       tot
----------------------------------------
  1        0.329   6.417   3.901  10.647
  2        1.358   2.338   0.000   3.696
  3        1.358   2.338   0.000   3.696
------------------------------------------------
tot        3.045  11.093   3.901  18.039
 


 magnetization (x)
 
# of ion     s       p       d       tot
----------------------------------------
  1        0.001   0.000   0.022   0.023
  2       -0.000  -0.007   0.000  -0.007
  3       -0.000  -0.007   0.000  -0.007
------------------------------------------------
tot       -0.000  -0.013   0.022   0.008
 

 total amount of memory used by VASP on root node    65606. kBytes
========================================================================

   base      :      30000. kBytes
   nonl-proj :      15125. kBytes
   fftplans  :       1235. kBytes
   grid      :       2158. kBytes
   one-center:         31. kBytes
   HF        :         64. kBytes
   nonlr-proj:       1318. kBytes
   wavefun   :      15675. kBytes
 
  
  
 General timing and accounting informations for this job:
 ========================================================
  
                  Total CPU time used (sec):    23969.789
                            User time (sec):    23623.924
                          System time (sec):      345.865
                         Elapsed time (sec):    24046.895
  
                   Maximum memory used (kb):      219660.
                   Average memory used (kb):           0.
  
                          Minor page faults:     95997110
                          Major page faults:           13
                 Voluntary context switches:       142234
