PROCAR lm decomposed
# of k-points:   96         # of bands:   8         # of ions:   2

 k-point    1 :    0.00000000 0.00000000 0.00000000     weight = 0.00346021

band   1 # energy  -24.69404211 # occ.  2.00000000
 
ion      s     py     pz     px    dxy    dyz    dz2    dxz    dx2    tot
  1  0.270  0.000  0.000  0.000  0.000  0.000  0.000  0.000  0.000  0.270
  2  0.511  0.000  0.000  0.000  0.000  0.000  0.000  0.000  0.000  0.511
tot  0.781  0.000  0.000  0.000  0.000  0.000  0.000  0.000  0.000  0.781
 
band   2 # energy  -10.96415213 # occ.  2.00000000
 
ion      s     py     pz     px    dxy    dyz    dz2    dxz    dx2    tot
  1  0.000  0.000  0.189  0.000  0.000  0.000  0.000  0.000  0.000  0.189
  2  0.000  0.000  0.326  0.000  0.000  0.000  0.000  0.000  0.000  0.326
tot  0.000  0.000  0.516  0.000  0.000  0.000  0.000  0.000  0.000  0.516
 
band   3 # energy   -6.84007405 # occ.  2.00000000
 
ion      s     py     pz     px    dxy    dyz    dz2    dxz    dx2    tot
  1  0.000  0.205  0.000  0.069  0.000  0.000  0.000  0.000  0.000  0.274
  2  0.000  0.469  0.000  0.158  0.000  0.000  0.000  0.000  0.000  0.626
tot  0.000  0.674  0.000  0.227  0.000  0.000  0.000  0.000  0.000  0.900
 
band   4 # energy   -6.83998107 # occ.  2.00000000
 
ion      s     py     pz     px    dxy    dyz    dz2    dxz    dx2    tot
  1  0.000  0.069  0.000  0.205  0.000  0.000  0.000  0.000  0.000  0.274
  2  0.000  0.158  0.000  0.469  0.000  0.000  0.000  0.000  0.000  0.626
tot  0.000  0.227  0.000  0.674  0.000  0.000  0.000  0.000  0.000  0.900
 
band   5 # energy    0.45044830 # occ.  0.00000000
 
ion      s     py     pz     px    dxy    dyz    dz2    dxz    dx2    tot
  1  0.000  0.000  0.000  0.000  0.000  0.000  0.000  0.000  0.000  0.000
  2  0.033  0.000  0.000  0.000  0.000  0.000  0.000  0.000  0.000  0.033
tot  0.033  0.000  0.000  0.000  0.000  0.000  0.000  0.000  0.000  0.033
 
band   6 # energy    1.25314717 # occ.  0.00000000
 
ion      s     py     pz     px    dxy    dyz    dz2    dxz    dx2    tot
  1  0.000  0.000  0.003  0.000  0.000  0.000  0.000  0.000  0.000  0.003
  2  0.000  0.000  0.020  0.000  0.000  0.000  0.000  0.000  0.000  0.020
tot  0.000  0.000  0.023  0.000  0.000  0.000  0.000  0.000  0.000  0.023
 
band   7 # energy    1.52437407 # occ.  0.00000000
 
ion      s     py     pz     px    dxy    dyz    dz2    dxz    dx2    tot
  1  0.000  0.000  0.000  0.000  0.000  0.000  0.000  0.000  0.000  0.000
  2  0.004  0.000  0.000  0.000  0.000  0.000  0.000  0.000  0.000  0.004
tot  0.004  0.000  0.000  0.000  0.000  0.000  0.000  0.000  0.000  0.004
 
band   8 # energy    2.88209956 # occ.  0.00000000
 
ion      s     py     pz     px    dxy    dyz    dz2    dxz    dx2    tot
  1  0.000  0.000  0.000  0.000  0.000  0.000  0.000  0.000  0.000  0.000
  2  0.017  0.000  0.000  0.000  0.000  0.000  0.000  0.000  0.000  0.017
tot  0.017  0.000  0.000  0.000  0.000  0.000  0.000  0.000  0.000  0.017
 

 k-point    2 :    0.05882353 0.00000000 0.00000000     weight = 0.02076125

band   1 # energy  -24.62179613 # occ.  2.00000000
 
ion      s     py     pz     px    dxy    dyz    dz2    dxz    dx2    tot
  1  0.267  0.001  0.000  0.003  0.000  0.000  0.000  0.000  0.000  0.270
  2  0.512  0.000  0.000  0.001  0.000  0.000  0.000  0.000  0.000  0.513
tot  0.779  0.001  0.000  0.003  0.000  0.000  0.000  0.000  0.000  0.783
 
band   2 # energy  -10.86558136 # occ.  2.00000000
 
ion      s     py     pz     px    dxy    dyz    dz2    dxz    dx2    tot
  1  0.000  0.000  0.188  0.000  0.000  0.000  0.000  0.000  0.000  0.188
  2  0.000  0.000  0.328  0.000  0.000  0.000  0.000  0.000  0.000  0.328
tot  0.000  0.000  0.516  0.000  0.000  0.000  0.000  0.000  0.000  0.516
 
band   3 # energy   -7.14814323 # occ.  2.00000000
 
ion      s     py     pz     px    dxy    dyz    dz2    dxz    dx2    tot
  1  0.011  0.067  0.000  0.201  0.000  0.000  0.000  0.000  0.000  0.279
  2  0.008  0.152  0.000  0.456  0.000  0.000  0.000  0.000  0.000  0.616
tot  0.019  0.219  0.000  0.657  0.000  0.000  0.000  0.000  0.000  0.895
 
band   4 # energy   -6.98083350 # occ.  2.00000000
 
ion      s     py     pz     px    dxy    dyz    dz2    dxz    dx2    tot
  1  0.000  0.210  0.000  0.070  0.000  0.000  0.000  0.000  0.000  0.280
  2  0.000  0.465  0.000  0.155  0.000  0.000  0.000  0.000  0.000  0.620
tot  0.000  0.675  0.000  0.225  0.000  0.000  0.000  0.000  0.000  0.900
 
band   5 # energy    0.56559555 # occ.  0.00000000
 
ion      s     py     pz     px    dxy    dyz    dz2    dxz    dx2    tot
  1  0.000  0.000  0.000  0.000  0.000  0.000  0.000  0.000  0.000  0.000
  2  0.031  0.000  0.000  0.001  0.000  0.000  0.000  0.000  0.000  0.033
tot  0.031  0.000  0.000  0.001  0.000  0.000  0.000  0.000  0.000  0.033
 
band   6 # energy    1.36025231 # occ.  0.00000000
 
ion      s     py     pz     px    dxy    dyz    dz2    dxz    dx2    tot
  1  0.000  0.000  0.003  0.000  0.000  0.000  0.000  0.000  0.000  0.003
  2  0.000  0.000  0.021  0.000  0.000  0.000  0.000  0.000  0.000  0.021
tot  0.000  0.000  0.024  0.000  0.000  0.000  0.000  0.000  0.000  0.024
 
band   7 # energy    1.63520497 # occ.  0.00000000
 
ion      s     py     pz     px    dxy    dyz    dz2    dxz    dx2    tot
  1  0.000  0.000  0.000  0.000  0.000  0.000  0.000  0.000  0.000  0.000
  2  0.004  0.000  0.000  0.000  0.000  0.000  0.000  0.000  0.000  0.004
tot  0.004  0.000  0.000  0.000  0.000  0.000  0.000  0.000  0.000  0.004
 
band   8 # energy    2.99460765 # occ.  0.00000000
 
ion      s     py     pz     px    dxy    dyz    dz2    dxz    dx2    tot
  1  0.000  0.000  0.000  0.000  0.000  0.000  0.000  0.000  0.000  0.000
  2  0.016  0.000  0.000  0.001  0.000  0.000  0.000  0.000  0.000  0.017
tot  0.016  0.000  0.000  0.001  0.000  0.000  0.000  0.000  0.000  0.017
 

 k-point    3 :    0.11764706 0.00000000 0.00000000     weight = 0.02076125

band   1 # energy  -24.40697606 # occ.  2.00000000
 
ion      s     py     pz     px    dxy    dyz    dz2    dxz    dx2    tot
  1  0.256  0.003  0.000  0.010  0.000  0.000  0.000  0.000  0.000  0.269
  2  0.514  0.001  0.000  0.002  0.000  0.000  0.000  0.000  0.000  0.517
tot  0.770  0.004  0.000  0.013  0.000  0.000  0.000  0.000  0.000  0.786
 
band   2 # energy  -10.57189485 # occ.  2.00000000
 
ion      s     py     pz     px    dxy    dyz    dz2    dxz    dx2    tot
  1  0.000  0.000  0.184  0.000  0.000  0.000  0.000  0.000  0.000  0.184
  2  0.000  0.000  0.334  0.000  0.000  0.000  0.000  0.000  0.000  0.334
tot  0.000  0.000  0.518  0.000  0.000  0.000  0.000  0.000  0.000  0.518
 
band   3 # energy   -7.99165977 # occ.  2.00000000
 
ion      s     py     pz     px    dxy    dyz    dz2    dxz    dx2    tot
  1  0.040  0.063  0.000  0.189  0.000  0.000  0.000  0.000  0.000  0.292
  2  0.026  0.141  0.000  0.423  0.000  0.000  0.000  0.000  0.000  0.590
tot  0.065  0.204  0.000  0.613  0.000  0.000  0.000  0.000  0.000  0.882
 
band   4 # energy   -7.36060885 # occ.  2.00000000
 
ion      s     py     pz     px    dxy    dyz    dz2    dxz    dx2    tot
  1  0.000  0.221  0.000  0.074  0.000  0.000  0.000  0.000  0.000  0.294
  2  0.000  0.453  0.000  0.151  0.000  0.000  0.000  0.000  0.000  0.604
tot  0.000  0.674  0.000  0.225  0.000  0.000  0.000  0.000  0.000  0.898
 
band   5 # energy    0.90410556 # occ.  0.00000000
 
ion      s     py     pz     px    dxy    dyz    dz2    dxz    dx2    tot
  1  0.000  0.000  0.000  0.000  0.000  0.000  0.000  0.000  0.000  0.000
  2  0.028  0.001  0.000  0.004  0.000  0.000  0.000  0.000  0.000  0.032
tot  0.028  0.001  0.000  0.004  0.000  0.000  0.000  0.000  0.000  0.033
 
band   6 # energy    1.68041510 # occ.  0.00000000
 
ion      s     py     pz     px    dxy    dyz    dz2    dxz    dx2    tot
  1  0.000  0.000  0.002  0.000  0.000  0.000  0.000  0.000  0.000  0.002
  2  0.000  0.000  0.023  0.000  0.000  0.000  0.000  0.000  0.000  0.023
tot  0.000  0.000  0.025  0.000  0.000  0.000  0.000  0.000  0.000  0.025
 
band   7 # energy    1.96687672 # occ.  0.00000000
 
ion      s     py     pz     px    dxy    dyz    dz2    dxz    dx2    tot
  1  0.000  0.000  0.000  0.000  0.000  0.000  0.000  0.000  0.000  0.000
  2  0.003  0.000  0.000  0.000  0.000  0.000  0.000  0.000  0.000  0.004
tot  0.004  0.000  0.000  0.000  0.000  0.000  0.000  0.000  0.000  0.004
 
band   8 # energy    3.32844186 # occ.  0.00000000
 
ion      s     py     pz     px    dxy    dyz    dz2    dxz    dx2    tot
  1  0.000  0.000  0.000  0.000  0.000  0.000  0.000  0.000  0.000  0.000
  2  0.015  0.001  0.000  0.002  0.000  0.000  0.000  0.000  0.000  0.017
tot  0.015  0.001  0.000  0.002  0.000  0.000  0.000  0.000  0.000  0.017
 

 k-point    4 :    0.17647059 0.00000000 0.00000000     weight = 0.02076125

band   1 # energy  -24.05583730 # occ.  2.00000000
 
ion      s     py     pz     px    dxy    dyz    dz2    dxz    dx2    tot
  1  0.237  0.008  0.000  0.023  0.000  0.000  0.000  0.000  0.000  0.268
  2  0.519  0.002  0.000  0.005  0.000  0.000  0.000  0.000  0.000  0.525
tot  0.755  0.009  0.000  0.028  0.000  0.000  0.000  0.000  0.000  0.793
 
band   2 # energy  -10.08978940 # occ.  2.00000000
 
ion      s     py     pz     px    dxy    dyz    dz2    dxz    dx2    tot
  1  0.000  0.000  0.178  0.000  0.000  0.000  0.000  0.000  0.000  0.178
  2  0.000  0.000  0.344  0.000  0.000  0.000  0.000  0.000  0.000  0.344
tot  0.000  0.000  0.521  0.000  0.000  0.000  0.000  0.000  0.000  0.521
 
band   3 # energy   -9.19175083 # occ.  2.00000000
 
ion      s     py     pz     px    dxy    dyz    dz2    dxz    dx2    tot
  1  0.079  0.058  0.000  0.173  0.000  0.000  0.000  0.000  0.000  0.309
  2  0.045  0.128  0.000  0.385  0.000  0.000  0.000  0.000  0.000  0.557
tot  0.123  0.186  0.000  0.557  0.000  0.000  0.000  0.000  0.000  0.866
 
band   4 # energy   -7.88085561 # occ.  2.00000000
 
ion      s     py     pz     px    dxy    dyz    dz2    dxz    dx2    tot
  1  0.000  0.235  0.000  0.078  0.000  0.000  0.000  0.000  0.000  0.313
  2  0.000  0.439  0.000  0.146  0.000  0.000  0.000  0.000  0.000  0.585
tot  0.000  0.673  0.000  0.224  0.000  0.000  0.000  0.000  0.000  0.898
 
band   5 # energy    1.45458931 # occ.  0.00000000
 
ion      s     py     pz     px    dxy    dyz    dz2    dxz    dx2    tot
  1  0.000  0.000  0.000  0.001  0.000  0.000  0.000  0.000  0.000  0.001
  2  0.025  0.002  0.000  0.006  0.000  0.000  0.000  0.000  0.000  0.032
tot  0.025  0.002  0.000  0.006  0.000  0.000  0.000  0.000  0.000  0.033
 
band   6 # energy    2.20865525 # occ.  0.00000000
 
ion      s     py     pz     px    dxy    dyz    dz2    dxz    dx2    tot
  1  0.000  0.000  0.001  0.000  0.000  0.000  0.000  0.000  0.000  0.001
  2  0.000  0.000  0.026  0.000  0.000  0.000  0.000  0.000  0.000  0.026
tot  0.000  0.000  0.028  0.000  0.000  0.000  0.000  0.000  0.000  0.028
 
band   7 # energy    2.51791019 # occ.  0.00000000
 
ion      s     py     pz     px    dxy    dyz    dz2    dxz    dx2    tot
  1  0.000  0.000  0.000  0.000  0.000  0.000  0.000  0.000  0.000  0.000
  2  0.003  0.000  0.000  0.001  0.000  0.000  0.000  0.000  0.000  0.004
tot  0.003  0.000  0.000  0.001  0.000  0.000  0.000  0.000  0.000  0.004
 
band   8 # energy    3.87661381 # occ.  0.00000000
 
ion      s     py     pz     px    dxy    dyz    dz2    dxz    dx2    tot
  1  0.000  0.000  0.000  0.001  0.000  0.000  0.000  0.000  0.000  0.001
  2  0.013  0.001  0.000  0.003  0.000  0.000  0.000  0.000  0.000  0.017
tot  0.013  0.001  0.000  0.003  0.000  0.000  0.000  0.000  0.000  0.018
 

 k-point    5 :    0.23529412 0.00000000 0.00000000     weight = 0.02076125

band   1 # energy  -23.58134858 # occ.  2.00000000
 
ion      s     py     pz     px    dxy    dyz    dz2    dxz    dx2    tot
  1  0.210  0.014  0.000  0.041  0.000  0.000  0.000  0.000  0.000  0.264
  2  0.527  0.003  0.000  0.008  0.000  0.000  0.000  0.000  0.000  0.537
tot  0.737  0.016  0.000  0.049  0.000  0.000  0.000  0.000  0.000  0.801
 
band   2 # energy  -10.56806767 # occ.  2.00000000
 
ion      s     py     pz     px    dxy    dyz    dz2    dxz    dx2    tot
  1  0.123  0.051  0.000  0.152  0.000  0.000  0.000  0.000  0.000  0.326
  2  0.058  0.116  0.000  0.349  0.000  0.000  0.000  0.000  0.000  0.523
tot  0.181  0.167  0.000  0.501  0.000  0.000  0.000  0.000  0.000  0.850
 
band   3 # energy   -9.43348372 # occ.  2.00000000
 
ion      s     py     pz     px    dxy    dyz    dz2    dxz    dx2    tot
  1  0.000  0.000  0.167  0.000  0.000  0.000  0.000  0.000  0.000  0.167
  2  0.000  0.000  0.360  0.000  0.000  0.000  0.000  0.000  0.000  0.360
tot  0.000  0.000  0.527  0.000  0.000  0.000  0.000  0.000  0.000  0.527
 
band   4 # energy   -8.43958400 # occ.  2.00000000
 
ion      s     py     pz     px    dxy    dyz    dz2    dxz    dx2    tot
  1  0.000  0.248  0.000  0.083  0.000  0.000  0.000  0.000  0.000  0.330
  2  0.000  0.426  0.000  0.142  0.000  0.000  0.000  0.000  0.000  0.568
tot  0.000  0.674  0.000  0.225  0.000  0.000  0.000  0.000  0.000  0.898
 
band   5 # energy    2.20925804 # occ.  0.00000000
 
ion      s     py     pz     px    dxy    dyz    dz2    dxz    dx2    tot
  1  0.000  0.001  0.000  0.002  0.000  0.000  0.000  0.000  0.000  0.002
  2  0.024  0.002  0.000  0.007  0.000  0.000  0.000  0.000  0.000  0.034
tot  0.024  0.003  0.000  0.009  0.000  0.000  0.000  0.000  0.000  0.036
 
band   6 # energy    2.97693859 # occ.  0.00000000
 
ion      s     py     pz     px    dxy    dyz    dz2    dxz    dx2    tot
  1  0.000  0.000  0.001  0.000  0.000  0.000  0.000  0.000  0.000  0.001
  2  0.000  0.000  0.019  0.000  0.000  0.000  0.000  0.000  0.000  0.019
tot  0.000  0.000  0.021  0.000  0.000  0.000  0.000  0.000  0.000  0.021
 
band   7 # energy    3.28709132 # occ.  0.00000000
 
ion      s     py     pz     px    dxy    dyz    dz2    dxz    dx2    tot
  1  0.000  0.000  0.000  0.000  0.000  0.000  0.000  0.000  0.000  0.000
  2  0.003  0.000  0.000  0.001  0.000  0.000  0.000  0.000  0.000  0.004
tot  0.003  0.000  0.000  0.001  0.000  0.000  0.000  0.000  0.000  0.004
 
band   8 # energy    4.63138804 # occ.  0.00000000
 
ion      s     py     pz     px    dxy    dyz    dz2    dxz    dx2    tot
  1  0.001  0.000  0.000  0.001  0.000  0.000  0.000  0.000  0.000  0.002
  2  0.013  0.001  0.000  0.003  0.000  0.000  0.000  0.000  0.000  0.017
tot  0.014  0.002  0.000  0.005  0.000  0.000  0.000  0.000  0.000  0.020
 

 k-point    6 :    0.29411765 0.00000000 0.00000000     weight = 0.02076125

band   1 # energy  -23.00797602 # occ.  2.00000000
 
ion      s     py     pz     px    dxy    dyz    dz2    dxz    dx2    tot
  1  0.175  0.021  0.000  0.063  0.000  0.000  0.000  0.000  0.000  0.259
  2  0.540  0.003  0.000  0.010  0.000  0.000  0.000  0.000  0.000  0.554
tot  0.715  0.024  0.000  0.073  0.000  0.000  0.000  0.000  0.000  0.812
 
band   2 # energy  -11.97232872 # occ.  2.00000000
 
ion      s     py     pz     px    dxy    dyz    dz2    dxz    dx2    tot
  1  0.173  0.043  0.000  0.128  0.000  0.000  0.000  0.000  0.000  0.344
  2  0.062  0.107  0.000  0.320  0.000  0.000  0.000  0.000  0.000  0.489
tot  0.235  0.150  0.000  0.449  0.000  0.000  0.000  0.000  0.000  0.833
 
band   3 # energy   -8.95782956 # occ.  2.00000000
 
ion      s     py     pz     px    dxy    dyz    dz2    dxz    dx2    tot
  1  0.000  0.259  0.000  0.086  0.000  0.000  0.000  0.000  0.000  0.346
  2  0.000  0.416  0.000  0.139  0.000  0.000  0.000  0.000  0.000  0.555
tot  0.000  0.675  0.000  0.225  0.000  0.000  0.000  0.000  0.000  0.900
 
band   4 # energy   -8.63131642 # occ.  2.00000000
 
ion      s     py     pz     px    dxy    dyz    dz2    dxz    dx2    tot
  1  0.000  0.000  0.152  0.000  0.000  0.000  0.000  0.000  0.000  0.152
  2  0.000  0.000  0.384  0.000  0.000  0.000  0.000  0.000  0.000  0.384
tot  0.000  0.000  0.536  0.000  0.000  0.000  0.000  0.000  0.000  0.536
 
band   5 # energy    3.15882637 # occ.  0.00000000
 
ion      s     py     pz     px    dxy    dyz    dz2    dxz    dx2    tot
  1  0.001  0.001  0.000  0.003  0.000  0.000  0.000  0.000  0.000  0.006
  2  0.026  0.003  0.000  0.009  0.000  0.000  0.000  0.000  0.000  0.038
tot  0.027  0.004  0.000  0.012  0.000  0.000  0.000  0.000  0.000  0.043
 
band   6 # energy    3.89214414 # occ.  0.00000000
 
ion      s     py     pz     px    dxy    dyz    dz2    dxz    dx2    tot
  1  0.000  0.000  0.001  0.000  0.000  0.000  0.000  0.000  0.000  0.001
  2  0.000  0.000  0.025  0.000  0.000  0.000  0.000  0.000  0.000  0.025
tot  0.000  0.000  0.025  0.000  0.000  0.000  0.000  0.000  0.000  0.025
 
band   7 # energy    4.27272028 # occ.  0.00000000
 
ion      s     py     pz     px    dxy    dyz    dz2    dxz    dx2    tot
  1  0.000  0.000  0.000  0.000  0.000  0.000  0.000  0.000  0.000  0.001
  2  0.003  0.000  0.000  0.001  0.000  0.000  0.000  0.000  0.000  0.004
tot  0.003  0.000  0.000  0.001  0.000  0.000  0.000  0.000  0.000  0.005
 
band   8 # energy    5.57510153 # occ.  0.00000000
 
ion      s     py     pz     px    dxy    dyz    dz2    dxz    dx2    tot
  1  0.003  0.001  0.000  0.002  0.000  0.000  0.000  0.000  0.000  0.006
  2  0.014  0.001  0.000  0.004  0.000  0.000  0.000  0.000  0.000  0.019
tot  0.016  0.002  0.000  0.006  0.000  0.000  0.000  0.000  0.000  0.025
 

 k-point    7 :    0.35294118 0.00000000 0.00000000     weight = 0.02076125

band   1 # energy  -22.38298724 # occ.  2.00000000
 
ion      s     py     pz     px    dxy    dyz    dz2    dxz    dx2    tot
  1  0.130  0.030  0.000  0.090  0.000  0.000  0.000  0.000  0.000  0.250
  2  0.563  0.003  0.000  0.010  0.000  0.000  0.000  0.000  0.000  0.576
tot  0.693  0.033  0.000  0.100  0.000  0.000  0.000  0.000  0.000  0.826
 
band   2 # energy  -13.27595497 # occ.  2.00000000
 
ion      s     py     pz     px    dxy    dyz    dz2    dxz    dx2    tot
  1  0.228  0.034  0.000  0.101  0.000  0.000  0.000  0.000  0.000  0.362
  2  0.053  0.100  0.000  0.301  0.000  0.000  0.000  0.000  0.000  0.454
tot  0.281  0.134  0.000  0.402  0.000  0.000  0.000  0.000  0.000  0.816
 
band   3 # energy   -9.38258796 # occ.  2.00000000
 
ion      s     py     pz     px    dxy    dyz    dz2    dxz    dx2    tot
  1  0.000  0.268  0.000  0.089  0.000  0.000  0.000  0.000  0.000  0.357
  2  0.000  0.409  0.000  0.136  0.000  0.000  0.000  0.000  0.000  0.545
tot  0.000  0.677  0.000  0.226  0.000  0.000  0.000  0.000  0.000  0.902
 
band   4 # energy   -7.74166534 # occ.  2.00000000
 
ion      s     py     pz     px    dxy    dyz    dz2    dxz    dx2    tot
  1  0.000  0.000  0.130  0.000  0.000  0.000  0.000  0.000  0.000  0.130
  2  0.000  0.000  0.420  0.000  0.000  0.000  0.000  0.000  0.000  0.420
tot  0.000  0.000  0.550  0.000  0.000  0.000  0.000  0.000  0.000  0.550
 
band   5 # energy    2.91181281 # occ.  0.00000000
 
ion      s     py     pz     px    dxy    dyz    dz2    dxz    dx2    tot
  1  0.000  0.000  0.265  0.000  0.000  0.000  0.000  0.000  0.000  0.265
  2  0.000  0.000  0.195  0.000  0.000  0.000  0.000  0.000  0.000  0.195
tot  0.000  0.000  0.460  0.000  0.000  0.000  0.000  0.000  0.000  0.460
 
band   6 # energy    4.29302747 # occ.  0.00000000
 
ion      s     py     pz     px    dxy    dyz    dz2    dxz    dx2    tot
  1  0.003  0.001  0.000  0.003  0.000  0.000  0.000  0.000  0.000  0.008
  2  0.026  0.004  0.000  0.011  0.000  0.000  0.000  0.000  0.000  0.040
tot  0.030  0.005  0.000  0.014  0.000  0.000  0.000  0.000  0.000  0.048
 
band   7 # energy    5.37389981 # occ.  0.00000000
 
ion      s     py     pz     px    dxy    dyz    dz2    dxz    dx2    tot
  1  0.000  0.000  0.041  0.000  0.000  0.000  0.000  0.000  0.000  0.041
  2  0.000  0.000  0.002  0.000  0.000  0.000  0.000  0.000  0.000  0.002
tot  0.000  0.000  0.044  0.000  0.000  0.000  0.000  0.000  0.000  0.044
 
band   8 # energy    5.47698254 # occ.  0.00000000
 
ion      s     py     pz     px    dxy    dyz    dz2    dxz    dx2    tot
  1  0.001  0.000  0.000  0.000  0.000  0.000  0.000  0.000  0.000  0.001
  2  0.003  0.000  0.000  0.001  0.000  0.000  0.000  0.000  0.000  0.004
tot  0.003  0.000  0.000  0.001  0.000  0.000  0.000  0.000  0.000  0.005
 

 k-point    8 :    0.41176471 0.00000000 0.00000000     weight = 0.02076125

band   1 # energy  -21.79883575 # occ.  2.00000000
 
ion      s     py     pz     px    dxy    dyz    dz2    dxz    dx2    tot
  1  0.080  0.039  0.000  0.118  0.000  0.000  0.000  0.000  0.000  0.237
  2  0.594  0.002  0.000  0.007  0.000  0.000  0.000  0.000  0.000  0.603
tot  0.674  0.042  0.000  0.125  0.000  0.000  0.000  0.000  0.000  0.841
 
band   2 # energy  -14.33605305 # occ.  2.00000000
 
ion      s     py     pz     px    dxy    dyz    dz2    dxz    dx2    tot
  1  0.284  0.024  0.000  0.072  0.000  0.000  0.000  0.000  0.000  0.381
  2  0.031  0.097  0.000  0.292  0.000  0.000  0.000  0.000  0.000  0.419
tot  0.315  0.121  0.000  0.364  0.000  0.000  0.000  0.000  0.000  0.800
 
band   3 # energy   -9.68104339 # occ.  2.00000000
 
ion      s     py     pz     px    dxy    dyz    dz2    dxz    dx2    tot
  1  0.000  0.274  0.000  0.091  0.000  0.000  0.000  0.000  0.000  0.365
  2  0.000  0.404  0.000  0.135  0.000  0.000  0.000  0.000  0.000  0.539
tot  0.000  0.678  0.000  0.226  0.000  0.000  0.000  0.000  0.000  0.904
 
band   4 # energy   -6.88824645 # occ.  2.00000000
 
ion      s     py     pz     px    dxy    dyz    dz2    dxz    dx2    tot
  1  0.000  0.000  0.101  0.000  0.000  0.000  0.000  0.000  0.000  0.101
  2  0.000  0.000  0.468  0.000  0.000  0.000  0.000  0.000  0.000  0.468
tot  0.000  0.000  0.569  0.000  0.000  0.000  0.000  0.000  0.000  0.569
 
band   5 # energy    1.77341412 # occ.  0.00000000
 
ion      s     py     pz     px    dxy    dyz    dz2    dxz    dx2    tot
  1  0.000  0.000  0.338  0.000  0.000  0.000  0.000  0.000  0.000  0.338
  2  0.000  0.000  0.119  0.000  0.000  0.000  0.000  0.000  0.000  0.119
tot  0.000  0.000  0.457  0.000  0.000  0.000  0.000  0.000  0.000  0.457
 
band   6 # energy    5.54231187 # occ.  0.00000000
 
ion      s     py     pz     px    dxy    dyz    dz2    dxz    dx2    tot
  1  0.013  0.001  0.000  0.004  0.000  0.000  0.000  0.000  0.000  0.019
  2  0.034  0.004  0.000  0.013  0.000  0.000  0.000  0.000  0.000  0.052
tot  0.047  0.006  0.000  0.018  0.000  0.000  0.000  0.000  0.000  0.071
 
band   7 # energy    6.69870168 # occ.  0.00000000
 
ion      s     py     pz     px    dxy    dyz    dz2    dxz    dx2    tot
  1  0.000  0.000  0.023  0.000  0.000  0.000  0.000  0.000  0.000  0.023
  2  0.000  0.000  0.006  0.000  0.000  0.000  0.000  0.000  0.000  0.006
tot  0.000  0.000  0.029  0.000  0.000  0.000  0.000  0.000  0.000  0.029
 
band   8 # energy    6.88724514 # occ.  0.00000000
 
ion      s     py     pz     px    dxy    dyz    dz2    dxz    dx2    tot
  1  0.002  0.000  0.000  0.000  0.000  0.000  0.000  0.000  0.000  0.002
  2  0.003  0.000  0.000  0.001  0.000  0.000  0.000  0.000  0.000  0.004
tot  0.004  0.000  0.000  0.001  0.000  0.000  0.000  0.000  0.000  0.006
 

 k-point    9 :    0.47058824 0.00000000 0.00000000     weight = 0.02076125

band   1 # energy  -21.41839591 # occ.  2.00000000
 
ion      s     py     pz     px    dxy    dyz    dz2    dxz    dx2    tot
  1  0.041  0.046  0.000  0.139  0.000  0.000  0.000  0.000  0.000  0.226
  2  0.623  0.001  0.000  0.002  0.000  0.000  0.000  0.000  0.000  0.625
tot  0.664  0.047  0.000  0.141  0.000  0.000  0.000  0.000  0.000  0.852
 
band   2 # energy  -14.96100605 # occ.  2.00000000
 
ion      s     py     pz     px    dxy    dyz    dz2    dxz    dx2    tot
  1  0.327  0.017  0.000  0.051  0.000  0.000  0.000  0.000  0.000  0.395
  2  0.006  0.097  0.000  0.290  0.000  0.000  0.000  0.000  0.000  0.393
tot  0.333  0.114  0.000  0.341  0.000  0.000  0.000  0.000  0.000  0.788
 
band   3 # energy   -9.83452743 # occ.  2.00000000
 
ion      s     py     pz     px    dxy    dyz    dz2    dxz    dx2    tot
  1  0.000  0.277  0.000  0.092  0.000  0.000  0.000  0.000  0.000  0.369
  2  0.000  0.402  0.000  0.134  0.000  0.000  0.000  0.000  0.000  0.536
tot  0.000  0.679  0.000  0.226  0.000  0.000  0.000  0.000  0.000  0.905
 
band   4 # energy   -6.31396575 # occ.  2.00000000
 
ion      s     py     pz     px    dxy    dyz    dz2    dxz    dx2    tot
  1  0.000  0.000  0.074  0.000  0.000  0.000  0.000  0.000  0.000  0.074
  2  0.000  0.000  0.513  0.000  0.000  0.000  0.000  0.000  0.000  0.513
tot  0.000  0.000  0.586  0.000  0.000  0.000  0.000  0.000  0.000  0.586
 
band   5 # energy    1.00885627 # occ.  0.00000000
 
ion      s     py     pz     px    dxy    dyz    dz2    dxz    dx2    tot
  1  0.000  0.000  0.376  0.000  0.000  0.000  0.000  0.000  0.000  0.376
  2  0.000  0.000  0.060  0.000  0.000  0.000  0.000  0.000  0.000  0.060
tot  0.000  0.000  0.436  0.000  0.000  0.000  0.000  0.000  0.000  0.436
 
band   6 # energy    5.95263912 # occ.  0.00000000
 
ion      s     py     pz     px    dxy    dyz    dz2    dxz    dx2    tot
  1  0.178  0.013  0.000  0.039  0.000  0.000  0.000  0.000  0.000  0.230
  2  0.126  0.004  0.000  0.011  0.000  0.000  0.000  0.000  0.000  0.140
tot  0.304  0.017  0.000  0.050  0.000  0.000  0.000  0.000  0.000  0.371
 
band   7 # energy    8.16459136 # occ.  0.00000000
 
ion      s     py     pz     px    dxy    dyz    dz2    dxz    dx2    tot
  1  0.012  0.001  0.000  0.003  0.000  0.000  0.000  0.000  0.000  0.016
  2  0.003  0.000  0.000  0.001  0.000  0.000  0.000  0.000  0.000  0.005
tot  0.015  0.001  0.000  0.004  0.000  0.000  0.000  0.000  0.000  0.021
 
band   8 # energy    8.28699425 # occ.  0.00000000
 
ion      s     py     pz     px    dxy    dyz    dz2    dxz    dx2    tot
  1  0.000  0.000  0.013  0.000  0.000  0.000  0.000  0.000  0.000  0.013
  2  0.000  0.000  0.012  0.000  0.000  0.000  0.000  0.000  0.000  0.012
tot  0.000  0.000  0.024  0.000  0.000  0.000  0.000  0.000  0.000  0.024
 

 k-point   10 :    0.05882353 0.05882353 0.00000000     weight = 0.02076125

band   1 # energy  -24.47822564 # occ.  2.00000000
 
ion      s     py     pz     px    dxy    dyz    dz2    dxz    dx2    tot
  1  0.259  0.008  0.000  0.003  0.000  0.000  0.000  0.000  0.000  0.270
  2  0.513  0.002  0.000  0.001  0.000  0.000  0.000  0.000  0.000  0.516
tot  0.773  0.010  0.000  0.003  0.000  0.000  0.000  0.000  0.000  0.785
 
band   2 # energy  -10.66942819 # occ.  2.00000000
 
ion      s     py     pz     px    dxy    dyz    dz2    dxz    dx2    tot
  1  0.000  0.000  0.186  0.000  0.000  0.000  0.000  0.000  0.000  0.186
  2  0.000  0.000  0.332  0.000  0.000  0.000  0.000  0.000  0.000  0.332
tot  0.000  0.000  0.517  0.000  0.000  0.000  0.000  0.000  0.000  0.517
 
band   3 # energy   -7.70352080 # occ.  2.00000000
 
ion      s     py     pz     px    dxy    dyz    dz2    dxz    dx2    tot
  1  0.030  0.176  0.000  0.082  0.000  0.000  0.000  0.000  0.000  0.287
  2  0.020  0.434  0.000  0.145  0.000  0.000  0.000  0.000  0.000  0.599
tot  0.050  0.610  0.000  0.227  0.000  0.000  0.000  0.000  0.000  0.887
 
band   4 # energy   -7.26154989 # occ.  2.00000000
 
ion      s     py     pz     px    dxy    dyz    dz2    dxz    dx2    tot
  1  0.001  0.091  0.000  0.198  0.000  0.000  0.000  0.000  0.000  0.291
  2  0.000  0.152  0.000  0.455  0.000  0.000  0.000  0.000  0.000  0.607
tot  0.001  0.243  0.000  0.653  0.000  0.000  0.000  0.000  0.000  0.898
 
band   5 # energy    0.79248181 # occ.  0.00000000
 
ion      s     py     pz     px    dxy    dyz    dz2    dxz    dx2    tot
  1  0.000  0.000  0.000  0.000  0.000  0.000  0.000  0.000  0.000  0.000
  2  0.029  0.003  0.000  0.001  0.000  0.000  0.000  0.000  0.000  0.033
tot  0.029  0.003  0.000  0.001  0.000  0.000  0.000  0.000  0.000  0.033
 
band   6 # energy    1.57392308 # occ.  0.00000000
 
ion      s     py     pz     px    dxy    dyz    dz2    dxz    dx2    tot
  1  0.000  0.000  0.002  0.000  0.000  0.000  0.000  0.000  0.000  0.002
  2  0.000  0.000  0.022  0.000  0.000  0.000  0.000  0.000  0.000  0.022
tot  0.000  0.000  0.024  0.000  0.000  0.000  0.000  0.000  0.000  0.024
 
band   7 # energy    1.85647579 # occ.  0.00000000
 
ion      s     py     pz     px    dxy    dyz    dz2    dxz    dx2    tot
  1  0.000  0.000  0.000  0.000  0.000  0.000  0.000  0.000  0.000  0.000
  2  0.004  0.000  0.000  0.000  0.000  0.000  0.000  0.000  0.000  0.004
tot  0.004  0.000  0.000  0.000  0.000  0.000  0.000  0.000  0.000  0.004
 
band   8 # energy    3.21794149 # occ.  0.00000000
 
ion      s     py     pz     px    dxy    dyz    dz2    dxz    dx2    tot
  1  0.000  0.000  0.000  0.000  0.000  0.000  0.000  0.000  0.000  0.000
  2  0.015  0.001  0.000  0.000  0.000  0.000  0.000  0.000  0.000  0.017
tot  0.015  0.001  0.000  0.001  0.000  0.000  0.000  0.000  0.000  0.017
 

 k-point   11 :    0.11764706 0.05882353 0.00000000     weight = 0.04152249

band   1 # energy  -24.19511781 # occ.  2.00000000
 
ion      s     py     pz     px    dxy    dyz    dz2    dxz    dx2    tot
  1  0.244  0.014  0.000  0.010  0.000  0.000  0.000  0.000  0.000  0.268
  2  0.517  0.003  0.000  0.002  0.000  0.000  0.000  0.000  0.000  0.522
tot  0.761  0.017  0.000  0.013  0.000  0.000  0.000  0.000  0.000  0.790
 
band   2 # energy  -10.28136219 # occ.  2.00000000
 
ion      s     py     pz     px    dxy    dyz    dz2    dxz    dx2    tot
  1  0.000  0.000  0.180  0.000  0.000  0.000  0.000  0.000  0.000  0.180
  2  0.000  0.000  0.340  0.000  0.000  0.000  0.000  0.000  0.000  0.340
tot  0.000  0.000  0.520  0.000  0.000  0.000  0.000  0.000  0.000  0.520
 
band   3 # energy   -8.68240592 # occ.  2.00000000
 
ion      s     py     pz     px    dxy    dyz    dz2    dxz    dx2    tot
  1  0.061  0.091  0.000  0.149  0.000  0.000  0.000  0.000  0.000  0.300