<?xml version="1.0" encoding="ISO-8859-1"?>
<modeling>
 <generator>
  <i name="program" type="string">vasp </i>
  <i name="version" type="string">5.4.1  </i>
  <i name="subversion" type="string">24Jun15 (build Mar 10 2016 20:02:15) complex                          parallel </i>
  <i name="platform" type="string">IFC91_ompi </i>
  <i name="date" type="string">2016 05 03 </i>
  <i name="time" type="string">13:34:54 </i>
 </generator>
 <incar>
  <i type="string" name="PREC">accurate</i>
  <i type="string" name="ALGO"> D</i>
  <i type="int" name="IBRION">     2</i>
  <i name="EDIFF">      0.00000100</i>
  <i type="int" name="NSW">     0</i>
  <i type="int" name="ISIF">     3</i>
  <i name="ENCUT">    500.00000000</i>
  <i name="TIME">      0.40000000</i>
  <i type="int" name="ISMEAR">     1</i>
  <i name="SIGMA">      0.10000000</i>
  <i type="logical" name="LWAVE"> T  </i>
  <i type="logical" name="LVTOT"> T  </i>
  <i type="logical" name="LVHAR"> T  </i>
  <i type="logical" name="LORBIT"> F  </i>
  <v type="int" name="KPOINT_BSE">    -1     0     0     0</v>
  <i type="logical" name="LHFCALC"> T  </i>
  <i name="HFSCREEN">      0.20000000</i>
  <i name="AEXX">      0.25000000</i>
 </incar>
 <kpoints>
  <varray name="kpointlist" >
   <v>       0.00000000       0.00000000       0.00000000 </v>
   <v>       0.05882353       0.00000000       0.00000000 </v>
   <v>       0.11764706       0.00000000       0.00000000 </v>
   <v>       0.17647059       0.00000000       0.00000000 </v>
   <v>       0.23529412       0.00000000       0.00000000 </v>
   <v>       0.29411765       0.00000000       0.00000000 </v>
   <v>       0.35294118       0.00000000       0.00000000 </v>
   <v>       0.41176471       0.00000000       0.00000000 </v>
   <v>       0.47058824       0.00000000       0.00000000 </v>
   <v>       0.05882353       0.05882353       0.00000000 </v>
   <v>       0.11764706       0.05882353       0.00000000 </v>
   <v>       0.17647059       0.05882353       0.00000000 </v>
   <v>       0.23529412       0.05882353       0.00000000 </v>
   <v>       0.29411765       0.05882353       0.00000000 </v>
   <v>       0.35294118       0.05882353       0.00000000 </v>
   <v>       0.41176471       0.05882353       0.00000000 </v>
   <v>       0.47058824       0.05882353       0.00000000 </v>
   <v>       0.11764706       0.11764706       0.00000000 </v>
   <v>       0.17647059       0.11764706       0.00000000 </v>
   <v>       0.23529412       0.11764706       0.00000000 </v>
   <v>       0.29411765       0.11764706       0.00000000 </v>
   <v>       0.35294118       0.11764706       0.00000000 </v>
   <v>       0.41176471       0.11764706       0.00000000 </v>
   <v>       0.17647059       0.17647059       0.00000000 </v>
   <v>       0.23529412       0.17647059       0.00000000 </v>
   <v>       0.29411765       0.17647059       0.00000000 </v>
   <v>       0.35294118       0.17647059       0.00000000 </v>
   <v>       0.41176471       0.17647059       0.00000000 </v>
   <v>       0.23529412       0.23529412       0.00000000 </v>
   <v>       0.29411765       0.23529412       0.00000000 </v>
   <v>       0.35294118       0.23529412       0.00000000 </v>
   <v>       0.29411765       0.29411765       0.00000000 </v>
   <v>       0.35294118       0.29411765       0.00000000 </v>
   <v>       0.00000000       0.00000000       0.00000000 </v>
   <v>       0.02500000       0.00000000       0.00000000 </v>
   <v>       0.05000000       0.00000000       0.00000000 </v>
   <v>       0.07500000       0.00000000       0.00000000 </v>
   <v>       0.10000000       0.00000000       0.00000000 </v>
   <v>       0.12500000       0.00000000       0.00000000 </v>
   <v>       0.15000000       0.00000000       0.00000000 </v>
   <v>       0.17500000       0.00000000       0.00000000 </v>
   <v>       0.20000000       0.00000000       0.00000000 </v>
   <v>       0.22500000       0.00000000       0.00000000 </v>
   <v>       0.25000000       0.00000000       0.00000000 </v>
   <v>       0.27500000       0.00000000       0.00000000 </v>
   <v>       0.30000000       0.00000000       0.00000000 </v>
   <v>       0.32500000       0.00000000       0.00000000 </v>
   <v>       0.35000000       0.00000000       0.00000000 </v>
   <v>       0.37500000       0.00000000       0.00000000 </v>
   <v>       0.40000000       0.00000000       0.00000000 </v>
   <v>       0.42500000       0.00000000       0.00000000 </v>
   <v>       0.45000000       0.00000000       0.00000000 </v>
   <v>       0.47500000       0.00000000       0.00000000 </v>
   <v>       0.50000000       0.00000000       0.00000000 </v>
   <v>       0.50000000       0.00000000       0.00000000 </v>
   <v>       0.49166667       0.01666667       0.00000000 </v>
   <v>       0.48333333       0.03333333       0.00000000 </v>
   <v>       0.47500000       0.05000000       0.00000000 </v>
   <v>       0.46666667       0.06666667       0.00000000 </v>
   <v>       0.45833333       0.08333333       0.00000000 </v>
   <v>       0.45000000       0.10000000       0.00000000 </v>
   <v>       0.44166667       0.11666667       0.00000000 </v>
   <v>       0.43333333       0.13333333       0.00000000 </v>
   <v>       0.42500000       0.15000000       0.00000000 </v>
   <v>       0.41666667       0.16666667       0.00000000 </v>
   <v>       0.40833333       0.18333333       0.00000000 </v>
   <v>       0.40000000       0.20000000       0.00000000 </v>
   <v>       0.39166667       0.21666667       0.00000000 </v>
   <v>       0.38333333       0.23333333       0.00000000 </v>
   <v>       0.37500000       0.25000000       0.00000000 </v>
   <v>       0.36666667       0.26666667       0.00000000 </v>
   <v>       0.35833333       0.28333333       0.00000000 </v>
   <v>       0.35000000       0.30000000       0.00000000 </v>
   <v>       0.34166667       0.31666667       0.00000000 </v>
   <v>       0.33333333       0.33333333       0.00000000 </v>
   <v>       0.33333333       0.33333333       0.00000000 </v>
   <v>       0.31666667       0.31666667       0.00000000 </v>
   <v>       0.30000000       0.30000000       0.00000000 </v>
   <v>       0.28333333       0.28333333       0.00000000 </v>
   <v>       0.26666667       0.26666667       0.00000000 </v>
   <v>       0.25000000       0.25000000       0.00000000 </v>
   <v>       0.23333333       0.23333333       0.00000000 </v>
   <v>       0.21666667       0.21666667       0.00000000 </v>
   <v>       0.20000000       0.20000000       0.00000000 </v>
   <v>       0.18333333       0.18333333       0.00000000 </v>
   <v>       0.16666667       0.16666667       0.00000000 </v>
   <v>       0.15000000       0.15000000       0.00000000 </v>
   <v>       0.13333333       0.13333333       0.00000000 </v>
   <v>       0.11666667       0.11666667       0.00000000 </v>
   <v>       0.10000000       0.10000000       0.00000000 </v>
   <v>       0.08333333       0.08333333       0.00000000 </v>
   <v>       0.06666667       0.06666667       0.00000000 </v>
   <v>       0.05000000       0.05000000       0.00000000 </v>
   <v>       0.03333333       0.03333333       0.00000000 </v>
   <v>       0.01666667       0.01666667       0.00000000 </v>
   <v>       0.00000000       0.00000000       0.00000000 </v>
  </varray>
  <varray name="weights" >
   <v>       0.00346021 </v>
   <v>       0.02076125 </v>
   <v>       0.02076125 </v>
   <v>       0.02076125 </v>
   <v>       0.02076125 </v>
   <v>       0.02076125 </v>
   <v>       0.02076125 </v>
   <v>       0.02076125 </v>
   <v>       0.02076125 </v>
   <v>       0.02076125 </v>
   <v>       0.04152249 </v>
   <v>       0.04152249 </v>
   <v>       0.04152249 </v>
   <v>       0.04152249 </v>
   <v>       0.04152249 </v>
   <v>       0.04152249 </v>
   <v>       0.02076125 </v>
   <v>       0.02076125 </v>
   <v>       0.04152249 </v>
   <v>       0.04152249 </v>
   <v>       0.04152249 </v>
   <v>       0.04152249 </v>
   <v>       0.04152249 </v>
   <v>       0.02076125 </v>
   <v>       0.04152249 </v>
   <v>       0.04152249 </v>
   <v>       0.04152249 </v>
   <v>       0.02076125 </v>
   <v>       0.02076125 </v>
   <v>       0.04152249 </v>
   <v>       0.04152249 </v>
   <v>       0.02076125 </v>
   <v>       0.02076125 </v>
   <v>       0.00000000 </v>
   <v>       0.00000000 </v>
   <v>       0.00000000 </v>
   <v>       0.00000000 </v>
   <v>       0.00000000 </v>
   <v>       0.00000000 </v>
   <v>       0.00000000 </v>
   <v>       0.00000000 </v>
   <v>       0.00000000 </v>
   <v>       0.00000000 </v>
   <v>       0.00000000 </v>
   <v>       0.00000000 </v>
   <v>       0.00000000 </v>
   <v>       0.00000000 </v>
   <v>       0.00000000 </v>
   <v>       0.00000000 </v>
   <v>       0.00000000 </v>
   <v>       0.00000000 </v>
   <v>       0.00000000 </v>
   <v>       0.00000000 </v>
   <v>       0.00000000 </v>
   <v>       0.00000000 </v>
   <v>       0.00000000 </v>
   <v>       0.00000000 </v>
   <v>       0.00000000 </v>
   <v>       0.00000000 </v>
   <v>       0.00000000 </v>
   <v>       0.00000000 </v>
   <v>       0.00000000 </v>
   <v>       0.00000000 </v>
   <v>       0.00000000 </v>
   <v>       0.00000000 </v>
   <v>       0.00000000 </v>
   <v>       0.00000000 </v>
   <v>       0.00000000 </v>
   <v>       0.00000000 </v>
   <v>       0.00000000 </v>
   <v>       0.00000000 </v>
   <v>       0.00000000 </v>
   <v>       0.00000000 </v>
   <v>       0.00000000 </v>
   <v>       0.00000000 </v>
   <v>       0.00000000 </v>
   <v>       0.00000000 </v>
   <v>       0.00000000 </v>
   <v>       0.00000000 </v>
   <v>       0.00000000 </v>
   <v>       0.00000000 </v>
   <v>       0.00000000 </v>
   <v>       0.00000000 </v>
   <v>       0.00000000 </v>
   <v>       0.00000000 </v>
   <v>       0.00000000 </v>
   <v>       0.00000000 </v>
   <v>       0.00000000 </v>
   <v>       0.00000000 </v>
   <v>       0.00000000 </v>
   <v>       0.00000000 </v>
   <v>       0.00000000 </v>
   <v>       0.00000000 </v>
   <v>       0.00000000 </v>
   <v>       0.00000000 </v>
   <v>       0.00000000 </v>
  </varray>
 </kpoints>
 <parameters>
  <separator name="general" >
   <i type="string" name="SYSTEM">unknown system</i>
   <i type="logical" name="LCOMPAT"> F  </i>
  </separator>
  <separator name="electronic" >
   <i type="string" name="PREC">accura</i>
   <i name="ENMAX">    500.00000000</i>
   <i name="ENAUG">    627.11200000</i>
   <i name="EDIFF">      0.00000100</i>
   <i type="int" name="IALGO">    53</i>
   <i type="int" name="IWAVPR">    10</i>
   <i type="int" name="NBANDS">     8</i>
   <i name="NELECT">      8.00000000</i>
   <i type="int" name="TURBO">     0</i>
   <i type="int" name="IRESTART">     0</i>
   <i type="int" name="NREBOOT">     0</i>
   <i type="int" name="NMIN">     0</i>
   <i name="EREF">      0.00000000</i>
   <separator name="electronic smearing" >
    <i type="int" name="ISMEAR">     1</i>
    <i name="SIGMA">      0.10000000</i>
    <i name="KSPACING">      0.50000000</i>
    <i type="logical" name="KGAMMA"> T  </i>
   </separator>
   <separator name="electronic projectors" >
    <i type="logical" name="LREAL"> F  </i>
    <v name="ROPT">      0.00000000      0.00000000</v>
    <i type="int" name="LMAXPAW">  -100</i>
    <i type="int" name="LMAXMIX">     2</i>
    <i type="logical" name="NLSPLINE"> F  </i>
   </separator>
   <separator name="electronic startup" >
    <i type="int" name="ISTART">     1</i>
    <i type="int" name="ICHARG">     0</i>
    <i type="int" name="INIWAV">     1</i>
   </separator>
   <separator name="electronic spin" >
    <i type="int" name="ISPIN">     1</i>
    <i type="logical" name="LNONCOLLINEAR"> F  </i>
    <v name="MAGMOM">      1.00000000      1.00000000</v>
    <i name="NUPDOWN">     -1.00000000</i>
    <i type="logical" name="LSORBIT"> F  </i>
    <v name="SAXIS">      0.00000000      0.00000000      1.00000000</v>
    <i type="logical" name="LSPIRAL"> F  </i>
    <v name="QSPIRAL">      0.00000000      0.00000000      0.00000000</v>
    <i type="logical" name="LZEROZ"> F  </i>
   </separator>
   <separator name="electronic exchange-correlation" >
    <i type="logical" name="LASPH"> F  </i>
    <i type="logical" name="LMETAGGA"> F  </i>
   </separator>
   <separator name="electronic convergence" >
    <i type="int" name="NELM">    60</i>
    <i type="int" name="NELMDL">     0</i>
    <i type="int" name="NELMIN">     2</i>
    <i name="ENINI">    500.00000000</i>
    <separator name="electronic convergence detail" >
     <i type="logical" name="LDIAG"> T  </i>
     <i type="logical" name="LSUBROT"> F  </i>
     <i name="WEIMIN">      0.00000000</i>
     <i name="EBREAK">      0.00000003</i>
     <i name="DEPER">      0.30000000</i>
     <i type="int" name="NRMM">     4</i>
     <i name="TIME">      0.40000000</i>
    </separator>
   </separator>
   <separator name="electronic mixer" >
    <i name="AMIX">      0.40000000</i>
    <i name="BMIX">      1.00000000</i>
    <i name="AMIN">      0.10000000</i>
    <i name="AMIX_MAG">      1.60000000</i>
    <i name="BMIX_MAG">      1.00000000</i>
    <separator name="electronic mixer details" >
     <i type="int" name="IMIX">     4</i>
     <i type="logical" name="MIXFIRST"> F  </i>
     <i type="int" name="MAXMIX">   -45</i>
     <i name="WC">    100.00000000</i>
     <i type="int" name="INIMIX">     1</i>
     <i type="int" name="MIXPRE">     1</i>
     <i type="int" name="MREMOVE">     5</i>
    </separator>
   </separator>
   <separator name="electronic dipolcorrection" >
    <i type="logical" name="LDIPOL"> F  </i>
    <i type="logical" name="LMONO"> F  </i>
    <i type="int" name="IDIPOL">     0</i>
    <i name="EPSILON">      1.00000000</i>
    <v name="DIPOL">   -100.00000000   -100.00000000   -100.00000000</v>
    <i name="EFIELD">      0.00000000</i>
   </separator>
  </separator>
  <separator name="grids" >
   <i type="int" name="NGX">    18</i>
   <i type="int" name="NGY">    18</i>
   <i type="int" name="NGZ">   150</i>
   <i type="int" name="NGXF">    36</i>
   <i type="int" name="NGYF">    36</i>
   <i type="int" name="NGZF">   300</i>
   <i type="logical" name="ADDGRID"> F  </i>
  </separator>
  <separator name="ionic" >
   <i type="int" name="NSW">     0</i>
   <i type="int" name="IBRION">    -1</i>
   <i type="int" name="ISIF">     3</i>
   <i name="PSTRESS">      0.00000000</i>
   <i name="EDIFFG">      0.00001000</i>
   <i type="int" name="NFREE">     1</i>
   <i name="POTIM">      0.50000000</i>
   <i name="SMASS">     -3.00000000</i>
   <i name="SCALEE">      1.00000000</i>
  </separator>
  <separator name="ionic md" >
   <i name="TEBEG">      0.00010000</i>
   <i name="TEEND">      0.00010000</i>
   <i type="int" name="NBLOCK">     1</i>
   <i type="int" name="KBLOCK">     1</i>
   <i type="int" name="NPACO">   256</i>
   <i name="APACO">     16.00000000</i>
  </separator>
  <separator name="symmetry" >
   <i type="int" name="ISYM">     3</i>
   <i name="SYMPREC">      0.00001000</i>
  </separator>
  <separator name="dos" >
   <i type="logical" name="LORBIT"> F  </i>
   <v name="RWIGS">     -1.00000000     -1.00000000</v>
   <i type="int" name="NEDOS">   301</i>
   <i name="EMIN">     10.00000000</i>
   <i name="EMAX">    -10.00000000</i>
   <i name="EFERMI">      0.00000000</i>
  </separator>
  <separator name="writing" >
   <i type="int" name="NWRITE">     2</i>
   <i type="logical" name="LWAVE"> T  </i>
   <i type="logical" name="LCHARG"> T  </i>
   <i type="logical" name="LPARD"> F  </i>
   <i type="logical" name="LVTOT"> F  </i>
   <i type="logical" name="LVHAR"> T  </i>
   <i type="logical" name="LELF"> F  </i>
   <i type="logical" name="LOPTICS"> F  </i>
   <v name="STM">      0.00000000      0.00000000      0.00000000      0.00000000      0.00000000      0.00000000      0.00000000</v>
  </separator>
  <separator name="performance" >
   <i type="int" name="NPAR">     8</i>
   <i type="int" name="NSIM">     4</i>
   <i type="int" name="NBLK">    -1</i>
   <i type="logical" name="LPLANE"> T  </i>
   <i type="logical" name="LSCALAPACK"> T  </i>
   <i type="logical" name="LSCAAWARE"> F  </i>
   <i type="logical" name="LSCALU"> F  </i>
   <i type="logical" name="LASYNC"> F  </i>
   <i type="logical" name="LORBITALREAL"> F  </i>
  </separator>
  <separator name="miscellaneous" >
   <i type="int" name="IDIOT">     3</i>
   <i type="logical" name="LMUSIC"> F  </i>
   <v name="POMASS">     10.81100000     14.00100000</v>
   <v name="DARWINR">      0.00000000      0.00000000</v>
   <v name="DARWINV">      1.00000000      1.00000000</v>
   <i type="logical" name="LCORR"> T  </i>
  </separator>
  <i type="logical" name="GGA_COMPAT"> T  </i>
  <i type="logical" name="LBERRY"> F  </i>
  <i type="int" name="ICORELEVEL">     0</i>
  <i type="logical" name="LDAU"> F  </i>
  <i type="int" name="I_CONSTRAINED_M">     0</i>
  <separator name="electronic exchange-correlation" >
   <i type="string" name="GGA">--</i>
   <i type="int" name="VOSKOWN">     0</i>
   <i type="logical" name="LHFCALC"> T  </i>
   <i type="string" name="PRECFOCK">normal</i>
   <i type="logical" name="LSYMGRAD"> F  </i>
   <i type="logical" name="LHFONE"> F  </i>
   <i type="logical" name="LRHFCALC"> F  </i>
   <i type="logical" name="LTHOMAS"> F  </i>
   <i type="logical" name="LMODELHF"> F  </i>
   <i name="ENCUT4O">     -1.00000000</i>
   <i type="int" name="EXXOEP">     0</i>
   <i type="int" name="FOURORBIT">     0</i>
   <i name="AEXX">      0.25000000</i>
   <i name="HFALPHA">     -1.00000000</i>
   <i name="MCALPHA">      0.00000000</i>
   <i name="ALDAX">      0.75000000</i>
   <i name="AGGAX">      0.75000000</i>
   <i name="ALDAC">      1.00000000</i>
   <i name="AGGAC">      1.00000000</i>
   <i type="int" name="NKREDX">     1</i>
   <i type="int" name="NKREDY">     1</i>
   <i type="int" name="NKREDZ">     1</i>
   <i type="logical" name="SHIFTRED"> F  </i>
   <i type="logical" name="ODDONLY"> F  </i>
   <i type="logical" name="EVENONLY"> F  </i>
   <i type="int" name="LMAXFOCK">     4</i>
   <i type="int" name="NMAXFOCKAE">     1</i>
   <i type="logical" name="LFOCKAEDFT"> F  </i>
   <i name="HFSCREEN">      0.20000000</i>
   <i name="HFSCREENC">      0.20000000</i>
   <i type="int" name="NBANDSGWLOW">     1</i>
  </separator>
  <separator name="vdW DFT" >
   <i type="logical" name="LUSE_VDW"> F  </i>
   <i name="Zab_VDW">     -0.84910000</i>
   <i name="PARAM1">      0.12340000</i>
   <i name="PARAM2">      1.00000000</i>
   <i name="PARAM3">      0.00000000</i>
  </separator>
  <separator name="model GW" >
   <i type="int" name="MODEL_GW">     0</i>
   <i name="MODEL_EPS0">     32.69594900</i>
   <i name="MODEL_ALPHA">      1.00000000</i>
  </separator>
  <separator name="linear response parameters" >
   <i type="logical" name="LEPSILON"> F  </i>
   <i type="logical" name="LRPA"> F  </i>
   <i type="logical" name="LNABLA"> F  </i>
   <i type="logical" name="LVEL"> F  </i>
   <i type="int" name="KINTER">     0</i>
   <i name="CSHIFT">      0.10000000</i>
   <i name="OMEGAMAX">     -1.00000000</i>
   <i name="DEG_THRESHOLD">      0.00200000</i>
  </separator>
  <separator name="orbital magnetization" >
   <i type="logical" name="NUCIND"> F  </i>
   <v name="MAGPOS">      0.00000000      0.00000000      0.00000000</v>
   <i type="logical" name="LNICSALL"> T  </i>
   <i type="logical" name="ORBITALMAG"> F  </i>
   <i type="logical" name="LMAGBLOCH"> F  </i>
   <i type="logical" name="LCHIMAG"> F  </i>
   <i type="logical" name="LGAUGE"> T  </i>
   <i type="int" name="MAGATOM">     0</i>
   <v name="MAGDIPOL">      0.00000000      0.00000000      0.00000000</v>
   <v name="AVECCONST">      0.00000000      0.00000000      0.00000000</v>
  </separator>
  <separator name="response functions" >
   <i type="logical" name="LADDER"> F  </i>
   <i type="logical" name="LFXC"> F  </i>
   <i type="logical" name="LHARTREE"> T  </i>
   <i type="int" name="IBSE">     0</i>
   <v type="int" name="KPOINT">    -1     0     0     0</v>
   <i type="logical" name="LTCTE"> F  </i>
   <i type="logical" name="LTETE"> F  </i>
   <i type="logical" name="LTRIPLET"> F  </i>
   <i type="logical" name="LFXCEPS"> F  </i>
   <i type="logical" name="LFXHEG"> F  </i>
   <i type="int" name="NATURALO">     0</i>
   <i type="logical" name="L2ORDER"> F  </i>
   <i type="logical" name="LUSEW"> F  </i>
   <i name="ENCUTGW">     -2.00000000</i>
   <i name="ENCUTGWSOFT">     -2.00000000</i>
   <i name="ENCUTLF">     -1.00000000</i>
   <i type="int" name="LMAXMP2">    -1</i>
   <i name="SCISSOR">      0.00000000</i>
   <i type="int" name="NOMEGA">     0</i>
   <i type="int" name="NOMEGAR">     0</i>
   <i type="int" name="NBANDSGW">    -1</i>
   <i type="int" name="NBANDSO">    -1</i>
   <i type="int" name="NBANDSV">    -1</i>
   <i type="int" name="NELM">     1</i>
   <i type="int" name="NELMHF">     1</i>
   <i type="int" name="DIM">     3</i>
   <i type="int" name="ANTIRES">     0</i>
   <i name="OMEGAMAX">    -30.00000000</i>
   <i name="OMEGAMIN">    -30.00000000</i>
   <i name="OMEGATL">   -200.00000000</i>
   <i type="int" name="OMEGAGRID">     0</i>
   <i name="CSHIFT">     -0.10000000</i>
   <i type="logical" name="SELFENERGY"> F  </i>
   <i type="logical" name="LSPECTRAL"> F  </i>
   <i type="logical" name="LSPECTRALGW"> F  </i>
   <i type="logical" name="LSINGLES"> F  </i>
   <i type="logical" name="LFERMIGW"> F  </i>
   <i type="logical" name="ODDONLYGW"> F  </i>
   <i type="logical" name="EVENONLYGW"> F  </i>
   <i type="int" name="NKREDLFX">     1</i>
   <i type="int" name="NKREDLFY">     1</i>
   <i type="int" name="NKREDLFZ">     1</i>
   <i type="int" name="MAXMEM">  1800</i>
   <i type="int" name="TELESCOPE">     0</i>
   <i type="int" name="TAUPAR">     1</i>
   <i type="int" name="OMEGAPAR">    -1</i>
   <i name="LAMBDA">      1.00000000</i>
  </separator>
  <separator name="External order field" >
   <i name="OFIELD_KAPPA">      0.00000000</i>
   <v name="OFIELD_K">      0.00000000      0.00000000      0.00000000</v>
   <i name="OFIELD_Q6_NEAR">      0.00000000</i>
   <i name="OFIELD_Q6_FAR">      0.00000000</i>
   <i name="OFIELD_A">      0.00000000</i>
  </separator>
 </parameters>
 <atominfo>
  <atoms>       2 </atoms>
  <types>       2 </types>
  <array name="atoms" >
   <dimension dim="1">ion</dimension>
   <field type="string">element</field>
   <field type="int">atomtype</field>
   <set>
    <rc><c>B </c><c>   1</c></rc>
    <rc><c>N </c><c>   2</c></rc>
   </set>
  </array>
  <array name="atomtypes" >
   <dimension dim="1">type</dimension>
   <field type="int">atomspertype</field>
   <field type="string">element</field>
   <field>mass</field>
   <field>valence</field>
   <field type="string">pseudopotential</field>
   <set>
    <rc><c>   1</c><c>B </c><c>     10.81100000</c><c>      3.00000000</c><c> PAW_PBE B 06Sep2000                    </c></rc>
    <rc><c>   1</c><c>N </c><c>     14.00100000</c><c>      5.00000000</c><c> PAW_PBE N 08Apr2002                    </c></rc>
   </set>
  </array>
 </atominfo>
 <structure name="initialpos" >
  <crystal>
   <varray name="basis" >
    <v>       2.50845307       0.00000000       0.00000000 </v>
    <v>      -1.25422653       2.17238461       0.00000000 </v>
    <v>       0.00000000       0.00000000      20.00000000 </v>
   </varray>
   <i name="volume">    108.98649667 </i>
   <varray name="rec_basis" >
    <v>       0.39865207       0.23016182       0.00000000 </v>
    <v>       0.00000000       0.46032364       0.00000000 </v>
    <v>       0.00000000       0.00000000       0.05000000 </v>
   </varray>
  </crystal>
  <varray name="positions" >
   <v>       0.33333300       0.66666700       0.25884081 </v>
   <v>       0.66666700       0.33333300       0.25884081 </v>
  </varray>
 </structure>
 <calculation>
  <scstep>
   <time name="total">   84.11   84.24</time>
   <energy>
    <i name="alphaZ">      3.18273910 </i>
    <i name="ewald">   1227.03520713 </i>
    <i name="hartreedc">  -1518.12105631 </i>
    <i name="XCdc">     23.27493599 </i>
    <i name="pawpsdc">    222.58239864 </i>
    <i name="pawaedc">   -224.47862895 </i>
    <i name="eentropy">      0.00012189 </i>
    <i name="bandstr">   -105.51015602 </i>
    <i name="atom">    330.70497825 </i>
    <i name="e_fr_energy">    -21.89988179 </i>
    <i name="e_wo_entrp">    -21.90000368 </i>
    <i name="e_0_energy">    -21.89992242 </i>
   </energy>
  </scstep>
  <scstep>
   <time name="total">   85.04   85.15</time>
   <energy>
    <i name="e_fr_energy">    -21.92433527 </i>
    <i name="e_wo_entrp">    -21.92445695 </i>
    <i name="e_0_energy">    -21.92437583 </i>
   </energy>
  </scstep>
  <scstep>
   <time name="total">   85.29   85.36</time>
   <energy>
    <i name="e_fr_energy">    -21.93482402 </i>
    <i name="e_wo_entrp">    -21.93494555 </i>
    <i name="e_0_energy">    -21.93486453 </i>
   </energy>
  </scstep>
  <scstep>
   <time name="total">   85.73   85.82</time>
   <energy>
    <i name="e_fr_energy">    -21.93767206 </i>
    <i name="e_wo_entrp">    -21.93779348 </i>
    <i name="e_0_energy">    -21.93771253 </i>
   </energy>
  </scstep>
  <scstep>
   <time name="total">   85.54   85.63</time>
   <energy>
    <i name="e_fr_energy">    -21.93876048 </i>
    <i name="e_wo_entrp">    -21.93888183 </i>
    <i name="e_0_energy">    -21.93880093 </i>
   </energy>
  </scstep>
  <scstep>
   <time name="total">   86.41   86.51</time>
   <energy>
    <i name="e_fr_energy">    -21.93919565 </i>
    <i name="e_wo_entrp">    -21.93931695 </i>
    <i name="e_0_energy">    -21.93923608 </i>
   </energy>
  </scstep>
  <scstep>
   <time name="total">   85.10   85.18</time>
   <energy>
    <i name="e_fr_energy">    -21.93940245 </i>
    <i name="e_wo_entrp">    -21.93952371 </i>
    <i name="e_0_energy">    -21.93944287 </i>
   </energy>
  </scstep>
  <scstep>
   <time name="total">   86.21   86.41</time>
   <energy>
    <i name="e_fr_energy">    -21.93949993 </i>
    <i name="e_wo_entrp">    -21.93962116 </i>
    <i name="e_0_energy">    -21.93954034 </i>
   </energy>
  </scstep>
  <scstep>
   <time name="total">   85.20   85.28</time>
   <energy>
    <i name="e_fr_energy">    -21.93953859 </i>
    <i name="e_wo_entrp">    -21.93965981 </i>
    <i name="e_0_energy">    -21.93957899 </i>
   </energy>
  </scstep>
  <scstep>
   <time name="total">   85.02   85.11</time>
   <energy>
    <i name="e_fr_energy">    -21.93955290 </i>
    <i name="e_wo_entrp">    -21.93967411 </i>
    <i name="e_0_energy">    -21.93959331 </i>
   </energy>
  </scstep>
  <scstep>
   <time name="total">   85.30   85.44</time>
   <energy>
    <i name="e_fr_energy">    -21.93955877 </i>
    <i name="e_wo_entrp">    -21.93967998 </i>
    <i name="e_0_energy">    -21.93959917 </i>
   </energy>
  </scstep>
  <scstep>
   <time name="total">   85.11   85.35</time>
   <energy>
    <i name="e_fr_energy">    -21.93956112 </i>
    <i name="e_wo_entrp">    -21.93968232 </i>
    <i name="e_0_energy">    -21.93960152 </i>
   </energy>
  </scstep>
  <scstep>
   <time name="total">   85.17   85.26</time>
   <energy>
    <i name="alphaZ">      3.18273910 </i>
    <i name="ewald">   1227.03520713 </i>
    <i name="hartreedc">  -1518.74134539 </i>
    <i name="XCdc">     23.27228991 </i>
    <i name="pawpsdc">    218.85590120 </i>
    <i name="pawaedc">   -220.70912441 </i>
    <i name="eentropy">      0.00012120 </i>
    <i name="bandstr">   -105.00039559 </i>
    <i name="atom">    330.70497825 </i>
    <i name="e_fr_energy">    -21.93956194 </i>
    <i name="e_wo_entrp">    -21.93968314 </i>
    <i name="e_0_energy">    -21.93960234 </i>
   </energy>
  </scstep>
  <structure>
   <crystal>
    <varray name="basis" >
     <v>       2.50845307       0.00000000       0.00000000 </v>
     <v>      -1.25422653       2.17238461       0.00000000 </v>
     <v>       0.00000000       0.00000000      20.00000000 </v>
    </varray>
    <i name="volume">    108.98649667 </i>
    <varray name="rec_basis" >
     <v>       0.39865207       0.23016182       0.00000000 </v>
     <v>       0.00000000       0.46032364       0.00000000 </v>
     <v>       0.00000000       0.00000000       0.05000000 </v>
    </varray>
   </crystal>
   <varray name="positions" >
    <v>       0.33333300       0.66666700       0.25884081 </v>
    <v>       0.66666700       0.33333300       0.25884081 </v>
   </varray>
  </structure>
  <varray name="forces" >
   <v>              NaN              NaN              NaN </v>
   <v>              NaN              NaN              NaN </v>
  </varray>
  <varray name="stress" >
   <v>              NaN              NaN              NaN </v>
   <v>              NaN              NaN              NaN </v>
   <v>              NaN              NaN              NaN </v>
  </varray>
  <energy>
   <i name="e_fr_energy">    -21.93956194 </i>
   <i name="e_wo_entrp">    -21.93960234 </i>
   <i name="e_0_energy">      0.00012120 </i>
  </energy>
  <time name="totalsc"> 1218.64 1220.56</time>
  <eigenvalues>
   <array>
    <dimension dim="1">band</dimension>
    <dimension dim="2">kpoint</dimension>
    <dimension dim="3">spin</dimension>
    <field>eigene</field>
    <field>occ</field>
    <set>
     <set comment="spin 1">
      <set comment="kpoint 1">
       <r>  -24.6940    1.0000 </r>
       <r>  -10.9642    1.0000 </r>
       <r>   -6.8401    1.0000 </r>
       <r>   -6.8400    1.0000 </r>
       <r>    0.4504    0.0000 </r>
       <r>    1.2531    0.0000 </r>
       <r>    1.5244    0.0000 </r>
       <r>    2.8821    0.0000 </r>
      </set>
      <set comment="kpoint 2">
       <r>  -24.6218    1.0000 </r>
       <r>  -10.8656    1.0000 </r>
       <r>   -7.1481    1.0000 </r>
       <r>   -6.9808    1.0000 </r>
       <r>    0.5656    0.0000 </r>
       <r>    1.3603    0.0000 </r>
       <r>    1.6352    0.0000 </r>
       <r>    2.9946    0.0000 </r>
      </set>
      <set comment="kpoint 3">
       <r>  -24.4070    1.0000 </r>
       <r>  -10.5719    1.0000 </r>
       <r>   -7.9917    1.0000 </r>
       <r>   -7.3606    1.0000 </r>
       <r>    0.9041    0.0000 </r>
       <r>    1.6804    0.0000 </r>
       <r>    1.9669    0.0000 </r>
       <r>    3.3284    0.0000 </r>
      </set>
      <set comment="kpoint 4">
       <r>  -24.0558    1.0000 </r>
       <r>  -10.0898    1.0000 </r>
       <r>   -9.1918    1.0000 </r>
       <r>   -7.8809    1.0000 </r>
       <r>    1.4546    0.0000 </r>
       <r>    2.2087    0.0000 </r>
       <r>    2.5179    0.0000 </r>
       <r>    3.8766    0.0000 </r>
      </set>
      <set comment="kpoint 5">
       <r>  -23.5813    1.0000 </r>
       <r>  -10.5681    1.0000 </r>
       <r>   -9.4335    1.0000 </r>
       <r>   -8.4396    1.0000 </r>
       <r>    2.2093    0.0000 </r>
       <r>    2.9769    0.0000 </r>
       <r>    3.2871    0.0000 </r>
       <r>    4.6314    0.0000 </r>
      </set>
      <set comment="kpoint 6">
       <r>  -23.0080    1.0000 </r>
       <r>  -11.9723    1.0000 </r>
       <r>   -8.9578    1.0000 </r>
       <r>   -8.6313    1.0000 </r>
       <r>    3.1588    0.0000 </r>
       <r>    3.8921    0.0000 </r>
       <r>    4.2727    0.0000 </r>
       <r>    5.5751    0.0000 </r>
      </set>
      <set comment="kpoint 7">
       <r>  -22.3830    1.0000 </r>
       <r>  -13.2760    1.0000 </r>
       <r>   -9.3826    1.0000 </r>
       <r>   -7.7417    1.0000 </r>
       <r>    2.9118    0.0000 </r>
       <r>    4.2930    0.0000 </r>
       <r>    5.3739    0.0000 </r>
       <r>    5.4770    0.0000 </r>
      </set>
      <set comment="kpoint 8">
       <r>  -21.7988    1.0000 </r>
       <r>  -14.3361    1.0000 </r>
       <r>   -9.6810    1.0000 </r>
       <r>   -6.8882    1.0000 </r>
       <r>    1.7734    0.0000 </r>
       <r>    5.5423    0.0000 </r>
       <r>    6.6987    0.0000 </r>
       <r>    6.8872    0.0000 </r>
      </set>
      <set comment="kpoint 9">
       <r>  -21.4184    1.0000 </r>
       <r>  -14.9610    1.0000 </r>
       <r>   -9.8345    1.0000 </r>
       <r>   -6.3140    1.0000 </r>
       <r>    1.0089    0.0000 </r>
       <r>    5.9526    0.0000 </r>
       <r>    8.1646    0.0000 </r>
       <r>    8.2870    0.0000 </r>
      </set>
      <set comment="kpoint 10">
       <r>  -24.4782    1.0000 </r>
       <r>  -10.6694    1.0000 </r>
       <r>   -7.7035    1.0000 </r>
       <r>   -7.2615    1.0000 </r>
       <r>    0.7925    0.0000 </r>
       <r>    1.5739    0.0000 </r>
       <r>    1.8565    0.0000 </r>
       <r>    3.2179    0.0000 </r>
      </set>
      <set comment="kpoint 11">
       <r>  -24.1951    1.0000 </r>
       <r>  -10.2814    1.0000 </r>
       <r>   -8.6824    1.0000 </r>
       <r>   -7.7550    1.0000 </r>
       <r>    1.2375    0.0000 </r>
       <r>    1.9984    0.0000 </r>
       <r>    2.2979    0.0000 </r>
       <r>    3.6600    0.0000 </r>
      </set>
      <set comment="kpoint 12">
       <r>  -23.7817    1.0000 </r>
       <r>   -9.9317    1.0000 </r>
       <r>   -9.7114    1.0000 </r>
       <r>   -8.3342    1.0000 </r>
       <r>    1.8919    0.0000 </r>
       <r>    2.6579    0.0000 </r>
       <r>    2.9584    0.0000 </r>
       <r>    4.3139    0.0000 </r>
      </set>
      <set comment="kpoint 13">
       <r>  -23.2559    1.0000 </r>
       <r>  -11.2957    1.0000 </r>
       <r>   -8.9797    1.0000 </r>
       <r>   -8.9008    1.0000 </r>
       <r>    2.7484    0.0000 </r>
       <r>    3.4981    0.0000 </r>
       <r>    3.8366    0.0000 </r>
       <r>    5.1718    0.0000 </r>
      </set>
      <set comment="kpoint 14">
       <r>  -22.6519    1.0000 </r>
       <r>  -12.6364    1.0000 </r>
       <r>   -9.3900    1.0000 </r>
       <r>   -8.1270    1.0000 </r>
       <r>    3.4026    0.0000 </r>
       <r>    3.8022    0.0000 </r>
       <r>    4.9346    0.0000 </r>
       <r>    4.9400    0.0000 </r>
      </set>
      <set comment="kpoint 15">
       <r>  -22.0357    1.0000 </r>
       <r>  -13.8189    1.0000 </r>
       <r>   -9.7618    1.0000 </r>
       <r>   -7.2381    1.0000 </r>
       <r>    2.3223    0.0000 </r>
       <r>    5.0186    0.0000 </r>
       <r>    6.0732    0.0000 </r>
       <r>    6.2424    0.0000 </r>
      </set>
      <set comment="kpoint 16">
       <r>  -21.5331    1.0000 </r>
       <r>  -14.6760    1.0000 </r>
       <r>   -9.9930    1.0000 </r>
       <r>   -6.4899    1.0000 </r>
       <r>    1.3242    0.0000 </r>
       <r>    6.0013    0.0000 </r>
       <r>    7.6227    0.0000 </r>
       <r>    7.5386    0.0000 </r>
      </set>
      <set comment="kpoint 17">
       <r>  -21.3294    1.0000 </r>
       <r>  -15.0002    1.0000 </r>
       <r>  -10.0713    1.0000 </r>
       <r>   -6.1774    1.0000 </r>
       <r>    0.9164    0.0000 </r>
       <r>    6.2888    0.0000 </r>
       <r>    9.2076    0.0000 </r>
       <r>    9.3301    0.0000 </r>
      </set>
      <set comment="kpoint 18">
       <r>  -23.8493    1.0000 </r>
       <r>   -9.8049    1.0000 </r>
       <r>   -9.6348    1.0000 </r>
       <r>   -8.3837    1.0000 </r>
       <r>    1.7877    0.0000 </r>
       <r>    2.5388    0.0000 </r>
       <r>    2.8491    0.0000 </r>
       <r>    4.2095    0.0000 </r>
      </set>
      <set comment="kpoint 19">
       <r>  -23.3828    1.0000 </r>
       <r>  -10.7807    1.0000 </r>
       <r>   -9.1573    1.0000 </r>
       <r>   -9.0641    1.0000 </r>
       <r>    2.5476    0.0000 </r>
       <r>    3.2932    0.0000 </r>
       <r>    3.6193    0.0000 </r>
       <r>    4.9718    0.0000 </r>
      </set>
      <set comment="kpoint 20">
       <r>  -22.8208    1.0000 </r>
       <r>  -12.0185    1.0000 </r>
       <r>   -9.6695    1.0000 </r>
       <r>   -8.3675    1.0000 </r>
       <r>    3.5118    0.0000 </r>
       <r>    3.6421    0.0000 </r>
       <r>    4.6098    0.0000 </r>
       <r>    4.7994    0.0000 </r>
      </set>
      <set comment="kpoint 21">
       <r>  -22.2111    1.0000 </r>
       <r>  -13.2113    1.0000 </r>
       <r>  -10.1462    1.0000 </r>
       <r>   -7.4945    1.0000 </r>
       <r>    2.8401    0.0000 </r>
       <r>    4.6693    0.0000 </r>
       <r>    5.6671    0.0000 </r>
       <r>    5.8150    0.0000 </r>
      </set>
      <set comment="kpoint 22">
       <r>  -21.6452    1.0000 </r>
       <r>  -14.1995    1.0000 </r>
       <r>  -10.4725    1.0000 </r>
       <r>   -6.6608    1.0000 </r>
       <r>    1.7681    0.0000 </r>
       <r>    5.9973    0.0000 </r>
       <r>    7.0033    0.0000 </r>
       <r>    7.2369    0.0000 </r>
      </set>
      <set comment="kpoint 23">
       <r>  -21.2797    1.0000 </r>
       <r>  -14.7855    1.0000 </r>
       <r>  -10.6379    1.0000 </r>
       <r>   -6.1026    1.0000 </r>
       <r>    1.0531    0.0000 </r>
       <r>    6.9321    0.0000 </r>
       <r>    8.6518    0.0000 </r>
       <r>    8.5906    0.0000 </r>
      </set>
      <set comment="kpoint 24">
       <r>  -22.8783    1.0000 </r>
       <r>  -11.7128    1.0000 </r>
       <r>   -9.8727    1.0000 </r>
       <r>   -8.4492    1.0000 </r>
       <r>    3.4178    0.0000 </r>
       <r>    4.0714    0.0000 </r>
       <r>    4.4999    0.0000 </r>
       <r>    5.7085    0.0000 </r>
      </set>
      <set comment="kpoint 25">
       <r>  -22.3038    1.0000 </r>
       <r>  -12.7049    1.0000 </r>
       <r>  -10.5703    1.0000 </r>
       <r>   -7.6294    1.0000 </r>
       <r>    3.1617    0.0000 </r>
       <r>    4.4877    0.0000 </r>
       <r>    5.4749    0.0000 </r>
       <r>    5.6002    0.0000 </r>
      </set>
      <set comment="kpoint 26">
       <r>  -21.7257    1.0000 </r>
       <r>  -13.6519    1.0000 </r>
       <r>  -11.0715    1.0000 </r>
       <r>   -6.7828    1.0000 </r>
       <r>    2.1742    0.0000 </r>
       <r>    5.7501    0.0000 </r>
       <r>    6.6763    0.0000 </r>
       <r>    6.9156    0.0000 </r>
      </set>
      <set comment="kpoint 27">
       <r>  -21.2627    1.0000 </r>
       <r>  -14.3679    1.0000 </r>
       <r>  -11.3671    1.0000 </r>
       <r>   -6.0790    1.0000 </r>
       <r>    1.3234    0.0000 </r>
       <r>    7.1879    0.0000 </r>
       <r>    8.1866    0.0000 </r>
       <r>    8.4532    0.0000 </r>
      </set>
      <set comment="kpoint 28">
       <r>  -21.0780    1.0000 </r>
       <r>  -14.6421    1.0000 </r>
       <r>  -11.4646    1.0000 </r>
       <r>   -5.7884    1.0000 </r>
       <r>    0.9757    0.0000 </r>
       <r>    8.0669    0.0000 </r>
       <r>   10.0412    0.0000 </r>
       <r>    9.9643    0.0000 </r>
      </set>
      <set comment="kpoint 29">
       <r>  -21.7548    1.0000 </r>
       <r>  -13.3517    1.0000 </r>
       <r>  -11.3979    1.0000 </r>
       <r>   -6.8268    1.0000 </r>
       <r>    2.3433    0.0000 </r>
       <r>    5.6636    0.0000 </r>
       <r>    6.5656    0.0000 </r>
       <r>    6.8090    0.0000 </r>
      </set>
      <set comment="kpoint 30">
       <r>  -21.2609    1.0000 </r>
       <r>  -13.9248    1.0000 </r>
       <r>  -11.9890    1.0000 </r>
       <r>   -6.0781    1.0000 </r>
       <r>    1.5447    0.0000 </r>
       <r>    7.0345    0.0000 </r>
       <r>    7.9588    0.0000 </r>
       <r>    8.2423    0.0000 </r>
      </set>
      <set comment="kpoint 31">
       <r>  -20.9528    1.0000 </r>
       <r>  -14.2900    1.0000 </r>
       <r>  -12.2818    1.0000 </r>
       <r>   -5.5902    1.0000 </r>
       <r>    1.0231    0.0000 </r>
       <r>    8.6832    0.0000 </r>
       <r>    9.4330    0.0000 </r>
       <r>    9.9352    0.0000 </r>
      </set>
      <set comment="kpoint 32">
       <r>  -20.9110    1.0000 </r>
       <r>  -14.0156    1.0000 </r>
       <r>  -12.7194    1.0000 </r>
       <r>   -5.5237    1.0001 </r>
       <r>    1.0638    0.0000 </r>
       <r>    8.5991    0.0000 </r>
       <r>    9.3724    0.0000 </r>
       <r>    9.8276    0.0000 </r>
      </set>
      <set comment="kpoint 33">
       <r>  -20.7784    1.0000 </r>
       <r>  -14.0022    1.0000 </r>
       <r>  -13.0284    1.0000 </r>
       <r>   -5.3056    0.9999 </r>
       <r>    0.8759    0.0000 </r>
       <r>    8.4260    0.0000 </r>
       <r>   10.9980    0.0000 </r>
       <r>   11.3199    0.0000 </r>
      </set>
      <set comment="kpoint 34">
       <r>  -24.6939    1.0000 </r>
       <r>  -10.9637    1.0000 </r>
       <r>   -6.8400    1.0000 </r>
       <r>   -6.8396    1.0000 </r>
       <r>    1.0844    0.0000 </r>
       <r>    1.2578    0.0000 </r>
       <r>    2.4806    0.0000 </r>
       <r>    3.9745    0.0000 </r>
      </set>
      <set comment="kpoint 35">
       <r>  -24.6809    1.0000 </r>
       <r>  -10.9459    1.0000 </r>
       <r>   -6.8930    1.0000 </r>
       <r>   -6.8694    1.0000 </r>
       <r>    1.1058    0.0000 </r>
       <r>    1.2767    0.0000 </r>
       <r>    2.4999    0.0000 </r>
       <r>    4.0129    0.0000 </r>
      </set>
      <set comment="kpoint 36">
       <r>  -24.6417    1.0000 </r>
       <r>  -10.8926    1.0000 </r>
       <r>   -7.0614    1.0000 </r>
       <r>   -6.9450    1.0000 </r>
       <r>    1.1605    0.0000 </r>
       <r>    1.3341    0.0000 </r>
       <r>    2.5572    0.0000 </r>
       <r>    4.0713    0.0000 </r>
      </set>
      <set comment="kpoint 37">
       <r>  -24.5767    1.0000 </r>
       <r>  -10.8038    1.0000 </r>
       <r>   -7.3322    1.0000 </r>
       <r>   -7.0661    1.0000 </r>
       <r>    1.2649    0.0000 </r>
       <r>    1.4306    0.0000 </r>
       <r>    2.6541    0.0000 </r>
       <r>    4.7167    0.0000 </r>
      </set>
      <set comment="kpoint 38">
       <r>  -24.4860    1.0000 </r>
       <r>  -10.6799    1.0000 </r>
       <r>   -7.6917    1.0000 </r>
       <r>   -7.2274    1.0000 </r>
       <r>    1.3419    0.0000 </r>
       <r>    1.5661    0.0000 </r>
       <r>    2.7878    0.0000 </r>
       <r>    4.5404    0.0000 </r>
      </set>
      <set comment="kpoint 39">
       <r>  -24.3703    1.0000 </r>
       <r>  -10.5214    1.0000 </r>
       <r>   -8.1258    1.0000 </r>
       <r>   -7.4203    1.0000 </r>
       <r>    1.5672    0.0000 </r>
       <r>    1.7392    0.0000 </r>
       <r>    2.9608    0.0000 </r>
       <r>    4.5965    0.0000 </r>
      </set>
      <set comment="kpoint 40">
       <r>  -24.2300    1.0000 </r>
       <r>  -10.3291    1.0000 </r>
       <r>   -8.6196    1.0000 </r>
       <r>   -7.6363    1.0000 </r>
       <r>    1.7987    0.0000 </r>
       <r>    1.9486    0.0000 </r>
       <r>    3.1694    0.0000 </r>
       <r>    4.9084    0.0000 </r>
      </set>
      <set comment="kpoint 41">
       <r>  -24.0661    1.0000 </r>
       <r>  -10.1038    1.0000 </r>
       <r>   -9.1588    1.0000 </r>
       <r>   -7.8670    1.0000 </r>
       <r>    2.0397    0.0000 </r>
       <r>    2.1944    0.0000 </r>
       <r>    3.4132    0.0000 </r>
       <r>    5.3334    0.0000 </r>
      </set>
      <set comment="kpoint 42">
       <r>  -23.8797    1.0000 </r>
       <r>   -9.8468    1.0000 </r>
       <r>   -9.7301    1.0000 </r>
       <r>   -8.1048    1.0000 </r>
       <r>    2.3657    0.0000 </r>
       <r>    2.4742    0.0000 </r>
       <r>    3.6895    0.0000 </r>
       <r>    5.5916    0.0000 </r>
      </set>
      <set comment="kpoint 43">
       <r>  -23.6724    1.0000 </r>
       <r>  -10.3214    1.0000 </r>
       <r>   -9.5597    1.0000 </r>
       <r>   -8.3428    1.0000 </r>
       <r>    2.7260    0.0000 </r>
       <r>    2.7703    0.0000 </r>
       <r>    3.9902    0.0000 </r>
       <r>    5.6888    0.0000 </r>
      </set>
      <set comment="kpoint 44">
       <r>  -23.4459    1.0000 </r>
       <r>  -10.9217    1.0000 </r>
       <r>   -9.2448    1.0000 </r>
       <r>   -8.5754    1.0000 </r>
       <r>    3.1096    0.0000 </r>
       <r>    3.1329    0.0000 </r>
       <r>    4.2945    0.0000 </r>
       <r>    5.6651    0.0000 </r>
      </set>
      <set comment="kpoint 45">
       <r>  -23.2029    1.0000 </r>
       <r>  -11.5209    1.0000 </r>
       <r>   -8.9052    1.0000 </r>
       <r>   -8.7975    1.0000 </r>
       <r>    3.4198    0.0000 </r>
       <r>    3.5093    0.0000 </r>
       <r>    4.5334    0.0000 </r>
       <r>    5.5616    0.0000 </r>
      </set>
      <set comment="kpoint 46">
       <r>  -22.9467    1.0000 </r>
       <r>  -12.1093    1.0000 </r>
       <r>   -9.0051    1.0000 </r>
       <r>   -8.5448    1.0000 </r>
       <r>    3.5809    0.0000 </r>
       <r>    3.9567    0.0000 </r>
       <r>    4.6523    0.0000 </r>
       <r>    5.6707    0.0000 </r>
      </set>
      <set comment="kpoint 47">
       <r>  -22.6818    1.0000 </r>
       <r>  -12.6775    1.0000 </r>
       <r>   -9.1949    1.0000 </r>
       <r>   -8.1693    1.0000 </r>
       <r>    3.3936    0.0000 </r>
       <r>    4.4342    0.0000 </r>
       <r>    4.8961    0.0000 </r>
       <r>    6.0202    0.0000 </r>
      </set>
      <set comment="kpoint 48">
       <r>  -22.4142    1.0000 </r>
       <r>  -13.2152    1.0000 </r>
       <r>   -9.3641    1.0000 </r>
       <r>   -7.7866    1.0000 </r>
       <r>    2.9689    0.0000 </r>
       <r>    4.9284    0.0000 </r>
       <r>    5.3200    0.0000 </r>
       <r>    6.4885    0.0000 </r>
      </set>
      <set comment="kpoint 49">
       <r>  -22.1520    1.0000 </r>
       <r>  -13.7111    1.0000 </r>
       <r>   -9.5106    1.0000 </r>
       <r>   -7.4074    1.0000 </r>
       <r>    2.4744    0.0000 </r>
       <r>    5.4765    0.0000 </r>
       <r>    5.8379    0.0000 </r>
       <r>    7.0231    0.0000 </r>
      </set>
      <set comment="kpoint 50">
       <r>  -21.9056    1.0000 </r>
       <r>  -14.1519    1.0000 </r>
       <r>   -9.6325    1.0000 </r>
       <r>   -7.0464    1.0000 </r>
       <r>    1.9872    0.0000 </r>
       <r>    6.1187    0.0000 </r>
       <r>    6.4145    0.0000 </r>
       <r>    7.6064    0.0000 </r>
      </set>
      <set comment="kpoint 51">
       <r>  -21.6883    1.0000 </r>
       <r>  -14.5224    1.0000 </r>
       <r>   -9.7287    1.0000 </r>
       <r>   -6.7233    1.0000 </r>
       <r>    1.5517    0.0000 </r>
       <r>    6.7438    0.0000 </r>
       <r>    7.0365    0.0000 </r>
       <r>    8.2309    0.0000 </r>
      </set>
      <set comment="kpoint 52">
       <r>  -21.5156    1.0000 </r>
       <r>  -14.8055    1.0000 </r>
       <r>   -9.7980    1.0000 </r>
       <r>   -6.4626    1.0000 </r>
       <r>    1.2047    0.0000 </r>
       <r>    7.3726    0.0000 </r>
       <r>    7.6930    0.0000 </r>
       <r>    8.8907    0.0000 </r>
      </set>
      <set comment="kpoint 53">
       <r>  -21.4036    1.0000 </r>
       <r>  -14.9843    1.0000 </r>
       <r>   -9.8399    1.0000 </r>
       <r>   -6.2913    1.0000 </r>
       <r>    0.9792    0.0000 </r>
       <r>    8.0670    0.0000 </r>
       <r>    8.3775    0.0000 </r>
       <r>    9.5580    0.0000 </r>
      </set>
      <set comment="kpoint 54">
       <r>  -21.3647    1.0000 </r>
       <r>  -15.0455    1.0000 </r>
       <r>   -9.8539    1.0000 </r>
       <r>   -6.2312    1.0000 </r>
       <r>    0.9008    0.0000 </r>
       <r>    8.9296    0.0000 </r>
       <r>    8.7405    0.0000 </r>
       <r>    9.6030    0.0000 </r>
      </set>
      <set comment="kpoint 55">
       <r>  -21.3647    1.0000 </r>
       <r>  -15.0455    1.0000 </r>
       <r>   -9.8539    1.0000 </r>
       <r>   -6.2312    1.0000 </r>
       <r>    0.9008    0.0000 </r>
       <r>    8.9296    0.0000 </r>
       <r>    8.7405    0.0000 </r>
       <r>    9.6030    0.0000 </r>
      </set>
      <set comment="kpoint 56">
       <r>  -21.3618    1.0000 </r>
       <r>  -15.0419    1.0000 </r>
       <r>   -9.8718    1.0000 </r>
       <r>   -6.2269    1.0000 </r>
       <r>    0.9021    0.0000 </r>
       <r>    8.9340    0.0000 </r>
       <r>    8.7743    0.0000 </r>
       <r>    9.6163    0.0000 </r>
      </set>
      <set comment="kpoint 57">
       <r>  -21.3532    1.0000 </r>
       <r>  -15.0310    1.0000 </r>
       <r>   -9.9250    1.0000 </r>
       <r>   -6.2138    1.0000 </r>
       <r>    0.9060    0.0000 </r>
       <r>    8.9440    0.0000 </r>
       <r>    8.7649    0.0000 </r>
       <r>    9.6928    0.0000 </r>
      </set>
      <set comment="kpoint 58">
       <r>  -21.3391    1.0000 </r>
       <r>  -15.0128    1.0000 </r>
       <r>  -10.0122    1.0000 </r>
       <r>   -6.1922    1.0000 </r>
       <r>    0.9123    0.0000 </r>
       <r>    8.9642    0.0000 </r>
       <r>    8.8114    0.0000 </r>
       <r>    9.7230    0.0000 </r>
      </set>
      <set comment="kpoint 59">
       <r>  -21.3194    1.0000 </r>
       <r>  -14.9873    1.0000 </r>
       <r>  -10.1311    1.0000 </r>
       <r>   -6.1623    1.0000 </r>
       <r>    0.9205    0.0000 </r>
       <r>    8.9896    0.0000 </r>
       <r>    8.9224    0.0000 </r>
       <r>    9.7647    0.0000 </r>
      </set>
      <set comment="kpoint 60">
       <r>  -21.2946    1.0000 </r>
       <r>  -14.9546    1.0000 </r>
       <r>  -10.2787    1.0000 </r>
       <r>   -6.1243    1.0000 </r>
       <r>    0.9302    0.0000 </r>
       <r>    9.0153    0.0000 </r>
       <r>    8.8946    0.0000 </r>
       <r>    9.8119    0.0000 </r>
      </set>
      <set comment="kpoint 61">
       <r>  -21.2648    1.0000 </r>
       <r>  -14.9148    1.0000 </r>
       <r>  -10.4518    1.0000 </r>
       <r>   -6.0786    1.0000 </r>
       <r>    0.9408    0.0000 </r>
       <r>    9.0444    0.0000 </r>
       <r>    9.1670    0.0000 </r>
       <r>    9.8654    0.0000 </r>
      </set>
      <set comment="kpoint 62">
       <r>  -21.2305    1.0000 </r>
       <r>  -14.8678    1.0000 </r>
       <r>  -10.6466    1.0000 </r>
       <r>   -6.0258    1.0000 </r>
       <r>    0.9514    0.0000 </r>
       <r>    9.0706    0.0000 </r>
       <r>    9.2583    0.0000 </r>
       <r>    9.9255    0.0000 </r>
      </set>
      <set comment="kpoint 63">
       <r>  -21.1920    1.0000 </r>
       <r>  -14.8138    1.0000 </r>
       <r>  -10.8592    1.0000 </r>
       <r>   -5.9664    1.0000 </r>
       <r>    0.9612    0.0000 </r>
       <r>    9.0860    0.0000 </r>
       <r>    9.3610    0.0000 </r>
       <r>    9.9928    0.0000 </r>
      </set>
      <set comment="kpoint 64">
       <r>  -21.1501    1.0000 </r>
       <r>  -14.7528    1.0000 </r>
       <r>  -11.0858    1.0000 </r>
       <r>   -5.9013    1.0000 </r>
       <r>    0.9691    0.0000 </r>
       <r>    9.0842    0.0000 </r>
       <r>    9.4757    0.0000 </r>
       <r>   10.0688    0.0000 </r>
      </set>
      <set comment="kpoint 65">
       <r>  -21.1054    1.0000 </r>
       <r>  -14.6851    1.0000 </r>
       <r>  -11.3224    1.0000 </r>
       <r>   -5.8313    1.0000 </r>
       <r>    0.9743    0.0000 </r>
       <r>    9.0593    0.0000 </r>
       <r>    9.6887    0.0000 </r>
       <r>   10.1556    0.0000 </r>
      </set>
      <set comment="kpoint 66">
       <r>  -21.0585    1.0000 </r>
       <r>  -14.6107    1.0000 </r>
       <r>  -11.5650    1.0000 </r>
       <r>   -5.7577    1.0000 </r>
       <r>    0.9758    0.0000 </r>
       <r>    9.0080    0.0000 </r>
       <r>    9.8261    0.0000 </r>
       <r>   10.2218    0.0000 </r>
      </set>
      <set comment="kpoint 67">
       <r>  -21.0106    1.0000 </r>
       <r>  -14.5301    1.0000 </r>
       <r>  -11.8098    1.0000 </r>
       <r>   -5.6818    1.0000 </r>
       <r>    0.9727    0.0000 </r>
       <r>    8.9319    0.0000 </r>
       <r>    9.9750    0.0000 </r>
       <r>   10.3385    0.0000 </r>
      </set>
      <set comment="kpoint 68">
       <r>  -20.9626    1.0000 </r>
       <r>  -14.4436    1.0000 </r>
       <r>  -12.0530    1.0000 </r>
       <r>   -5.6052    1.0000 </r>
       <r>    0.9647    0.0000 </r>
       <r>    8.8377    0.0000 </r>
       <r>   10.1352    0.0000 </r>
       <r>   10.5020    0.0000 </r>
      </set>
      <set comment="kpoint 69">
       <r>  -20.9157    1.0000 </r>
       <r>  -14.3518    1.0000 </r>
       <r>  -12.2905    1.0000 </r>
       <r>   -5.5300    1.0001 </r>
       <r>    0.9514    0.0000 </r>
       <r>    8.7346    0.0000 </r>
       <r>   10.3062    0.0000 </r>
       <r>   10.6500    0.0000 </r>
      </set>
      <set comment="kpoint 70">
       <r>  -20.8714    1.0000 </r>
       <r>  -14.2559    1.0000 </r>
       <r>  -12.5180    1.0000 </r>
       <r>   -5.4582    1.0021 </r>
       <r>    0.9336    0.0000 </r>
       <r>    8.6327    0.0000 </r>
       <r>   10.4913    0.0000 </r>
       <r>   10.8100    0.0000 </r>
      </set>
      <set comment="kpoint 71">
       <r>  -20.8312    1.0000 </r>
       <r>  -14.1577    1.0000 </r>
       <r>  -12.7304    1.0000 </r>
       <r>   -5.3926    1.0182 </r>
       <r>    0.9124    0.0000 </r>
       <r>    8.5404    0.0000 </r>
       <r>   10.6078    0.0000 </r>
       <r>   10.9934    0.0000 </r>
      </set>
      <set comment="kpoint 72">
       <r>  -20.7968    1.0000 </r>
       <r>  -14.0609    1.0000 </r>
       <r>  -12.9211    1.0000 </r>
       <r>   -5.3360    1.0343 </r>
       <r>    0.8898    0.0000 </r>
       <r>    8.4644    0.0000 </r>
       <r>   10.8366    0.0000 </r>
       <r>   11.1826    0.0000 </r>
      </set>
      <set comment="kpoint 73">
       <r>  -20.7699    1.0000 </r>
       <r>  -13.9727    1.0000 </r>
       <r>  -13.0799    1.0000 </r>
       <r>   -5.2911    0.9590 </r>
       <r>    0.8689    0.0000 </r>
       <r>    8.4090    0.0000 </r>
       <r>   11.0911    0.0000 </r>
       <r>   11.3964    0.0000 </r>
      </set>
      <set comment="kpoint 74">
       <r>  -20.7525    1.0000 </r>
       <r>  -13.9068    1.0000 </r>
       <r>  -13.1901    1.0000 </r>
       <r>   -5.2625    0.8173 </r>
       <r>    0.8532    0.0000 </r>
       <r>    8.3760    0.0000 </r>
       <r>   11.4560    0.0000 </r>
       <r>   11.6728    0.0000 </r>
      </set>
      <set comment="kpoint 75">
       <r>  -20.7463    1.0000 </r>
       <r>  -13.8822    1.0000 </r>
       <r>  -13.2299    1.0000 </r>
       <r>   -5.2522    0.7455 </r>
       <r>    0.8470    0.0000 </r>
       <r>    8.3655    0.0000 </r>
       <r>   11.7213    0.0000 </r>
       <r>   12.0081    0.0000 </r>
      </set>
      <set comment="kpoint 76">
       <r>  -20.7463    1.0000 </r>
       <r>  -13.8822    1.0000 </r>
       <r>  -13.2299    1.0000 </r>
       <r>   -5.2522    0.7455 </r>
       <r>    0.8470    0.0000 </r>
       <r>    8.3655    0.0000 </r>
       <r>   11.7213    0.0000 </r>
       <r>   12.0081    0.0000 </r>
      </set>
      <set comment="kpoint 77">
       <r>  -20.7742    1.0000 </r>
       <r>  -13.9458    1.0000 </r>
       <r>  -13.1009    1.0000 </r>
       <r>   -5.2987    0.9819 </r>
       <r>    0.8802    0.0000 </r>
       <r>    8.3981    0.0000 </r>
       <r>   10.4632    0.0000 </r>
       <r>   11.0065    0.0000 </r>
      </set>
      <set comment="kpoint 78">
       <r>  -20.8639    1.0000 </r>
       <r>  -14.0116    1.0000 </r>
       <r>  -12.8302    1.0000 </r>
       <r>   -5.4467    1.0034 </r>
       <r>    0.9984    0.0000 </r>
       <r>    8.4400    0.0000 </r>
       <r>    9.4271    0.0000 </r>
       <r>   10.1794    0.0000 </r>
      </set>
      <set comment="kpoint 79">
       <r>  -21.0183    1.0000 </r>
       <r>  -13.9897    1.0000 </r>
       <r>  -12.5030    1.0000 </r>
       <r>   -5.6965    1.0000 </r>
       <r>    1.2170    0.0000 </r>
       <r>    8.3085    0.0000 </r>
       <r>    8.6783    0.0000 </r>
       <r>    9.5169    0.0000 </r>
      </set>
      <set comment="kpoint 80">
       <r>  -21.2324    1.0000 </r>
       <r>  -13.8616    1.0000 </r>
       <r>  -12.1419    1.0000 </r>
       <r>   -6.0341    1.0000 </r>
       <r>    1.5346    0.0000 </r>
       <r>    7.8238    0.0000 </r>
       <r>    7.9048    0.0000 </r>
       <r>    8.9714    0.0000 </r>
      </set>
      <set comment="kpoint 81">
       <r>  -21.4947    1.0000 </r>
       <r>  -13.6310    1.0000 </r>
       <r>  -11.7557    1.0000 </r>
       <r>   -6.4367    1.0000 </r>
       <r>    1.9366    0.0000 </r>
       <r>    6.9802    0.0000 </r>
       <r>    7.1610    0.0000 </r>
       <r>    8.3397    0.0000 </r>
      </set>
      <set comment="kpoint 82">
       <r>  -21.7909    1.0000 </r>
       <r>  -13.3097    1.0000 </r>
       <r>  -11.3492    1.0000 </r>
       <r>   -6.8804    1.0000 </r>
       <r>    2.4002    0.0000 </r>
       <r>    6.2182    0.0000 </r>
       <r>    6.4786    0.0000 </r>
       <r>    7.6602    0.0000 </r>
      </set>
      <set comment="kpoint 83">
       <r>  -22.1067    1.0000 </r>
       <r>  -12.9113    1.0000 </r>
       <r>  -10.9271    1.0000 </r>
       <r>   -7.3440    1.0000 </r>
       <r>    2.8941    0.0000 </r>
       <r>    5.5502    0.0000 </r>
       <r>    5.8335    0.0000 </r>
       <r>    7.0080    0.0000 </r>
      </set>
      <set comment="kpoint 84">
       <r>  -22.4296    1.0000 </r>
       <r>  -12.4494    1.0000 </r>
       <r>  -10.4937    1.0000 </r>
       <r>   -7.8105    1.0000 </r>
       <r>    3.3633    0.0000 </r>
       <r>    4.8811    0.0000 </r>
       <r>    5.2645    0.0000 </r>
       <r>    6.4146    0.0000 </r>
      </set>
      <set comment="kpoint 85">
       <r>  -22.7494    1.0000 </r>
       <r>  -11.9363    1.0000 </r>
       <r>  -10.0542    1.0000 </r>
       <r>   -8.2667    1.0000 </r>
       <r>    3.6735    0.0000 </r>
       <r>    4.2999    0.0000 </r>
       <r>    4.8524    0.0000 </r>
       <r>    5.9196    0.0000 </r>
      </set>
      <set comment="kpoint 86">
       <r>  -23.0581    1.0000 </r>
       <r>  -11.3834    1.0000 </r>
       <r>   -9.6142    1.0000 </r>
       <r>   -8.7025    1.0000 </r>
       <r>    3.5941    0.0000 </r>
       <r>    3.7556    0.0000 </r>
       <r>    4.6698    0.0000 </r>
       <r>    5.6458    0.0000 </r>
      </set>
      <set comment="kpoint 87">
       <r>  -23.3495    1.0000 </r>
       <r>  -10.8018    1.0000 </r>
       <r>   -9.1804    1.0000 </r>
       <r>   -9.1108    1.0000 </r>
       <r>    3.2488    0.0000 </r>
       <r>    3.2956    0.0000 </r>
       <r>    4.4223    0.0000 </r>
       <r>    5.6863    0.0000 </r>
      </set>
      <set comment="kpoint 88">
       <r>  -23.6189    1.0000 </r>
       <r>  -10.2029    1.0000 </r>
       <r>   -9.4858    1.0000 </r>
       <r>   -8.7600    1.0000 </r>
       <r>    2.7152    0.0000 </r>
       <r>    2.8587    0.0000 </r>
       <r>    4.0686    0.0000 </r>
       <r>    5.7316    0.0000 </r>
      </set>
      <set comment="kpoint 89">
       <r>  -23.8628    1.0000 </r>
       <r>   -9.8235    1.0000 </r>
       <r>   -9.5995    1.0000 </r>
       <r>   -8.3609    1.0000 </r>
       <r>    2.3781    0.0000 </r>
       <r>    2.4992    0.0000 </r>
       <r>    3.7152    0.0000 </r>
       <r>    5.6187    0.0000 </r>
      </set>
      <set comment="kpoint 90">
       <r>  -24.0785    1.0000 </r>
       <r>  -10.1209    1.0000 </r>
       <r>   -9.0061    1.0000 </r>
       <r>   -7.9917    1.0000 </r>
       <r>    2.0311    0.0000 </r>
       <r>    2.1752    0.0000 </r>
       <r>    3.3953    0.0000 </r>
       <r>    5.3505    0.0000 </r>
      </set>
      <set comment="kpoint 91">
       <r>  -24.2638    1.0000 </r>
       <r>  -10.3755    1.0000 </r>
       <r>   -8.4402    1.0000 </r>
       <r>   -7.6609    1.0000 </r>
       <r>    1.7214    0.0000 </r>
       <r>    1.8976    0.0000 </r>
       <r>    3.1193    0.0000 </r>
       <r>    4.8536    0.0000 </r>
      </set>
      <set comment="kpoint 92">
       <r>  -24.4173    1.0000 </r>
       <r>  -10.5859    1.0000 </r>
       <r>   -7.9229    1.0000 </r>
       <r>   -7.3769    1.0000 </r>
       <r>    1.5008    0.0000 </r>
       <r>    1.6681    0.0000 </r>
       <r>    2.8906    0.0000 </r>
       <r>    4.6188    0.0000 </r>
      </set>
      <set comment="kpoint 93">
       <r>  -24.5377    1.0000 </r>
       <r>  -10.7506    1.0000 </r>
       <r>   -7.4789    1.0000 </r>
       <r>   -7.1473    1.0000 </r>
       <r>    1.2480    0.0000 </r>
       <r>    1.4890    0.0000 </r>
       <r>    2.7113    0.0000 </r>
       <r>    4.4056    0.0000 </r>
      </set>
      <set comment="kpoint 94">
       <r>  -24.6243    1.0000 </r>
       <r>  -10.8688    1.0000 </r>
       <r>   -7.1344    1.0000 </r>
       <r>   -6.9784    1.0000 </r>
       <r>    1.1916    0.0000 </r>
       <r>    1.3599    0.0000 </r>
       <r>    2.5834    0.0000 </r>
       <r>    4.4373    0.0000 </r>
      </set>
      <set comment="kpoint 95">
       <r>  -24.6765    1.0000 </r>
       <r>  -10.9400    1.0000 </r>
       <r>   -6.9150    1.0000 </r>
       <r>   -6.8749    1.0000 </r>
       <r>    1.1172    0.0000 </r>
       <r>    1.2833    0.0000 </r>
       <r>    2.5062    0.0000 </r>
       <r>    4.0601    0.0000 </r>
      </set>
      <set comment="kpoint 96">
       <r>  -24.6939    1.0000 </r>
       <r>  -10.9637    1.0000 </r>
       <r>   -6.8400    1.0000 </r>
       <r>   -6.8396    1.0000 </r>
       <r>    1.0844    0.0000 </r>
       <r>    1.2578    0.0000 </r>
       <r>    2.4806    0.0000 </r>
       <r>    3.9745    0.0000 </r>
      </set>
     </set>
    </set>
   </array>
  </eigenvalues>
  <separator name="orbital magnetization" >
   <v name="MAGDIPOLOUT">      0.00000000      0.00000000      0.00000000</v>
  </separator>
  <dos>
   <i name="efermi">     -5.22146860 </i>
   <total>
    <array>
     <dimension dim="1">gridpoints</dimension>
     <dimension dim="2">spin</dimension>
     <field>energy</field>
     <field>total</field>
     <field>integrated</field>
     <set>
      <set comment="spin 1">
       <r>   -26.5292     0.0000     0.0000 </r>
       <r>   -26.3946     0.0000     0.0000 </r>
       <r>   -26.2600     0.0000     0.0000 </r>
       <r>   -26.1254     0.0000     0.0000 </r>
       <r>   -25.9909     0.0000     0.0000 </r>
       <r>   -25.8563     0.0000     0.0000 </r>
       <r>   -25.7217     0.0000     0.0000 </r>
       <r>   -25.5871    -0.0000    -0.0000 </r>
       <r>   -25.4526    -0.0000    -0.0000 </r>
       <r>   -25.3180    -0.0000    -0.0000 </r>
       <r>   -25.1834    -0.0000    -0.0000 </r>
       <r>   -25.0488    -0.0000    -0.0000 </r>
       <r>   -24.9143    -0.0002    -0.0000 </r>
       <r>   -24.7797    -0.0074    -0.0010 </r>
       <r>   -24.6451     0.1405     0.0179 </r>
       <r>   -24.5105     0.3038     0.0588 </r>
       <r>   -24.3760     0.4631     0.1211 </r>
       <r>   -24.2414     0.1737     0.1445 </r>
       <r>   -24.1068     0.5641     0.2204 </r>
       <r>   -23.9722     0.2494     0.2539 </r>
       <r>   -23.8377     0.2622     0.2892 </r>
       <r>   -23.7031     0.6689     0.3792 </r>
       <r>   -23.5685     0.1934     0.4053 </r>
       <r>   -23.4339     0.2013     0.4323 </r>
       <r>   -23.2994     0.6440     0.5190 </r>
       <r>   -23.1648     0.5176     0.5887 </r>
       <r>   -23.0302     0.0847     0.6001 </r>
       <r>   -22.8956     0.3548     0.6478 </r>
       <r>   -22.7611     0.7327     0.7464 </r>
       <r>   -22.6265     0.5010     0.8138 </r>
       <r>   -22.4919     0.1720     0.8370 </r>
       <r>   -22.3573     0.2722     0.8736 </r>
       <r>   -22.2228     0.8995     0.9947 </r>
       <r>   -22.0882     0.4707     1.0580 </r>
       <r>   -21.9536     0.5057     1.1260 </r>
       <r>   -21.8190     0.1184     1.1420 </r>
       <r>   -21.6845     1.1199     1.2927 </r>
       <r>   -21.5499     0.8619     1.4087 </r>
       <r>   -21.4153     0.5148     1.4780 </r>
       <r>   -21.2807     1.1769     1.6363 </r>
       <r>   -21.1462     1.2351     1.8026 </r>
       <r>   -21.0116     0.2624     1.8379 </r>
       <r>   -20.8770     0.8072     1.9465 </r>
       <r>   -20.7424     0.3403     1.9923 </r>
       <r>   -20.6079     0.0630     2.0008 </r>
       <r>   -20.4733    -0.0057     2.0000 </r>
       <r>   -20.3387    -0.0000     2.0000 </r>
       <r>   -20.2041    -0.0000     2.0000 </r>
       <r>   -20.0696    -0.0000     2.0000 </r>
       <r>   -19.9350     0.0000     2.0000 </r>
       <r>   -19.8004     0.0000     2.0000 </r>
       <r>   -19.6658     0.0000     2.0000 </r>
       <r>   -19.5313     0.0000     2.0000 </r>
       <r>   -19.3967     0.0000     2.0000 </r>
       <r>   -19.2621     0.0000     2.0000 </r>
       <r>   -19.1275     0.0000     2.0000 </r>
       <r>   -18.9930     0.0000     2.0000 </r>
       <r>   -18.8584     0.0000     2.0000 </r>
       <r>   -18.7238     0.0000     2.0000 </r>
       <r>   -18.5892     0.0000     2.0000 </r>
       <r>   -18.4547     0.0000     2.0000 </r>
       <r>   -18.3201     0.0000     2.0000 </r>
       <r>   -18.1855     0.0000     2.0000 </r>
       <r>   -18.0510     0.0000     2.0000 </r>
       <r>   -17.9164     0.0000     2.0000 </r>
       <r>   -17.7818     0.0000     2.0000 </r>
       <r>   -17.6472     0.0000     2.0000 </r>
       <r>   -17.5127     0.0000     2.0000 </r>
       <r>   -17.3781     0.0000     2.0000 </r>
       <r>   -17.2435     0.0000     2.0000 </r>
       <r>   -17.1089     0.0000     2.0000 </r>
       <r>   -16.9744     0.0000     2.0000 </r>
       <r>   -16.8398     0.0000     2.0000 </r>
       <r>   -16.7052     0.0000     2.0000 </r>
       <r>   -16.5706     0.0000     2.0000 </r>
       <r>   -16.4361     0.0000     2.0000 </r>
       <r>   -16.3015     0.0000     2.0000 </r>
       <r>   -16.1669     0.0000     2.0000 </r>
       <r>   -16.0323     0.0000     2.0000 </r>
       <r>   -15.8978    -0.0000     2.0000 </r>
       <r>   -15.7632    -0.0000     2.0000 </r>
       <r>   -15.6286    -0.0000     2.0000 </r>
       <r>   -15.4940    -0.0000     2.0000 </r>
       <r>   -15.3595    -0.0000     2.0000 </r>
       <r>   -15.2249    -0.0012     1.9998 </r>
       <r>   -15.0903    -0.0131     1.9981 </r>
       <r>   -14.9557     0.4294     2.0559 </r>
       <r>   -14.8212     0.3283     2.1000 </r>
       <r>   -14.6866     0.8093     2.2089 </r>
       <r>   -14.5520     0.6243     2.2930 </r>
       <r>   -14.4174     0.0440     2.2989 </r>
       <r>   -14.2829     1.1773     2.4573 </r>
       <r>   -14.1483     0.8489     2.5715 </r>
       <r>   -14.0137     0.3524     2.6190 </r>
       <r>   -13.8791     0.9270     2.7437 </r>
       <r>   -13.7446     0.6279     2.8282 </r>
       <r>   -13.6100     0.5275     2.8992 </r>
       <r>   -13.4754     0.1020     2.9129 </r>
       <r>   -13.3408     0.1834     2.9376 </r>
       <r>   -13.2063     0.7642     3.0405 </r>
       <r>   -13.0717     0.3646     3.0895 </r>
       <r>   -12.9371     0.2360     3.1213 </r>
       <r>   -12.8025    -0.0261     3.1178 </r>
       <r>   -12.6680     0.9355     3.2437 </r>
       <r>   -12.5334     0.6632     3.3329 </r>
       <r>   -12.3988    -0.0517     3.3260 </r>
       <r>   -12.2642     0.4178     3.3822 </r>
       <r>   -12.1297     0.1886     3.4076 </r>
       <r>   -11.9951     0.8314     3.5195 </r>
       <r>   -11.8605     0.7802     3.6245 </r>
       <r>   -11.7259     0.0831     3.6356 </r>
       <r>   -11.5914     0.1825     3.6602 </r>
       <r>   -11.4568     0.1856     3.6852 </r>
       <r>   -11.3222     1.1328     3.8376 </r>
       <r>   -11.1876     0.5467     3.9112 </r>
       <r>   -11.0531     0.3907     3.9638 </r>
       <r>   -10.9185     0.2920     4.0031 </r>
       <r>   -10.7839     0.5413     4.0759 </r>
       <r>   -10.6493     0.8439     4.1895 </r>
       <r>   -10.5148     1.6882     4.4167 </r>
       <r>   -10.3802     0.6133     4.4992 </r>
       <r>   -10.2456     0.4487     4.5596 </r>
       <r>   -10.1110     0.7804     4.6646 </r>
       <r>    -9.9765     1.1080     4.8137 </r>
       <r>    -9.8419     1.1615     4.9700 </r>
       <r>    -9.7073     1.6366     5.1903 </r>
       <r>    -9.5728     1.3446     5.3712 </r>
       <r>    -9.4382     0.2567     5.4058 </r>
       <r>    -9.3036     0.9503     5.5337 </r>
       <r>    -9.1690     0.4565     5.5951 </r>
       <r>    -9.0345     1.0243     5.7329 </r>
       <r>    -8.8999     1.2977     5.9076 </r>
       <r>    -8.7653     0.3449     5.9540 </r>
       <r>    -8.6307     0.6721     6.0444 </r>
       <r>    -8.4962     0.2825     6.0825 </r>
       <r>    -8.3616     1.2877     6.2558 </r>
       <r>    -8.2270     0.8579     6.3712 </r>
       <r>    -8.0924     0.4365     6.4299 </r>
       <r>    -7.9579     0.3959     6.4832 </r>
       <r>    -7.8233     0.3602     6.5317 </r>
       <r>    -7.6887     1.1069     6.6807 </r>
       <r>    -7.5541     0.8031     6.7887 </r>
       <r>    -7.4196     0.5659     6.8649 </r>
       <r>    -7.2850     0.4821     6.9298 </r>
       <r>    -7.1504     0.9119     7.0525 </r>
       <r>    -7.0158     0.2144     7.0814 </r>
       <r>    -6.8813     0.4589     7.1431 </r>
       <r>    -6.7467     0.9956     7.2771 </r>
       <r>    -6.6121     0.6501     7.3646 </r>
       <r>    -6.4775     0.4674     7.4275 </r>
       <r>    -6.3430     0.3349     7.4726 </r>
       <r>    -6.2084     0.2424     7.5052 </r>
       <r>    -6.0738     1.4111     7.6951 </r>
       <r>    -5.9392     0.7682     7.7984 </r>
       <r>    -5.8047     0.0648     7.8072 </r>
       <r>    -5.6701     0.2070     7.8350 </r>
       <r>    -5.5355     0.6673     7.9248 </r>
       <r>    -5.4009     0.2620     7.9601 </r>
       <r>    -5.2664     0.2370     7.9920 </r>
       <r>    -5.1318     0.0650     8.0007 </r>
       <r>    -4.9972    -0.0052     8.0000 </r>
       <r>    -4.8626    -0.0000     8.0000 </r>
       <r>    -4.7281    -0.0000     8.0000 </r>
       <r>    -4.5935    -0.0000     8.0000 </r>
       <r>    -4.4589     0.0000     8.0000 </r>
       <r>    -4.3243     0.0000     8.0000 </r>
       <r>    -4.1898     0.0000     8.0000 </r>
       <r>    -4.0552     0.0000     8.0000 </r>
       <r>    -3.9206     0.0000     8.0000 </r>
       <r>    -3.7860     0.0000     8.0000 </r>
       <r>    -3.6515     0.0000     8.0000 </r>
       <r>    -3.5169     0.0000     8.0000 </r>
       <r>    -3.3823     0.0000     8.0000 </r>
       <r>    -3.2477     0.0000     8.0000 </r>
       <r>    -3.1132     0.0000     8.0000 </r>
       <r>    -2.9786     0.0000     8.0000 </r>
       <r>    -2.8440     0.0000     8.0000 </r>
       <r>    -2.7094     0.0000     8.0000 </r>
       <r>    -2.5749     0.0000     8.0000 </r>
       <r>    -2.4403     0.0000     8.0000 </r>
       <r>    -2.3057     0.0000     8.0000 </r>
       <r>    -2.1711     0.0000     8.0000 </r>
       <r>    -2.0366     0.0000     8.0000 </r>
       <r>    -1.9020     0.0000     8.0000 </r>
       <r>    -1.7674     0.0000     8.0000 </r>
       <r>    -1.6328     0.0000     8.0000 </r>
       <r>    -1.4983     0.0000     8.0000 </r>
       <r>    -1.3637     0.0000     8.0000 </r>
       <r>    -1.2291     0.0000     8.0000 </r>
       <r>    -1.0945     0.0000     8.0000 </r>
       <r>    -0.9600     0.0000     8.0000 </r>
       <r>    -0.8254     0.0000     8.0000 </r>
       <r>    -0.6908     0.0000     8.0000 </r>
       <r>    -0.5563     0.0000     8.0000 </r>
       <r>    -0.4217    -0.0000     8.0000 </r>
       <r>    -0.2871    -0.0000     8.0000 </r>
       <r>    -0.1525    -0.0000     8.0000 </r>
       <r>    -0.0180    -0.0000     8.0000 </r>
       <r>     0.1166    -0.0000     8.0000 </r>
       <r>     0.2512    -0.0004     7.9999 </r>
       <r>     0.3858    -0.0009     7.9998 </r>
       <r>     0.5203     0.0991     8.0131 </r>
       <r>     0.6549     0.2539     8.0473 </r>
       <r>     0.7895     0.1260     8.0643 </r>
       <r>     0.9241     0.8371     8.1769 </r>
       <r>     1.0586     1.8266     8.4227 </r>
       <r>     1.1932     0.7155     8.5190 </r>
       <r>     1.3278     1.2910     8.6928 </r>
       <r>     1.4624     1.0317     8.8316 </r>
       <r>     1.5969     0.9546     8.9601 </r>
       <r>     1.7315     0.9071     9.0821 </r>
       <r>     1.8661     1.4091     9.2718 </r>
       <r>     2.0007     1.1536     9.4270 </r>
       <r>     2.1352     0.4924     9.4933 </r>
       <r>     2.2698     1.3049     9.6689 </r>
       <r>     2.4044     1.2889     9.8423 </r>
       <r>     2.5390     0.6476     9.9295 </r>
       <r>     2.6735     1.0521    10.0711 </r>
       <r>     2.8081     0.9498    10.1989 </r>
       <r>     2.9427     1.4222    10.3903 </r>
       <r>     3.0773     0.9811    10.5223 </r>
       <r>     3.2118     0.9192    10.6460 </r>
       <r>     3.3464     1.3853    10.8324 </r>
       <r>     3.4810     1.3881    11.0192 </r>
       <r>     3.6156     1.5106    11.2225 </r>
       <r>     3.7501     1.3515    11.4044 </r>
       <r>     3.8847     1.3553    11.5868 </r>
       <r>     4.0193     0.4604    11.6488 </r>
       <r>     4.1539     0.2396    11.6810 </r>
       <r>     4.2884     0.8212    11.7915 </r>
       <r>     4.4230     0.7996    11.8991 </r>
       <r>     4.5576     0.8602    12.0149 </r>
       <r>     4.6922     1.3023    12.1902 </r>
       <r>     4.8267     0.6334    12.2754 </r>
       <r>     4.9613     1.3975    12.4635 </r>
       <r>     5.0959     1.3406    12.6439 </r>
       <r>     5.2305     0.5037    12.7117 </r>
       <r>     5.3650     0.1589    12.7330 </r>
       <r>     5.4996     0.8885    12.8526 </r>
       <r>     5.6342     1.5450    13.0605 </r>
       <r>     5.7688     1.6774    13.2863 </r>
       <r>     5.9033     0.7577    13.3882 </r>
       <r>     6.0379     1.4011    13.5768 </r>
       <r>     6.1725     0.7796    13.6817 </r>
       <r>     6.3071     0.7307    13.7800 </r>
       <r>     6.4416     0.1439    13.7994 </r>
       <r>     6.5762     0.1541    13.8201 </r>
       <r>     6.7108     0.8072    13.9288 </r>
       <r>     6.8454     0.5897    14.0081 </r>
       <r>     6.9799     1.6701    14.2329 </r>
       <r>     7.1145     1.1224    14.3839 </r>
       <r>     7.2491     0.9216    14.5079 </r>
       <r>     7.3837     0.2949    14.5476 </r>
       <r>     7.5182     0.1801    14.5719 </r>
       <r>     7.6528     0.9094    14.6942 </r>
       <r>     7.7874     0.1404    14.7131 </r>
       <r>     7.9219     0.1173    14.7289 </r>
       <r>     8.0565     0.5989    14.8095 </r>
       <r>     8.1911     0.8411    14.9227 </r>
       <r>     8.3257     1.1518    15.0777 </r>
       <r>     8.4602     0.6169    15.1607 </r>
       <r>     8.5948     0.9253    15.2853 </r>
       <r>     8.7294     1.5355    15.4919 </r>
       <r>     8.8640     0.0854    15.5034 </r>
       <r>     8.9985    -0.0142    15.5015 </r>
       <r>     9.1331     0.0064    15.5023 </r>
       <r>     9.2677     0.2792    15.5399 </r>
       <r>     9.4023     0.7109    15.6356 </r>
       <r>     9.5368     0.5742    15.7129 </r>
       <r>     9.6714    -0.0330    15.7084 </r>
       <r>     9.8060     0.0766    15.7187 </r>
       <r>     9.9406     0.6718    15.8091 </r>
       <r>    10.0751     0.7603    15.9115 </r>
       <r>    10.2097     0.0474    15.9178 </r>
       <r>    10.3443    -0.0066    15.9170 </r>
       <r>    10.4789    -0.0000    15.9170 </r>
       <r>    10.6134    -0.0000    15.9170 </r>
       <r>    10.7480    -0.0004    15.9169 </r>
       <r>    10.8826    -0.0103    15.9155 </r>
       <r>    11.0172     0.2139    15.9443 </r>
       <r>    11.1517     0.1074    15.9588 </r>
       <r>    11.2863     0.0698    15.9681 </r>
       <r>    11.4209     0.2447    16.0011 </r>
       <r>    11.5555    -0.0074    16.0001 </r>
       <r>    11.6900    -0.0007    16.0000 </r>
       <r>    11.8246    -0.0000    16.0000 </r>
       <r>    11.9592    -0.0000    16.0000 </r>
       <r>    12.0938     0.0000    16.0000 </r>
       <r>    12.2283     0.0000    16.0000 </r>
       <r>    12.3629     0.0000    16.0000 </r>
       <r>    12.4975     0.0000    16.0000 </r>
       <r>    12.6321     0.0000    16.0000 </r>
       <r>    12.7666     0.0000    16.0000 </r>
       <r>    12.9012     0.0000    16.0000 </r>
       <r>    13.0358     0.0000    16.0000 </r>
       <r>    13.1704     0.0000    16.0000 </r>
       <r>    13.3049     0.0000    16.0000 </r>
       <r>    13.4395     0.0000    16.0000 </r>
       <r>    13.5741     0.0000    16.0000 </r>
       <r>    13.7087     0.0000    16.0000 </r>
       <r>    13.8432     0.0000    16.0000 </r>
      </set>
     </set>
    </array>
   </total>
   <partial>
    <array>
     <dimension dim="1">gridpoints</dimension>
     <dimension dim="2">spin</dimension>
     <dimension dim="3">ion</dimension>
     <field>energy</field>
     <field>  s</field>
     <field> py</field>
     <field> pz</field>
     <field> px</field>
     <field>dxy</field>
     <field>dyz</field>
     <field>dz2</field>
     <field>dxz</field>
     <field>dx2</field>
     <set>
      <set comment="ion 1">
       <set comment="spin 1">
        <r>   -26.5292     0.0000     0.0000     0.0000     0.0000     0.0000     0.0000     0.0000     0.0000     0.0000 </r>
        <r>   -26.3946     0.0000     0.0000     0.0000     0.0000     0.0000     0.0000     0.0000     0.0000     0.0000 </r>
        <r>   -26.2600     0.0000     0.0000     0.0000     0.0000     0.0000     0.0000     0.0000     0.0000     0.0000 </r>
        <r>   -26.1254     0.0000     0.0000     0.0000     0.0000     0.0000     0.0000     0.0000     0.0000     0.0000 </r>
        <r>   -25.9909     0.0000     0.0000     0.0000     0.0000     0.0000     0.0000     0.0000     0.0000     0.0000 </r>
        <r>   -25.8563     0.0000     0.0000     0.0000     0.0000     0.0000     0.0000     0.0000     0.0000     0.0000 </r>
        <r>   -25.7217     0.0000     0.0000     0.0000     0.0000     0.0000     0.0000     0.0000     0.0000     0.0000 </r>
        <r>   -25.5871    -0.0000    -0.0000    -0.0000    -0.0000     0.0000     0.0000     0.0000     0.0000     0.0000 </r>
        <r>   -25.4526    -0.0000    -0.0000    -0.0000    -0.0000     0.0000     0.0000     0.0000     0.0000     0.0000 </r>
        <r>   -25.3180    -0.0000    -0.0000    -0.0000    -0.0000     0.0000     0.0000     0.0000     0.0000     0.0000 </r>
        <r>   -25.1834    -0.0000    -0.0000    -0.0000    -0.0000     0.0000     0.0000     0.0000     0.0000     0.0000 </r>
        <r>   -25.0488    -0.0000    -0.0000    -0.0000    -0.0000     0.0000     0.0000     0.0000     0.0000     0.0000 </r>
        <r>   -24.9143    -0.0001    -0.0000    -0.0000    -0.0000     0.0000     0.0000     0.0000     0.0000     0.0000 </r>
        <r>   -24.7797    -0.0020    -0.0000    -0.0000    -0.0000     0.0000     0.0000     0.0000     0.0000     0.0000 </r>
        <r>   -24.6451     0.0377     0.0000     0.0000     0.0002     0.0000     0.0000     0.0000     0.0000     0.0000 </r>
        <r>   -24.5105     0.0806     0.0008     0.0000     0.0007     0.0000     0.0000     0.0000     0.0000     0.0000 </r>
        <r>   -24.3760     0.1192     0.0026     0.0000     0.0030     0.0000     0.0000     0.0000     0.0000     0.0000 </r>
        <r>   -24.2414     0.0433     0.0016     0.0000     0.0018     0.0000     0.0000     0.0000     0.0000     0.0000 </r>
        <r>   -24.1068     0.1375     0.0075     0.0000     0.0064     0.0000     0.0000     0.0000     0.0000     0.0000 </r>
        <r>   -23.9722     0.0593     0.0016     0.0000     0.0059     0.0000     0.0000     0.0000     0.0000     0.0000 </r>
        <r>   -23.8377     0.0589     0.0073     0.0000     0.0036     0.0000     0.0000     0.0000     0.0000     0.0000 </r>
        <r>   -23.7031     0.1489     0.0153     0.0000     0.0136     0.0000     0.0000     0.0000     0.0000     0.0000 </r>
        <r>   -23.5685     0.0407     0.0024     0.0000     0.0081     0.0000     0.0000     0.0000     0.0000     0.0000 </r>
[...]
       </set>
       <set comment="band 5">
        <r>  0.0000  0.0000  0.0362  0.0000  0.0000  0.0000  0.0000  0.0000  0.0000 </r>
        <r>  0.0000  0.0000  0.1317  0.0000  0.0000  0.0000  0.0000  0.0000  0.0000 </r>
       </set>
       <set comment="band 6">
        <r>  0.0003  0.0000  0.0000  0.0000  0.0000  0.0000  0.0000  0.0000  0.0000 </r>
        <r>  0.0017  0.0008  0.0000  0.0003  0.0000  0.0000  0.0000  0.0000  0.0000 </r>
       </set>
       <set comment="band 7">
        <r>  0.0000  0.0000  0.0839  0.0000  0.0000  0.0000  0.0000  0.0000  0.0000 </r>
        <r>  0.0000  0.0000  0.0977  0.0000  0.0000  0.0000  0.0000  0.0000  0.0000 </r>
       </set>
       <set comment="band 8">
        <r>  0.0000  0.0000  0.1528  0.0000  0.0000  0.0000  0.0000  0.0000  0.0000 </r>
        <r>  0.0000  0.0000  0.0568  0.0000  0.0000  0.0000  0.0000  0.0000  0.0000 </r>
       </set>
      </set>
      <set comment="kpoint 87">
       <set comment="band 1">
        <r>  0.1966  0.0484  0.0000  0.0172  0.0000  0.0000  0.0000  0.0000  0.0000 </r>
        <r>  0.5316  0.0090  0.0000  0.0030  0.0000  0.0000  0.0000  0.0000  0.0000 </r>
       </set>
       <set comment="band 2">
        <r>  0.1189  0.0895  0.0000  0.1145  0.0000  0.0000  0.0000  0.0000  0.0000 </r>
        <r>  0.0663  0.3464  0.0000  0.1157  0.0000  0.0000  0.0000  0.0000  0.0000 </r>
       </set>
       <set comment="band 3">
        <r>  0.0383  0.1504  0.0000  0.1625  0.0000  0.0000  0.0000  0.0000  0.0000 </r>
        <r>  0.0001  0.1328  0.0000  0.3978  0.0000  0.0000  0.0000  0.0000  0.0000 </r>
       </set>
       <set comment="band 4">
        <r>  0.0000  0.0000  0.1614  0.0000  0.0000  0.0000  0.0000  0.0000  0.0000 </r>
        <r>  0.0000  0.0000  0.3694  0.0000  0.0000  0.0000  0.0000  0.0000  0.0000 </r>
       </set>
       <set comment="band 5">
        <r>  0.0000  0.0000  0.0048  0.0000  0.0000  0.0000  0.0000  0.0000  0.0000 </r>
        <r>  0.0000  0.0000  0.0703  0.0000  0.0000  0.0000  0.0000  0.0000  0.0000 </r>
       </set>
       <set comment="band 6">
        <r>  0.0003  0.0000  0.0000  0.0000  0.0000  0.0000  0.0000  0.0000  0.0000 </r>
        <r>  0.0013  0.0005  0.0001  0.0002  0.0000  0.0000  0.0000  0.0000  0.0000 </r>
       </set>
       <set comment="band 7">
        <r>  0.0000  0.0000  0.0236  0.0000  0.0000  0.0000  0.0000  0.0000  0.0000 </r>
        <r>  0.0000  0.0000  0.0795  0.0000  0.0000  0.0000  0.0000  0.0000  0.0000 </r>
       </set>
       <set comment="band 8">
        <r>  0.0000  0.0000  0.1784  0.0000  0.0000  0.0000  0.0000  0.0000  0.0000 </r>
        <r>  0.0001  0.0000  0.1465  0.0000  0.0000  0.0000  0.0000  0.0000  0.0000 </r>
       </set>
      </set>
      <set comment="kpoint 88">
       <set comment="band 1">
        <r>  0.2123  0.0387  0.0000  0.0135  0.0000  0.0000  0.0000  0.0000  0.0000 </r>
        <r>  0.5261  0.0077  0.0000  0.0026  0.0000  0.0000  0.0000  0.0000  0.0000 </r>
       </set>
       <set comment="band 2">
        <r>  0.1031  0.1042  0.0000  0.1093  0.0000  0.0000  0.0000  0.0000  0.0000 </r>
        <r>  0.0607  0.3602  0.0000  0.1201  0.0000  0.0000  0.0000  0.0000  0.0000 </r>
       </set>
       <set comment="band 3">
        <r>  0.0000  0.0000  0.1681  0.0000  0.0000  0.0000  0.0000  0.0000  0.0000 </r>
        <r>  0.0000  0.0000  0.3591  0.0000  0.0000  0.0000  0.0000  0.0000  0.0000 </r>
       </set>
       <set comment="band 4">
        <r>  0.0258  0.1430  0.0000  0.1709  0.0000  0.0000  0.0000  0.0000  0.0000 </r>
        <r>  0.0001  0.1365  0.0000  0.4093  0.0000  0.0000  0.0000  0.0000  0.0000 </r>
       </set>
       <set comment="band 5">
        <r>  0.0004  0.0000  0.0000  0.0001  0.0000  0.0000  0.0000  0.0000  0.0000 </r>
        <r>  0.0033  0.0011  0.0000  0.0004  0.0000  0.0000  0.0000  0.0000  0.0000 </r>
       </set>
       <set comment="band 6">
        <r>  0.0000  0.0000  0.0003  0.0000  0.0000  0.0000  0.0000  0.0000  0.0000 </r>
        <r>  0.0000  0.0000  0.0462  0.0000  0.0000  0.0000  0.0000  0.0000  0.0000 </r>
       </set>
       <set comment="band 7">
        <r>  0.0000  0.0000  0.0045  0.0000  0.0000  0.0000  0.0000  0.0000  0.0000 </r>
        <r>  0.0000  0.0000  0.0537  0.0000  0.0000  0.0000  0.0000  0.0000  0.0000 </r>
       </set>
       <set comment="band 8">
        <r>  0.0000  0.0000  0.1229  0.0000  0.0000  0.0000  0.0000  0.0000  0.0000 </r>
        <r>  0.0002  0.0001  0.1734  0.0000  0.0000  0.0000  0.0000  0.0000  0.0000 </r>
       </set>
      </set>
      <set comment="kpoint 89">
       <set comment="band 1">
        <r>  0.2261  0.0299  0.0000  0.0103  0.0000  0.0000  0.0000  0.0000  0.0000 </r>
        <r>  0.5218  0.0062  0.0000  0.0021  0.0000  0.0000  0.0000  0.0000  0.0000 </r>
       </set>
       <set comment="band 2">
        <r>  0.0000  0.0000  0.1736  0.0000  0.0000  0.0000  0.0000  0.0000  0.0000 </r>
        <r>  0.0000  0.0000  0.3506  0.0000  0.0000  0.0000  0.0000  0.0000  0.0000 </r>
       </set>
       <set comment="band 3">
        <r>  0.0866  0.1199  0.0000  0.1036  0.0000  0.0000  0.0000  0.0000  0.0000 </r>
        <r>  0.0533  0.3756  0.0000  0.1250  0.0000  0.0000  0.0000  0.0000  0.0000 </r>
       </set>
       <set comment="band 4">
        <r>  0.0162  0.1331  0.0000  0.1787  0.0000  0.0000  0.0000  0.0000  0.0000 </r>
        <r>  0.0001  0.1402  0.0000  0.4207  0.0000  0.0000  0.0000  0.0000  0.0000 </r>
       </set>
       <set comment="band 5">
        <r>  0.0003  0.0000  0.0000  0.0000  0.0000  0.0000  0.0000  0.0000  0.0000 </r>
        <r>  0.0024  0.0007  0.0000  0.0002  0.0000  0.0000  0.0000  0.0000  0.0000 </r>
       </set>
       <set comment="band 6">
        <r>  0.0000  0.0000  0.0001  0.0000  0.0000  0.0000  0.0000  0.0000  0.0000 </r>
        <r>  0.0000  0.0000  0.0353  0.0000  0.0000  0.0000  0.0000  0.0000  0.0000 </r>
       </set>
       <set comment="band 7">
        <r>  0.0000  0.0000  0.0005  0.0000  0.0000  0.0000  0.0000  0.0000  0.0000 </r>
        <r>  0.0000  0.0000  0.0408  0.0000  0.0000  0.0000  0.0000  0.0000  0.0000 </r>
       </set>
       <set comment="band 8">
        <r>  0.0001  0.0000  0.0728  0.0000  0.0000  0.0000  0.0000  0.0000  0.0000 </r>
        <r>  0.0003  0.0001  0.1597  0.0000  0.0000  0.0000  0.0000  0.0000  0.0000 </r>
       </set>
      </set>
      <set comment="kpoint 90">
       <set comment="band 1">
        <r>  0.2380  0.0221  0.0000  0.0076  0.0000  0.0000  0.0000  0.0000  0.0000 </r>
        <r>  0.5184  0.0048  0.0000  0.0016  0.0000  0.0000  0.0000  0.0000  0.0000 </r>
       </set>
       <set comment="band 2">
        <r>  0.0000  0.0000  0.1780  0.0000  0.0000  0.0000  0.0000  0.0000  0.0000 </r>
        <r>  0.0000  0.0000  0.3438  0.0000  0.0000  0.0000  0.0000  0.0000  0.0000 </r>
       </set>
       <set comment="band 3">
        <r>  0.0697  0.1364  0.0000  0.0972  0.0000  0.0000  0.0000  0.0000  0.0000 </r>
        <r>  0.0445  0.3924  0.0000  0.1303  0.0000  0.0000  0.0000  0.0000  0.0000 </r>
       </set>
       <set comment="band 4">
        <r>  0.0093  0.1211  0.0000  0.1859  0.0000  0.0000  0.0000  0.0000  0.0000 </r>
        <r>  0.0001  0.1437  0.0000  0.4322  0.0000  0.0000  0.0000  0.0000  0.0000 </r>
       </set>
       <set comment="band 5">
        <r>  0.0003  0.0000  0.0000  0.0000  0.0000  0.0000  0.0000  0.0000  0.0000 </r>
        <r>  0.0025  0.0006  0.0000  0.0002  0.0000  0.0000  0.0000  0.0000  0.0000 </r>
       </set>
       <set comment="band 6">
        <r>  0.0000  0.0000  0.0005  0.0000  0.0000  0.0000  0.0000  0.0000  0.0000 </r>
        <r>  0.0000  0.0000  0.0296  0.0000  0.0000  0.0000  0.0000  0.0000  0.0000 </r>
       </set>
       <set comment="band 7">
        <r>  0.0000  0.0000  0.0000  0.0000  0.0000  0.0000  0.0000  0.0000  0.0000 </r>
        <r>  0.0000  0.0000  0.0342  0.0000  0.0000  0.0000  0.0000  0.0000  0.0000 </r>
       </set>
       <set comment="band 8">
        <r>  0.0001  0.0000  0.0363  0.0000  0.0000  0.0000  0.0000  0.0000  0.0000 </r>
        <r>  0.0004  0.0001  0.1283  0.0000  0.0000  0.0000  0.0000  0.0000  0.0000 </r>
       </set>
      </set>
      <set comment="kpoint 91">
       <set comment="band 1">
        <r>  0.2480  0.0155  0.0000  0.0052  0.0000  0.0000  0.0000  0.0000  0.0000 </r>
        <r>  0.5160  0.0034  0.0000  0.0011  0.0000  0.0000  0.0000  0.0000  0.0000 </r>
       </set>
       <set comment="band 2">
        <r>  0.0000  0.0000  0.1816  0.0000  0.0000  0.0000  0.0000  0.0000  0.0000 </r>
        <r>  0.0000  0.0000  0.3383  0.0000  0.0000  0.0000  0.0000  0.0000  0.0000 </r>
       </set>
       <set comment="band 3">
        <r>  0.0530  0.1532  0.0000  0.0903  0.0000  0.0000  0.0000  0.0000  0.0000 </r>
        <r>  0.0348  0.4102  0.0000  0.1356  0.0000  0.0000  0.0000  0.0000  0.0000 </r>
       </set>
       <set comment="band 4">
        <r>  0.0046  0.1080  0.0000  0.1925  0.0000  0.0000  0.0000  0.0000  0.0000 </r>
        <r>  0.0000  0.1467  0.0000  0.4430  0.0000  0.0000  0.0000  0.0000  0.0000 </r>
       </set>
       <set comment="band 5">
        <r>  0.0003  0.0000  0.0000  0.0000  0.0000  0.0000  0.0000  0.0000  0.0000 </r>
        <r>  0.0031  0.0006  0.0000  0.0002  0.0000  0.0000  0.0000  0.0000  0.0000 </r>
       </set>
       <set comment="band 6">
        <r>  0.0000  0.0000  0.0009  0.0000  0.0000  0.0000  0.0000  0.0000  0.0000 </r>
        <r>  0.0000  0.0000  0.0265  0.0000  0.0000  0.0000  0.0000  0.0000  0.0000 </r>
       </set>
       <set comment="band 7">
        <r>  0.0000  0.0000  0.0002  0.0000  0.0000  0.0000  0.0000  0.0000  0.0000 </r>
        <r>  0.0000  0.0000  0.0307  0.0000  0.0000  0.0000  0.0000  0.0000  0.0000 </r>
       </set>
       <set comment="band 8">
        <r>  0.0002  0.0000  0.0131  0.0000  0.0000  0.0000  0.0000  0.0000  0.0000 </r>
        <r>  0.0010  0.0002  0.0847  0.0001  0.0000  0.0000  0.0000  0.0000  0.0000 </r>
       </set>
      </set>
      <set comment="kpoint 92">
       <set comment="band 1">
        <r>  0.2561  0.0100  0.0000  0.0034  0.0000  0.0000  0.0000  0.0000  0.0000 </r>
        <r>  0.5141  0.0023  0.0000  0.0008  0.0000  0.0000  0.0000  0.0000  0.0000 </r>
       </set>
       <set comment="band 2">
        <r>  0.0000  0.0000  0.1845  0.0000  0.0000  0.0000  0.0000  0.0000  0.0000 </r>
        <r>  0.0000  0.0000  0.3341  0.0000  0.0000  0.0000  0.0000  0.0000  0.0000 </r>
       </set>
       <set comment="band 3">
        <r>  0.0369  0.1701  0.0000  0.0829  0.0000  0.0000  0.0000  0.0000  0.0000 </r>
        <r>  0.0248  0.4285  0.0000  0.1405  0.0000  0.0000  0.0000  0.0000  0.0000 </r>
       </set>
       <set comment="band 4">
        <r>  0.0019  0.0945  0.0000  0.1984  0.0000  0.0000  0.0000  0.0000  0.0000 </r>
        <r>  0.0000  0.1488  0.0000  0.4533  0.0000  0.0000  0.0000  0.0000  0.0000 </r>
       </set>
       <set comment="band 5">
        <r>  0.0003  0.0000  0.0000  0.0000  0.0000  0.0000  0.0000  0.0000  0.0000 </r>
        <r>  0.0030  0.0004  0.0001  0.0001  0.0000  0.0000  0.0000  0.0000  0.0000 </r>
       </set>
       <set comment="band 6">
        <r>  0.0000  0.0000  0.0012  0.0000  0.0000  0.0000  0.0000  0.0000  0.0000 </r>
        <r>  0.0000  0.0000  0.0244  0.0000  0.0000  0.0000  0.0000  0.0000  0.0000 </r>
       </set>
       <set comment="band 7">
        <r>  0.0000  0.0000  0.0005  0.0000  0.0000  0.0000  0.0000  0.0000  0.0000 </r>
        <r>  0.0000  0.0000  0.0280  0.0000  0.0000  0.0000  0.0000  0.0000  0.0000 </r>
       </set>
       <set comment="band 8">
        <r>  0.0002  0.0000  0.0066  0.0000  0.0000  0.0000  0.0000  0.0000  0.0000 </r>
        <r>  0.0010  0.0001  0.0715  0.0000  0.0000  0.0000  0.0000  0.0000  0.0000 </r>
       </set>
      </set>
      <set comment="kpoint 93">
       <set comment="band 1">
        <r>  0.2624  0.0057  0.0000  0.0019  0.0000  0.0000  0.0000  0.0000  0.0000 </r>
        <r>  0.5128  0.0013  0.0000  0.0004  0.0000  0.0000  0.0000  0.0000  0.0000 </r>
       </set>
       <set comment="band 2">
        <r>  0.0000  0.0000  0.1866  0.0000  0.0000  0.0000  0.0000  0.0000  0.0000 </r>
        <r>  0.0000  0.0000  0.3310  0.0000  0.0000  0.0000  0.0000  0.0000  0.0000 </r>
       </set>
       <set comment="band 3">
        <r>  0.0225  0.1864  0.0000  0.0753  0.0000  0.0000  0.0000  0.0000  0.0000 </r>
        <r>  0.0153  0.4462  0.0000  0.1443  0.0000  0.0000  0.0000  0.0000  0.0000 </r>
       </set>
       <set comment="band 4">
        <r>  0.0005  0.0818  0.0000  0.2037  0.0000  0.0000  0.0000  0.0000  0.0000 </r>
        <r>  0.0000  0.1497  0.0000  0.4626  0.0000  0.0000  0.0000  0.0000  0.0000 </r>
       </set>
       <set comment="band 5">
        <r>  0.0003  0.0000  0.0000  0.0000  0.0000  0.0000  0.0000  0.0000  0.0000 </r>
        <r>  0.0045  0.0004  0.0000  0.0001  0.0000  0.0000  0.0000  0.0000  0.0000 </r>
       </set>
       <set comment="band 6">
        <r>  0.0000  0.0000  0.0014  0.0000  0.0000  0.0000  0.0000  0.0000  0.0000 </r>
        <r>  0.0000  0.0000  0.0231  0.0000  0.0000  0.0000  0.0000  0.0000  0.0000 </r>
       </set>
       <set comment="band 7">
        <r>  0.0000  0.0000  0.0008  0.0000  0.0000  0.0000  0.0000  0.0000  0.0000 </r>
        <r>  0.0000  0.0000  0.0264  0.0000  0.0000  0.0000  0.0000  0.0000  0.0000 </r>
       </set>
       <set comment="band 8">
        <r>  0.0002  0.0000  0.0035  0.0000  0.0000  0.0000  0.0000  0.0000  0.0000 </r>
        <r>  0.0011  0.0001  0.0622  0.0000  0.0000  0.0000  0.0000  0.0000  0.0000 </r>
       </set>
      </set>
      <set comment="kpoint 94">
       <set comment="band 1">
        <r>  0.2669  0.0025  0.0000  0.0009  0.0000  0.0000  0.0000  0.0000  0.0000 </r>
        <r>  0.5119  0.0006  0.0000  0.0002  0.0000  0.0000  0.0000  0.0000  0.0000 </r>
       </set>
       <set comment="band 2">
        <r>  0.0000  0.0000  0.1881  0.0000  0.0000  0.0000  0.0000  0.0000  0.0000 </r>
        <r>  0.0000  0.0000  0.3288  0.0000  0.0000  0.0000  0.0000  0.0000  0.0000 </r>
       </set>
       <set comment="band 3">
        <r>  0.0108  0.2005  0.0000  0.0680  0.0000  0.0000  0.0000  0.0000  0.0000 </r>
        <r>  0.0074  0.4629  0.0000  0.1459  0.0000  0.0000  0.0000  0.0000  0.0000 </r>
       </set>
       <set comment="band 4">
        <r>  0.0001  0.0708  0.0000  0.2085  0.0000  0.0000  0.0000  0.0000  0.0000 </r>
        <r>  0.0000  0.1487  0.0000  0.4714  0.0000  0.0000  0.0000  0.0000  0.0000 </r>
       </set>
       <set comment="band 5">
        <r>  0.0002  0.0000  0.0000  0.0000  0.0000  0.0000  0.0000  0.0000  0.0000 </r>
        <r>  0.0031  0.0001  0.0000  0.0000  0.0000  0.0000  0.0000  0.0000  0.0000 </r>
       </set>
       <set comment="band 6">
        <r>  0.0000  0.0000  0.0018  0.0000  0.0000  0.0000  0.0000  0.0000  0.0000 </r>
        <r>  0.0000  0.0000  0.0220  0.0000  0.0000  0.0000  0.0000  0.0000  0.0000 </r>
       </set>
       <set comment="band 7">
        <r>  0.0000  0.0000  0.0011  0.0000  0.0000  0.0000  0.0000  0.0000  0.0000 </r>
        <r>  0.0000  0.0000  0.0251  0.0000  0.0000  0.0000  0.0000  0.0000  0.0000 </r>
       </set>
       <set comment="band 8">
        <r>  0.0001  0.0000  0.0035  0.0000  0.0000  0.0000  0.0000  0.0000  0.0000 </r>
        <r>  0.0009  0.0000  0.0664  0.0000  0.0000  0.0000  0.0000  0.0000  0.0000 </r>
       </set>
      </set>
      <set comment="kpoint 95">
       <set comment="band 1">
        <r>  0.2696  0.0007  0.0000  0.0002  0.0000  0.0000  0.0000  0.0000  0.0000 </r>
        <r>  0.5114  0.0001  0.0000  0.0000  0.0000  0.0000  0.0000  0.0000  0.0000 </r>
       </set>
       <set comment="band 2">
        <r>  0.0000  0.0000  0.1890  0.0000  0.0000  0.0000  0.0000  0.0000  0.0000 </r>
        <r>  0.0000  0.0000  0.3275  0.0000  0.0000  0.0000  0.0000  0.0000  0.0000 </r>
       </set>
       <set comment="band 3">
        <r>  0.0028  0.2119  0.0000  0.0609  0.0000  0.0000  0.0000  0.0000  0.0000 </r>
        <r>  0.0019  0.4797  0.0000  0.1418  0.0000  0.0000  0.0000  0.0000  0.0000 </r>
       </set>
       <set comment="band 4">
        <r>  0.0000  0.0615  0.0000  0.2138  0.0000  0.0000  0.0000  0.0000  0.0000 </r>
        <r>  0.0000  0.1425  0.0000  0.4821  0.0000  0.0000  0.0000  0.0000  0.0000 </r>
       </set>
       <set comment="band 5">
        <r>  0.0002  0.0000  0.0000  0.0000  0.0000  0.0000  0.0000  0.0000  0.0000 </r>
        <r>  0.0032  0.0000  0.0001  0.0000  0.0000  0.0000  0.0000  0.0000  0.0000 </r>
       </set>
       <set comment="band 6">
        <r>  0.0000  0.0000  0.0017  0.0000  0.0000  0.0000  0.0000  0.0000  0.0000 </r>
        <r>  0.0000  0.0000  0.0218  0.0000  0.0000  0.0000  0.0000  0.0000  0.0000 </r>
       </set>
       <set comment="band 7">
        <r>  0.0000  0.0000  0.0012  0.0000  0.0000  0.0000  0.0000  0.0000  0.0000 </r>
        <r>  0.0000  0.0000  0.0247  0.0000  0.0000  0.0000  0.0000  0.0000  0.0000 </r>
       </set>
       <set comment="band 8">
        <r>  0.0002  0.0000  0.0011  0.0000  0.0000  0.0000  0.0000  0.0000  0.0000 </r>
        <r>  0.0017  0.0000  0.0479  0.0000  0.0000  0.0000  0.0000  0.0000  0.0000 </r>
       </set>
      </set>
      <set comment="kpoint 96">
       <set comment="band 1">
        <r>  0.2705  0.0000  0.0000  0.0000  0.0000  0.0000  0.0000  0.0000  0.0000 </r>
        <r>  0.5111  0.0000  0.0000  0.0000  0.0000  0.0000  0.0000  0.0000  0.0000 </r>
       </set>
       <set comment="band 2">
        <r>  0.0000  0.0000  0.1893  0.0000  0.0000  0.0000  0.0000  0.0000  0.0000 </r>
        <r>  0.0000  0.0000  0.3272  0.0000  0.0000  0.0000  0.0000  0.0000  0.0000 </r>
       </set>
       <set comment="band 3">
        <r>  0.0000  0.2181  0.0000  0.0561  0.0000  0.0000  0.0000  0.0000  0.0000 </r>
        <r>  0.0000  0.4986  0.0000  0.1276  0.0000  0.0000  0.0000  0.0000  0.0000 </r>
       </set>
       <set comment="band 4">
        <r>  0.0000  0.0562  0.0000  0.2179  0.0000  0.0000  0.0000  0.0000  0.0000 </r>
        <r>  0.0000  0.1274  0.0000  0.4987  0.0000  0.0000  0.0000  0.0000  0.0000 </r>
       </set>
       <set comment="band 5">
        <r>  0.0002  0.0000  0.0000  0.0000  0.0000  0.0000  0.0000  0.0000  0.0000 </r>
        <r>  0.0033  0.0000  0.0001  0.0000  0.0000  0.0000  0.0000  0.0000  0.0000 </r>
       </set>
       <set comment="band 6">
        <r>  0.0000  0.0000  0.0018  0.0000  0.0000  0.0000  0.0000  0.0000  0.0000 </r>
        <r>  0.0000  0.0000  0.0216  0.0000  0.0000  0.0000  0.0000  0.0000  0.0000 </r>
       </set>
       <set comment="band 7">
        <r>  0.0000  0.0000  0.0013  0.0000  0.0000  0.0000  0.0000  0.0000  0.0000 </r>
        <r>  0.0000  0.0000  0.0245  0.0000  0.0000  0.0000  0.0000  0.0000  0.0000 </r>
       </set>
       <set comment="band 8">
        <r>  0.0002  0.0000  0.0010  0.0000  0.0000  0.0000  0.0000  0.0000  0.0000 </r>
        <r>  0.0019  0.0000  0.0456  0.0000  0.0000  0.0000  0.0000  0.0000  0.0000 </r>
       </set>
      </set>
     </set>
    </set>
   </array>
  </projected>
 </calculation>
 <structure name="finalpos" >
  <crystal>
   <varray name="basis" >
    <v>       2.50845307       0.00000000       0.00000000 </v>
    <v>      -1.25422653       2.17238461       0.00000000 </v>
    <v>       0.00000000       0.00000000      20.00000000 </v>
   </varray>
   <i name="volume">    108.98649667 </i>
   <varray name="rec_basis" >
    <v>       0.39865207       0.23016182       0.00000000 </v>
    <v>       0.00000000       0.46032364       0.00000000 </v>
    <v>       0.00000000       0.00000000       0.05000000 </v>
   </varray>
  </crystal>
  <varray name="positions" >
   <v>       0.33333300       0.66666700       0.25884081 </v>
   <v>       0.66666700       0.33333300       0.25884081 </v>
  </varray>
 </structure>
</modeling>
