    3    3   50    2
  0.6797537E+02  0.3190643E-09  0.3190643E-09  0.2313053E-08  0.5000000E-15
  1.000000000000000E-004
  CAR 
 unknown system                          
     24     21     20
 
  0.0000000E+00  0.0000000E+00  0.0000000E+00  0.5917160E-02
    1      -38.097042    -38.097059   1.000000   1.000000
    2      -37.911133    -37.911133   1.000000   1.000000
    3      -37.911120    -37.911120   1.000000   1.000000
    4      -17.023579    -17.023581   1.000000   1.000000
    5      -15.742224    -15.742228   1.000000   1.000000
    6       -8.605831     -8.605836   1.000000   1.000000
    7       -5.723282     -5.723280   1.000000   1.000000
    8       -5.723268     -5.723266   1.000000   1.000000
    9       -4.901665     -4.901665   1.000000   1.000000
   10       -4.635392     -4.635395   1.000000   1.000000
   11       -4.635324     -4.635328   1.000000   1.000000
   12       -3.162614     -3.162609   0.789399   0.789367
   13       -0.411543     -0.411546  -0.000000  -0.000000
   14       -0.411480     -0.411483  -0.000000  -0.000000
   15       -0.227415     -0.227414   0.000000   0.000000
   16       -0.227387     -0.227387   0.000000   0.000000
   17        1.939110      1.996617   0.000000   0.000000
   18        2.036755      2.192674   0.000000   0.000000
   19        2.868050      2.433547   0.000000   0.000000
   20        3.278247      3.222041   0.000000   0.000000
 
  0.7692308E-01 -0.6938894E-17  0.0000000E+00  0.3550296E-01
    1      -38.093031    -38.093049   1.000000   1.000000
    2      -37.931947    -37.931947   1.000000   1.000000
    3      -37.915872    -37.915872   1.000000   1.000000
    4      -16.937730    -16.937732   1.000000   1.000000
    5      -15.707214    -15.707218   1.000000   1.000000
    6       -8.507113     -8.507119   1.000000   1.000000
    7       -5.908670     -5.908669   1.000000   1.000000
    8       -5.633332     -5.633331   1.000000   1.000000
    9       -5.330179     -5.330181   1.000000   1.000000
   10       -4.771687     -4.771690   1.000000   1.000000
   11       -4.334135     -4.334136   1.000000   1.000000
   12       -3.203154     -3.203151   0.982976   0.982968
   13       -0.520204     -0.520196  -0.000000  -0.000000
   14       -0.456374     -0.456336  -0.000000  -0.000000
   15       -0.320645     -0.320645   0.000000   0.000000
   16       -0.265279     -0.265283   0.000000   0.000000
   17        2.084514      2.133461   0.000000   0.000000
   18        2.163808      2.308375   0.000000   0.000000
   19        3.027479      2.571044   0.000000   0.000000
   20        3.392579      3.336486   0.000000   0.000000
 
  0.1538462E+00 -0.4163336E-16  0.0000000E+00  0.3550296E-01
    1      -38.081899    -38.081916   1.000000   1.000000
    2      -37.989237    -37.989236   1.000000   1.000000
    3      -37.929007    -37.929007   1.000000   1.000000
    4      -16.691775    -16.691777   1.000000   1.000000
    5      -15.607021    -15.607025   1.000000   1.000000
    6       -8.250565     -8.250570   1.000000   1.000000
    7       -6.353642     -6.353642   1.000000   1.000000
    8       -5.904409     -5.904411   1.000000   1.000000
    9       -5.379744     -5.379743   1.000000   1.000000
   10       -5.104237     -5.104240   1.000000   1.000000
   11       -4.204686     -4.204687   1.000000   1.000000
   12       -3.383486     -3.383487   1.000816   1.000816
   13       -0.850789     -0.850749  -0.000000  -0.000000
   14       -0.597492     -0.597471  -0.000000  -0.000000
   15       -0.547513     -0.547512  -0.000000  -0.000000
   16        0.082545      0.082542   0.000000   0.000000
   17        2.451229      2.488967   0.000000   0.000000
   18        2.517420      2.647171   0.000000   0.000000
   19        3.397882      2.928095   0.000000   0.000000
   20        3.724688      3.672982   0.000000   0.000000
 
  0.2307692E+00 -0.6938894E-16  0.0000000E+00  0.3550296E-01
    1      -38.069058    -38.069058   1.000000   1.000000
    2      -38.066164    -38.066181   1.000000   1.000000
    3      -37.947468    -37.947468   1.000000   1.000000
    4      -16.321013    -16.321016   1.000000   1.000000
    5      -15.456811    -15.456815   1.000000   1.000000
    6       -8.010929     -8.010932   1.000000   1.000000
    7       -6.789980     -6.789982   1.000000   1.000000
    8       -6.489696     -6.489699   1.000000   1.000000
    9       -5.496492     -5.496495   1.000000   1.000000
   10       -5.013030     -5.013029   1.000000   1.000000
   11       -4.378226     -4.378228   1.000000   1.000000
   12       -3.746103     -3.746105   1.000000   1.000000
   13       -1.025438     -1.025417  -0.000000  -0.000000
   14       -0.796393     -0.796392  -0.000000  -0.000000
   15       -0.367009     -0.366982   0.000000   0.000000
   16        0.466303      0.466299   0.000000   0.000000
   17        2.985977      3.025957   0.000000   0.000000
   18        3.080773      3.189314   0.000000   0.000000
   19        3.929309      3.469789   0.000000   0.000000
   20        4.250008      4.217252   0.000000   0.000000
 
  0.3076923E+00 -0.2775558E-16  0.0000000E+00  0.3550296E-01
    1      -38.152619    -38.152619   1.000000   1.000000
    2      -38.049412    -38.049429   1.000000   1.000000
    3      -37.966992    -37.966992   1.000000   1.000000
    4      -15.887158    -15.887161   1.000000   1.000000
    5      -15.283725    -15.283729   1.000000   1.000000
    6       -8.128886     -8.128886   1.000000   1.000000
    7       -7.047135     -7.047136   1.000000   1.000000
    8       -6.923704     -6.923708   1.000000   1.000000
    9       -5.849474     -5.849477   1.000000   1.000000
   10       -4.657553     -4.657557   1.000000   1.000000
   11       -4.619207     -4.619207   1.000000   1.000000
   12       -4.047528     -4.047530   1.000000   1.000000
   13       -0.967004     -0.967002  -0.000000  -0.000000
   14       -0.932648     -0.932642  -0.000000  -0.000000
   15        0.070121      0.070142   0.000000   0.000000
   16        0.772779      0.772775   0.000000   0.000000
   17        3.644339      3.684870   0.000000   0.000000
   18        3.805193      3.888168   0.000000   0.000000
   19        4.605306      4.203511   0.000000   0.000000
   20        4.898876      4.924976   0.000000   0.000000
 
  0.3846154E+00 -0.2775558E-16  0.0000000E+00  0.3550296E-01
    1      -38.220996    -38.220995   1.000000   1.000000
    2      -38.035485    -38.035502   1.000000   1.000000
    3      -37.983118    -37.983119   1.000000   1.000000
    4      -15.483661    -15.483664   1.000000   1.000000
    5      -15.127188    -15.127192   1.000000   1.000000
    6       -8.476122     -8.476121   1.000000   1.000000
    7       -7.502268     -7.502269   1.000000   1.000000
    8       -6.976864     -6.976868   1.000000   1.000000
    9       -6.107709     -6.107711   1.000000   1.000000
   10       -4.873678     -4.873683   1.000000   1.000000
   11       -4.301934     -4.301933   1.000000   1.000000
   12       -3.993380     -3.993382   1.000000   1.000000
   13       -1.016808     -1.016806  -0.000000  -0.000000
   14       -0.714112     -0.714113  -0.000000  -0.000000
   15        0.480657      0.480665   0.000000   0.000000
   16        0.965393      0.965388   0.000000   0.000000
   17        3.848093      3.851399   0.000000   0.000000
   18        4.540569      4.558943   0.000000   0.000000
   19        4.544877      4.576189   0.000000   0.000000
   20        5.431189      5.187144   0.000000   0.000000
 
  0.4615385E+00 -0.1387779E-15  0.0000000E+00  0.3550296E-01
    1      -38.259257    -38.259257   1.000000   1.000000
    2      -38.027606    -38.027623   1.000000   1.000000
    3      -37.992201    -37.992201   1.000000   1.000000
    4      -15.231576    -15.231579   1.000000   1.000000
    5      -15.032493    -15.032497   1.000000   1.000000
    6       -8.721192     -8.721191   1.000000   1.000000
    7       -7.761771     -7.761772   1.000000   1.000000
    8       -7.078474     -7.078476   1.000000   1.000000
    9       -6.242823     -6.242825   1.000000   1.000000
   10       -4.980701     -4.980706   1.000000   1.000000
   11       -4.133879     -4.133879   1.000000   1.000000
   12       -3.768001     -3.768005   1.000000   1.000000
   13       -0.995389     -0.995387  -0.000000  -0.000000
   14       -0.519632     -0.519637  -0.000000  -0.000000
   15        0.705419      0.705420   0.000000   0.000000
   16        1.053656      1.053651   0.000000   0.000000
   17        3.151554      3.151656   0.000000   0.000000
   18        4.883091      4.884205   0.000000   0.000000
   19        5.021530      5.025551   0.000000   0.000000
   20        5.642473      5.658662   0.000000   0.000000
 
  0.7692308E-01  0.7692308E-01  0.0000000E+00  0.3550296E-01
    1      -38.085459    -38.085477   1.000000   1.000000
    2      -37.970098    -37.970097   1.000000   1.000000
    3      -37.925715    -37.925716   1.000000   1.000000
    4      -16.771761    -16.771763   1.000000   1.000000
    5      -15.639536    -15.639541   1.000000   1.000000
    6       -8.327249     -8.327254   1.000000   1.000000
    7       -6.219443     -6.219443   1.000000   1.000000
    8       -5.719113     -5.719115   1.000000   1.000000
    9       -5.466586     -5.466585   1.000000   1.000000
   10       -5.081863     -5.081866   1.000000   1.000000
   11       -4.146107     -4.146108   1.000000   1.000000
   12       -3.313977     -3.313977   1.011491   1.011491
   13       -0.753681     -0.753638  -0.000000  -0.000000
   14       -0.647534     -0.647520  -0.000000  -0.000000
   15       -0.489940     -0.489937  -0.000000  -0.000000
   16        0.011084      0.011087   0.000000   0.000000
   17        2.335714      2.376657   0.000000   0.000000
   18        2.402935      2.535807   0.000000   0.000000
   19        3.284879      2.815970   0.000000   0.000000
   20        3.615738      3.561855   0.000000   0.000000
 
  0.1538462E+00  0.7692308E-01  0.0000000E+00  0.7100592E-01
    1      -38.072024    -38.072041   1.000000   1.000000
    2      -38.036293    -38.036293   1.000000   1.000000
    3      -37.943859    -37.943859   1.000000   1.000000
    4      -16.462821    -16.462823   1.000000   1.000000
    5      -15.513715    -15.513719   1.000000   1.000000
    6       -8.058790     -8.058794   1.000000   1.000000
    7       -6.650899     -6.650899   1.000000   1.000000
    8       -6.204593     -6.204595   1.000000   1.000000
    9       -5.557787     -5.557789   1.000000   1.000000
   10       -5.184108     -5.184107   1.000000   1.000000
   11       -4.130011     -4.130012   1.000000   1.000000
   12       -3.595192     -3.595194   1.000000   1.000000
   13       -1.039663     -1.039639  -0.000000  -0.000000
   14       -0.704855     -0.704849  -0.000000  -0.000000
   15       -0.622179     -0.622162  -0.000000  -0.000000
   16        0.417416      0.417431   0.000000   0.000000
   17        2.787393      2.824200   0.000000   0.000000
   18        2.861776      2.978181   0.000000   0.000000
   19        3.735621      3.264546   0.000000   0.000000
   20        4.046801      4.003789   0.000000   0.000000
 
  0.2307692E+00  0.7692308E-01  0.0000000E+00  0.7100592E-01
    1      -38.115007    -38.115007   1.000000   1.000000
    2      -38.055777    -38.055795   1.000000   1.000000
    3      -37.965798    -37.965798   1.000000   1.000000
    4      -16.058431    -16.058434   1.000000   1.000000
    5      -15.350168    -15.350172   1.000000   1.000000
    6       -7.984794     -7.984795   1.000000   1.000000
    7       -6.889443     -6.889446   1.000000   1.000000
    8       -6.768835     -6.768836   1.000000   1.000000
    9       -5.932837     -5.932840   1.000000   1.000000
   10       -4.900113     -4.900112   1.000000   1.000000
   11       -4.358803     -4.358806   1.000000   1.000000
   12       -3.924823     -3.924825   1.000000   1.000000
   13       -1.139500     -1.139491  -0.000000  -0.000000
   14       -0.804435     -0.804431  -0.000000  -0.000000
   15       -0.308377     -0.308363   0.000000   0.000000
   16        0.774268      0.774281   0.000000   0.000000
   17        3.398989      3.441177   0.000000   0.000000
   18        3.510494      3.607112   0.000000   0.000000
   19        4.352438      3.903662   0.000000   0.000000
   20        4.652618      4.641545   0.000000   0.000000
 
  0.3076923E+00  0.7692308E-01  0.0000000E+00  0.7100592E-01
    1      -38.188157    -38.188157   1.000000   1.000000
    2      -38.040434    -38.040451   1.000000   1.000000
    3      -37.986406    -37.986406   1.000000   1.000000
    4      -15.634800    -15.634803   1.000000   1.000000
    5      -15.181766    -15.181770   1.000000   1.000000
    6       -8.256523     -8.256523   1.000000   1.000000
    7       -7.322576     -7.322578   1.000000   1.000000
    8       -6.899678     -6.899682   1.000000   1.000000
    9       -6.143860     -6.143863   1.000000   1.000000
   10       -4.733575     -4.733576   1.000000   1.000000
   11       -4.662325     -4.662329   1.000000   1.000000
   12       -3.953848     -3.953849   1.000000   1.000000
   13       -1.072862     -1.072859  -0.000000  -0.000000
   14       -0.753207     -0.753207  -0.000000  -0.000000
   15        0.134280      0.134287   0.000000   0.000000
   16        0.985434      0.985438   0.000000   0.000000
   17        4.039822      4.068292   0.000000   0.000000
   18        4.287950      4.351839   0.000000   0.000000
   19        4.725246      4.680553   0.000000   0.000000
   20        5.139839      4.821203   0.000000   0.000000
 
  0.3846154E+00  0.7692308E-01  0.0000000E+00  0.7100592E-01
    1      -38.239478    -38.239478   1.000000   1.000000
    2      -38.029527    -38.029544   1.000000   1.000000
    3      -38.000977    -38.000977   1.000000   1.000000
    4      -15.299490    -15.299494   1.000000   1.000000
    5      -15.051933    -15.051937   1.000000   1.000000
    6       -8.551347     -8.551346   1.000000   1.000000
    7       -7.721072     -7.721073   1.000000   1.000000
    8       -6.997113     -6.997116   1.000000   1.000000
    9       -6.239751     -6.239753   1.000000   1.000000
   10       -4.894307     -4.894312   1.000000   1.000000
   11       -4.588551     -4.588551   1.000000   1.000000
   12       -3.734453     -3.734455   1.000000   1.000000
   13       -0.983417     -0.983416  -0.000000  -0.000000
   14       -0.579639     -0.579642  -0.000000  -0.000000
   15        0.536606      0.536605   0.000000   0.000000
   16        1.007617      1.007616   0.000000   0.000000
   17        3.548884      3.549281   0.000000   0.000000
   18        4.989563      5.003748   0.000000   0.000000
   19        5.002305      5.017174   0.000000   0.000000
   20        5.640685      5.680864   0.000000   0.000000
 
  0.4615385E+00  0.7692308E-01  0.0000000E+00  0.3550296E-01
    1      -38.257888    -38.257887   1.000000   1.000000
    2      -38.025585    -38.025602   1.000000   1.000000
    3      -38.006226    -38.006226   1.000000   1.000000
    4      -15.169196    -15.169199   1.000000   1.000000
    5      -15.002570    -15.002574   1.000000   1.000000
    6       -8.670145     -8.670144   1.000000   1.000000
    7       -7.865615     -7.865616   1.000000   1.000000
    8       -7.067187     -7.067189   1.000000   1.000000
    9       -6.265498     -6.265500   1.000000   1.000000
   10       -4.979718     -4.979723   1.000000   1.000000
   11       -4.519985     -4.519985   1.000000   1.000000
   12       -3.596160     -3.596162   1.000000   1.000000
   13       -0.972337     -0.972337  -0.000000  -0.000000
   14       -0.447466     -0.447469  -0.000000  -0.000000
   15        0.787014      0.787011   0.000000   0.000000
   16        0.893974      0.893972   0.000000   0.000000
   17        3.139454      3.139524   0.000000   0.000000
   18        5.322571      5.323169   0.000000   0.000000
   19        5.365851      5.368342   0.000000   0.000000
   20        5.779459      5.783234   0.000000   0.000000
 
  0.1538462E+00  0.1538462E+00  0.0000000E+00  0.3550296E-01
    1      -38.097158    -38.097158   1.000000   1.000000
    2      -38.058074    -38.058092   1.000000   1.000000
    3      -37.969678    -37.969678   1.000000   1.000000
    4      -16.118749    -16.118752   1.000000   1.000000
    5      -15.373086    -15.373090   1.000000   1.000000
    6       -7.921465     -7.921466   1.000000   1.000000
    7       -6.860335     -6.860337   1.000000   1.000000
    8       -6.550812     -6.550814   1.000000   1.000000
    9       -6.148869     -6.148872   1.000000   1.000000
   10       -5.050495     -5.050495   1.000000   1.000000
   11       -4.135277     -4.135280   1.000000   1.000000
   12       -3.864055     -3.864057   1.000000   1.000000
   13       -1.223741     -1.223730  -0.000000  -0.000000
   14       -0.753792     -0.753787  -0.000000  -0.000000
   15       -0.552917     -0.552908  -0.000000  -0.000000
   16        0.818941      0.818971   0.000000   0.000000
   17        3.319709      3.360328   0.000000   0.000000
   18        3.410896      3.512395   0.000000   0.000000
   19        4.276005      3.810969   0.000000   0.000000
   20        4.565782      4.544385   0.000000   0.000000
 
  0.2307692E+00  0.1538462E+00  0.0000000E+00  0.7100592E-01
    1      -38.158720    -38.158720   1.000000   1.000000
    2      -38.043233    -38.043250   1.000000   1.000000
    3      -37.999390    -37.999391   1.000000   1.000000
    4      -15.719091    -15.719094   1.000000   1.000000
    5      -15.209805    -15.209809   1.000000   1.000000
    6       -8.049963     -8.049962   1.000000   1.000000
    7       -7.157181     -7.157183   1.000000   1.000000
    8       -6.807636     -6.807640   1.000000   1.000000
    9       -6.338773     -6.338775   1.000000   1.000000
   10       -5.166995     -5.166995   1.000000   1.000000
   11       -4.370658     -4.370661   1.000000   1.000000
   12       -3.931309     -3.931310   1.000000   1.000000
   13       -1.182970     -1.182965  -0.000000  -0.000000
   14       -0.708154     -0.708156  -0.000000  -0.000000
   15       -0.269968     -0.269964   0.000000   0.000000
   16        1.088872      1.088890   0.000000   0.000000
   17        3.988444      4.029741   0.000000   0.000000
   18        4.131490      4.210993   0.000000   0.000000
   19        4.970098      4.554138   0.000000   0.000000
   20        5.246427      5.271422   0.000000   0.000000
 
  0.3076923E+00  0.1538462E+00  0.0000000E+00  0.7100592E-01
    1      -38.208344    -38.208343   1.000000   1.000000
    2      -38.030902    -38.030919   1.000000   1.000000
    3      -38.024853    -38.024853   1.000000   1.000000
    4      -15.352165    -15.352169   1.000000   1.000000
    5      -15.060829    -15.060833   1.000000   1.000000
    6       -8.271128     -8.271127   1.000000   1.000000
    7       -7.704801     -7.704802   1.000000   1.000000
    8       -6.824505     -6.824508   1.000000   1.000000
    9       -6.317403     -6.317406   1.000000   1.000000
   10       -5.291776     -5.291777   1.000000   1.000000
   11       -4.705869     -4.705873   1.000000   1.000000
   12       -3.757893     -3.757894   1.000000   1.000000
   13       -0.992928     -0.992929  -0.000000  -0.000000
   14       -0.598693     -0.598694  -0.000000  -0.000000
   15        0.086473      0.086471   0.000000   0.000000
   16        1.181229      1.181233   0.000000   0.000000
   17        4.133559      4.136523   0.000000   0.000000
   18        4.951632      4.995201   0.000000   0.000000
   19        5.032281      5.058786   0.000000   0.000000
   20        5.885718      5.550506   0.000000   0.000000
 
  0.3846154E+00  0.1538462E+00  0.0000000E+00  0.7100592E-01
    1      -38.235941    -38.235941   1.000000   1.000000
    2      -38.039422    -38.039423   1.000000   1.000000
    3      -38.023927    -38.023944   1.000000   1.000000
    4      -15.126297    -15.126300   1.000000   1.000000
    5      -14.970019    -14.970023   1.000000   1.000000
    6       -8.407343     -8.407342   1.000000   1.000000
    7       -8.011210     -8.011211   1.000000   1.000000
    8       -6.968008     -6.968011   1.000000   1.000000
    9       -6.242880     -6.242882   1.000000   1.000000
   10       -5.284631     -5.284632   1.000000   1.000000
   11       -4.956787     -4.956792   1.000000   1.000000
   12       -3.524062     -3.524063   1.000000   1.000000
   13       -1.035910     -1.035915  -0.000000  -0.000000
   14       -0.311096     -0.311096   0.000000   0.000000
   15        0.343870      0.343865   0.000000   0.000000
   16        1.150870      1.150869   0.000000   0.000000
   17        3.491939      3.492052   0.000000   0.000000
   18        5.718364      5.728961   0.000000   0.000000
   19        5.750789      5.759969   0.000000   0.000000
   20        6.347951      6.355015   0.000000   0.000000
 
  0.2307692E+00  0.2307692E+00  0.0000000E+00  0.3550296E-01
    1      -38.190573    -38.190572   1.000000   1.000000
    2      -38.040113    -38.040113   1.000000   1.000000
    3      -38.031400    -38.031417   1.000000   1.000000
    4      -15.371956    -15.371960   1.000000   1.000000
    5      -15.063067    -15.063071   1.000000   1.000000
    6       -8.121714     -8.121713   1.000000   1.000000
    7       -7.697331     -7.697332   1.000000   1.000000
    8       -6.670305     -6.670309   1.000000   1.000000
    9       -6.369029     -6.369031   1.000000   1.000000
   10       -5.688933     -5.688933   1.000000   1.000000
   11       -4.599827     -4.599831   1.000000   1.000000
   12       -3.786046     -3.786047   1.000000   1.000000
   13       -1.011482     -1.011483  -0.000000  -0.000000
   14       -0.593208     -0.593209  -0.000000  -0.000000
   15       -0.130333     -0.130335   0.000000   0.000000
   16        1.281112      1.281119   0.000000   0.000000
   17        4.456197      4.467854   0.000000   0.000000
   18        4.898627      4.951799   0.000000   0.000000
   19        5.074286      5.090372   0.000000   0.000000
   20        5.763960      5.445175   0.000000   0.000000
 
  0.3076923E+00  0.2307692E+00  0.0000000E+00  0.7100592E-01
    1      -38.207072    -38.207071   1.000000   1.000000
    2      -38.074947    -38.074947   1.000000   1.000000
    3      -38.022997    -38.023015   1.000000   1.000000
    4      -15.105930    -15.105933   1.000000   1.000000
    5      -14.948322    -14.948327   1.000000   1.000000
    6       -8.114843     -8.114844   1.000000   1.000000
    7       -8.102773     -8.102772   1.000000   1.000000
    8       -6.762084     -6.762086   1.000000   1.000000
    9       -6.216139     -6.216140   1.000000   1.000000
   10       -6.033362     -6.033362   1.000000   1.000000
   11       -4.927865     -4.927869   1.000000   1.000000
   12       -3.517829     -3.517830   1.000000   1.000000
   13       -1.134373     -1.134379  -0.000000  -0.000000
   14       -0.200027     -0.200026   0.000000   0.000000
   15       -0.001206     -0.001211   0.000000   0.000000
   16        1.395550      1.395550   0.000000   0.000000
   17        4.041312      4.041599   0.000000   0.000000
   18        5.329634      5.332492   0.000000   0.000000
   19        5.695987      5.716652   0.000000   0.000000
   20        6.202942      6.237487   0.000000   0.000000
 
  0.3846154E+00  0.2307692E+00  0.0000000E+00  0.3550296E-01
    1      -38.211377    -38.211377   1.000000   1.000000
    2      -38.089136    -38.089136   1.000000   1.000000
    3      -38.019964    -38.019981   1.000000   1.000000
    4      -15.005201    -15.005204   1.000000   1.000000
    5      -14.904310    -14.904314   1.000000   1.000000
    6       -8.267116     -8.267117   1.000000   1.000000
    7       -8.054541     -8.054540   1.000000   1.000000
    8       -6.925785     -6.925787   1.000000   1.000000
    9       -6.103313     -6.103315   1.000000   1.000000
   10       -6.088565     -6.088567   1.000000   1.000000
   11       -5.106104     -5.106109   1.000000   1.000000
   12       -3.343278     -3.343278   1.004366   1.004366
   13       -1.288377     -1.288385  -0.000000  -0.000000
   14        0.043856      0.043852   0.000000   0.000000
   15        0.045376      0.045377   0.000000   0.000000
   16        1.437899      1.437895   0.000000   0.000000
   17        3.725476      3.725537   0.000000   0.000000
   18        5.337047      5.337188   0.000000   0.000000
   19        6.160234      6.163576   0.000000   0.000000
   20        6.676666      6.686356   0.000000   0.000000
 
  0.3076923E+00  0.3076923E+00  0.0000000E+00  0.3550296E-01
    1      -38.187394    -38.187394   1.000000   1.000000
    2      -38.122276    -38.122276   1.000000   1.000000
    3      -38.018535    -38.018552   1.000000   1.000000
    4      -14.962125    -14.962129   1.000000   1.000000
    5      -14.878842    -14.878846   1.000000   1.000000
    6       -8.367045     -8.367046   1.000000   1.000000
    7       -7.765769     -7.765767   1.000000   1.000000
    8       -6.907757     -6.907757   1.000000   1.000000
    9       -6.546610     -6.546613   1.000000   1.000000
   10       -6.005439     -6.005440   1.000000   1.000000
   11       -5.202376     -5.202382   1.000000   1.000000
   12       -3.248268     -3.248267   1.035458   1.035458
   13       -1.439413     -1.439422  -0.000000  -0.000000
   14       -0.083211     -0.083215   0.000000   0.000000
   15        0.199950      0.199952   0.000000   0.000000
   16        1.575621      1.575617   0.000000   0.000000
   17        4.070465      4.070514   0.000000   0.000000
   18        4.701668      4.701764   0.000000   0.000000
   19        6.292621      6.296898   0.000000   0.000000
   20        6.995620      7.013346   0.000000   0.000000
