<?xml version="1.0" encoding="ISO-8859-1"?>
<modeling>
 <generator>
  <i name="program" type="string">vasp </i>
  <i name="version" type="string">5.3.5  </i>
  <i name="subversion" type="string">31Mar14 (build Oct 29 2014 16:16:03) complex                          parallel </i>
  <i name="platform" type="string">Linux-UFHPC </i>
  <i name="date" type="string">2016 02 09 </i>
  <i name="time" type="string">17:30:15 </i>
 </generator>
 <incar>
  <i type="string" name="PREC">accurate</i>
  <i type="int" name="IBRION">     2</i>
  <i name="EDIFF">      0.00000100</i>
  <i type="int" name="NSW">     0</i>
  <i type="int" name="ISIF">     3</i>
  <i name="ENCUT">    300.00000000</i>
  <i type="string" name="LREAL"> Auto</i>
  <i type="int" name="ISMEAR">     0</i>
  <i name="SIGMA">      0.10000000</i>
  <i type="logical" name="LWAVE"> F  </i>
  <i type="logical" name="LCHARG"> F  </i>
  <i type="logical" name="LAECHG"> F  </i>
  <i type="string" name="GGA"> Bo</i>
  <i name="PARAM1">      0.18333333</i>
  <i name="PARAM2">      0.22000000</i>
  <i type="logical" name="LUSE_VDW"> T  </i>
  <i name="AGGAC">      0.00000000</i>
 </incar>
 <kpoints>
  <generation param="Gamma">
   <v type="int" name="divisions">      13        4        2 </v>
   <v name="usershift">      0.00000000       0.00000000       0.00000000 </v>
   <v name="genvec1">      0.07692308      -0.00000000       0.00000000 </v>
   <v name="genvec2">      0.00000000       0.25000000       0.00000000 </v>
   <v name="genvec3">      0.00000000       0.00000000       0.50000000 </v>
   <v name="shift">      0.00000000       0.00000000       0.00000000 </v>
  </generation>
  <varray name="kpointlist" >
   <v>       0.00000000       0.00000000       0.00000000 </v>
   <v>       0.07692308      -0.00000000       0.00000000 </v>
   <v>       0.15384615      -0.00000000       0.00000000 </v>
   <v>       0.23076923      -0.00000000       0.00000000 </v>
   <v>       0.30769231      -0.00000000       0.00000000 </v>
   <v>       0.38461538      -0.00000000       0.00000000 </v>
   <v>       0.46153846      -0.00000000       0.00000000 </v>
   <v>       0.00000000       0.25000000       0.00000000 </v>
   <v>       0.07692308       0.25000000       0.00000000 </v>
   <v>       0.15384615       0.25000000       0.00000000 </v>
   <v>       0.23076923       0.25000000       0.00000000 </v>
   <v>       0.30769231       0.25000000       0.00000000 </v>
   <v>       0.38461538       0.25000000       0.00000000 </v>
   <v>       0.46153846       0.25000000       0.00000000 </v>
   <v>      -0.46153846       0.25000000       0.00000000 </v>
   <v>      -0.38461538       0.25000000       0.00000000 </v>
   <v>      -0.30769231       0.25000000       0.00000000 </v>
   <v>      -0.23076923       0.25000000       0.00000000 </v>
   <v>      -0.15384615       0.25000000       0.00000000 </v>
   <v>      -0.07692308       0.25000000       0.00000000 </v>
   <v>       0.00000000       0.50000000       0.00000000 </v>
   <v>       0.07692308       0.50000000       0.00000000 </v>
   <v>       0.15384615       0.50000000       0.00000000 </v>
   <v>       0.23076923       0.50000000       0.00000000 </v>
   <v>       0.30769231       0.50000000       0.00000000 </v>
   <v>       0.38461538       0.50000000       0.00000000 </v>
   <v>       0.46153846       0.50000000       0.00000000 </v>
   <v>       0.00000000       0.00000000       0.50000000 </v>
   <v>       0.07692308      -0.00000000       0.50000000 </v>
   <v>       0.15384615      -0.00000000       0.50000000 </v>
   <v>       0.23076923      -0.00000000       0.50000000 </v>
   <v>       0.30769231      -0.00000000       0.50000000 </v>
   <v>       0.38461538      -0.00000000       0.50000000 </v>
   <v>       0.46153846      -0.00000000       0.50000000 </v>
   <v>       0.00000000       0.25000000       0.50000000 </v>
   <v>       0.07692308       0.25000000       0.50000000 </v>
   <v>       0.15384615       0.25000000       0.50000000 </v>
   <v>       0.23076923       0.25000000       0.50000000 </v>
   <v>       0.30769231       0.25000000       0.50000000 </v>
   <v>       0.38461538       0.25000000       0.50000000 </v>
   <v>       0.46153846       0.25000000       0.50000000 </v>
   <v>      -0.46153846       0.25000000       0.50000000 </v>
   <v>      -0.38461538       0.25000000       0.50000000 </v>
   <v>      -0.30769231       0.25000000       0.50000000 </v>
   <v>      -0.23076923       0.25000000       0.50000000 </v>
   <v>      -0.15384615       0.25000000       0.50000000 </v>
   <v>      -0.07692308       0.25000000       0.50000000 </v>
   <v>       0.00000000       0.50000000       0.50000000 </v>
   <v>       0.07692308       0.50000000       0.50000000 </v>
   <v>       0.15384615       0.50000000       0.50000000 </v>
   <v>       0.23076923       0.50000000       0.50000000 </v>
   <v>       0.30769231       0.50000000       0.50000000 </v>
   <v>       0.38461538       0.50000000       0.50000000 </v>
   <v>       0.46153846       0.50000000       0.50000000 </v>
  </varray>
  <varray name="weights" >
   <v>       0.00961538 </v>
   <v>       0.01923077 </v>
   <v>       0.01923077 </v>
   <v>       0.01923077 </v>
   <v>       0.01923077 </v>
   <v>       0.01923077 </v>
   <v>       0.01923077 </v>
   <v>       0.01923077 </v>
   <v>       0.01923077 </v>
   <v>       0.01923077 </v>
   <v>       0.01923077 </v>
   <v>       0.01923077 </v>
   <v>       0.01923077 </v>
   <v>       0.01923077 </v>
   <v>       0.01923077 </v>
   <v>       0.01923077 </v>
   <v>       0.01923077 </v>
   <v>       0.01923077 </v>
   <v>       0.01923077 </v>
   <v>       0.01923077 </v>
   <v>       0.00961538 </v>
   <v>       0.01923077 </v>
   <v>       0.01923077 </v>
   <v>       0.01923077 </v>
   <v>       0.01923077 </v>
   <v>       0.01923077 </v>
   <v>       0.01923077 </v>
   <v>       0.00961538 </v>
   <v>       0.01923077 </v>
   <v>       0.01923077 </v>
   <v>       0.01923077 </v>
   <v>       0.01923077 </v>
   <v>       0.01923077 </v>
   <v>       0.01923077 </v>
   <v>       0.01923077 </v>
   <v>       0.01923077 </v>
   <v>       0.01923077 </v>
   <v>       0.01923077 </v>
   <v>       0.01923077 </v>
   <v>       0.01923077 </v>
   <v>       0.01923077 </v>
   <v>       0.01923077 </v>
   <v>       0.01923077 </v>
   <v>       0.01923077 </v>
   <v>       0.01923077 </v>
   <v>       0.01923077 </v>
   <v>       0.01923077 </v>
   <v>       0.00961538 </v>
   <v>       0.01923077 </v>
   <v>       0.01923077 </v>
   <v>       0.01923077 </v>
   <v>       0.01923077 </v>
   <v>       0.01923077 </v>
   <v>       0.01923077 </v>
  </varray>
 </kpoints>
 <parameters>
  <separator name="general" >
   <i type="string" name="SYSTEM">unknown system</i>
   <i type="logical" name="LCOMPAT"> F  </i>
  </separator>
  <separator name="electronic" >
   <i type="string" name="PREC">accura</i>
   <i name="ENMAX">    300.00000000</i>
   <i name="ENAUG">    342.92400000</i>
   <i name="EDIFF">      0.00000100</i>
   <i type="int" name="IALGO">    38</i>
   <i type="int" name="IWAVPR">    10</i>
   <i type="int" name="NBANDS">    68</i>
   <i name="NELECT">    108.00000000</i>
   <i type="int" name="TURBO">     0</i>
   <i type="int" name="IRESTART">     0</i>
   <i type="int" name="NREBOOT">     0</i>
   <i type="int" name="NMIN">     0</i>
   <i name="EREF">      0.00000000</i>
   <separator name="electronic smearing" >
    <i type="int" name="ISMEAR">     0</i>
    <i name="SIGMA">      0.10000000</i>
    <i name="KSPACING">      0.50000000</i>
    <i type="logical" name="KGAMMA"> T  </i>
   </separator>
   <separator name="electronic projectors" >
    <i type="logical" name="LREAL"> T  </i>
    <v name="ROPT">     -0.00025000     -0.00025000</v>
    <i type="int" name="LMAXPAW">  -100</i>
    <i type="int" name="LMAXMIX">     2</i>
    <i type="logical" name="NLSPLINE"> F  </i>
   </separator>
   <separator name="electronic startup" >
    <i type="int" name="ISTART">     0</i>
    <i type="int" name="ICHARG">     2</i>
    <i type="int" name="INIWAV">     1</i>
   </separator>
   <separator name="electronic spin" >
    <i type="int" name="ISPIN">     1</i>
    <i type="logical" name="LNONCOLLINEAR"> F  </i>
    <v name="MAGMOM">      1.00000000      1.00000000      1.00000000      1.00000000      1.00000000      1.00000000      1.00000000      1.00000000      1.00000000      1.00000000      1.00000000      1.00000000      1.00000000      1.00000000      1.00000000      1.00000000      1.00000000      1.00000000      1.00000000      1.00000000
      1.00000000      1.00000000      1.00000000      1.00000000</v>
    <i name="NUPDOWN">     -1.00000000</i>
    <i type="logical" name="LSORBIT"> F  </i>
    <v name="SAXIS">      0.00000000      0.00000000      1.00000000</v>
    <i type="logical" name="LSPIRAL"> F  </i>
    <v name="QSPIRAL">      0.00000000      0.00000000      0.00000000</v>
    <i type="logical" name="LZEROZ"> F  </i>
   </separator>
   <separator name="electronic exchange-correlation" >
    <i type="logical" name="LASPH"> F  </i>
    <i type="logical" name="LMETAGGA"> F  </i>
   </separator>
   <separator name="electronic convergence" >
    <i type="int" name="NELM">    60</i>
    <i type="int" name="NELMDL">    -5</i>
    <i type="int" name="NELMIN">     2</i>
    <i name="ENINI">    300.00000000</i>
    <separator name="electronic convergence detail" >
     <i type="logical" name="LDIAG"> T  </i>
     <i type="logical" name="LSUBROT"> F  </i>
     <i name="WEIMIN">      0.00000000</i>
     <i name="EBREAK">      0.00000000</i>
     <i name="DEPER">      0.30000000</i>
     <i type="int" name="NRMM">     4</i>
     <i name="TIME">      0.40000000</i>
    </separator>
   </separator>
   <separator name="electronic mixer" >
    <i name="AMIX">      0.40000000</i>
    <i name="BMIX">      1.00000000</i>
    <i name="AMIN">      0.10000000</i>
    <i name="AMIX_MAG">      1.60000000</i>
    <i name="BMIX_MAG">      1.00000000</i>
    <separator name="electronic mixer details" >
     <i type="int" name="IMIX">     4</i>
     <i type="int" name="MAXMIX">   -45</i>
     <i name="WC">    100.00000000</i>
     <i type="int" name="INIMIX">     1</i>
     <i type="int" name="MIXPRE">     1</i>
     <i type="int" name="MREMOVE">     5</i>
    </separator>
   </separator>
   <separator name="electronic dipolcorrection" >
    <i type="logical" name="LDIPOL"> F  </i>
    <i type="logical" name="LMONO"> F  </i>
    <i type="int" name="IDIPOL">     0</i>
    <i name="EPSILON">      1.00000000</i>
    <v name="DIPOL">   -100.00000000   -100.00000000   -100.00000000</v>
    <i name="EFIELD">      0.00000000</i>
   </separator>
  </separator>
  <separator name="grids" >
   <i type="int" name="NGX">    20</i>
   <i type="int" name="NGY">    60</i>
   <i type="int" name="NGZ">   160</i>
   <i type="int" name="NGXF">    40</i>
   <i type="int" name="NGYF">   120</i>
   <i type="int" name="NGZF">   320</i>
   <i type="logical" name="ADDGRID"> F  </i>
  </separator>
  <separator name="ionic" >
   <i type="int" name="NSW">     0</i>
   <i type="int" name="IBRION">    -1</i>
   <i type="int" name="ISIF">     3</i>
   <i name="PSTRESS">      0.00000000</i>
   <i name="EDIFFG">      0.00001000</i>
   <i type="int" name="NFREE">     1</i>
   <i name="POTIM">      0.50000000</i>
   <i name="SMASS">     -3.00000000</i>
   <i name="SCALEE">      1.00000000</i>
  </separator>
  <separator name="ionic md" >
   <i name="TEBEG">      0.00010000</i>
   <i name="TEEND">      0.00010000</i>
   <i type="int" name="NBLOCK">     1</i>
   <i type="int" name="KBLOCK">     1</i>
   <i type="int" name="NPACO">   256</i>
   <i name="APACO">     16.00000000</i>
  </separator>
  <separator name="symmetry" >
   <i type="int" name="ISYM">     2</i>
   <i name="SYMPREC">      0.00001000</i>
  </separator>
  <separator name="dos" >
   <i type="logical" name="LORBIT"> F  </i>
   <v name="RWIGS">     -1.00000000     -1.00000000</v>
   <i type="int" name="NEDOS">   301</i>
   <i name="EMIN">     10.00000000</i>
   <i name="EMAX">    -10.00000000</i>
   <i name="EFERMI">      0.00000000</i>
  </separator>
  <separator name="writing" >
   <i type="int" name="NWRITE">     2</i>
   <i type="logical" name="LWAVE"> F  </i>
   <i type="logical" name="LCHARG"> F  </i>
   <i type="logical" name="LPARD"> F  </i>
   <i type="logical" name="LVTOT"> F  </i>
   <i type="logical" name="LVHAR"> F  </i>
   <i type="logical" name="LELF"> F  </i>
   <i type="logical" name="LOPTICS"> F  </i>
   <v name="STM">      0.00000000      0.00000000      0.00000000      0.00000000      0.00000000      0.00000000      0.00000000</v>
  </separator>
  <separator name="performance" >
   <i type="int" name="NPAR">     4</i>
   <i type="int" name="NSIM">     4</i>
   <i type="int" name="NBLK">    -1</i>
   <i type="logical" name="LPLANE"> T  </i>
   <i type="logical" name="LSCALAPACK"> T  </i>
   <i type="logical" name="LSCAAWARE"> F  </i>
   <i type="logical" name="LSCALU"> F  </i>
   <i type="logical" name="LASYNC"> F  </i>
   <i type="logical" name="LORBITALREAL"> F  </i>
  </separator>
  <separator name="miscellaneous" >
   <i type="int" name="IDIOT">     3</i>
   <i type="logical" name="LMUSIC"> F  </i>
   <v name="POMASS">     30.97400000     28.08500000</v>
   <v name="DARWINR">      0.00000000      0.00000000</v>
   <v name="DARWINV">      1.00000000      1.00000000</v>
   <i type="logical" name="LCORR"> T  </i>
  </separator>
  <i type="logical" name="GGA_COMPAT"> T  </i>
  <i type="logical" name="LBERRY"> F  </i>
  <i type="int" name="ICORELEVEL">     0</i>
  <i type="logical" name="LDAU"> F  </i>
  <i type="int" name="I_CONSTRAINED_M">     0</i>
  <separator name="electronic exchange-correlation" >
   <i type="string" name="GGA">BO</i>
   <i type="int" name="VOSKOWN">     0</i>
   <i type="logical" name="LHFCALC"> F  </i>
   <i type="string" name="PRECFOCK"></i>
   <i type="logical" name="LSYMGRAD"> F  </i>
   <i type="logical" name="LHFONE"> F  </i>
   <i type="logical" name="LRHFCALC"> F  </i>
   <i type="logical" name="LTHOMAS"> F  </i>
   <i type="logical" name="LMODELHF"> F  </i>
   <i name="ENCUT4O">     -1.00000000</i>
   <i type="int" name="EXXOEP">     0</i>
   <i type="int" name="FOURORBIT">     0</i>
   <i name="AEXX">      0.00000000</i>
   <i name="HFALPHA">      0.00000000</i>
   <i name="MCALPHA">      0.00000000</i>
   <i name="ALDAX">      1.00000000</i>
   <i name="AGGAX">      1.00000000</i>
   <i name="ALDAC">      1.00000000</i>
   <i name="AGGAC">      0.00000000</i>
   <i type="int" name="NKREDX">     1</i>
   <i type="int" name="NKREDY">     1</i>
   <i type="int" name="NKREDZ">     1</i>
   <i type="logical" name="SHIFTRED"> F  </i>
   <i type="logical" name="ODDONLY"> F  </i>
   <i type="logical" name="EVENONLY"> F  </i>
   <i type="int" name="LMAXFOCK">     0</i>
   <i type="int" name="NMAXFOCKAE">     0</i>
   <i type="logical" name="LFOCKAEDFT"> F  </i>
   <i name="HFSCREEN">      0.00000000</i>
   <i name="HFSCREENC">      0.00000000</i>
   <i type="int" name="NBANDSGWLOW">     0</i>
  </separator>
  <separator name="vdW DFT" >
   <i type="logical" name="LUSE_VDW"> T  </i>
   <i name="Zab_VDW">     -0.84910000</i>
   <i name="PARAM1">      0.18333333</i>
   <i name="PARAM2">      0.22000000</i>
   <i name="PARAM3">      0.00000000</i>
  </separator>
  <separator name="model GW" >
   <i type="int" name="MODEL_GW">     0</i>
   <i name="MODEL_EPS0">     25.05800243</i>
   <i name="MODEL_ALPHA">      1.00000000</i>
  </separator>
  <separator name="linear response parameters" >
   <i type="logical" name="LEPSILON"> F  </i>
   <i type="logical" name="LRPA"> F  </i>
   <i type="logical" name="LNABLA"> F  </i>
   <i type="logical" name="LVEL"> F  </i>
   <i type="int" name="KINTER">     0</i>
   <i name="CSHIFT">      0.10000000</i>
   <i name="OMEGAMAX">     -1.00000000</i>
   <i name="DEG_THRESHOLD">      0.00200000</i>
  </separator>
  <separator name="orbital magnetization" >
   <i type="logical" name="NUCIND"> F  </i>
   <v name="MAGPOS">      0.00000000      0.00000000      0.00000000</v>
   <i type="logical" name="LNICSALL"> T  </i>
   <i type="logical" name="ORBITALMAG"> F  </i>
   <i type="logical" name="LMAGBLOCH"> F  </i>
   <i type="logical" name="LCHIMAG"> F  </i>
   <i type="logical" name="LGAUGE"> T  </i>
   <i type="int" name="MAGATOM">     0</i>
   <v name="MAGDIPOL">      0.00000000      0.00000000      0.00000000</v>
   <v name="AVECCONST">      0.00000000      0.00000000      0.00000000</v>
  </separator>
  <separator name="response functions" >
   <i type="logical" name="LADDER"> F  </i>
   <i type="logical" name="LFXC"> F  </i>
   <i type="logical" name="LHARTREE"> T  </i>
   <i type="int" name="IBSE">     0</i>
   <i type="logical" name="LTCTE"> F  </i>
   <i type="logical" name="LTETE"> F  </i>
   <i type="logical" name="LTRIPLET"> F  </i>
   <i type="logical" name="LFXCEPS"> F  </i>
   <i type="logical" name="LFXHEG"> F  </i>
   <i type="logical" name="L2ORDER"> F  </i>
   <i type="logical" name="LUSEW"> F  </i>
   <i name="ENCUTGW">     -2.00000000</i>
   <i name="ENCUTGWSOFT">     -2.00000000</i>
   <i name="ENCUTLF">     -1.00000000</i>
   <i type="int" name="LMAXMP2">    -1</i>
   <i name="SCISSOR">      0.00000000</i>
   <i type="int" name="NOMEGA">     0</i>
   <i type="int" name="NOMEGAR">     0</i>
   <i type="int" name="NBANDSGW">    -1</i>
   <i type="int" name="NBANDSO">    -1</i>
   <i type="int" name="NBANDSV">    -1</i>
   <i type="int" name="NELM">     1</i>
   <i type="int" name="DIM">     3</i>
   <i type="int" name="ANTIRES">     0</i>
   <i name="OMEGAMAX">    -30.00000000</i>
   <i name="OMEGAMIN">    -30.00000000</i>
   <i name="OMEGATL">   -200.00000000</i>
   <i type="int" name="OMEGAGRID">     0</i>
   <i name="CSHIFT">     -0.10000000</i>
   <i type="logical" name="SELFENERGY"> F  </i>
   <i type="logical" name="LSPECTRAL"> F  </i>
   <i type="logical" name="ODDONLYGW"> F  </i>
   <i type="logical" name="EVENONLYGW"> F  </i>
   <i type="int" name="NKREDLFX">     1</i>
   <i type="int" name="NKREDLFY">     1</i>
   <i type="int" name="NKREDLFZ">     1</i>
   <i type="int" name="MAXMEM">  1800</i>
   <i type="int" name="TELESCOPE">     0</i>
   <i type="int" name="TAUPAR">     1</i>
  </separator>
  <separator name="External order field" >
   <i name="OFIELD_KAPPA">      0.00000000</i>
   <v name="OFIELD_K">      0.00000000      0.00000000      0.00000000</v>
   <i name="OFIELD_Q6_NEAR">      0.00000000</i>
   <i name="OFIELD_Q6_FAR">      0.00000000</i>
   <i name="OFIELD_A">      0.00000000</i>
  </separator>
 </parameters>
 <atominfo>
  <atoms>      24 </atoms>
  <types>       2 </types>
  <array name="atoms" >
   <dimension dim="1">ion</dimension>
   <field type="string">element</field>
   <field type="int">atomtype</field>
   <set>
    <rc><c>P </c><c>   1</c></rc>
    <rc><c>P </c><c>   1</c></rc>
    <rc><c>P </c><c>   1</c></rc>
    <rc><c>P </c><c>   1</c></rc>
    <rc><c>P </c><c>   1</c></rc>
    <rc><c>P </c><c>   1</c></rc>
    <rc><c>P </c><c>   1</c></rc>
    <rc><c>P </c><c>   1</c></rc>
    <rc><c>P </c><c>   1</c></rc>
    <rc><c>P </c><c>   1</c></rc>
    <rc><c>P </c><c>   1</c></rc>
    <rc><c>P </c><c>   1</c></rc>
    <rc><c>Si</c><c>   2</c></rc>
    <rc><c>Si</c><c>   2</c></rc>
    <rc><c>Si</c><c>   2</c></rc>
    <rc><c>Si</c><c>   2</c></rc>
    <rc><c>Si</c><c>   2</c></rc>
    <rc><c>Si</c><c>   2</c></rc>
    <rc><c>Si</c><c>   2</c></rc>
    <rc><c>Si</c><c>   2</c></rc>
    <rc><c>Si</c><c>   2</c></rc>
    <rc><c>Si</c><c>   2</c></rc>
    <rc><c>Si</c><c>   2</c></rc>
    <rc><c>Si</c><c>   2</c></rc>
   </set>
  </array>
  <array name="atomtypes" >
   <dimension dim="1">type</dimension>
   <field type="int">atomspertype</field>
   <field type="string">element</field>
   <field>mass</field>
   <field>valence</field>
   <field type="string">pseudopotential</field>
   <set>
    <rc><c>  12</c><c>P </c><c>     30.97400000</c><c>      5.00000000</c><c>  PAW_PBE P 17Jan2003                   </c></rc>
    <rc><c>  12</c><c>Si</c><c>     28.08500000</c><c>      4.00000000</c><c> PAW_PBE Si 05Jan2001                   </c></rc>
   </set>
  </array>
 </atominfo>
 <structure name="initialpos" >
  <crystal>
   <varray name="basis" >
    <v>       3.54040000       0.00000000       0.00000000 </v>
    <v>      -1.77020000      10.29434800       0.00000000 </v>
    <v>       0.00000000       0.00000000      27.50142900 </v>
   </varray>
   <i name="volume">   1002.32009712 </i>
   <varray name="rec_basis" >
    <v>       0.28245396       0.04857034       0.00000000 </v>
    <v>       0.00000000       0.09714068       0.00000000 </v>
    <v>       0.00000000       0.00000000       0.03636175 </v>
   </varray>
  </crystal>
  <varray name="positions" >
   <v>       0.11402300       0.22804500       0.23316207 </v>
   <v>       0.31402300       0.82804500       0.51499159 </v>
   <v>       0.45808900       0.91617900       0.20939482 </v>
   <v>       0.65808900       0.51617900       0.49122434 </v>
   <v>       0.31085400       0.62170900       0.08414979 </v>
   <v>       0.31085400       0.62170900       0.36597930 </v>
   <v>       0.99923000       0.99846000       0.08631254 </v>
   <v>       0.99923000       0.99846000       0.36814206 </v>
   <v>       0.65492700       0.30985400       0.06041748 </v>
   <v>       0.65492700       0.30985400       0.34224700 </v>
   <v>       0.76973800       0.53947500       0.20725292 </v>
   <v>       0.96973800       0.13947500       0.48908244 </v>
   <v>       0.93971600       0.87943300       0.15783749 </v>
   <v>       0.13971600       0.47943300       0.43966701 </v>
   <v>       0.20515200       0.41030300       0.18578822 </v>
   <v>       0.40515200       0.01030300       0.46761774 </v>
   <v>       0.20184900       0.40369900       0.09969156 </v>
   <v>       0.20184900       0.40369900       0.38152107 </v>
   <v>       0.56380500       0.12761000       0.10779021 </v>
   <v>       0.56380500       0.12761000       0.38961973 </v>
   <v>       0.56710600       0.13421200       0.19387616 </v>
   <v>       0.76710600       0.73421200       0.47570568 </v>
   <v>       0.82923400       0.65846800       0.13571444 </v>
   <v>       0.02923400       0.25846800       0.41754396 </v>
  </varray>
 </structure>
 <calculation>
  <scstep>
   <time name="dav">   69.84   70.00</time>
   <time name="total">   86.50   86.75</time>
   <energy>
    <i name="alphaZ">     36.80884744 </i>
    <i name="ewald">  12026.84462832 </i>
    <i name="hartreedc"> -15057.61151295 </i>
    <i name="XCdc">    -86.94518715 </i>
    <i name="pawpsdc">   1056.43050070 </i>
    <i name="pawaedc">   -732.41190547 </i>
    <i name="eentropy">     -0.04217726 </i>
    <i name="bandstr">    -95.43307020 </i>
    <i name="atom">   3354.04126044 </i>
    <i name="e_fr_energy">    501.68138389 </i>
    <i name="e_wo_entrp">    501.72356115 </i>
    <i name="e_0_energy">    501.70247252 </i>
   </energy>
  </scstep>
  <scstep>
   <time name="dav">   87.36   87.66</time>
   <time name="total">   87.37   87.68</time>
   <energy>
    <i name="e_fr_energy">    -62.34704538 </i>
    <i name="e_wo_entrp">    -62.32559589 </i>
    <i name="e_0_energy">    -62.33632064 </i>
   </energy>
  </scstep>
  <scstep>
   <time name="dav">   80.95   81.13</time>
   <time name="total">   80.96   81.14</time>
   <energy>
    <i name="e_fr_energy">   -118.94331982 </i>
    <i name="e_wo_entrp">   -118.92344450 </i>
    <i name="e_0_energy">   -118.93338216 </i>
   </energy>
  </scstep>
  <scstep>
   <time name="dav">   96.72   96.97</time>
   <time name="total">   96.73   96.98</time>
   <energy>
    <i name="e_fr_energy">   -121.53748409 </i>
    <i name="e_wo_entrp">   -121.51736597 </i>
    <i name="e_0_energy">   -121.52742503 </i>
   </energy>
  </scstep>
  <scstep>
   <time name="dav">   90.94   91.13</time>
   <time name="total">   95.42   95.63</time>
   <energy>
    <i name="e_fr_energy">   -121.60463163 </i>
    <i name="e_wo_entrp">   -121.58444387 </i>
    <i name="e_0_energy">   -121.59453775 </i>
   </energy>
  </scstep>
  <scstep>
   <time name="dav">   81.48   81.74</time>
   <time name="total">  101.27  101.61</time>
   <energy>
    <i name="e_fr_energy">   -118.49566622 </i>
    <i name="e_wo_entrp">   -118.45810887 </i>
    <i name="e_0_energy">   -118.47688754 </i>
   </energy>
  </scstep>
  <scstep>
   <time name="dav">   81.59   81.86</time>
   <time name="total">  100.73  101.11</time>
   <energy>
    <i name="e_fr_energy">   -118.39388573 </i>
    <i name="e_wo_entrp">   -118.37602388 </i>
    <i name="e_0_energy">   -118.38495480 </i>
   </energy>
  </scstep>
  <scstep>
   <time name="dav">   81.51   81.72</time>
   <time name="total">  100.66  101.00</time>
   <energy>
    <i name="e_fr_energy">   -118.19446662 </i>
    <i name="e_wo_entrp">   -118.16427808 </i>
    <i name="e_0_energy">   -118.17937235 </i>
   </energy>
  </scstep>
  <scstep>
   <time name="dav">   81.70   81.96</time>
   <time name="total">  101.03  101.35</time>
   <energy>
    <i name="e_fr_energy">   -118.20323838 </i>
    <i name="e_wo_entrp">   -118.17083182 </i>
    <i name="e_0_energy">   -118.18703510 </i>
   </energy>
  </scstep>
  <scstep>
   <time name="dav">   79.77   80.18</time>
   <time name="total">   99.00   99.46</time>
   <energy>
    <i name="e_fr_energy">   -118.17810238 </i>
    <i name="e_wo_entrp">   -118.14620594 </i>
    <i name="e_0_energy">   -118.16215416 </i>
   </energy>
  </scstep>
  <scstep>
   <time name="dav">   82.54   82.80</time>
   <time name="total">  101.83  102.15</time>
   <energy>
    <i name="e_fr_energy">   -118.16672586 </i>
    <i name="e_wo_entrp">   -118.13539750 </i>
    <i name="e_0_energy">   -118.15106168 </i>
   </energy>
  </scstep>
  <scstep>
   <time name="dav">   83.35   83.61</time>
   <time name="total">  102.94  103.24</time>
   <energy>
    <i name="e_fr_energy">   -118.16179369 </i>
    <i name="e_wo_entrp">   -118.12995175 </i>
    <i name="e_0_energy">   -118.14587272 </i>
   </energy>
  </scstep>
  <scstep>
   <time name="dav">   86.41   86.78</time>
   <time name="total">  106.07  106.50</time>
   <energy>
    <i name="e_fr_energy">   -118.15639116 </i>
    <i name="e_wo_entrp">   -118.12480781 </i>
    <i name="e_0_energy">   -118.14059949 </i>
   </energy>
  </scstep>
  <scstep>
   <time name="dav">   91.19   91.46</time>
   <time name="total">  113.28  113.65</time>
   <energy>
    <i name="e_fr_energy">   -118.15380875 </i>
    <i name="e_wo_entrp">   -118.12220747 </i>
    <i name="e_0_energy">   -118.13800811 </i>
   </energy>
  </scstep>
  <scstep>
   <time name="dav">   84.84   85.15</time>
   <time name="total">  105.31  105.70</time>
   <energy>
    <i name="e_fr_energy">   -118.15261318 </i>
    <i name="e_wo_entrp">   -118.12094265 </i>
    <i name="e_0_energy">   -118.13677791 </i>
   </energy>
  </scstep>
  <scstep>
   <time name="dav">   74.15   74.41</time>
   <time name="total">   93.53   93.85</time>
   <energy>
    <i name="e_fr_energy">   -118.15230912 </i>
    <i name="e_wo_entrp">   -118.12065626 </i>
    <i name="e_0_energy">   -118.13648269 </i>
   </energy>
  </scstep>
  <scstep>
   <time name="dav">   79.44   79.62</time>
   <time name="total">   99.26   99.48</time>
   <energy>
    <i name="e_fr_energy">   -118.15248557 </i>
    <i name="e_wo_entrp">   -118.12085014 </i>
    <i name="e_0_energy">   -118.13666786 </i>
   </energy>
  </scstep>
  <scstep>
   <time name="dav">   78.96   79.15</time>
   <time name="total">   98.64   98.89</time>
   <energy>
    <i name="e_fr_energy">   -118.15300059 </i>
    <i name="e_wo_entrp">   -118.12136470 </i>
    <i name="e_0_energy">   -118.13718265 </i>
   </energy>
  </scstep>
  <scstep>
   <time name="dav">   85.79   86.14</time>
   <time name="total">  105.23  105.62</time>
   <energy>
    <i name="e_fr_energy">   -118.15320005 </i>
    <i name="e_wo_entrp">   -118.12155474 </i>
    <i name="e_0_energy">   -118.13737739 </i>
   </energy>
  </scstep>
  <scstep>
   <time name="dav">   69.25   69.54</time>
   <time name="total">   88.49   88.82</time>
   <energy>
    <i name="e_fr_energy">   -118.15327288 </i>
    <i name="e_wo_entrp">   -118.12162798 </i>
    <i name="e_0_energy">   -118.13745043 </i>
   </energy>
  </scstep>
  <scstep>
   <time name="dav">   68.17   68.45</time>
   <time name="total">   87.86   88.20</time>
   <energy>
    <i name="e_fr_energy">   -118.15329713 </i>
    <i name="e_wo_entrp">   -118.12165549 </i>
    <i name="e_0_energy">   -118.13747631 </i>
   </energy>
  </scstep>
  <scstep>
   <time name="dav">   70.60   70.90</time>
   <time name="total">   89.93   90.28</time>
   <energy>
    <i name="e_fr_energy">   -118.15327256 </i>
    <i name="e_wo_entrp">   -118.12163106 </i>
    <i name="e_0_energy">   -118.13745181 </i>
   </energy>
  </scstep>
  <scstep>
   <time name="dav">   72.73   72.96</time>
   <time name="total">   92.28   92.57</time>
   <energy>
    <i name="e_fr_energy">   -118.15323664 </i>
    <i name="e_wo_entrp">   -118.12159465 </i>
    <i name="e_0_energy">   -118.13741564 </i>
   </energy>
  </scstep>
  <scstep>
   <time name="dav">   67.60   67.77</time>
   <time name="total">   87.83   88.05</time>
   <energy>
    <i name="e_fr_energy">   -118.15315525 </i>
    <i name="e_wo_entrp">   -118.12151241 </i>
    <i name="e_0_energy">   -118.13733383 </i>
   </energy>
  </scstep>
  <scstep>
   <time name="dav">   61.87   62.05</time>
   <time name="total">   80.94   81.17</time>
   <energy>
    <i name="e_fr_energy">   -118.15314725 </i>
    <i name="e_wo_entrp">   -118.12150465 </i>
    <i name="e_0_energy">   -118.13732595 </i>
   </energy>
  </scstep>
  <scstep>
   <time name="dav">   71.76   72.03</time>
   <time name="total">   90.70   91.07</time>
   <energy>
    <i name="e_fr_energy">   -118.15313292 </i>
    <i name="e_wo_entrp">   -118.12149033 </i>
    <i name="e_0_energy">   -118.13731162 </i>
   </energy>
  </scstep>
  <scstep>
   <time name="dav">   64.67   64.81</time>
   <time name="total">   83.81   84.00</time>
   <energy>
    <i name="e_fr_energy">   -118.15313729 </i>
    <i name="e_wo_entrp">   -118.12149478 </i>
    <i name="e_0_energy">   -118.13731604 </i>
   </energy>
  </scstep>
  <scstep>
   <time name="dav">   63.81   63.93</time>
   <time name="total">   78.54   78.72</time>
   <energy>
    <i name="alphaZ">     36.80884744 </i>
    <i name="ewald">  12026.84462832 </i>
    <i name="hartreedc"> -15158.53010478 </i>
    <i name="XCdc">    -79.42094398 </i>
    <i name="pawpsdc">   1168.70995284 </i>
    <i name="pawaedc">   -848.05829590 </i>
    <i name="eentropy">     -0.03164251 </i>
    <i name="bandstr">   -618.51683923 </i>
    <i name="atom">   3354.04126044 </i>
    <i name="e_fr_energy">   -118.15313735 </i>
    <i name="e_wo_entrp">   -118.12149485 </i>
    <i name="e_0_energy">   -118.13731610 </i>
   </energy>
  </scstep>
  <structure>
   <crystal>
    <varray name="basis" >
     <v>       3.54040000       0.00000000       0.00000000 </v>
     <v>      -1.77020000      10.29434800       0.00000000 </v>
     <v>       0.00000000       0.00000000      27.50142900 </v>
    </varray>
    <i name="volume">   1002.32009712 </i>
    <varray name="rec_basis" >
     <v>       0.28245396       0.04857034       0.00000000 </v>
     <v>       0.00000000       0.09714068       0.00000000 </v>
     <v>       0.00000000       0.00000000       0.03636175 </v>
    </varray>
   </crystal>
   <varray name="positions" >
    <v>       0.11402300       0.22804500       0.23316207 </v>
    <v>       0.31402300       0.82804500       0.51499159 </v>
    <v>       0.45808900       0.91617900       0.20939482 </v>
    <v>       0.65808900       0.51617900       0.49122434 </v>
    <v>       0.31085400       0.62170900       0.08414979 </v>
    <v>       0.31085400       0.62170900       0.36597930 </v>
    <v>       0.99923000       0.99846000       0.08631254 </v>
    <v>       0.99923000       0.99846000       0.36814206 </v>
    <v>       0.65492700       0.30985400       0.06041748 </v>
    <v>       0.65492700       0.30985400       0.34224700 </v>
    <v>       0.76973800       0.53947500       0.20725292 </v>
    <v>       0.96973800       0.13947500       0.48908244 </v>
    <v>       0.93971600       0.87943300       0.15783749 </v>
    <v>       0.13971600       0.47943300       0.43966701 </v>
    <v>       0.20515200       0.41030300       0.18578822 </v>
    <v>       0.40515200       0.01030300       0.46761774 </v>
    <v>       0.20184900       0.40369900       0.09969156 </v>
    <v>       0.20184900       0.40369900       0.38152107 </v>
    <v>       0.56380500       0.12761000       0.10779021 </v>
    <v>       0.56380500       0.12761000       0.38961973 </v>
    <v>       0.56710600       0.13421200       0.19387616 </v>
    <v>       0.76710600       0.73421200       0.47570568 </v>
    <v>       0.82923400       0.65846800       0.13571444 </v>
    <v>       0.02923400       0.25846800       0.41754396 </v>
   </varray>
  </structure>
  <varray name="forces" >
   <v>       0.03280057      -0.00993296       0.05249125 </v>
   <v>      -0.08958843      -0.17491201      -0.42210360 </v>
   <v>       0.00120746      -0.00996486       0.08046169 </v>
   <v>       0.07408582      -0.24342831       0.43982601 </v>
   <v>       0.00086675      -0.00192502       0.00188622 </v>
   <v>      -0.25940201      -0.73973255       1.37551058 </v>
   <v>       0.00546226      -0.00085755       0.00144283 </v>
   <v>       0.41145324      -0.23795444       0.02096882 </v>
   <v>       0.00109262      -0.00345853       0.01619826 </v>
   <v>       0.79295772       0.72431972      -1.81209112 </v>
   <v>      -0.00134589       0.00637403       0.09274915 </v>
   <v>       0.42247265       0.25151948       1.75886933 </v>
   <v>       0.00197031      -0.00394652       0.00501698 </v>
   <v>      -2.76869393       8.04846108      12.03048963 </v>
   <v>       0.00103014       0.02550218       0.06008547 </v>
   <v>      -0.62766818       0.32508462       0.35725632 </v>
   <v>      -0.00192732       0.00400600      -0.02152527 </v>
   <v>       5.31815865       4.20392206     -19.59288249 </v>
   <v>       0.00440845      -0.00869763      -0.02550321 </v>
   <v>      -2.37481993      -2.90016216      -2.67115817 </v>
   <v>      -0.00693386      -0.04198572       0.02647995 </v>
   <v>      -0.06491545       0.05574301      -0.34882497 </v>
   <v>       0.00174712       0.00422163      -0.00437032 </v>
   <v>      -0.87441876      -9.27219555       8.57872667 </v>
  </varray>
  <varray name="stress" >
   <v>       8.17075931       5.99450815     -11.87294618 </v>
   <v>       5.99450815      36.40985025       5.04830671 </v>
   <v>     -11.87294595       5.04830663      49.64349935 </v>
  </varray>
  <energy>
   <i name="e_fr_energy">   -118.15313735 </i>
   <i name="e_wo_entrp">   -118.13731610 </i>
   <i name="e_0_energy">     -0.03164251 </i>
  </energy>
  <time name="totalsc"> 2781.91 2791.02</time>
  <eigenvalues>
   <array>
    <dimension dim="1">band</dimension>
    <dimension dim="2">kpoint</dimension>
    <dimension dim="3">spin</dimension>
    <field>eigene</field>
    <field>occ</field>
    <set>
     <set comment="spin 1">
      <set comment="kpoint 1">
       <r>  -14.8129    1.0000 </r>
       <r>  -13.5655    1.0000 </r>
       <r>  -13.0019    1.0000 </r>
       <r>  -12.8940    1.0000 </r>
       <r>  -12.8244    1.0000 </r>
       <r>  -12.5084    1.0000 </r>
       <r>  -12.1126    1.0000 </r>
       <r>  -11.6482    1.0000 </r>
       <r>  -11.4579    1.0000 </r>
       <r>  -11.2567    1.0000 </r>
       <r>  -11.0164    1.0000 </r>
       <r>  -10.5565    1.0000 </r>
       <r>   -9.5125    1.0000 </r>
       <r>   -8.0808    1.0000 </r>
       <r>   -8.0208    1.0000 </r>
       <r>   -7.8529    1.0000 </r>
       <r>   -6.8587    1.0000 </r>
       <r>   -6.5742    1.0000 </r>
       <r>   -6.5161    1.0000 </r>
       <r>   -5.9989    1.0000 </r>
       <r>   -5.8469    1.0000 </r>
       <r>   -5.3322    1.0000 </r>
       <r>   -5.0506    1.0000 </r>
       <r>   -4.8099    1.0000 </r>
       <r>   -4.6353    1.0000 </r>
       <r>   -4.0017    1.0000 </r>
       <r>   -3.7809    1.0000 </r>
       <r>   -3.6882    1.0000 </r>
       <r>   -3.2393    1.0000 </r>
       <r>   -3.0825    1.0000 </r>
       <r>   -3.0815    1.0000 </r>
       <r>   -3.0106    1.0000 </r>
       <r>   -2.8975    1.0000 </r>
       <r>   -2.8676    1.0000 </r>
       <r>   -2.5054    1.0000 </r>
       <r>   -2.4321    1.0000 </r>
       <r>   -2.4179    1.0000 </r>
       <r>   -2.2874    1.0000 </r>
       <r>   -2.1157    1.0000 </r>
       <r>   -2.1019    1.0000 </r>
       <r>   -2.0099    1.0000 </r>
       <r>   -1.8931    1.0000 </r>
       <r>   -1.7538    1.0000 </r>
       <r>   -1.6683    1.0000 </r>
       <r>   -1.6225    1.0000 </r>
       <r>   -1.5110    1.0000 </r>
       <r>   -1.4577    1.0000 </r>
       <r>   -1.4300    1.0000 </r>
       <r>   -1.2350    1.0000 </r>
       <r>   -1.0740    1.0000 </r>
       <r>   -0.9571    1.0000 </r>
       <r>   -0.4423    1.0000 </r>
       <r>   -0.1329    0.9883 </r>
       <r>    0.2752    0.0002 </r>
       <r>    0.4664    0.0000 </r>
       <r>    0.6839    0.0000 </r>
       <r>    0.7915    0.0000 </r>
       <r>    1.1460    0.0000 </r>
       <r>    1.2945    0.0000 </r>
       <r>    1.4909    0.0000 </r>
       <r>    1.6576    0.0000 </r>
       <r>    1.9075    0.0000 </r>
       <r>    1.9654    0.0000 </r>
       <r>    2.0109    0.0000 </r>
       <r>    2.1204    0.0000 </r>
       <r>    2.3731    0.0000 </r>
       <r>    2.4080    0.0000 </r>
       <r>    2.4360    0.0000 </r>
      </set>
      <set comment="kpoint 2">
       <r>  -14.7575    1.0000 </r>
       <r>  -13.5042    1.0000 </r>
       <r>  -12.9601    1.0000 </r>
       <r>  -12.8201    1.0000 </r>
       <r>  -12.7722    1.0000 </r>
       <r>  -12.4528    1.0000 </r>
       <r>  -12.0504    1.0000 </r>
       <r>  -11.6057    1.0000 </r>
       <r>  -11.4089    1.0000 </r>
       <r>  -11.2040    1.0000 </r>
       <r>  -10.9680    1.0000 </r>
       <r>  -10.5258    1.0000 </r>
       <r>   -9.5074    1.0000 </r>
       <r>   -8.1006    1.0000 </r>
       <r>   -7.9957    1.0000 </r>
       <r>   -7.8145    1.0000 </r>
       <r>   -6.8263    1.0000 </r>
       <r>   -6.6122    1.0000 </r>
       <r>   -6.5108    1.0000 </r>
       <r>   -5.9920    1.0000 </r>
       <r>   -5.8143    1.0000 </r>
       <r>   -5.3854    1.0000 </r>
       <r>   -5.0093    1.0000 </r>
       <r>   -4.8054    1.0000 </r>
       <r>   -4.6937    1.0000 </r>
       <r>   -4.3347    1.0000 </r>
       <r>   -3.7988    1.0000 </r>
       <r>   -3.6998    1.0000 </r>
       <r>   -3.5291    1.0000 </r>
       <r>   -3.4274    1.0000 </r>
       <r>   -3.2933    1.0000 </r>
       <r>   -3.2104    1.0000 </r>
       <r>   -3.1082    1.0000 </r>
       <r>   -3.0035    1.0000 </r>
       <r>   -2.7889    1.0000 </r>
       <r>   -2.6537    1.0000 </r>
       <r>   -2.5187    1.0000 </r>
       <r>   -2.4795    1.0000 </r>
       <r>   -2.2555    1.0000 </r>
       <r>   -2.2257    1.0000 </r>
       <r>   -2.0934    1.0000 </r>
       <r>   -1.9953    1.0000 </r>
       <r>   -1.9845    1.0000 </r>
       <r>   -1.8646    1.0000 </r>
       <r>   -1.8170    1.0000 </r>
       <r>   -1.7555    1.0000 </r>
       <r>   -1.5422    1.0000 </r>
       <r>   -1.4177    1.0000 </r>
       <r>   -1.1993    1.0000 </r>
       <r>   -1.0083    1.0000 </r>
       <r>   -0.8920    1.0000 </r>
       <r>   -0.2976    1.0000 </r>
       <r>   -0.0733    0.9229 </r>
       <r>    0.2830    0.0002 </r>
       <r>    0.5098    0.0000 </r>
       <r>    0.7378    0.0000 </r>
       <r>    0.8524    0.0000 </r>
       <r>    1.4207    0.0000 </r>
       <r>    1.5875    0.0000 </r>
       <r>    1.7393    0.0000 </r>
       <r>    1.9636    0.0000 </r>
       <r>    2.0847    0.0000 </r>
       <r>    2.1474    0.0000 </r>
       <r>    2.2410    0.0000 </r>
       <r>    2.2845    0.0000 </r>
       <r>    2.3425    0.0000 </r>
       <r>    2.5877    0.0000 </r>
       <r>    2.7518    0.0000 </r>
      </set>
      <set comment="kpoint 3">
       <r>  -14.5933    1.0000 </r>
       <r>  -13.3212    1.0000 </r>
       <r>  -12.8223    1.0000 </r>
       <r>  -12.6201    1.0000 </r>
       <r>  -12.6110    1.0000 </r>
       <r>  -12.2881    1.0000 </r>
       <r>  -11.8678    1.0000 </r>
       <r>  -11.4821    1.0000 </r>
       <r>  -11.2668    1.0000 </r>
       <r>  -11.0563    1.0000 </r>
       <r>  -10.8291    1.0000 </r>
       <r>  -10.4402    1.0000 </r>
       <r>   -9.5046    1.0000 </r>
       <r>   -8.1927    1.0000 </r>
       <r>   -7.8850    1.0000 </r>
       <r>   -7.7700    1.0000 </r>
       <r>   -6.8061    1.0000 </r>
       <r>   -6.7371    1.0000 </r>
       <r>   -6.5234    1.0000 </r>
       <r>   -6.0680    1.0000 </r>
       <r>   -5.7428    1.0000 </r>
       <r>   -5.6676    1.0000 </r>
       <r>   -5.0336    1.0000 </r>
       <r>   -4.8961    1.0000 </r>
       <r>   -4.8501    1.0000 </r>
       <r>   -4.5646    1.0000 </r>
       <r>   -4.2330    1.0000 </r>
       <r>   -4.1315    1.0000 </r>
       <r>   -4.1084    1.0000 </r>
       <r>   -3.9986    1.0000 </r>
       <r>   -3.7654    1.0000 </r>
       <r>   -3.6727    1.0000 </r>
       <r>   -3.4691    1.0000 </r>
       <r>   -3.2468    1.0000 </r>
       <r>   -3.1474    1.0000 </r>
       <r>   -3.0130    1.0000 </r>
       <r>   -2.9869    1.0000 </r>
       <r>   -2.8625    1.0000 </r>
       <r>   -2.7728    1.0000 </r>
       <r>   -2.6270    1.0000 </r>
       <r>   -2.4098    1.0000 </r>
       <r>   -2.3810    1.0000 </r>
       <r>   -2.1723    1.0000 </r>
       <r>   -2.0128    1.0000 </r>
       <r>   -1.8949    1.0000 </r>
       <r>   -1.7890    1.0000 </r>
       <r>   -1.6798    1.0000 </r>
       <r>   -1.4137    1.0000 </r>
       <r>   -1.2469    1.0000 </r>
       <r>   -1.0166    1.0000 </r>
       <r>   -0.9035    1.0000 </r>
       <r>   -0.2186    0.9997 </r>
       <r>   -0.0255    0.7731 </r>
       <r>    0.0646    0.2997 </r>
       <r>    0.4360    0.0000 </r>
       <r>    0.8444    0.0000 </r>
       <r>    1.0076    0.0000 </r>
       <r>    1.5343    0.0000 </r>
       <r>    1.7280    0.0000 </r>
       <r>    1.9569    0.0000 </r>
       <r>    2.2302    0.0000 </r>
       <r>    2.4049    0.0000 </r>
       <r>    2.5361    0.0000 </r>
       <r>    2.6107    0.0000 </r>
       <r>    2.6586    0.0000 </r>
       <r>    2.8175    0.0000 </r>
       <r>    2.9363    0.0000 </r>
       <r>    3.0358    0.0000 </r>
      </set>
      <set comment="kpoint 4">
       <r>  -14.3283    1.0000 </r>
       <r>  -13.0202    1.0000 </r>
       <r>  -12.5825    1.0000 </r>
       <r>  -12.3609    1.0000 </r>
       <r>  -12.2979    1.0000 </r>
       <r>  -12.0215    1.0000 </r>
       <r>  -11.5800    1.0000 </r>
       <r>  -11.2950    1.0000 </r>
       <r>  -11.0498    1.0000 </r>
       <r>  -10.8584    1.0000 </r>
       <r>  -10.6257    1.0000 </r>
       <r>  -10.3149    1.0000 </r>
       <r>   -9.5305    1.0000 </r>
       <r>   -8.3840    1.0000 </r>
       <r>   -7.8548    1.0000 </r>
       <r>   -7.7737    1.0000 </r>
       <r>   -7.1728    1.0000 </r>
       <r>   -6.7177    1.0000 </r>
       <r>   -6.6576    1.0000 </r>
       <r>   -6.4989    1.0000 </r>
       <r>   -6.0199    1.0000 </r>
       <r>   -5.7610    1.0000 </r>
       <r>   -5.4154    1.0000 </r>
       <r>   -5.3596    1.0000 </r>
       <r>   -4.8422    1.0000 </r>
       <r>   -4.8247    1.0000 </r>
       <r>   -4.7018    1.0000 </r>
       <r>   -4.6253    1.0000 </r>
       <r>   -4.5313    1.0000 </r>
       <r>   -4.4172    1.0000 </r>
       <r>   -4.2150    1.0000 </r>
       <r>   -4.0398    1.0000 </r>
       <r>   -3.8306    1.0000 </r>
       <r>   -3.7145    1.0000 </r>
       <r>   -3.5921    1.0000 </r>
       <r>   -3.4901    1.0000 </r>
       <r>   -3.2341    1.0000 </r>
       <r>   -3.0219    1.0000 </r>
       <r>   -2.9886    1.0000 </r>
       <r>   -2.7631    1.0000 </r>
       <r>   -2.6142    1.0000 </r>
       <r>   -2.5470    1.0000 </r>
       <r>   -2.4532    1.0000 </r>
       <r>   -2.0176    1.0000 </r>
       <r>   -1.9204    1.0000 </r>
       <r>   -1.8505    1.0000 </r>
       <r>   -1.7585    1.0000 </r>
       <r>   -1.4978    1.0000 </r>
       <r>   -1.4362    1.0000 </r>
       <r>   -1.1343    1.0000 </r>
       <r>   -1.0149    1.0000 </r>
       <r>   -0.5324    1.0000 </r>
       <r>   -0.3065    1.0000 </r>
       <r>   -0.0664    0.9079 </r>
       <r>    0.3213    0.0000 </r>
       <r>    0.7281    0.0000 </r>
       <r>    0.9630    0.0000 </r>
       <r>    1.4746    0.0000 </r>
       <r>    1.8226    0.0000 </r>
       <r>    1.8922    0.0000 </r>
       <r>    2.0482    0.0000 </r>
       <r>    2.2369    0.0000 </r>
       <r>    2.3644    0.0000 </r>
       <r>    2.6221    0.0000 </r>
       <r>    2.7487    0.0000 </r>
       <r>    2.8629    0.0000 </r>
       <r>    2.9180    0.0000 </r>
       <r>    2.9745    0.0000 </r>
      </set>
      <set comment="kpoint 5">
       <r>  -13.9809    1.0000 </r>
       <r>  -12.6084    1.0000 </r>
       <r>  -12.2542    1.0000 </r>
       <r>  -12.0125    1.0000 </r>
       <r>  -11.8956    1.0000 </r>
       <r>  -11.6698    1.0000 </r>
       <r>  -11.2228    1.0000 </r>
       <r>  -11.1029    1.0000 </r>
       <r>  -10.8052    1.0000 </r>
       <r>  -10.7343    1.0000 </r>
       <r>  -10.4397    1.0000 </r>
       <r>  -10.1388    1.0000 </r>
       <r>   -9.5723    1.0000 </r>
       <r>   -8.6791    1.0000 </r>
       <r>   -8.1160    1.0000 </r>
       <r>   -8.0736    1.0000 </r>
       <r>   -7.3330    1.0000 </r>
       <r>   -7.0754    1.0000 </r>
       <r>   -7.0170    1.0000 </r>
       <r>   -6.9230    1.0000 </r>
       <r>   -6.5104    1.0000 </r>
       <r>   -6.1858    1.0000 </r>
       <r>   -5.9897    1.0000 </r>
       <r>   -5.8216    1.0000 </r>
       <r>   -5.2334    1.0000 </r>
       <r>   -5.1916    1.0000 </r>
       <r>   -4.8265    1.0000 </r>
       <r>   -4.7261    1.0000 </r>
       <r>   -4.6062    1.0000 </r>
       <r>   -4.4392    1.0000 </r>
       <r>   -4.3273    1.0000 </r>
       <r>   -4.2440    1.0000 </r>
       <r>   -4.2018    1.0000 </r>
       <r>   -3.9007    1.0000 </r>
       <r>   -3.8650    1.0000 </r>
       <r>   -3.4314    1.0000 </r>
       <r>   -3.3919    1.0000 </r>
       <r>   -3.1094    1.0000 </r>
       <r>   -3.0054    1.0000 </r>
       <r>   -2.9330    1.0000 </r>
       <r>   -2.8077    1.0000 </r>
       <r>   -2.6816    1.0000 </r>
       <r>   -2.5748    1.0000 </r>
       <r>   -2.0895    1.0000 </r>
       <r>   -2.0488    1.0000 </r>
       <r>   -1.9256    1.0000 </r>
       <r>   -1.8988    1.0000 </r>
       <r>   -1.7411    1.0000 </r>
       <r>   -1.5687    1.0000 </r>
       <r>   -1.3574    1.0000 </r>
       <r>   -1.0357    1.0000 </r>
       <r>   -0.9167    1.0000 </r>
       <r>   -0.5306    1.0000 </r>
       <r>   -0.2415    0.9999 </r>
       <r>    0.1041    0.1392 </r>
       <r>    0.5005    0.0000 </r>
       <r>    0.8858    0.0000 </r>
       <r>    1.4250    0.0000 </r>
       <r>    1.5967    0.0000 </r>
       <r>    1.7118    0.0000 </r>
       <r>    1.8088    0.0000 </r>
       <r>    1.9950    0.0000 </r>
       <r>    2.2016    0.0000 </r>
       <r>    2.3405    0.0000 </r>
       <r>    2.5458    0.0000 </r>
       <r>    2.6806    0.0000 </r>
       <r>    2.7159    0.0000 </r>
       <r>    2.8248    0.0000 </r>
      </set>
      <set comment="kpoint 6">
       <r>  -13.5956    1.0000 </r>
       <r>  -12.1003    1.0000 </r>
       <r>  -11.8916    1.0000 </r>
       <r>  -11.5933    1.0000 </r>
       <r>  -11.4679    1.0000 </r>
       <r>  -11.2723    1.0000 </r>
       <r>  -11.0662    1.0000 </r>
       <r>  -10.8759    1.0000 </r>
       <r>  -10.7391    1.0000 </r>
       <r>  -10.6500    1.0000 </r>
       <r>  -10.4799    1.0000 </r>
       <r>   -9.9117    1.0000 </r>
       <r>   -9.5600    1.0000 </r>
       <r>   -8.8554    1.0000 </r>
       <r>   -8.5433    1.0000 </r>
       <r>   -8.4018    1.0000 </r>
       <r>   -7.8085    1.0000 </r>
       <r>   -7.4836    1.0000 </r>
       <r>   -7.4415    1.0000 </r>
       <r>   -7.3339    1.0000 </r>
       <r>   -6.8328    1.0000 </r>
       <r>   -6.7818    1.0000 </r>
       <r>   -6.6875    1.0000 </r>
       <r>   -5.9529    1.0000 </r>
       <r>   -5.7260    1.0000 </r>
       <r>   -5.2336    1.0000 </r>
       <r>   -4.7261    1.0000 </r>
       <r>   -4.6174    1.0000 </r>
       <r>   -4.5419    1.0000 </r>
       <r>   -4.3754    1.0000 </r>
       <r>   -4.3336    1.0000 </r>
       <r>   -4.2559    1.0000 </r>
       <r>   -4.1038    1.0000 </r>
       <r>   -4.0800    1.0000 </r>
       <r>   -3.6786    1.0000 </r>
       <r>   -3.6074    1.0000 </r>
       <r>   -3.3284    1.0000 </r>
       <r>   -3.2934    1.0000 </r>
       <r>   -3.1799    1.0000 </r>
       <r>   -3.1153    1.0000 </r>
       <r>   -2.8387    1.0000 </r>
       <r>   -2.7597    1.0000 </r>
       <r>   -2.5183    1.0000 </r>
       <r>   -2.3225    1.0000 </r>
       <r>   -2.2129    1.0000 </r>
       <r>   -2.0935    1.0000 </r>
       <r>   -2.0491    1.0000 </r>
       <r>   -1.8720    1.0000 </r>
       <r>   -1.7529    1.0000 </r>
       <r>   -1.4659    1.0000 </r>
       <r>   -1.3199    1.0000 </r>
       <r>   -1.0865    1.0000 </r>
       <r>   -0.6080    1.0000 </r>
       <r>   -0.3893    1.0000 </r>
       <r>   -0.0437    0.8430 </r>
       <r>    0.2608    0.0005 </r>
       <r>    0.8946    0.0000 </r>
       <r>    1.3184    0.0000 </r>
       <r>    1.3910    0.0000 </r>
       <r>    1.5253    0.0000 </r>
       <r>    1.7112    0.0000 </r>
       <r>    1.7394    0.0000 </r>
       <r>    2.0464    0.0000 </r>
       <r>    2.2293    0.0000 </r>
       <r>    2.3064    0.0000 </r>
       <r>    2.4043    0.0000 </r>
       <r>    2.5843    0.0000 </r>
       <r>    2.7046    0.0000 </r>
      </set>
      <set comment="kpoint 7">
       <r>  -13.2914    1.0000 </r>
       <r>  -11.7152    1.0000 </r>
       <r>  -11.5258    1.0000 </r>
       <r>  -11.1712    1.0000 </r>
       <r>  -11.1653    1.0000 </r>
       <r>  -10.9794    1.0000 </r>
       <r>  -10.9715    1.0000 </r>
       <r>  -10.8693    1.0000 </r>
       <r>  -10.8577    1.0000 </r>
       <r>  -10.7537    1.0000 </r>
       <r>  -10.6590    1.0000 </r>
       <r>   -9.8195    1.0000 </r>
       <r>   -9.4679    1.0000 </r>
       <r>   -8.8280    1.0000 </r>
       <r>   -8.7117    1.0000 </r>
       <r>   -8.4657    1.0000 </r>
       <r>   -8.1078    1.0000 </r>
       <r>   -8.0908    1.0000 </r>
       <r>   -7.7366    1.0000 </r>
       <r>   -7.5967    1.0000 </r>
       <r>   -7.3117    1.0000 </r>
       <r>   -7.2031    1.0000 </r>
       <r>   -6.9250    1.0000 </r>
       <r>   -5.9144    1.0000 </r>
       <r>   -5.8088    1.0000 </r>
       <r>   -5.1646    1.0000 </r>
       <r>   -4.9356    1.0000 </r>
       <r>   -4.5633    1.0000 </r>
       <r>   -4.5253    1.0000 </r>
       <r>   -4.2902    1.0000 </r>
       <r>   -4.0924    1.0000 </r>
       <r>   -4.0431    1.0000 </r>
       <r>   -3.9744    1.0000 </r>
       <r>   -3.9285    1.0000 </r>
       <r>   -3.8497    1.0000 </r>
       <r>   -3.6111    1.0000 </r>
       <r>   -3.5594    1.0000 </r>
       <r>   -3.2830    1.0000 </r>
       <r>   -3.2378    1.0000 </r>
       <r>   -3.0653    1.0000 </r>
       <r>   -3.0237    1.0000 </r>
       <r>   -2.7913    1.0000 </r>
       <r>   -2.7152    1.0000 </r>
       <r>   -2.3877    1.0000 </r>
       <r>   -2.3500    1.0000 </r>
       <r>   -2.2232    1.0000 </r>
       <r>   -2.1346    1.0000 </r>
       <r>   -1.8895    1.0000 </r>
       <r>   -1.7503    1.0000 </r>
       <r>   -1.6027    1.0000 </r>
       <r>   -1.5534    1.0000 </r>
       <r>   -1.1716    1.0000 </r>
       <r>   -0.5935    1.0000 </r>
       <r>   -0.4595    1.0000 </r>
       <r>   -0.1000    0.9643 </r>
       <r>    0.0862    0.2031 </r>
       <r>    0.9267    0.0000 </r>
       <r>    1.1354    0.0000 </r>
       <r>    1.3548    0.0000 </r>
       <r>    1.4937    0.0000 </r>
       <r>    1.6226    0.0000 </r>
       <r>    1.6791    0.0000 </r>
       <r>    1.8704    0.0000 </r>
       <r>    2.0599    0.0000 </r>
       <r>    2.2625    0.0000 </r>
       <r>    2.3748    0.0000 </r>
       <r>    2.4250    0.0000 </r>
       <r>    2.4904    0.0000 </r>
      </set>
      <set comment="kpoint 8">
       <r>  -14.8092    1.0000 </r>
       <r>  -13.5102    1.0000 </r>
       <r>  -13.1750    1.0000 </r>
       <r>  -12.9985    1.0000 </r>
       <r>  -12.6287    1.0000 </r>
       <r>  -12.5052    1.0000 </r>
       <r>  -11.9098    1.0000 </r>
       <r>  -11.8721    1.0000 </r>
       <r>  -11.5028    1.0000 </r>
       <r>  -11.0917    1.0000 </r>
       <r>  -11.0246    1.0000 </r>
       <r>  -10.5196    1.0000 </r>
       <r>   -9.6152    1.0000 </r>
       <r>   -8.5398    1.0000 </r>
       <r>   -7.9937    1.0000 </r>
       <r>   -7.4060    1.0000 </r>
       <r>   -6.7363    1.0000 </r>
       <r>   -6.6957    1.0000 </r>
       <r>   -6.6197    1.0000 </r>
       <r>   -5.8897    1.0000 </r>
       <r>   -5.7702    1.0000 </r>
       <r>   -5.3727    1.0000 </r>
       <r>   -4.9699    1.0000 </r>
       <r>   -4.6840    1.0000 </r>
       <r>   -4.4343    1.0000 </r>
       <r>   -4.0502    1.0000 </r>
       <r>   -4.0041    1.0000 </r>
       <r>   -3.6859    1.0000 </r>
       <r>   -3.4096    1.0000 </r>
       <r>   -3.2324    1.0000 </r>
       <r>   -3.1530    1.0000 </r>
       <r>   -3.0459    1.0000 </r>
       <r>   -2.8433    1.0000 </r>
       <r>   -2.7333    1.0000 </r>
       <r>   -2.5287    1.0000 </r>
       <r>   -2.4577    1.0000 </r>
       <r>   -2.4152    1.0000 </r>
       <r>   -2.3422    1.0000 </r>
       <r>   -2.2189    1.0000 </r>
       <r>   -2.0265    1.0000 </r>
       <r>   -1.9851    1.0000 </r>
       <r>   -1.9139    1.0000 </r>
       <r>   -1.8987    1.0000 </r>
       <r>   -1.6534    1.0000 </r>
       <r>   -1.6392    1.0000 </r>
       <r>   -1.4938    1.0000 </r>
       <r>   -1.3884    1.0000 </r>
       <r>   -1.3770    1.0000 </r>
       <r>   -1.1978    1.0000 </r>
       <r>   -1.0695    1.0000 </r>
       <r>   -0.9645    1.0000 </r>
       <r>   -0.5334    1.0000 </r>
       <r>   -0.1845    0.9986 </r>
       <r>    0.1644    0.0264 </r>
       <r>    0.5703    0.0000 </r>
       <r>    0.6876    0.0000 </r>
       <r>    1.0259    0.0000 </r>
       <r>    1.1804    0.0000 </r>
       <r>    1.3520    0.0000 </r>
       <r>    1.5407    0.0000 </r>
       <r>    1.6862    0.0000 </r>
       <r>    1.8066    0.0000 </r>
       <r>    1.8938    0.0000 </r>
       <r>    2.0733    0.0000 </r>
       <r>    2.2200    0.0000 </r>
       <r>    2.3589    0.0000 </r>
       <r>    2.4538    0.0000 </r>
       <r>    2.5409    0.0000 </r>
      </set>
      <set comment="kpoint 9">
       <r>  -14.7530    1.0000 </r>
       <r>  -13.4334    1.0000 </r>
       <r>  -13.1402    1.0000 </r>
       <r>  -12.9794    1.0000 </r>
       <r>  -12.5213    1.0000 </r>
       <r>  -12.4456    1.0000 </r>
       <r>  -11.8901    1.0000 </r>
       <r>  -11.7948    1.0000 </r>
       <r>  -11.4615    1.0000 </r>
       <r>  -11.0151    1.0000 </r>
       <r>  -10.9795    1.0000 </r>
       <r>  -10.4843    1.0000 </r>
       <r>   -9.6288    1.0000 </r>
       <r>   -8.5984    1.0000 </r>
       <r>   -7.9386    1.0000 </r>
       <r>   -7.3567    1.0000 </r>
       <r>   -6.7759    1.0000 </r>
       <r>   -6.7033    1.0000 </r>
       <r>   -6.5534    1.0000 </r>
       <r>   -5.9010    1.0000 </r>
       <r>   -5.7239    1.0000 </r>
       <r>   -5.4132    1.0000 </r>
       <r>   -4.9225    1.0000 </r>
       <r>   -4.7166    1.0000 </r>
       <r>   -4.5537    1.0000 </r>
       <r>   -4.2695    1.0000 </r>
       <r>   -4.0907    1.0000 </r>
       <r>   -3.6859    1.0000 </r>
       <r>   -3.5995    1.0000 </r>
       <r>   -3.4204    1.0000 </r>
       <r>   -3.3829    1.0000 </r>
       <r>   -3.2582    1.0000 </r>
       <r>   -3.0567    1.0000 </r>
       <r>   -3.0345    1.0000 </r>
       <r>   -2.8013    1.0000 </r>
       <r>   -2.7483    1.0000 </r>
       <r>   -2.5801    1.0000 </r>
       <r>   -2.4993    1.0000 </r>
       <r>   -2.3275    1.0000 </r>
       <r>   -2.2147    1.0000 </r>
       <r>   -2.1497    1.0000 </r>
       <r>   -2.0579    1.0000 </r>
       <r>   -1.9700    1.0000 </r>
       <r>   -1.8591    1.0000 </r>
       <r>   -1.7803    1.0000 </r>
       <r>   -1.7097    1.0000 </r>
       <r>   -1.4637    1.0000 </r>
       <r>   -1.3605    1.0000 </r>
       <r>   -1.1316    1.0000 </r>
       <r>   -1.0605    1.0000 </r>
       <r>   -0.9115    1.0000 </r>
       <r>   -0.4182    1.0000 </r>
       <r>   -0.1182    0.9803 </r>
       <r>    0.2249    0.0026 </r>
       <r>    0.4439    0.0000 </r>
       <r>    0.8092    0.0000 </r>
       <r>    1.1325    0.0000 </r>
       <r>    1.4590    0.0000 </r>
       <r>    1.6092    0.0000 </r>
       <r>    1.7575    0.0000 </r>
       <r>    1.9237    0.0000 </r>
       <r>    2.0644    0.0000 </r>
       <r>    2.1599    0.0000 </r>
       <r>    2.2288    0.0000 </r>
       <r>    2.3380    0.0000 </r>
       <r>    2.5083    0.0000 </r>
       <r>    2.6259    0.0000 </r>
       <r>    2.7435    0.0000 </r>
      </set>
      <set comment="kpoint 10">
       <r>  -14.5886    1.0000 </r>
       <r>  -13.2369    1.0000 </r>
       <r>  -12.9880    1.0000 </r>
       <r>  -12.8429    1.0000 </r>
       <r>  -12.3126    1.0000 </r>
       <r>  -12.2695    1.0000 </r>
       <r>  -11.7939    1.0000 </r>
       <r>  -11.5981    1.0000 </r>
       <r>  -11.3222    1.0000 </r>
       <r>  -10.8590    1.0000 </r>
       <r>  -10.8363    1.0000 </r>
       <r>  -10.4034    1.0000 </r>
       <r>   -9.6257    1.0000 </r>
       <r>   -8.6643    1.0000 </r>
       <r>   -7.8169    1.0000 </r>
       <r>   -7.3271    1.0000 </r>
       <r>   -6.8760    1.0000 </r>
       <r>   -6.6813    1.0000 </r>
       <r>   -6.5234    1.0000 </r>
       <r>   -6.1857    1.0000 </r>
       <r>   -5.6783    1.0000 </r>
       <r>   -5.5593    1.0000 </r>
       <r>   -5.0081    1.0000 </r>
       <r>   -4.8570    1.0000 </r>
       <r>   -4.8096    1.0000 </r>
       <r>   -4.4283    1.0000 </r>
       <r>   -4.3917    1.0000 </r>
       <r>   -4.2927    1.0000 </r>
       <r>   -4.0751    1.0000 </r>
       <r>   -3.9777    1.0000 </r>
       <r>   -3.6933    1.0000 </r>
       <r>   -3.6025    1.0000 </r>
       <r>   -3.4981    1.0000 </r>
       <r>   -3.3255    1.0000 </r>
       <r>   -3.1426    1.0000 </r>
       <r>   -2.9949    1.0000 </r>
       <r>   -2.9570    1.0000 </r>
       <r>   -2.8497    1.0000 </r>
       <r>   -2.8078    1.0000 </r>
       <r>   -2.6550    1.0000 </r>
       <r>   -2.6011    1.0000 </r>
       <r>   -2.3831    1.0000 </r>
       <r>   -2.2991    1.0000 </r>
       <r>   -2.0070    1.0000 </r>
       <r>   -1.9146    1.0000 </r>
       <r>   -1.7966    1.0000 </r>
       <r>   -1.5188    1.0000 </r>
       <r>   -1.3884    1.0000 </r>
       <r>   -1.1670    1.0000 </r>
       <r>   -1.0548    1.0000 </r>
       <r>   -0.9209    1.0000 </r>
       <r>   -0.3261    1.0000 </r>
       <r>   -0.1195    0.9812 </r>
       <r>    0.0759    0.2466 </r>
       <r>    0.3203    0.0000 </r>
       <r>    0.9187    0.0000 </r>
       <r>    1.1805    0.0000 </r>
       <r>    1.4698    0.0000 </r>
       <r>    1.6794    0.0000 </r>
       <r>    1.9630    0.0000 </r>
       <r>    2.0903    0.0000 </r>
       <r>    2.3299    0.0000 </r>
       <r>    2.5524    0.0000 </r>
       <r>    2.7208    0.0000 </r>
       <r>    2.8196    0.0000 </r>
       <r>    2.9564    0.0000 </r>
       <r>    3.0219    0.0000 </r>
       <r>    3.0711    0.0000 </r>
      </set>
      <set comment="kpoint 11">
       <r>  -14.3238    1.0000 </r>
       <r>  -12.9256    1.0000 </r>
       <r>  -12.7238    1.0000 </r>
       <r>  -12.5914    1.0000 </r>
       <r>  -12.0277    1.0000 </r>
       <r>  -11.9716    1.0000 </r>
       <r>  -11.6148    1.0000 </r>
       <r>  -11.3216    1.0000 </r>
       <r>  -11.1004    1.0000 </r>
       <r>  -10.6714    1.0000 </r>
       <r>  -10.6203    1.0000 </r>
       <r>  -10.2948    1.0000 </r>
       <r>   -9.6243    1.0000 </r>
       <r>   -8.7960    1.0000 </r>
       <r>   -7.7049    1.0000 </r>
       <r>   -7.4153    1.0000 </r>
       <r>   -7.1343    1.0000 </r>
       <r>   -6.8021    1.0000 </r>
       <r>   -6.7208    1.0000 </r>
       <r>   -6.6667    1.0000 </r>
       <r>   -5.8465    1.0000 </r>
       <r>   -5.8088    1.0000 </r>
       <r>   -5.4473    1.0000 </r>
       <r>   -5.2307    1.0000 </r>
       <r>   -5.0535    1.0000 </r>
       <r>   -4.8242    1.0000 </r>
       <r>   -4.6916    1.0000 </r>
       <r>   -4.6205    1.0000 </r>
       <r>   -4.5515    1.0000 </r>
       <r>   -4.4587    1.0000 </r>
       <r>   -4.0536    1.0000 </r>
       <r>   -3.9587    1.0000 </r>
       <r>   -3.7867    1.0000 </r>
       <r>   -3.7399    1.0000 </r>
       <r>   -3.5290    1.0000 </r>
       <r>   -3.2846    1.0000 </r>
       <r>   -3.2289    1.0000 </r>
       <r>   -3.1164    1.0000 </r>
       <r>   -2.8793    1.0000 </r>
       <r>   -2.7661    1.0000 </r>
       <r>   -2.7296    1.0000 </r>
       <r>   -2.5913    1.0000 </r>
       <r>   -2.5450    1.0000 </r>
       <r>   -2.0365    1.0000 </r>
       <r>   -1.9938    1.0000 </r>
       <r>   -1.8937    1.0000 </r>
       <r>   -1.7973    1.0000 </r>
       <r>   -1.4352    1.0000 </r>
       <r>   -1.4035    1.0000 </r>
       <r>   -1.1037    1.0000 </r>
       <r>   -1.0186    1.0000 </r>
       <r>   -0.5321    1.0000 </r>
       <r>   -0.4009    1.0000 </r>
       <r>   -0.0979    0.9619 </r>
       <r>    0.2008    0.0071 </r>
       <r>    0.7643    0.0000 </r>
       <r>    0.9692    0.0000 </r>
       <r>    1.4058    0.0000 </r>
       <r>    1.5382    0.0000 </r>
       <r>    1.6450    0.0000 </r>
       <r>    1.9000    0.0000 </r>
       <r>    2.1938    0.0000 </r>
       <r>    2.5320    0.0000 </r>
       <r>    2.6015    0.0000 </r>
       <r>    2.6968    0.0000 </r>
       <r>    2.8438    0.0000 </r>
       <r>    3.0320    0.0000 </r>
       <r>    3.1732    0.0000 </r>
      </set>
      <set comment="kpoint 12">
       <r>  -13.9773    1.0000 </r>
       <r>  -12.5091    1.0000 </r>
       <r>  -12.3614    1.0000 </r>
       <r>  -12.2322    1.0000 </r>
       <r>  -11.6743    1.0000 </r>
       <r>  -11.5991    1.0000 </r>
       <r>  -11.3841    1.0000 </r>
       <r>  -11.0079    1.0000 </r>
       <r>  -10.8367    1.0000 </r>
       <r>  -10.6297    1.0000 </r>
       <r>  -10.4160    1.0000 </r>
       <r>  -10.1186    1.0000 </r>
       <r>   -9.6107    1.0000 </r>
       <r>   -8.9954    1.0000 </r>
       <r>   -7.9654    1.0000 </r>
       <r>   -7.7315    1.0000 </r>
       <r>   -7.5106    1.0000 </r>
       <r>   -7.1411    1.0000 </r>
       <r>   -7.1112    1.0000 </r>
       <r>   -6.9864    1.0000 </r>
       <r>   -6.3549    1.0000 </r>
       <r>   -6.2152    1.0000 </r>
       <r>   -5.9445    1.0000 </r>
       <r>   -5.8483    1.0000 </r>
       <r>   -5.4044    1.0000 </r>
       <r>   -5.3129    1.0000 </r>
       <r>   -4.9643    1.0000 </r>
       <r>   -4.6679    1.0000 </r>
       <r>   -4.4662    1.0000 </r>
       <r>   -4.3923    1.0000 </r>
       <r>   -4.3480    1.0000 </r>
       <r>   -4.1965    1.0000 </r>
       <r>   -4.0365    1.0000 </r>
       <r>   -3.8146    1.0000 </r>
       <r>   -3.6241    1.0000 </r>
       <r>   -3.4561    1.0000 </r>
       <r>   -3.3552    1.0000 </r>
       <r>   -3.0497    1.0000 </r>
       <r>   -3.0302    1.0000 </r>
       <r>   -2.9030    1.0000 </r>
       <r>   -2.7998    1.0000 </r>
       <r>   -2.6539    1.0000 </r>
       <r>   -2.5164    1.0000 </r>
       <r>   -2.3495    1.0000 </r>
       <r>   -2.1272    1.0000 </r>
       <r>   -1.9928    1.0000 </r>
       <r>   -1.9125    1.0000 </r>
       <r>   -1.7708    1.0000 </r>
       <r>   -1.5630    1.0000 </r>
       <r>   -1.3590    1.0000 </r>
       <r>   -1.0372    1.0000 </r>
       <r>   -0.7916    1.0000 </r>
       <r>   -0.5998    1.0000 </r>
       <r>   -0.2632    1.0000 </r>
       <r>    0.0458    0.3979 </r>
       <r>    0.4230    0.0000 </r>
       <r>    0.8116    0.0000 </r>
       <r>    1.2044    0.0000 </r>
       <r>    1.2614    0.0000 </r>
       <r>    1.3599    0.0000 </r>
       <r>    1.7193    0.0000 </r>
       <r>    2.1280    0.0000 </r>
       <r>    2.2462    0.0000 </r>
       <r>    2.3941    0.0000 </r>
       <r>    2.4431    0.0000 </r>
       <r>    2.6037    0.0000 </r>
       <r>    2.7325    0.0000 </r>
       <r>    2.9248    0.0000 </r>
      </set>
      <set comment="kpoint 13">
       <r>  -13.5934    1.0000 </r>
       <r>  -12.0068    1.0000 </r>
       <r>  -11.9441    1.0000 </r>
       <r>  -11.7821    1.0000 </r>
       <r>  -11.3591    1.0000 </r>
       <r>  -11.2675    1.0000 </r>
       <r>  -11.1056    1.0000 </r>
       <r>  -10.7691    1.0000 </r>
       <r>  -10.7469    1.0000 </r>
       <r>  -10.6254    1.0000 </r>
       <r>  -10.4925    1.0000 </r>
       <r>   -9.9064    1.0000 </r>
       <r>   -9.5586    1.0000 </r>
       <r>   -8.9858    1.0000 </r>
       <r>   -8.4898    1.0000 </r>
       <r>   -8.1373    1.0000 </r>
       <r>   -7.9453    1.0000 </r>
       <r>   -7.8035    1.0000 </r>
       <r>   -7.3849    1.0000 </r>
       <r>   -7.1879    1.0000 </r>
       <r>   -6.8556    1.0000 </r>
       <r>   -6.7213    1.0000 </r>
       <r>   -6.6822    1.0000 </r>
       <r>   -5.9817    1.0000 </r>
       <r>   -5.8484    1.0000 </r>
       <r>   -5.3664    1.0000 </r>
       <r>   -4.8158    1.0000 </r>
       <r>   -4.6114    1.0000 </r>
       <r>   -4.4998    1.0000 </r>
       <r>   -4.3920    1.0000 </r>
       <r>   -4.2522    1.0000 </r>
       <r>   -4.1351    1.0000 </r>
       <r>   -4.0374    1.0000 </r>
       <r>   -3.8816    1.0000 </r>
       <r>   -3.5560    1.0000 </r>
       <r>   -3.4084    1.0000 </r>
       <r>   -3.3753    1.0000 </r>
       <r>   -3.2996    1.0000 </r>
       <r>   -3.1795    1.0000 </r>
       <r>   -3.1356    1.0000 </r>
       <r>   -2.9481    1.0000 </r>
       <r>   -2.6723    1.0000 </r>
       <r>   -2.6115    1.0000 </r>
       <r>   -2.3703    1.0000 </r>
       <r>   -2.2370    1.0000 </r>
       <r>   -2.1348    1.0000 </r>
       <r>   -2.0911    1.0000 </r>
       <r>   -1.8860    1.0000 </r>
       <r>   -1.7363    1.0000 </r>
       <r>   -1.5149    1.0000 </r>
       <r>   -1.3041    1.0000 </r>
       <r>   -1.0720    1.0000 </r>
       <r>   -0.5816    1.0000 </r>
       <r>   -0.4298    1.0000 </r>
       <r>   -0.0561    0.8812 </r>
       <r>    0.1710    0.0212 </r>
       <r>    0.7911    0.0000 </r>
       <r>    1.1256    0.0000 </r>
       <r>    1.1841    0.0000 </r>
       <r>    1.3064    0.0000 </r>
       <r>    1.6060    0.0000 </r>
       <r>    1.8008    0.0000 </r>
       <r>    2.0074    0.0000 </r>
       <r>    2.1446    0.0000 </r>
       <r>    2.2436    0.0000 </r>
       <r>    2.5662    0.0000 </r>
       <r>    2.6096    0.0000 </r>
       <r>    2.6844    0.0000 </r>
      </set>
      <set comment="kpoint 14">
       <r>  -13.2910    1.0000 </r>
       <r>  -11.7099    1.0000 </r>
       <r>  -11.4556    1.0000 </r>
       <r>  -11.2869    1.0000 </r>
       <r>  -11.2235    1.0000 </r>
       <r>  -10.9861    1.0000 </r>
       <r>  -10.9063    1.0000 </r>
       <r>  -10.8886    1.0000 </r>
       <r>  -10.8674    1.0000 </r>
       <r>  -10.7241    1.0000 </r>
       <r>  -10.6049    1.0000 </r>
       <r>   -9.8291    1.0000 </r>
       <r>   -9.4662    1.0000 </r>
       <r>   -8.8461    1.0000 </r>
       <r>   -8.5788    1.0000 </r>
       <r>   -8.4243    1.0000 </r>
       <r>   -8.3542    1.0000 </r>
       <r>   -8.0869    1.0000 </r>
       <r>   -7.6853    1.0000 </r>
       <r>   -7.5426    1.0000 </r>
       <r>   -7.3409    1.0000 </r>
       <r>   -7.1629    1.0000 </r>
       <r>   -6.9701    1.0000 </r>
       <r>   -5.9578    1.0000 </r>
       <r>   -5.8339    1.0000 </r>
       <r>   -5.0593    1.0000 </r>
       <r>   -5.0350    1.0000 </r>
       <r>   -4.5979    1.0000 </r>
       <r>   -4.4901    1.0000 </r>
       <r>   -4.2508    1.0000 </r>
       <r>   -4.1593    1.0000 </r>
       <r>   -4.0438    1.0000 </r>
       <r>   -3.9567    1.0000 </r>
       <r>   -3.8896    1.0000 </r>
       <r>   -3.6882    1.0000 </r>
       <r>   -3.6641    1.0000 </r>
       <r>   -3.5228    1.0000 </r>
       <r>   -3.2881    1.0000 </r>
       <r>   -3.2167    1.0000 </r>
       <r>   -3.0866    1.0000 </r>
       <r>   -3.0090    1.0000 </r>
       <r>   -2.7530    1.0000 </r>
       <r>   -2.6647    1.0000 </r>
       <r>   -2.6241    1.0000 </r>
       <r>   -2.2755    1.0000 </r>
       <r>   -2.1891    1.0000 </r>
       <r>   -2.1470    1.0000 </r>
       <r>   -1.8373    1.0000 </r>
       <r>   -1.7425    1.0000 </r>
       <r>   -1.6158    1.0000 </r>
       <r>   -1.5686    1.0000 </r>
       <r>   -1.2492    1.0000 </r>
       <r>   -0.5803    1.0000 </r>
       <r>   -0.4539    1.0000 </r>
       <r>   -0.1440    0.9923 </r>
       <r>    0.1007    0.1501 </r>
       <r>    0.8218    0.0000 </r>
       <r>    1.1951    0.0000 </r>
       <r>    1.3981    0.0000 </r>
       <r>    1.4440    0.0000 </r>
       <r>    1.5266    0.0000 </r>
       <r>    1.6024    0.0000 </r>
       <r>    1.7910    0.0000 </r>
       <r>    2.0888    0.0000 </r>
       <r>    2.1834    0.0000 </r>
       <r>    2.4186    0.0000 </r>
       <r>    2.4634    0.0000 </r>
       <r>    2.5647    0.0000 </r>
      </set>
      <set comment="kpoint 15">
       <r>  -13.2924    1.0000 </r>
       <r>  -11.7004    1.0000 </r>
       <r>  -11.5592    1.0000 </r>
       <r>  -11.1679    1.0000 </r>
       <r>  -11.0943    1.0000 </r>
       <r>  -11.0028    1.0000 </r>
       <r>  -10.9585    1.0000 </r>
       <r>  -10.8587    1.0000 </r>
       <r>  -10.8313    1.0000 </r>
       <r>  -10.7822    1.0000 </r>
       <r>  -10.7263    1.0000 </r>
       <r>   -9.8098    1.0000 </r>
       <r>   -9.4689    1.0000 </r>
       <r>   -8.8216    1.0000 </r>
       <r>   -8.7787    1.0000 </r>
       <r>   -8.4597    1.0000 </r>
       <r>   -8.0930    1.0000 </r>
       <r>   -7.9682    1.0000 </r>
       <r>   -7.7390    1.0000 </r>
       <r>   -7.6301    1.0000 </r>
       <r>   -7.3049    1.0000 </r>
       <r>   -7.2439    1.0000 </r>
       <r>   -6.9624    1.0000 </r>
       <r>   -5.9012    1.0000 </r>
       <r>   -5.7116    1.0000 </r>
       <r>   -5.2000    1.0000 </r>
       <r>   -4.7525    1.0000 </r>
       <r>   -4.6110    1.0000 </r>
       <r>   -4.5961    1.0000 </r>
       <r>   -4.3836    1.0000 </r>
       <r>   -4.0568    1.0000 </r>
       <r>   -4.0324    1.0000 </r>
       <r>   -4.0240    1.0000 </r>
       <r>   -3.9733    1.0000 </r>
       <r>   -3.9084    1.0000 </r>
       <r>   -3.6758    1.0000 </r>
       <r>   -3.5386    1.0000 </r>
       <r>   -3.3921    1.0000 </r>
       <r>   -3.3051    1.0000 </r>
       <r>   -2.9498    1.0000 </r>
       <r>   -2.8449    1.0000 </r>
       <r>   -2.7989    1.0000 </r>
       <r>   -2.7054    1.0000 </r>
       <r>   -2.4427    1.0000 </r>
       <r>   -2.3957    1.0000 </r>
       <r>   -2.1962    1.0000 </r>
       <r>   -2.1531    1.0000 </r>
       <r>   -1.7886    1.0000 </r>
       <r>   -1.6882    1.0000 </r>
       <r>   -1.5920    1.0000 </r>
       <r>   -1.5255    1.0000 </r>
       <r>   -1.2998    1.0000 </r>
       <r>   -0.5976    1.0000 </r>
       <r>   -0.4152    1.0000 </r>
       <r>   -0.1656    0.9968 </r>
       <r>    0.1777    0.0168 </r>
       <r>    0.8662    0.0000 </r>
       <r>    1.3119    0.0000 </r>
       <r>    1.3540    0.0000 </r>
       <r>    1.5579    0.0000 </r>
       <r>    1.6616    0.0000 </r>
       <r>    1.7561    0.0000 </r>
       <r>    1.8296    0.0000 </r>
       <r>    2.2160    0.0000 </r>
       <r>    2.2752    0.0000 </r>
       <r>    2.3395    0.0000 </r>
       <r>    2.4619    0.0000 </r>
       <r>    2.5541    0.0000 </r>
      </set>
      <set comment="kpoint 16">
       <r>  -13.5971    1.0000 </r>
       <r>  -12.1268    1.0000 </r>
       <r>  -11.8137    1.0000 </r>
       <r>  -11.5959    1.0000 </r>
       <r>  -11.5083    1.0000 </r>
       <r>  -11.2713    1.0000 </r>
       <r>  -11.0290    1.0000 </r>
       <r>  -10.9543    1.0000 </r>
       <r>  -10.7152    1.0000 </r>
       <r>  -10.6527    1.0000 </r>
       <r>  -10.4754    1.0000 </r>
       <r>   -9.9349    1.0000 </r>
       <r>   -9.5442    1.0000 </r>
       <r>   -8.7665    1.0000 </r>
       <r>   -8.5618    1.0000 </r>
       <r>   -8.5159    1.0000 </r>
       <r>   -7.7737    1.0000 </r>
       <r>   -7.4652    1.0000 </r>
       <r>   -7.3664    1.0000 </r>
       <r>   -7.3448    1.0000 </r>
       <r>   -6.8568    1.0000 </r>
       <r>   -6.8307    1.0000 </r>
       <r>   -6.6918    1.0000 </r>
       <r>   -5.9366    1.0000 </r>
       <r>   -5.6334    1.0000 </r>
       <r>   -5.0779    1.0000 </r>
       <r>   -4.8765    1.0000 </r>
       <r>   -4.7070    1.0000 </r>
       <r>   -4.4323    1.0000 </r>
       <r>   -4.4149    1.0000 </r>
       <r>   -4.3290    1.0000 </r>
       <r>   -4.2865    1.0000 </r>
       <r>   -4.1376    1.0000 </r>
       <r>   -4.1048    1.0000 </r>
       <r>   -3.7463    1.0000 </r>
       <r>   -3.6685    1.0000 </r>
       <r>   -3.4308    1.0000 </r>
       <r>   -3.3497    1.0000 </r>
       <r>   -3.1944    1.0000 </r>
       <r>   -2.9603    1.0000 </r>
       <r>   -2.8574    1.0000 </r>
       <r>   -2.7220    1.0000 </r>
       <r>   -2.5297    1.0000 </r>
       <r>   -2.3068    1.0000 </r>
       <r>   -2.2517    1.0000 </r>
       <r>   -2.1083    1.0000 </r>
       <r>   -1.9688    1.0000 </r>
       <r>   -1.8509    1.0000 </r>
       <r>   -1.6258    1.0000 </r>
       <r>   -1.4547    1.0000 </r>
       <r>   -1.2905    1.0000 </r>
       <r>   -1.2153    1.0000 </r>
       <r>   -0.6105    1.0000 </r>
       <r>   -0.2738    1.0000 </r>
       <r>   -0.1348    0.9891 </r>
       <r>    0.3332    0.0000 </r>
       <r>    0.8962    0.0000 </r>
       <r>    1.3245    0.0000 </r>
       <r>    1.4250    0.0000 </r>
       <r>    1.6595    0.0000 </r>
       <r>    1.7920    0.0000 </r>
       <r>    1.9122    0.0000 </r>
       <r>    2.1259    0.0000 </r>
       <r>    2.2415    0.0000 </r>
       <r>    2.3829    0.0000 </r>
       <r>    2.4810    0.0000 </r>
       <r>    2.5215    0.0000 </r>
       <r>    2.6173    0.0000 </r>
      </set>
      <set comment="kpoint 17">
       <r>  -13.9820    1.0000 </r>
       <r>  -12.6207    1.0000 </r>
       <r>  -12.1935    1.0000 </r>
       <r>  -11.9848    1.0000 </r>
       <r>  -11.9697    1.0000 </r>
       <r>  -11.6698    1.0000 </r>
       <r>  -11.2688    1.0000 </r>
       <r>  -11.0463    1.0000 </r>
       <r>  -10.7974    1.0000 </r>
       <r>  -10.7649    1.0000 </r>
       <r>  -10.4458    1.0000 </r>
       <r>  -10.1444    1.0000 </r>
       <r>   -9.5515    1.0000 </r>
       <r>   -8.5801    1.0000 </r>
       <r>   -8.2140    1.0000 </r>
       <r>   -8.1196    1.0000 </r>
       <r>   -7.3584    1.0000 </r>
       <r>   -7.0287    1.0000 </r>
       <r>   -6.9585    1.0000 </r>
       <r>   -6.8897    1.0000 </r>
       <r>   -6.5742    1.0000 </r>
       <r>   -6.1786    1.0000 </r>
       <r>   -5.9987    1.0000 </r>
       <r>   -5.8022    1.0000 </r>
       <r>   -5.1747    1.0000 </r>
       <r>   -5.1281    1.0000 </r>
       <r>   -4.9157    1.0000 </r>
       <r>   -4.6927    1.0000 </r>
       <r>   -4.6634    1.0000 </r>
       <r>   -4.4642    1.0000 </r>
       <r>   -4.3385    1.0000 </r>
       <r>   -4.2617    1.0000 </r>
       <r>   -4.1746    1.0000 </r>
       <r>   -3.9773    1.0000 </r>
       <r>   -3.8441    1.0000 </r>
       <r>   -3.4799    1.0000 </r>
       <r>   -3.4223    1.0000 </r>
       <r>   -3.1088    1.0000 </r>
       <r>   -3.0157    1.0000 </r>
       <r>   -2.8742    1.0000 </r>
       <r>   -2.7762    1.0000 </r>
       <r>   -2.6772    1.0000 </r>
       <r>   -2.5481    1.0000 </r>
       <r>   -2.1140    1.0000 </r>
       <r>   -2.0502    1.0000 </r>
       <r>   -1.9117    1.0000 </r>
       <r>   -1.8888    1.0000 </r>
       <r>   -1.7375    1.0000 </r>
       <r>   -1.5519    1.0000 </r>
       <r>   -1.3667    1.0000 </r>
       <r>   -1.0476    1.0000 </r>
       <r>   -0.9440    1.0000 </r>
       <r>   -0.4678    1.0000 </r>
       <r>   -0.1481    0.9935 </r>
       <r>   -0.0058    0.6808 </r>
       <r>    0.5772    0.0000 </r>
       <r>    0.8944    0.0000 </r>
       <r>    1.4023    0.0000 </r>
       <r>    1.6083    0.0000 </r>
       <r>    1.7640    0.0000 </r>
       <r>    1.9155    0.0000 </r>
       <r>    1.9706    0.0000 </r>
       <r>    2.2296    0.0000 </r>
       <r>    2.3496    0.0000 </r>
       <r>    2.5651    0.0000 </r>
       <r>    2.6137    0.0000 </r>
       <r>    2.7320    0.0000 </r>
       <r>    2.7479    0.0000 </r>
      </set>
      <set comment="kpoint 18">
       <r>  -14.3283    1.0000 </r>
       <r>  -13.0159    1.0000 </r>
       <r>  -12.5845    1.0000 </r>
       <r>  -12.3754    1.0000 </r>
       <r>  -12.2927    1.0000 </r>
       <r>  -12.0217    1.0000 </r>
       <r>  -11.5629    1.0000 </r>
       <r>  -11.3104    1.0000 </r>
       <r>  -11.0535    1.0000 </r>
       <r>  -10.8484    1.0000 </r>
       <r>  -10.6243    1.0000 </r>
       <r>  -10.3084    1.0000 </r>
       <r>   -9.5269    1.0000 </r>
       <r>   -8.4240    1.0000 </r>
       <r>   -7.8254    1.0000 </r>
       <r>   -7.7890    1.0000 </r>
       <r>   -7.1815    1.0000 </r>
       <r>   -6.7147    1.0000 </r>
       <r>   -6.6616    1.0000 </r>
       <r>   -6.4242    1.0000 </r>
       <r>   -6.0748    1.0000 </r>
       <r>   -5.7628    1.0000 </r>
       <r>   -5.4039    1.0000 </r>
       <r>   -5.3528    1.0000 </r>
       <r>   -4.8594    1.0000 </r>
       <r>   -4.8257    1.0000 </r>
       <r>   -4.6856    1.0000 </r>
       <r>   -4.6198    1.0000 </r>
       <r>   -4.5372    1.0000 </r>
       <r>   -4.4006    1.0000 </r>
       <r>   -4.2193    1.0000 </r>
       <r>   -4.1242    1.0000 </r>
       <r>   -3.8205    1.0000 </r>
       <r>   -3.7320    1.0000 </r>
       <r>   -3.5528    1.0000 </r>
       <r>   -3.4678    1.0000 </r>
       <r>   -3.2020    1.0000 </r>
       <r>   -3.0196    1.0000 </r>
       <r>   -2.9538    1.0000 </r>
       <r>   -2.7838    1.0000 </r>
       <r>   -2.6322    1.0000 </r>
       <r>   -2.5241    1.0000 </r>
       <r>   -2.4564    1.0000 </r>
       <r>   -2.0730    1.0000 </r>
       <r>   -1.9158    1.0000 </r>
       <r>   -1.8499    1.0000 </r>
       <r>   -1.7684    1.0000 </r>
       <r>   -1.5014    1.0000 </r>
       <r>   -1.4311    1.0000 </r>
       <r>   -1.1404    1.0000 </r>
       <r>   -1.0328    1.0000 </r>
       <r>   -0.4854    1.0000 </r>
       <r>   -0.2609    1.0000 </r>
       <r>   -0.0122    0.7124 </r>
       <r>    0.2030    0.0065 </r>
       <r>    0.8178    0.0000 </r>
       <r>    0.9437    0.0000 </r>
       <r>    1.5179    0.0000 </r>
       <r>    1.6674    0.0000 </r>
[...]
       <r>    2.6767    0.0000 </r>
      </set>
      <set comment="kpoint 54">
       <r>  -13.2920    1.0000 </r>
       <r>  -11.6944    1.0000 </r>
       <r>  -11.5144    1.0000 </r>
       <r>  -11.2302    1.0000 </r>
       <r>  -11.1926    1.0000 </r>
       <r>  -10.9773    1.0000 </r>
       <r>  -10.9351    1.0000 </r>
       <r>  -10.8715    1.0000 </r>
       <r>  -10.8588    1.0000 </r>
       <r>  -10.7469    1.0000 </r>
       <r>  -10.6455    1.0000 </r>
       <r>   -9.8190    1.0000 </r>
       <r>   -9.4674    1.0000 </r>
       <r>   -8.8391    1.0000 </r>
       <r>   -8.6886    1.0000 </r>
       <r>   -8.4666    1.0000 </r>
       <r>   -8.1445    1.0000 </r>
       <r>   -8.0813    1.0000 </r>
       <r>   -7.6914    1.0000 </r>
       <r>   -7.5865    1.0000 </r>
       <r>   -7.3159    1.0000 </r>
       <r>   -7.1933    1.0000 </r>
       <r>   -7.0015    1.0000 </r>
       <r>   -5.9713    1.0000 </r>
       <r>   -5.7191    1.0000 </r>
       <r>   -5.0957    1.0000 </r>
       <r>   -4.9621    1.0000 </r>
       <r>   -4.6214    1.0000 </r>
       <r>   -4.5006    1.0000 </r>
       <r>   -4.3001    1.0000 </r>
       <r>   -4.1199    1.0000 </r>
       <r>   -4.0431    1.0000 </r>
       <r>   -3.9855    1.0000 </r>
       <r>   -3.9551    1.0000 </r>
       <r>   -3.7904    1.0000 </r>
       <r>   -3.6256    1.0000 </r>
       <r>   -3.5828    1.0000 </r>
       <r>   -3.2860    1.0000 </r>
       <r>   -3.2549    1.0000 </r>
       <r>   -3.0813    1.0000 </r>
       <r>   -3.0078    1.0000 </r>
       <r>   -2.7592    1.0000 </r>
       <r>   -2.7155    1.0000 </r>
       <r>   -2.4079    1.0000 </r>
       <r>   -2.3159    1.0000 </r>
       <r>   -2.2211    1.0000 </r>
       <r>   -2.1295    1.0000 </r>
       <r>   -1.7758    1.0000 </r>
       <r>   -1.6725    1.0000 </r>
       <r>   -1.5858    1.0000 </r>
       <r>   -1.5344    1.0000 </r>
       <r>   -1.3854    1.0000 </r>
       <r>   -0.5987    1.0000 </r>
       <r>   -0.4137    1.0000 </r>
       <r>   -0.1905    0.9990 </r>
       <r>    0.1510    0.0404 </r>
       <r>    0.8337    0.0000 </r>
       <r>    1.2966    0.0000 </r>
       <r>    1.3427    0.0000 </r>
       <r>    1.4508    0.0000 </r>
       <r>    1.6324    0.0000 </r>
       <r>    1.7016    0.0000 </r>
       <r>    1.8898    0.0000 </r>
       <r>    2.0356    0.0000 </r>
       <r>    2.1993    0.0000 </r>
       <r>    2.3470    0.0000 </r>
       <r>    2.4562    0.0000 </r>
       <r>    2.5435    0.0000 </r>
      </set>
     </set>
    </set>
   </array>
  </eigenvalues>
  <separator name="orbital magnetization" >
   <v name="MAGDIPOLOUT">      0.00000000      0.00000000      0.00000000</v>
  </separator>
  <dos>
   <i name="efermi">      0.02746875 </i>
   <total>
    <array>
     <dimension dim="1">gridpoints</dimension>
     <dimension dim="2">spin</dimension>
     <field>energy</field>
     <field>total</field>
     <field>integrated</field>
     <set>
      <set comment="spin 1">
       <r>   -15.8129     0.0000     0.0000 </r>
       <r>   -15.7463     0.0000     0.0000 </r>
       <r>   -15.6797     0.0000     0.0000 </r>
       <r>   -15.6131     0.0000     0.0000 </r>
       <r>   -15.5464     0.0000     0.0000 </r>
       <r>   -15.4798     0.0000     0.0000 </r>
       <r>   -15.4132     0.0000     0.0000 </r>
       <r>   -15.3466     0.0000     0.0000 </r>
       <r>   -15.2799     0.0000     0.0000 </r>
       <r>   -15.2133     0.0000     0.0000 </r>
       <r>   -15.1467     0.0000     0.0000 </r>
       <r>   -15.0801     0.0002     0.0000 </r>
       <r>   -15.0135     0.0049     0.0003 </r>
       <r>   -14.9468     0.0696     0.0050 </r>
       <r>   -14.8802     0.4617     0.0357 </r>
       <r>   -14.8136     1.4870     0.1348 </r>
       <r>   -14.7470     2.4005     0.2947 </r>
       <r>   -14.6804     2.2043     0.4416 </r>
       <r>   -14.6137     1.8923     0.5676 </r>
       <r>   -14.5471     1.7701     0.6856 </r>
       <r>   -14.4805     1.0435     0.7551 </r>
       <r>   -14.4139     0.6782     0.8003 </r>
       <r>   -14.3472     1.2979     0.8867 </r>
       <r>   -14.2806     1.6518     0.9968 </r>
       <r>   -14.2140     0.9433     1.0596 </r>
       <r>   -14.1474     0.2736     1.0779 </r>
       <r>   -14.0808     0.3373     1.1003 </r>
       <r>   -14.0141     1.0928     1.1731 </r>
       <r>   -13.9475     1.6731     1.2846 </r>
       <r>   -13.8809     1.1252     1.3596 </r>
       <r>   -13.8143     0.3358     1.3819 </r>
       <r>   -13.7477     0.1134     1.3895 </r>
       <r>   -13.6810     0.4938     1.4224 </r>
       <r>   -13.6144     1.5676     1.5268 </r>
       <r>   -13.5478     2.5486     1.6966 </r>
       <r>   -13.4812     2.6333     1.8720 </r>
       <r>   -13.4146     2.4257     2.0337 </r>
       <r>   -13.3479     2.8276     2.2220 </r>
       <r>   -13.2813     3.7918     2.4747 </r>
       <r>   -13.2147     4.0792     2.7464 </r>
       <r>   -13.1481     3.6298     2.9882 </r>
       <r>   -13.0814     3.3461     3.2111 </r>
       <r>   -13.0148     3.9468     3.4741 </r>
       <r>   -12.9482     4.8486     3.7971 </r>
       <r>   -12.8816     4.8028     4.1171 </r>
       <r>   -12.8150     3.9719     4.3817 </r>
       <r>   -12.7483     3.2771     4.6000 </r>
       <r>   -12.6817     3.6138     4.8408 </r>
       <r>   -12.6151     5.0999     5.1805 </r>
       <r>   -12.5485     6.1356     5.5893 </r>
       <r>   -12.4819     5.7745     5.9740 </r>
       <r>   -12.4152     4.9424     6.3033 </r>
       <r>   -12.3486     5.0047     6.6367 </r>
       <r>   -12.2820     5.9594     7.0337 </r>
       <r>   -12.2154     5.8258     7.4218 </r>
       <r>   -12.1487     4.8018     7.7417 </r>
       <r>   -12.0821     4.7629     8.0590 </r>
       <r>   -12.0155     5.9463     8.4552 </r>
       <r>   -11.9489     6.9725     8.9197 </r>
       <r>   -11.8823     6.9034     9.3796 </r>
       <r>   -11.8156     6.1813     9.7914 </r>
       <r>   -11.7490     6.1966    10.2043 </r>
       <r>   -11.6824     7.4817    10.7027 </r>
       <r>   -11.6158     8.6831    11.2812 </r>
       <r>   -11.5492     8.8468    11.8706 </r>
       <r>   -11.4825     8.1768    12.4153 </r>
       <r>   -11.4159     6.8962    12.8748 </r>
       <r>   -11.3493     6.5936    13.3140 </r>
       <r>   -11.2827     8.1644    13.8579 </r>
       <r>   -11.2161     8.6655    14.4353 </r>
       <r>   -11.1494     7.8822    14.9604 </r>
       <r>   -11.0828     9.0621    15.5641 </r>
       <r>   -11.0162    11.5894    16.3362 </r>
       <r>   -10.9496    12.4321    17.1645 </r>
       <r>   -10.8829    12.3724    17.9887 </r>
       <r>   -10.8163    12.8263    18.8432 </r>
       <r>   -10.7497    12.0343    19.6450 </r>
       <r>   -10.6831    10.4787    20.3431 </r>
       <r>   -10.6165     9.1433    20.9522 </r>
       <r>   -10.5498     7.4858    21.4509 </r>
       <r>   -10.4832     6.9808    21.9160 </r>
       <r>   -10.4166     6.9223    22.3772 </r>
       <r>   -10.3500     5.2047    22.7239 </r>
       <r>   -10.2834     3.2109    22.9378 </r>
       <r>   -10.2167     2.0439    23.0740 </r>
       <r>   -10.1501     1.7958    23.1936 </r>
       <r>   -10.0835     1.7533    23.3104 </r>
       <r>   -10.0169     1.2901    23.3964 </r>
       <r>    -9.9502     1.5225    23.4978 </r>
       <r>    -9.8836     2.3806    23.6564 </r>
       <r>    -9.8170     2.7155    23.8373 </r>
       <r>    -9.7504     2.5211    24.0053 </r>
       <r>    -9.6838     3.1374    24.2143 </r>
       <r>    -9.6171     5.5082    24.5813 </r>
       <r>    -9.5505     7.7920    25.1004 </r>
       <r>    -9.4839     7.3438    25.5896 </r>
       <r>    -9.4173     4.3549    25.8798 </r>
       <r>    -9.3507     1.5042    25.9800 </r>
       <r>    -9.2840     0.2752    25.9983 </r>
       <r>    -9.2174     0.0262    26.0000 </r>
       <r>    -9.1508     0.0303    26.0021 </r>
       <r>    -9.0842     0.2352    26.0177 </r>
       <r>    -9.0176     0.9019    26.0778 </r>
       <r>    -8.9509     1.8883    26.2036 </r>
       <r>    -8.8843     2.9542    26.4004 </r>
       <r>    -8.8177     4.3299    26.6889 </r>
       <r>    -8.7511     5.0249    27.0237 </r>
       <r>    -8.6844     4.3880    27.3160 </r>
       <r>    -8.6178     3.8181    27.5704 </r>
       <r>    -8.5512     4.4041    27.8638 </r>
       <r>    -8.4846     5.3437    28.2198 </r>
       <r>    -8.4180     5.2966    28.5726 </r>
       <r>    -8.3513     3.9130    28.8333 </r>
       <r>    -8.2847     2.3602    28.9906 </r>
       <r>    -8.2181     2.2093    29.1378 </r>
       <r>    -8.1515     3.7714    29.3890 </r>
       <r>    -8.0849     5.6900    29.7681 </r>
       <r>    -8.0182     6.2002    30.1812 </r>
       <r>    -7.9516     6.0636    30.5851 </r>
       <r>    -7.8850     6.3280    31.0067 </r>
       <r>    -7.8184     7.1444    31.4827 </r>
       <r>    -7.7517     7.5503    31.9857 </r>
       <r>    -7.6851     6.2746    32.4037 </r>
       <r>    -7.6185     4.5732    32.7084 </r>
       <r>    -7.5519     3.9860    32.9739 </r>
       <r>    -7.4853     4.5302    33.2757 </r>
       <r>    -7.4186     5.8827    33.6676 </r>
       <r>    -7.3520     7.3400    34.1566 </r>
       <r>    -7.2854     7.4883    34.6555 </r>
       <r>    -7.2188     6.6243    35.0968 </r>
       <r>    -7.1522     6.1599    35.5072 </r>
       <r>    -7.0855     5.6159    35.8814 </r>
       <r>    -7.0189     5.3427    36.2373 </r>
       <r>    -6.9523     6.0210    36.6384 </r>
       <r>    -6.8857     7.3533    37.1283 </r>
       <r>    -6.8190     9.1363    37.7370 </r>
       <r>    -6.7524    11.0591    38.4737 </r>
       <r>    -6.6858    12.2433    39.2894 </r>
       <r>    -6.6192    10.5071    39.9894 </r>
       <r>    -6.5526     7.2599    40.4731 </r>
       <r>    -6.4859     5.0691    40.8108 </r>
       <r>    -6.4193     3.5837    41.0495 </r>
       <r>    -6.3527     2.5904    41.2221 </r>
       <r>    -6.2861     2.1895    41.3680 </r>
       <r>    -6.2195     2.5623    41.5387 </r>
       <r>    -6.1528     3.0833    41.7441 </r>
       <r>    -6.0862     3.3781    41.9691 </r>
       <r>    -6.0196     4.9382    42.2981 </r>
       <r>    -5.9530     7.4632    42.7953 </r>
       <r>    -5.8864     9.1624    43.4057 </r>
       <r>    -5.8197    10.0920    44.0781 </r>
       <r>    -5.7531     9.9779    44.7428 </r>
       <r>    -5.6865     8.1653    45.2868 </r>
       <r>    -5.6199     5.5836    45.6588 </r>
       <r>    -5.5532     3.5876    45.8978 </r>
       <r>    -5.4866     3.2638    46.1152 </r>
       <r>    -5.4200     5.1025    46.4552 </r>
       <r>    -5.3534     6.6539    46.8985 </r>
       <r>    -5.2868     5.9287    47.2934 </r>
       <r>    -5.2201     4.9714    47.6246 </r>
       <r>    -5.1535     4.8998    47.9511 </r>
       <r>    -5.0869     5.7128    48.3317 </r>
       <r>    -5.0203     7.3094    48.8186 </r>
       <r>    -4.9537     8.3296    49.3736 </r>
       <r>    -4.8870     9.1271    49.9816 </r>
       <r>    -4.8204     9.9888    50.6471 </r>
       <r>    -4.7538    10.4856    51.3456 </r>
       <r>    -4.6872    11.5946    52.1181 </r>
       <r>    -4.6205    12.6907    52.9636 </r>
       <r>    -4.5539    12.8149    53.8173 </r>
       <r>    -4.4873    12.7187    54.6646 </r>
       <r>    -4.4207    13.0782    55.5359 </r>
       <r>    -4.3541    13.1996    56.4153 </r>
       <r>    -4.2874    12.9194    57.2760 </r>
       <r>    -4.2208    12.5084    58.1093 </r>
       <r>    -4.1542    12.4973    58.9419 </r>
       <r>    -4.0876    14.2189    59.8892 </r>
       <r>    -4.0210    15.7742    60.9401 </r>
       <r>    -3.9543    14.1350    61.8818 </r>
       <r>    -3.8877    10.8731    62.6062 </r>
       <r>    -3.8211     9.5931    63.2453 </r>
       <r>    -3.7545    10.6419    63.9542 </r>
       <r>    -3.6879    12.3733    64.7786 </r>
       <r>    -3.6212    12.9600    65.6420 </r>
       <r>    -3.5546    12.1682    66.4526 </r>
       <r>    -3.4880    11.7586    67.2360 </r>
       <r>    -3.4214    12.4485    68.0653 </r>
       <r>    -3.3547    13.0077    68.9319 </r>
       <r>    -3.2881    13.8617    69.8554 </r>
       <r>    -3.2215    14.9825    70.8536 </r>
       <r>    -3.1549    14.8959    71.8460 </r>
       <r>    -3.0883    15.2380    72.8611 </r>
       <r>    -3.0216    16.6317    73.9692 </r>
       <r>    -2.9550    16.3342    75.0574 </r>
       <r>    -2.8884    14.6942    76.0363 </r>
       <r>    -2.8218    15.0321    77.0378 </r>
       <r>    -2.7552    16.3325    78.1259 </r>
       <r>    -2.6885    15.9547    79.1888 </r>
       <r>    -2.6219    15.3603    80.2121 </r>
       <r>    -2.5553    15.5116    81.2455 </r>
       <r>    -2.4887    14.6225    82.2197 </r>
       <r>    -2.4220    13.0913    83.0918 </r>
       <r>    -2.3554    12.3575    83.9151 </r>
       <r>    -2.2888    12.2159    84.7289 </r>
       <r>    -2.2222    12.8359    85.5841 </r>
       <r>    -2.1556    14.1389    86.5260 </r>
       <r>    -2.0889    15.2622    87.5428 </r>
       <r>    -2.0223    15.9157    88.6032 </r>
       <r>    -1.9557    16.6114    89.7098 </r>
       <r>    -1.8891    17.6546    90.8860 </r>
       <r>    -1.8225    17.7036    92.0654 </r>
       <r>    -1.7558    16.0001    93.1314 </r>
       <r>    -1.6892    12.9591    93.9947 </r>
       <r>    -1.6226    10.7060    94.7080 </r>
       <r>    -1.5560    10.8976    95.4340 </r>
       <r>    -1.4894    12.3327    96.2556 </r>
       <r>    -1.4227    13.4579    97.1522 </r>
       <r>    -1.3561    12.7328    98.0005 </r>
       <r>    -1.2895    10.1936    98.6796 </r>
       <r>    -1.2229     8.4334    99.2414 </r>
       <r>    -1.1562     8.5973    99.8142 </r>
       <r>    -1.0896     9.8380   100.4696 </r>
       <r>    -1.0230    10.8623   101.1933 </r>
       <r>    -0.9564    10.3976   101.8860 </r>
       <r>    -0.8898     8.2328   102.4345 </r>
       <r>    -0.8231     4.7970   102.7540 </r>
       <r>    -0.7565     2.0130   102.8881 </r>
       <r>    -0.6899     1.4283   102.9833 </r>
       <r>    -0.6233     3.2984   103.2030 </r>
       <r>    -0.5567     5.9972   103.6026 </r>
       <r>    -0.4900     7.2199   104.0836 </r>
       <r>    -0.4234     7.3074   104.5704 </r>
       <r>    -0.3568     7.0026   105.0369 </r>
       <r>    -0.2902     6.9890   105.5026 </r>
       <r>    -0.2235     7.6447   106.0118 </r>
       <r>    -0.1569     8.4631   106.5757 </r>
       <r>    -0.0903     8.6594   107.1526 </r>
       <r>    -0.0237     7.6684   107.6634 </r>
       <r>     0.0429     6.5172   108.0976 </r>
       <r>     0.1096     6.4871   108.5298 </r>
       <r>     0.1762     6.7653   108.9805 </r>
       <r>     0.2428     6.2610   109.3976 </r>
       <r>     0.3094     5.2406   109.7468 </r>
       <r>     0.3760     4.1815   110.0254 </r>
       <r>     0.4427     3.7980   110.2784 </r>
       <r>     0.5093     3.9132   110.5391 </r>
       <r>     0.5759     3.3872   110.7647 </r>
       <r>     0.6425     2.5966   110.9377 </r>
       <r>     0.7092     3.1449   111.1472 </r>
       <r>     0.7758     5.6293   111.5223 </r>
       <r>     0.8424     8.3553   112.0789 </r>
       <r>     0.9090     8.7827   112.6640 </r>
       <r>     0.9756     7.0521   113.1339 </r>
       <r>     1.0423     5.1401   113.4763 </r>
       <r>     1.1089     4.4220   113.7709 </r>
       <r>     1.1755     5.3592   114.1279 </r>
       <r>     1.2421     6.8981   114.5875 </r>
       <r>     1.3087     8.7252   115.1688 </r>
       <r>     1.3754    10.7720   115.8864 </r>
       <r>     1.4420    11.7422   116.6687 </r>
       <r>     1.5086    11.1670   117.4127 </r>
       <r>     1.5752    10.9441   118.1418 </r>
       <r>     1.6418    12.2015   118.9546 </r>
       <r>     1.7085    12.9333   119.8163 </r>
       <r>     1.7751    12.2163   120.6301 </r>
       <r>     1.8417    11.1366   121.3721 </r>
       <r>     1.9083    10.2820   122.0571 </r>
       <r>     1.9750     9.9434   122.7195 </r>
       <r>     2.0416    10.5795   123.4243 </r>
       <r>     2.1082    11.8716   124.2152 </r>
       <r>     2.1748    13.4083   125.1085 </r>
       <r>     2.2414    14.6137   126.0821 </r>
       <r>     2.3081    14.1702   127.0261 </r>
       <r>     2.3747    13.8183   127.9467 </r>
       <r>     2.4413    14.2340   128.8950 </r>
       <r>     2.5079    14.3875   129.8535 </r>
       <r>     2.5745    14.7695   130.8375 </r>
       <r>     2.6412    14.5739   131.8084 </r>
       <r>     2.7078    13.5560   132.7115 </r>
       <r>     2.7744    11.7196   133.4923 </r>
       <r>     2.8410     8.9029   134.0854 </r>
       <r>     2.9077     7.2381   134.5676 </r>
       <r>     2.9743     6.9257   135.0290 </r>
       <r>     3.0409     6.1841   135.4410 </r>
       <r>     3.1075     4.3976   135.7340 </r>
       <r>     3.1741     2.4498   135.8972 </r>
       <r>     3.2408     1.1208   135.9719 </r>
       <r>     3.3074     0.3566   135.9957 </r>
       <r>     3.3740     0.0604   135.9997 </r>
       <r>     3.4406     0.0047   136.0000 </r>
       <r>     3.5072     0.0002   136.0000 </r>
       <r>     3.5739     0.0000   136.0000 </r>
       <r>     3.6405     0.0000   136.0000 </r>
       <r>     3.7071     0.0000   136.0000 </r>
       <r>     3.7737     0.0000   136.0000 </r>
       <r>     3.8403     0.0000   136.0000 </r>
       <r>     3.9070     0.0000   136.0000 </r>
       <r>     3.9736     0.0000   136.0000 </r>
       <r>     4.0402     0.0000   136.0000 </r>
       <r>     4.1068     0.0000   136.0000 </r>
       <r>     4.1735     0.0000   136.0000 </r>
      </set>
     </set>
    </array>
   </total>
  </dos>
 </calculation>
 <structure name="finalpos" >
  <crystal>
   <varray name="basis" >
    <v>       3.54040000       0.00000000       0.00000000 </v>
    <v>      -1.77020000      10.29434800       0.00000000 </v>
    <v>       0.00000000       0.00000000      27.50142900 </v>
   </varray>
   <i name="volume">   1002.32009712 </i>
   <varray name="rec_basis" >
    <v>       0.28245396       0.04857034       0.00000000 </v>
    <v>       0.00000000       0.09714068       0.00000000 </v>
    <v>       0.00000000       0.00000000       0.03636175 </v>
   </varray>
  </crystal>
  <varray name="positions" >
   <v>       0.11402300       0.22804500       0.23316207 </v>
   <v>       0.31402300       0.82804500       0.51499159 </v>
   <v>       0.45808900       0.91617900       0.20939482 </v>
   <v>       0.65808900       0.51617900       0.49122434 </v>
   <v>       0.31085400       0.62170900       0.08414979 </v>
   <v>       0.31085400       0.62170900       0.36597930 </v>
   <v>       0.99923000       0.99846000       0.08631254 </v>
   <v>       0.99923000       0.99846000       0.36814206 </v>
   <v>       0.65492700       0.30985400       0.06041748 </v>
   <v>       0.65492700       0.30985400       0.34224700 </v>
   <v>       0.76973800       0.53947500       0.20725292 </v>
   <v>       0.96973800       0.13947500       0.48908244 </v>
   <v>       0.93971600       0.87943300       0.15783749 </v>
   <v>       0.13971600       0.47943300       0.43966701 </v>
   <v>       0.20515200       0.41030300       0.18578822 </v>
   <v>       0.40515200       0.01030300       0.46761774 </v>
   <v>       0.20184900       0.40369900       0.09969156 </v>
   <v>       0.20184900       0.40369900       0.38152107 </v>
   <v>       0.56380500       0.12761000       0.10779021 </v>
   <v>       0.56380500       0.12761000       0.38961973 </v>
   <v>       0.56710600       0.13421200       0.19387616 </v>
   <v>       0.76710600       0.73421200       0.47570568 </v>
   <v>       0.82923400       0.65846800       0.13571444 </v>
   <v>       0.02923400       0.25846800       0.41754396 </v>
  </varray>
 </structure>
</modeling>
