       N       E                     dE             d eps       ncg     rms          rms(c)
DAV:   1     0.495627058180E+03    0.49563E+03   -0.28686E+04  7360   0.790E+02
DAV:   2    -0.637292546764E+02   -0.55936E+03   -0.54463E+03  9736   0.189E+02
DAV:   3    -0.120978849209E+03   -0.57250E+02   -0.56385E+02  8904   0.623E+01
DAV:   4    -0.123562803569E+03   -0.25840E+01   -0.25661E+01 10680   0.142E+01
DAV:   5    -0.123633527376E+03   -0.70724E-01   -0.70635E-01 10184   0.231E+00    0.117E+01
DAV:   6    -0.119689135255E+03    0.39444E+01   -0.10390E+01  8540   0.862E+00    0.577E+00
DAV:   7    -0.119514862521E+03    0.17427E+00   -0.61652E+00  8512   0.631E+00    0.238E+00
DAV:   8    -0.119537354819E+03   -0.22492E-01   -0.65900E-01  9000   0.235E+00    0.116E+00
DAV:   9    -0.119530753972E+03    0.66008E-02   -0.11649E-01  9040   0.106E+00    0.329E-01
DAV:  10    -0.119522462413E+03    0.82916E-02   -0.26837E-02  8760   0.508E-01    0.130E-01
DAV:  11    -0.119516427300E+03    0.60351E-02   -0.35449E-03  9112   0.191E-01    0.715E-02
DAV:  12    -0.119510388288E+03    0.60390E-02   -0.12752E-03  9032   0.105E-01    0.368E-02
DAV:  13    -0.119507279768E+03    0.31085E-02   -0.37487E-04  9008   0.593E-02    0.168E-02
DAV:  14    -0.119506202210E+03    0.10776E-02   -0.11746E-04  9144   0.277E-02    0.107E-02
DAV:  15    -0.119505717430E+03    0.48478E-03   -0.60833E-05  8432   0.213E-02    0.683E-03
DAV:  16    -0.119506037825E+03   -0.32039E-03   -0.58111E-05  8152   0.184E-02    0.395E-03
DAV:  17    -0.119506519328E+03   -0.48150E-03   -0.16754E-04  8296   0.224E-02    0.225E-03
DAV:  18    -0.119506633968E+03   -0.11464E-03   -0.46329E-05  7624   0.116E-02    0.137E-03
DAV:  19    -0.119506661789E+03   -0.27821E-04   -0.83050E-06  6176   0.682E-03    0.967E-04
DAV:  20    -0.119506695681E+03   -0.33892E-04   -0.26865E-05  6984   0.915E-03    0.683E-04
DAV:  21    -0.119506674116E+03    0.21565E-04   -0.15800E-05  6704   0.946E-03    0.466E-04
DAV:  22    -0.119506608418E+03    0.65697E-04   -0.11098E-05  6408   0.826E-03    0.233E-04
DAV:  23    -0.119506571690E+03    0.36728E-04   -0.59746E-06  6224   0.756E-03    0.127E-04
DAV:  24    -0.119506546727E+03    0.24963E-04   -0.68448E-06  6540   0.800E-03    0.668E-05
DAV:  25    -0.119506538941E+03    0.77865E-05   -0.37982E-06  6376   0.641E-03    0.370E-05
DAV:  26    -0.119506535872E+03    0.30688E-05   -0.23213E-06  6008   0.519E-03    0.186E-05
DAV:  27    -0.119506535217E+03    0.65448E-06   -0.13864E-06  5304   0.461E-03
   1 F= -.11950654E+03 E0= -.11949482E+03  d E =-.234290E-01
