 vasp.5.3.5 31Mar14 (build Oct 29 2014 16:16:03) complex                        
  
 executed on          Linux-UFHPC date 2016.02.09  18:22:04
 running on    8 total cores
 distrk:  each k-point on    8 cores,    1 groups
 distr:  one band on NCORES_PER_BAND=   2 cores,    4 groups


--------------------------------------------------------------------------------------------------------


 INCAR:
 POTCAR:    PAW_PBE P 17Jan2003                   
 POTCAR:   PAW_PBE Si 05Jan2001                   

 ----------------------------------------------------------------------------- 
|                                                                             |
|  ADVICE TO THIS USER RUNNING 'VASP/VAMP'   (HEAR YOUR MASTER'S VOICE ...):  |
|                                                                             |
|      You have switched on vdW-DFT.                                          |
|      This routine was written and supplied by Jiri Klimes.                  |
|      We recommed that you carefully read and cite the following             |
|      publication                                                            |
|      J. Klimes, D.R. Bowler, A. Michelides                                  |
|        J. Phys.: Cond Matt. 22 022201 (2010)                                |
|      J. Klimes, D.R. Bowler, A. Michelides                                  |
|        Phys. Rev. B. 83, 195131 (2011)                                      |
|      and references therein.                                                |
|                                                                             |
 ----------------------------------------------------------------------------- 

 POTCAR:    PAW_PBE P 17Jan2003                   
   VRHFIN =P : s2p3                                                             
   LEXCH  = PE                                                                  
   EATOM  =   176.0430 eV,   12.9388 Ry                                         
                                                                                
   TITEL  = PAW_PBE P 17Jan2003                                                 
   LULTRA =        F    use ultrasoft PP ?                                      
   IUNSCR =        1    unscreen: 0-lin 1-nonlin 2-no                           
   RPACOR =    1.500    partial core radius                                     
   POMASS =   30.974; ZVAL   =    5.000    mass and valenz                      
   RCORE  =    1.900    outmost cutoff radius                                   
   RWIGS  =    2.330; RWIGS  =    1.233    wigner-seitz radius (au A)           
   ENMAX  =  270.000; ENMIN  =  191.280 eV                                      
   ICORE  =        2    local potential                                         
   LCOR   =        T    correct aug charges                                     
   LPAW   =        T    paw PP                                                  
   EAUG   =  342.924                                                            
   DEXC   =    -.002                                                            
   RMAX   =    2.887    core radius for proj-oper                               
   RAUG   =    1.300    factor for augmentation sphere                          
   RDEP   =    1.931    radius for radial grids                                 
   QCUT   =   -4.330; QGAM   =    8.659    optimization parameters              
                                                                                
   Description                                                                  
     l     E      TYP  RCUT    TYP  RCUT                                        
     0   .000     23  1.900                                                     
     0   .000     23  1.900                                                     
     1   .000     23  1.900                                                     
     1   .000     23  1.900                                                     
     2   .000     23  1.900                                                     
  local pseudopotential read in
  partial core-charges read in
  atomic valenz-charges read in
  non local Contribution for L=           0  read in
    real space projection operators read in
  non local Contribution for L=           0  read in
    real space projection operators read in
  non local Contribution for L=           1  read in
    real space projection operators read in
  non local Contribution for L=           1  read in
    real space projection operators read in
    PAW grid and wavefunctions read in
 
   number of l-projection  operators is LMAX  =           4
   number of lm-projection operators is LMMAX =           8
 
 POTCAR:   PAW_PBE Si 05Jan2001                   
   VRHFIN =Si: s2p2                                                             
   LEXCH  = PE                                                                  
   EATOM  =   103.0669 eV,    7.5752 Ry                                         
                                                                                
   TITEL  = PAW_PBE Si 05Jan2001                                                
   LULTRA =        F    use ultrasoft PP ?                                      
   IUNSCR =        1    unscreen: 0-lin 1-nonlin 2-no                           
   RPACOR =    1.500    partial core radius                                     
   POMASS =   28.085; ZVAL   =    4.000    mass and valenz                      
   RCORE  =    1.900    outmost cutoff radius                                   
   RWIGS  =    2.480; RWIGS  =    1.312    wigner-seitz radius (au A)           
   ENMAX  =  245.345; ENMIN  =  184.009 eV                                      
   ICORE  =        2    local potential                                         
   LCOR   =        T    correct aug charges                                     
   LPAW   =        T    paw PP                                                  
   EAUG   =  322.069                                                            
   DEXC   =    -.007                                                            
   RMAX   =    2.944    core radius for proj-oper                               
   RAUG   =    1.300    factor for augmentation sphere                          
   RDEP   =    1.993    radius for radial grids                                 
   QCUT   =   -4.246; QGAM   =    8.493    optimization parameters              
                                                                                
   Description                                                                  
     l     E      TYP  RCUT    TYP  RCUT                                        
     0   .000     23  1.900                                                     
     0   .000     23  1.900                                                     
     1   .000     23  1.900                                                     
     1   .000     23  1.900                                                     
     2   .000      7  1.900                                                     
  local pseudopotential read in
  partial core-charges read in
  atomic valenz-charges read in
  non local Contribution for L=           0  read in
    real space projection operators read in
  non local Contribution for L=           0  read in
    real space projection operators read in
  non local Contribution for L=           1  read in
    real space projection operators read in
  non local Contribution for L=           1  read in
    real space projection operators read in
    PAW grid and wavefunctions read in
 
   number of l-projection  operators is LMAX  =           4
   number of lm-projection operators is LMMAX =           8
 
 Optimization of the real space projectors (new method)

 maximal supplied QI-value         = 19.84
 optimisation between [QCUT,QGAM] = [  8.73, 17.66] = [ 21.34, 87.33] Ry 
 Optimized for a Real-space Cutoff    1.50 Angstroem

   l    n(q)    QCUT    max X(q) W(low)/X(q) W(high)/X(q)  e(spline) 
   0      8     8.731     6.651    0.16E-04    0.15E-04    0.77E-08
   0      8     8.731    90.285    0.16E-03    0.90E-04    0.16E-06
   1      7     8.731     4.328    0.47E-04    0.36E-04    0.45E-07
   1      7     8.731    54.583    0.13E-03    0.39E-03    0.20E-06
 Optimization of the real space projectors (new method)

 maximal supplied QI-value         = 19.84
 optimisation between [QCUT,QGAM] = [  8.73, 17.66] = [ 21.34, 87.33] Ry 
 Optimized for a Real-space Cutoff    1.46 Angstroem

   l    n(q)    QCUT    max X(q) W(low)/X(q) W(high)/X(q)  e(spline) 
   0      8     8.731     8.708    0.16E-04    0.11E-04    0.68E-08
   0      8     8.731   106.241    0.24E-03    0.77E-04    0.13E-06
   1      7     8.731     5.901    0.34E-04    0.38E-04    0.36E-07
   1      7     8.731    73.241    0.12E-03    0.39E-03    0.15E-06

 ----------------------------------------------------------------------------- 
|                                                                             |
|  ADVICE TO THIS USER RUNNING 'VASP/VAMP'   (HEAR YOUR MASTER'S VOICE ...):  |
|                                                                             |
|      You enforced a specific xc-type in the INCAR file,                     |
|      a different type was found on the POTCAR file                          |
|          I HOPE YOU KNOW, WHAT YOU ARE  DOING                               |
|                                                                             |
 ----------------------------------------------------------------------------- 

  PAW_PBE P 17Jan2003                   :
 energy of atom  1       EATOM= -176.0430
 kinetic energy error for atom=    0.0040 (will be added to EATOM!!)
 PAW_PBE Si 05Jan2001                   :
 energy of atom  2       EATOM= -103.0669
 kinetic energy error for atom=    0.0021 (will be added to EATOM!!)
 
 
 POSCAR: Si12                                    
  positions in direct lattice
  No initial velocities read in
 exchange correlation table for  LEXCH =       42
   RHO(1)=    0.500       N(1)  =     2000
   RHO(2)=  100.500       N(2)  =     4000
 


--------------------------------------------------------------------------------------------------------


 ion  position               nearest neighbor table
   1  0.114  0.228  0.233-  15 2.28  21 2.29  21 2.29
   2  0.714  0.128  0.515-  16 2.28  22 2.29  22 2.29
   3  0.458  0.916  0.209-  21 2.28  13 2.30  13 2.30
   4  0.058  0.816  0.491-  22 2.28  14 2.30  14 2.30
   5  0.311  0.622  0.084-  17 2.28  23 2.30  23 2.30
   6  0.311  0.622  0.366-  24 1.65  18 2.28  14 2.65
   7  0.999  0.998  0.086-  19 2.29  19 2.29  13 2.32
   8  0.999  0.998  0.368-  20 2.29  20 2.29  22 3.03
   9  0.655  0.310  0.060-  19 2.28  17 2.29  17 2.29
  10  0.655  0.310  0.342-  20 2.28  18 2.29  18 2.29
  11  0.770  0.539  0.207-  15 2.29  15 2.29  23 2.32
  12  0.370  0.439  0.489-  16 2.29  16 2.29  24 2.32  18 3.03
  13  0.940  0.879  0.158-   3 2.30   3 2.30   7 2.32  23 2.35
  14  0.540  0.779  0.440-   4 2.30   4 2.30  24 2.35   6 2.65
  15  0.205  0.410  0.186-   1 2.28  11 2.29  11 2.29  17 2.37
  16  0.805  0.310  0.468-   2 2.28  12 2.29  12 2.29  18 2.84  20 2.90
  17  0.202  0.404  0.100-   5 2.28   9 2.29   9 2.29  15 2.37
  18  0.202  0.404  0.382-  24 1.95   6 2.28  10 2.29  10 2.29  16 2.84  12 3.03
  19  0.564  0.128  0.108-   9 2.28   7 2.29   7 2.29  21 2.37
  20  0.564  0.128  0.390-  10 2.28   8 2.29   8 2.29  22 2.84  16 2.90
  21  0.567  0.134  0.194-   3 2.28   1 2.29   1 2.29  19 2.37
  22  0.167  0.034  0.476-   4 2.28   2 2.29   2 2.29  20 2.84   8 3.03
  23  0.829  0.658  0.136-   5 2.30   5 2.30  11 2.32  13 2.35
  24  0.429  0.558  0.418-   6 1.65  18 1.95  12 2.32  14 2.35
 
  LATTYP: Found a base centered orthorhombic cell.
 ALAT       =     3.5404000000
 B/A-ratio  =     5.8153587165
 C/A-ratio  =     7.7678875268
  
  Lattice vectors:
  
 A1 = (   1.7702000000,  10.2943480000,   0.0000000000)
 A2 = (   1.7702000000, -10.2943480000,   0.0000000000)
 A3 = (   0.0000000000,   0.0000000000, -27.5014290000)


Analysis of symmetry for initial positions (statically):
=====================================================================
 Subroutine PRICEL returns:
 Original cell was already a primitive cell.
 

 Routine SETGRP: Setting up the symmetry group for a 
 base centered orthorhombic supercell.


 Subroutine GETGRP returns: Found  1 space group operations
 (whereof  1 operations were pure point group operations)
 out of a pool of  8 trial point group operations.


The static configuration has the point symmetry C_1 .


Analysis of symmetry for dynamics (positions and initial velocities):
=====================================================================
 Subroutine PRICEL returns:
 Original cell was already a primitive cell.
 

 Routine SETGRP: Setting up the symmetry group for a 
 base centered orthorhombic supercell.


 Subroutine GETGRP returns: Found  1 space group operations
 (whereof  1 operations were pure point group operations)
 out of a pool of  8 trial point group operations.


The dynamic configuration has the point symmetry C_1 .
 
 
 KPOINTS: pymatgen generated KPOINTS with grid den

Automatic generation of k-mesh.
Space group operators:
 irot       det(A)        alpha          n_x          n_y          n_z        tau_x        tau_y        tau_z
    1     1.000000     0.000000     1.000000     0.000000     0.000000     0.000000     0.000000     0.000000
 
 Subroutine IBZKPT returns following result:
 ===========================================
 
 Found     54 irreducible k-points:
 
 Following reciprocal coordinates:
            Coordinates               Weight
  0.000000  0.000000  0.000000      1.000000
  0.076923 -0.000000  0.000000      2.000000
  0.153846 -0.000000  0.000000      2.000000
  0.230769 -0.000000  0.000000      2.000000
  0.307692 -0.000000  0.000000      2.000000
  0.384615 -0.000000  0.000000      2.000000
  0.461538 -0.000000  0.000000      2.000000
  0.000000  0.250000  0.000000      2.000000
  0.076923  0.250000  0.000000      2.000000
  0.153846  0.250000  0.000000      2.000000
  0.230769  0.250000  0.000000      2.000000
  0.307692  0.250000  0.000000      2.000000
  0.384615  0.250000  0.000000      2.000000
  0.461538  0.250000  0.000000      2.000000
 -0.461538  0.250000  0.000000      2.000000
 -0.384615  0.250000  0.000000      2.000000
 -0.307692  0.250000  0.000000      2.000000
 -0.230769  0.250000  0.000000      2.000000
 -0.153846  0.250000  0.000000      2.000000
 -0.076923  0.250000  0.000000      2.000000
  0.000000  0.500000  0.000000      1.000000
  0.076923  0.500000  0.000000      2.000000
  0.153846  0.500000  0.000000      2.000000
  0.230769  0.500000  0.000000      2.000000
  0.307692  0.500000  0.000000      2.000000
  0.384615  0.500000  0.000000      2.000000
  0.461538  0.500000  0.000000      2.000000
  0.000000  0.000000  0.500000      1.000000
  0.076923 -0.000000  0.500000      2.000000
  0.153846 -0.000000  0.500000      2.000000
  0.230769 -0.000000  0.500000      2.000000
  0.307692 -0.000000  0.500000      2.000000
  0.384615 -0.000000  0.500000      2.000000
  0.461538 -0.000000  0.500000      2.000000
  0.000000  0.250000  0.500000      2.000000
  0.076923  0.250000  0.500000      2.000000
  0.153846  0.250000  0.500000      2.000000
  0.230769  0.250000  0.500000      2.000000
  0.307692  0.250000  0.500000      2.000000
  0.384615  0.250000  0.500000      2.000000
  0.461538  0.250000  0.500000      2.000000
 -0.461538  0.250000  0.500000      2.000000
 -0.384615  0.250000  0.500000      2.000000
 -0.307692  0.250000  0.500000      2.000000
 -0.230769  0.250000  0.500000      2.000000
 -0.153846  0.250000  0.500000      2.000000
 -0.076923  0.250000  0.500000      2.000000
  0.000000  0.500000  0.500000      1.000000
  0.076923  0.500000  0.500000      2.000000
  0.153846  0.500000  0.500000      2.000000
  0.230769  0.500000  0.500000      2.000000
  0.307692  0.500000  0.500000      2.000000
  0.384615  0.500000  0.500000      2.000000
  0.461538  0.500000  0.500000      2.000000
 
 Following cartesian coordinates:
            Coordinates               Weight
  0.000000  0.000000  0.000000      1.000000
  0.021727  0.003736  0.000000      2.000000
  0.043454  0.007472  0.000000      2.000000
  0.065182  0.011209  0.000000      2.000000
  0.086909  0.014945  0.000000      2.000000
  0.108636  0.018681  0.000000      2.000000
  0.130363  0.022417  0.000000      2.000000
  0.000000  0.024285  0.000000      2.000000
  0.021727  0.028021  0.000000      2.000000
  0.043454  0.031758  0.000000      2.000000
  0.065182  0.035494  0.000000      2.000000
  0.086909  0.039230  0.000000      2.000000
  0.108636  0.042966  0.000000      2.000000
  0.130363  0.046702  0.000000      2.000000
 -0.130363  0.001868  0.000000      2.000000
 -0.108636  0.005604  0.000000      2.000000
 -0.086909  0.009340  0.000000      2.000000
 -0.065182  0.013077  0.000000      2.000000
 -0.043454  0.016813  0.000000      2.000000
 -0.021727  0.020549  0.000000      2.000000
  0.000000  0.048570  0.000000      1.000000
  0.021727  0.052307  0.000000      2.000000
  0.043454  0.056043  0.000000      2.000000
  0.065182  0.059779  0.000000      2.000000
  0.086909  0.063515  0.000000      2.000000
  0.108636  0.067251  0.000000      2.000000
  0.130363  0.070987  0.000000      2.000000
  0.000000  0.000000  0.018181      1.000000
  0.021727  0.003736  0.018181      2.000000
  0.043454  0.007472  0.018181      2.000000
  0.065182  0.011209  0.018181      2.000000
  0.086909  0.014945  0.018181      2.000000
  0.108636  0.018681  0.018181      2.000000
  0.130363  0.022417  0.018181      2.000000
  0.000000  0.024285  0.018181      2.000000
  0.021727  0.028021  0.018181      2.000000
  0.043454  0.031758  0.018181      2.000000
  0.065182  0.035494  0.018181      2.000000
  0.086909  0.039230  0.018181      2.000000
  0.108636  0.042966  0.018181      2.000000
  0.130363  0.046702  0.018181      2.000000
 -0.130363  0.001868  0.018181      2.000000
 -0.108636  0.005604  0.018181      2.000000
 -0.086909  0.009340  0.018181      2.000000
 -0.065182  0.013077  0.018181      2.000000
 -0.043454  0.016813  0.018181      2.000000
 -0.021727  0.020549  0.018181      2.000000
  0.000000  0.048570  0.018181      1.000000
  0.021727  0.052307  0.018181      2.000000
  0.043454  0.056043  0.018181      2.000000
  0.065182  0.059779  0.018181      2.000000
  0.086909  0.063515  0.018181      2.000000
  0.108636  0.067251  0.018181      2.000000
  0.130363  0.070987  0.018181      2.000000
 


--------------------------------------------------------------------------------------------------------




 Dimension of arrays:
   k-points           NKPTS =     54   k-points in BZ     NKDIM =     54   number of bands    NBANDS=     68
   number of dos      NEDOS =    301   number of ions     NIONS =     24
   non local maximal  LDIM  =      4   non local SUM 2l+1 LMDIM =      8
   total plane-waves  NPLWV = 192000
   max r-space proj   IRMAX =   2772   max aug-charges    IRDMAX=   6603
   dimension x,y,z NGX =    20 NGY =   60 NGZ =  160
   dimension x,y,z NGXF=    40 NGYF=  120 NGZF=  320
   support grid    NGXF=    40 NGYF=  120 NGZF=  320
   ions per type =              12  12
 NGX,Y,Z   is equivalent  to a cutoff of   9.39,  9.55,  9.67 a.u.
 NGXF,Y,Z  is equivalent  to a cutoff of  18.78, 19.10, 19.34 a.u.


 I would recommend the setting:
   dimension x,y,z NGX =    20 NGY =   59 NGZ =  155
 SYSTEM =  unknown system                          
 POSCAR =  Si12                                    

 Startparameter for this run:
   NWRITE =      2    write-flag & timer
   PREC   = accura    normal or accurate (medium, high low for compatibility)
   ISTART =      0    job   : 0-new  1-cont  2-samecut
   ICHARG =      2    charge: 1-file 2-atom 10-const
   ISPIN  =      1    spin polarized calculation?
   LNONCOLLINEAR =      F non collinear calculations
   LSORBIT =      F    spin-orbit coupling
   INIWAV =      1    electr: 0-lowe 1-rand  2-diag
   LASPH  =      F    aspherical Exc in radial PAW
   METAGGA=      F    non-selfconsistent MetaGGA calc.

 Electronic Relaxation 1
   ENCUT  =  300.0 eV  22.05 Ry    4.70 a.u.   5.00 14.75 38.84*2*pi/ulx,y,z
   ENINI  =  300.0     initial cutoff
   ENAUG  =  342.9 eV  augmentation charge cutoff
   NELM   =     60;   NELMIN=  2; NELMDL= -5     # of ELM steps 
   EDIFF  = 0.1E-05   stopping-criterion for ELM
   LREAL  =      T    real-space projection
   NLSPLINE    = F    spline interpolate recip. space projectors
   LCOMPAT=      F    compatible to vasp.4.4
   GGA_COMPAT  = T    GGA compatible to vasp.4.4-vasp.4.6
   LMAXPAW     = -100 max onsite density
   LMAXMIX     =    2 max onsite mixed and CHGCAR
   VOSKOWN=      0    Vosko Wilk Nusair interpolation
   ROPT   =   -0.00025  -0.00025
 Ionic relaxation
   EDIFFG = 0.1E-04   stopping-criterion for IOM
   NSW    =      0    number of steps for IOM
   NBLOCK =      1;   KBLOCK =      1    inner block; outer block 
   IBRION =     -1    ionic relax: 0-MD 1-quasi-New 2-CG
   NFREE  =      1    steps in history (QN), initial steepest desc. (CG)
   ISIF   =      3    stress and relaxation
   IWAVPR =     10    prediction:  0-non 1-charg 2-wave 3-comb
   ISYM   =      2    0-nonsym 1-usesym 2-fastsym
   LCORR  =      T    Harris-Foulkes like correction to forces

   POTIM  = 0.5000    time-step for ionic-motion
   TEIN   =    0.0    initial temperature
   TEBEG  =    0.0;   TEEND  =   0.0 temperature during run
   SMASS  =  -3.00    Nose mass-parameter (am)
   estimated Nose-frequenzy (Omega)   =  0.10E-29 period in steps =****** mass=  -0.286E-27a.u.
   SCALEE = 1.0000    scale energy and forces
   NPACO  =    256;   APACO  = 16.0  distance and # of slots for P.C.
   PSTRESS=    0.0 pullay stress

  Mass of Ions in am
   POMASS =  30.97 28.09
  Ionic Valenz
   ZVAL   =   5.00  4.00
  Atomic Wigner-Seitz radii
   RWIGS  =  -1.00 -1.00
  virtual crystal weights 
   VCA    =   1.00  1.00
   NELECT =     108.0000    total number of electrons
   NUPDOWN=      -1.0000    fix difference up-down

 DOS related values:
   EMIN   =  10.00;   EMAX   =-10.00  energy-range for DOS
   EFERMI =   0.00
   ISMEAR =     0;   SIGMA  =   0.10  broadening in eV -4-tet -1-fermi 0-gaus

 Electronic relaxation 2 (details)
   IALGO  =     38    algorithm
   LDIAG  =      T    sub-space diagonalisation (order eigenvalues)
   LSUBROT=      F    optimize rotation matrix (better conditioning)
   TURBO    =      0    0=normal 1=particle mesh
   IRESTART =      0    0=no restart 2=restart with 2 vectors
   NREBOOT  =      0    no. of reboots
   NMIN     =      0    reboot dimension
   EREF     =   0.00    reference energy to select bands
   IMIX   =      4    mixing-type and parameters
     AMIX     =   0.40;   BMIX     =  1.00
     AMIX_MAG =   1.60;   BMIX_MAG =  1.00
     AMIN     =   0.10
     WC   =   100.;   INIMIX=   1;  MIXPRE=   1;  MAXMIX= -45

 Intra band minimization:
   WEIMIN = 0.0000     energy-eigenvalue tresh-hold
   EBREAK =  0.37E-08  absolut break condition
   DEPER  =   0.30     relativ break condition  

   TIME   =   0.40     timestep for ELM

  volume/ion in A,a.u.               =      41.76       281.83
  Fermi-wavevector in a.u.,A,eV,Ry     =   0.779018  1.472130  8.256946  0.606868
  Thomas-Fermi vector in A             =   1.882034
 
 Write flags
   LWAVE  =      F    write WAVECAR
   LCHARG =      F    write CHGCAR
   LVTOT  =      F    write LOCPOT, total local potential
   LVHAR  =      F    write LOCPOT, Hartree potential only
   LELF   =      F    write electronic localiz. function (ELF)
   LORBIT =      0    0 simple, 1 ext, 2 COOP (PROOUT)


 Dipole corrections
   LMONO  =      F    monopole corrections only (constant potential shift)
   LDIPOL =      F    correct potential (dipole corrections)
   IDIPOL =      0    1-x, 2-y, 3-z, 4-all directions 
   EPSILON=  1.0000000 bulk dielectric constant

 Exchange correlation treatment:
   GGA     =    BO    GGA type
   LEXCH   =    42    internal setting for exchange type
   VOSKOWN=      0    Vosko Wilk Nusair interpolation
   LHFCALC =     F    Hartree Fock is set to
   LHFONE  =     F    Hartree Fock one center treatment
   AEXX    =    0.0000 exact exchange contribution

 vdW DFT:
   LUSE_VDW   =     T    switch on vdW DFT
   Zab_VDW    =-.8491    correlation parameter
   PARAM1     =0.1833
   PARAM2     =0.2200
   PARAM3     =0.0000

 Linear response parameters
   LEPSILON=     F    determine dielectric tensor
   LRPA    =     F    only Hartree local field effects (RPA)
   LNABLA  =     F    use nabla operator in PAW spheres
   LVEL    =     F    velocity operator in full k-point grid
   LINTERFAST=   F  fast interpolation
   KINTER  =     0    interpolate to denser k-point grid
   CSHIFT  =0.1000    complex shift for real part using Kramers Kronig
   OMEGAMAX=  -1.0    maximum frequency
   DEG_THRESHOLD= 0.2000000E-02 threshold for treating states as degnerate
   RTIME   =    0.100 relaxation time in fs

 Orbital magnetization related:
   ORBITALMAG=     F  switch on orbital magnetization
   LCHIMAG   =     F  perturbation theory with respect to B field
   DQ        =  0.001000  dq finite difference perturbation B field



--------------------------------------------------------------------------------------------------------


 Static calculation
 charge density and potential will be updated during run
 non-spin polarized calculation
 Variant of blocked Davidson
 Davidson routine will perform the subspace rotation
 perform sub-space diagonalisation
    after iterative eigenvector-optimisation
 modified Broyden-mixing scheme, WC =      100.0
 initial mixing is a Kerker type mixing with AMIX =  0.4000 and BMIX =      1.0000
 Hartree-type preconditioning will be used
 using additional bands           14
 real space projection scheme for non local part
 use partial core corrections
 calculate Harris-corrections to forces 
   (improved forces if not selfconsistent)
 use gradient corrections 
 use of overlap-Matrix (Vanderbilt PP)
 Gauss-broadening in eV      SIGMA  =   0.10


--------------------------------------------------------------------------------------------------------


  energy-cutoff  :      300.00
  volume of cell :     1002.32
      direct lattice vectors                 reciprocal lattice vectors
     3.540400000  0.000000000  0.000000000     0.282453960  0.048570342  0.000000000
    -1.770200000 10.294348000  0.000000000     0.000000000  0.097140683  0.000000000
     0.000000000  0.000000000 27.501429000     0.000000000  0.000000000  0.036361747

  length of vectors
     3.540400000 10.445439617 27.501429000     0.286599577  0.097140683  0.036361747


 
 k-points in units of 2pi/SCALE and weight: pymatgen generated KPOINTS with grid den
   0.00000000  0.00000000  0.00000000       0.010
   0.02172723  0.00373618  0.00000000       0.019
   0.04345446  0.00747236  0.00000000       0.019
   0.06518168  0.01120854  0.00000000       0.019
   0.08690891  0.01494472  0.00000000       0.019
   0.10863614  0.01868090  0.00000000       0.019
   0.13036337  0.02241708  0.00000000       0.019
   0.00000000  0.02428517  0.00000000       0.019
   0.02172723  0.02802135  0.00000000       0.019
   0.04345446  0.03175753  0.00000000       0.019
   0.06518168  0.03549371  0.00000000       0.019
   0.08690891  0.03922989  0.00000000       0.019
   0.10863614  0.04296607  0.00000000       0.019
   0.13036337  0.04670225  0.00000000       0.019
  -0.13036337  0.00186809  0.00000000       0.019
  -0.10863614  0.00560427  0.00000000       0.019
  -0.08690891  0.00934045  0.00000000       0.019
  -0.06518168  0.01307663  0.00000000       0.019
  -0.04345446  0.01681281  0.00000000       0.019
  -0.02172723  0.02054899  0.00000000       0.019
   0.00000000  0.04857034  0.00000000       0.010
   0.02172723  0.05230652  0.00000000       0.019
   0.04345446  0.05604270  0.00000000       0.019
   0.06518168  0.05977888  0.00000000       0.019
   0.08690891  0.06351506  0.00000000       0.019
   0.10863614  0.06725124  0.00000000       0.019
   0.13036337  0.07098742  0.00000000       0.019
   0.00000000  0.00000000  0.01818087       0.010
   0.02172723  0.00373618  0.01818087       0.019
   0.04345446  0.00747236  0.01818087       0.019
   0.06518168  0.01120854  0.01818087       0.019
   0.08690891  0.01494472  0.01818087       0.019
   0.10863614  0.01868090  0.01818087       0.019
   0.13036337  0.02241708  0.01818087       0.019
   0.00000000  0.02428517  0.01818087       0.019
   0.02172723  0.02802135  0.01818087       0.019
   0.04345446  0.03175753  0.01818087       0.019
   0.06518168  0.03549371  0.01818087       0.019
   0.08690891  0.03922989  0.01818087       0.019
   0.10863614  0.04296607  0.01818087       0.019
   0.13036337  0.04670225  0.01818087       0.019
  -0.13036337  0.00186809  0.01818087       0.019
  -0.10863614  0.00560427  0.01818087       0.019
  -0.08690891  0.00934045  0.01818087       0.019
  -0.06518168  0.01307663  0.01818087       0.019
  -0.04345446  0.01681281  0.01818087       0.019
  -0.02172723  0.02054899  0.01818087       0.019
   0.00000000  0.04857034  0.01818087       0.010
   0.02172723  0.05230652  0.01818087       0.019
   0.04345446  0.05604270  0.01818087       0.019
   0.06518168  0.05977888  0.01818087       0.019
   0.08690891  0.06351506  0.01818087       0.019
   0.10863614  0.06725124  0.01818087       0.019
   0.13036337  0.07098742  0.01818087       0.019
 
 k-points in reciprocal lattice and weights: pymatgen generated KPOINTS with grid den
   0.00000000  0.00000000  0.00000000       0.010
   0.07692308 -0.00000000  0.00000000       0.019
   0.15384615 -0.00000000  0.00000000       0.019
   0.23076923 -0.00000000  0.00000000       0.019
   0.30769231 -0.00000000  0.00000000       0.019
   0.38461538 -0.00000000  0.00000000       0.019
   0.46153846 -0.00000000  0.00000000       0.019
   0.00000000  0.25000000  0.00000000       0.019
   0.07692308  0.25000000  0.00000000       0.019
   0.15384615  0.25000000  0.00000000       0.019
   0.23076923  0.25000000  0.00000000       0.019
   0.30769231  0.25000000  0.00000000       0.019
   0.38461538  0.25000000  0.00000000       0.019
   0.46153846  0.25000000  0.00000000       0.019
  -0.46153846  0.25000000  0.00000000       0.019
  -0.38461538  0.25000000  0.00000000       0.019
  -0.30769231  0.25000000  0.00000000       0.019
  -0.23076923  0.25000000  0.00000000       0.019
  -0.15384615  0.25000000  0.00000000       0.019
  -0.07692308  0.25000000  0.00000000       0.019
   0.00000000  0.50000000  0.00000000       0.010
   0.07692308  0.50000000  0.00000000       0.019
   0.15384615  0.50000000  0.00000000       0.019
   0.23076923  0.50000000  0.00000000       0.019
   0.30769231  0.50000000  0.00000000       0.019
   0.38461538  0.50000000  0.00000000       0.019
   0.46153846  0.50000000  0.00000000       0.019
   0.00000000  0.00000000  0.50000000       0.010
   0.07692308 -0.00000000  0.50000000       0.019
   0.15384615 -0.00000000  0.50000000       0.019
   0.23076923 -0.00000000  0.50000000       0.019
   0.30769231 -0.00000000  0.50000000       0.019
   0.38461538 -0.00000000  0.50000000       0.019
   0.46153846 -0.00000000  0.50000000       0.019
   0.00000000  0.25000000  0.50000000       0.019
   0.07692308  0.25000000  0.50000000       0.019
   0.15384615  0.25000000  0.50000000       0.019
   0.23076923  0.25000000  0.50000000       0.019
   0.30769231  0.25000000  0.50000000       0.019
   0.38461538  0.25000000  0.50000000       0.019
   0.46153846  0.25000000  0.50000000       0.019
  -0.46153846  0.25000000  0.50000000       0.019
  -0.38461538  0.25000000  0.50000000       0.019
  -0.30769231  0.25000000  0.50000000       0.019
  -0.23076923  0.25000000  0.50000000       0.019
  -0.15384615  0.25000000  0.50000000       0.019
  -0.07692308  0.25000000  0.50000000       0.019
   0.00000000  0.50000000  0.50000000       0.010
   0.07692308  0.50000000  0.50000000       0.019
   0.15384615  0.50000000  0.50000000       0.019
   0.23076923  0.50000000  0.50000000       0.019
   0.30769231  0.50000000  0.50000000       0.019
   0.38461538  0.50000000  0.50000000       0.019
   0.46153846  0.50000000  0.50000000       0.019
 
 position of ions in fractional coordinates (direct lattice) 
   0.11402300  0.22804500  0.23316207
   0.71402300  0.12804500  0.51499159
   0.45808900  0.91617900  0.20939482
   0.05808900  0.81617900  0.49122434
   0.31085400  0.62170900  0.08414979
   0.31085400  0.62170900  0.36597930
   0.99923000  0.99846000  0.08631254
   0.99923000  0.99846000  0.36814206
   0.65492700  0.30985400  0.06041748
   0.65492700  0.30985400  0.34224700
   0.76973800  0.53947500  0.20725292
   0.36973800  0.43947500  0.48908244
   0.93971600  0.87943300  0.15783749
   0.53971600  0.77943300  0.43966701
   0.20515200  0.41030300  0.18578822
   0.80515200  0.31030300  0.46761774
   0.20184900  0.40369900  0.09969156
   0.20184900  0.40369900  0.38152107
   0.56380500  0.12761000  0.10779021
   0.56380500  0.12761000  0.38961973
   0.56710600  0.13421200  0.19387616
   0.16710600  0.03421200  0.47570568
   0.82923400  0.65846800  0.13571444
   0.42923400  0.55846800  0.41754396
 
 position of ions in cartesian coordinates  (Angst):
   0.00000177  2.34757459  6.41229012
   2.30126177  1.31813979 14.16300462
  -0.00000177  9.43146546  5.75865686
  -1.23914177  8.40203066 13.50937136
  -0.00000177  6.40008880  2.31423934
  -0.00000177  6.40008880 10.06495384
   1.77020000 10.27849470  2.37371832
   1.77020000 10.27849470 10.12443282
   1.77020000  3.18974491  1.66156717
   1.77020000  3.18974491  9.41228167
   1.77020177  5.55354339  5.69975143
   0.53106177  4.52410859 13.45046593
   1.77019823  9.05318934  4.34075665
   0.53105823  8.02375454 12.09147115
   0.00000177  4.22380187  5.10944151
   2.30126177  3.19436707 12.86015601
  -0.00000177  4.15581799  2.74166024
  -0.00000177  4.15581799 10.49237474
   1.77020000  1.31366175  2.96438477
   1.77020000  1.31366175 10.71509927
   1.77020000  1.38162503  5.33187152
   0.53106000  0.35219023 13.08258602
   1.77020000  6.77849874  3.73234107
   0.53106000  5.74906394 11.48305557
 


--------------------------------------------------------------------------------------------------------


 k-point  1 :   0.0000 0.0000 0.0000  plane waves:   11717
 k-point  2 :   0.0769-0.0000 0.0000  plane waves:   11762
 k-point  3 :   0.1538-0.0000 0.0000  plane waves:   11805
 k-point  4 :   0.2308-0.0000 0.0000  plane waves:   11824
 k-point  5 :   0.3077-0.0000 0.0000  plane waves:   11875
 k-point  6 :   0.3846-0.0000 0.0000  plane waves:   11864
 k-point  7 :   0.4615-0.0000 0.0000  plane waves:   11883
 k-point  8 :   0.0000 0.2500 0.0000  plane waves:   11683
 k-point  9 :   0.0769 0.2500 0.0000  plane waves:   11756
 k-point 10 :   0.1538 0.2500 0.0000  plane waves:   11807
 k-point 11 :   0.2308 0.2500 0.0000  plane waves:   11853
 k-point 12 :   0.3077 0.2500 0.0000  plane waves:   11866
 k-point 13 :   0.3846 0.2500 0.0000  plane waves:   11889
 k-point 14 :   0.4615 0.2500 0.0000  plane waves:   11885
 k-point 15 :  -0.4615 0.2500 0.0000  plane waves:   11886
 k-point 16 :  -0.3846 0.2500 0.0000  plane waves:   11867
 k-point 17 :  -0.3077 0.2500 0.0000  plane waves:   11849
 k-point 18 :  -0.2308 0.2500 0.0000  plane waves:   11827
 k-point 19 :  -0.1538 0.2500 0.0000  plane waves:   11801
 k-point 20 :  -0.0769 0.2500 0.0000  plane waves:   11757
 k-point 21 :   0.0000 0.5000 0.0000  plane waves:   11710
 k-point 22 :   0.0769 0.5000 0.0000  plane waves:   11762
 k-point 23 :   0.1538 0.5000 0.0000  plane waves:   11782
 k-point 24 :   0.2308 0.5000 0.0000  plane waves:   11841
 k-point 25 :   0.3077 0.5000 0.0000  plane waves:   11876
 k-point 26 :   0.3846 0.5000 0.0000  plane waves:   11889
 k-point 27 :   0.4615 0.5000 0.0000  plane waves:   11881
 k-point 28 :   0.0000 0.0000 0.5000  plane waves:   11698
 k-point 29 :   0.0769-0.0000 0.5000  plane waves:   11752
 k-point 30 :   0.1538-0.0000 0.5000  plane waves:   11800
 k-point 31 :   0.2308-0.0000 0.5000  plane waves:   11834
 k-point 32 :   0.3077-0.0000 0.5000  plane waves:   11850
 k-point 33 :   0.3846-0.0000 0.5000  plane waves:   11888
 k-point 34 :   0.4615-0.0000 0.5000  plane waves:   11896
 k-point 35 :   0.0000 0.2500 0.5000  plane waves:   11714
 k-point 36 :   0.0769 0.2500 0.5000  plane waves:   11754
 k-point 37 :   0.1538 0.2500 0.5000  plane waves:   11802
 k-point 38 :   0.2308 0.2500 0.5000  plane waves:   11840
 k-point 39 :   0.3077 0.2500 0.5000  plane waves:   11858
 k-point 40 :   0.3846 0.2500 0.5000  plane waves:   11896
 k-point 41 :   0.4615 0.2500 0.5000  plane waves:   11886
 k-point 42 :  -0.4615 0.2500 0.5000  plane waves:   11852
 k-point 43 :  -0.3846 0.2500 0.5000  plane waves:   11838
 k-point 44 :  -0.3077 0.2500 0.5000  plane waves:   11842
 k-point 45 :  -0.2308 0.2500 0.5000  plane waves:   11840
 k-point 46 :  -0.1538 0.2500 0.5000  plane waves:   11804
 k-point 47 :  -0.0769 0.2500 0.5000  plane waves:   11748
 k-point 48 :   0.0000 0.5000 0.5000  plane waves:   11724
 k-point 49 :   0.0769 0.5000 0.5000  plane waves:   11748
 k-point 50 :   0.1538 0.5000 0.5000  plane waves:   11814
 k-point 51 :   0.2308 0.5000 0.5000  plane waves:   11832
 k-point 52 :   0.3077 0.5000 0.5000  plane waves:   11868
 k-point 53 :   0.3846 0.5000 0.5000  plane waves:   11892
 k-point 54 :   0.4615 0.5000 0.5000  plane waves:   11878

 maximum and minimum number of plane-waves per node :      5964     5832

 maximum number of plane-waves:     11896
 maximum index in each direction: 
   IXMAX=    5   IYMAX=   14   IZMAX=   38
   IXMIN=   -5   IYMIN=  -15   IZMIN=  -39

 WARNING: aliasing errors must be expected set NGX to  22 to avoid them
 NGY is ok and might be reduce to  60
 NGZ is ok and might be reduce to 156
 aliasing errors are usually negligible using standard VASP settings
 and one can safely disregard these warnings

 real space projection operators:
  total allocation   :       3793.25 KBytes
  max/ min on nodes  :       1899.38       1893.88


 parallel 3D FFT for wavefunctions:
    minimum data exchange during FFTs selected (reduces bandwidth)
 parallel 3D FFT for charge:
    minimum data exchange during FFTs selected (reduces bandwidth)


 total amount of memory used by VASP on root node   146493. kBytes
========================================================================

   base      :      30000. kBytes
   nonlr-proj:       3452. kBytes
   fftplans  :       9347. kBytes
   grid      :      14649. kBytes
   one-center:         36. kBytes
   wavefun   :      89009. kBytes
 
     INWAV:  cpu time    0.00: real time    0.00
 Broyden mixing: mesh for mixing (old mesh)
   NGX =  9   NGY = 29   NGZ = 77
  (NGX  = 40   NGY  =120   NGZ  =320)
  gives a total of  20097 points

 initial charge density was supplied:
 charge density of overlapping atoms calculated
 number of electron     108.0000000 magnetization 
 keeping initial charge density in first step


--------------------------------------------------------------------------------------------------------


 Maximum index for non-local projection operator         1333
 Maximum index for augmentation-charges          822 (set IRDMAX)


--------------------------------------------------------------------------------------------------------


 First call to EWALD:  gamma=   0.177
 Maximum number of real-space cells 7x 3x 1
 Maximum number of reciprocal cells 1x 3x 7

 FEWALD executed in parallel
    FEWALD:  cpu time    0.00: real time    0.00


----------------------------------------- Iteration    1(   1)  ---------------------------------------


vdW kernel read from vdw_kernel.bindat
  0.0000  0.2424  0.5071  0.7962  1.1119  1.4567  1.8333  2.2446  2.6937  3.1842
  3.7199  4.3049  4.9438  5.6415  6.4036  7.2358  8.1446  9.1372 10.2212 11.4050
 12.6979 14.1099 15.6519 17.3360 19.1751 21.1837 23.3773 25.7729 28.3892 31.2465
 34.3669 37.7748 41.4965 45.5611 50.0000
 
    POTLOK:  cpu time   16.64: real time   16.68
    SETDIJ:  cpu time    0.01: real time    0.02
     EDDAV:  cpu time   64.20: real time   64.25
       DOS:  cpu time    0.01: real time    0.01
    --------------------------------------------
      LOOP:  cpu time   80.87: real time   80.96

 eigenvalue-minimisations  :  7360
 total energy-change (2. order) : 0.4956271E+03  (-0.2868558E+04)
 number of electron     108.0000000 magnetization 
 augmentation part      108.0000000 magnetization 

 Free energy of the ion-electron system (eV)
  ---------------------------------------------------
  alpha Z        PSCENC =        36.80884744
  Ewald energy   TEWEN  =     11930.73761304
  -Hartree energ DENC   =    -14970.69973424
  -exchange      EXHF   =         0.00000000
  -V(xc)+E(xc)   XCENC  =       -87.80822786
  PAW double counting   =      1056.43050070     -732.41190547
  entropy T*S    EENTRO =        -0.03970145
  eigenvalues    EBANDS =       -91.43159442
  atomic energy  EATOM  =      3354.04126044
  ---------------------------------------------------
  free energy    TOTEN  =       495.62705818 eV

  energy without entropy =      495.66675963  energy(sigma->0) =      495.64690891


--------------------------------------------------------------------------------------------------------




----------------------------------------- Iteration    1(   2)  ---------------------------------------


     EDDAV:  cpu time   80.53: real time   80.60
       DOS:  cpu time    0.01: real time    0.01
    --------------------------------------------
      LOOP:  cpu time   80.55: real time   80.62

 eigenvalue-minimisations  :  9736
 total energy-change (2. order) :-0.5593563E+03  (-0.5446327E+03)
 number of electron     108.0000000 magnetization 
 augmentation part      108.0000000 magnetization 

 Free energy of the ion-electron system (eV)
  ---------------------------------------------------
  alpha Z        PSCENC =        36.80884744
  Ewald energy   TEWEN  =     11930.73761304
  -Hartree energ DENC   =    -14970.69973424
  -exchange      EXHF   =         0.00000000
  -V(xc)+E(xc)   XCENC  =       -87.80822786
  PAW double counting   =      1056.43050070     -732.41190547
  entropy T*S    EENTRO =        -0.02069828
  eigenvalues    EBANDS =      -650.80691044
  atomic energy  EATOM  =      3354.04126044
  ---------------------------------------------------
  free energy    TOTEN  =       -63.72925468 eV

  energy without entropy =      -63.70855640  energy(sigma->0) =      -63.71890554


--------------------------------------------------------------------------------------------------------




----------------------------------------- Iteration    1(   3)  ---------------------------------------


     EDDAV:  cpu time   74.67: real time   74.68
       DOS:  cpu time    0.01: real time    0.01
    --------------------------------------------
      LOOP:  cpu time   74.68: real time   74.70

 eigenvalue-minimisations  :  8904
 total energy-change (2. order) :-0.5724959E+02  (-0.5638531E+02)
 number of electron     108.0000000 magnetization 
 augmentation part      108.0000000 magnetization 

 Free energy of the ion-electron system (eV)
  ---------------------------------------------------
  alpha Z        PSCENC =        36.80884744
  Ewald energy   TEWEN  =     11930.73761304
  -Hartree energ DENC   =    -14970.69973424
  -exchange      EXHF   =         0.00000000
  -V(xc)+E(xc)   XCENC  =       -87.80822786
  PAW double counting   =      1056.43050070     -732.41190547
  entropy T*S    EENTRO =        -0.02439694
  eigenvalues    EBANDS =      -708.05280631
  atomic energy  EATOM  =      3354.04126044
  ---------------------------------------------------
  free energy    TOTEN  =      -120.97884921 eV

  energy without entropy =     -120.95445227  energy(sigma->0) =     -120.96665074


--------------------------------------------------------------------------------------------------------




----------------------------------------- Iteration    1(   4)  ---------------------------------------


     EDDAV:  cpu time   85.75: real time   85.77
       DOS:  cpu time    0.01: real time    0.01
    --------------------------------------------
      LOOP:  cpu time   85.76: real time   85.78

 eigenvalue-minimisations  : 10680
 total energy-change (2. order) :-0.2583954E+01  (-0.2566100E+01)
 number of electron     108.0000000 magnetization 
 augmentation part      108.0000000 magnetization 

 Free energy of the ion-electron system (eV)
  ---------------------------------------------------
  alpha Z        PSCENC =        36.80884744
  Ewald energy   TEWEN  =     11930.73761304
  -Hartree energ DENC   =    -14970.69973424
  -exchange      EXHF   =         0.00000000
  -V(xc)+E(xc)   XCENC  =       -87.80822786
  PAW double counting   =      1056.43050070     -732.41190547
  entropy T*S    EENTRO =        -0.02417570
  eigenvalues    EBANDS =      -710.63698191
  atomic energy  EATOM  =      3354.04126044
  ---------------------------------------------------
  free energy    TOTEN  =      -123.56280357 eV

  energy without entropy =     -123.53862787  energy(sigma->0) =     -123.55071572


--------------------------------------------------------------------------------------------------------




----------------------------------------- Iteration    1(   5)  ---------------------------------------


     EDDAV:  cpu time   82.35: real time   82.37
       DOS:  cpu time    0.01: real time    0.01
    CHARGE:  cpu time    4.19: real time    4.19
    MIXING:  cpu time    0.01: real time    0.01
    --------------------------------------------
      LOOP:  cpu time   86.57: real time   86.59

 eigenvalue-minimisations  : 10184
 total energy-change (2. order) :-0.7072381E-01  (-0.7063484E-01)
 number of electron     107.9999994 magnetization 
 augmentation part       -9.6474470 magnetization 

 Broyden mixing:
  rms(total) = 0.11739E+01    rms(broyden)= 0.11736E+01
  rms(prec ) = 0.12595E+01
  weight for this iteration     100.00

 Free energy of the ion-electron system (eV)
  ---------------------------------------------------
  alpha Z        PSCENC =        36.80884744
  Ewald energy   TEWEN  =     11930.73761304
  -Hartree energ DENC   =    -14970.69973424
  -exchange      EXHF   =         0.00000000
  -V(xc)+E(xc)   XCENC  =       -87.80822786
  PAW double counting   =      1056.43050070     -732.41190547
  entropy T*S    EENTRO =        -0.02427095
  eigenvalues    EBANDS =      -710.70761047
  atomic energy  EATOM  =      3354.04126044
  ---------------------------------------------------
  free energy    TOTEN  =      -123.63352738 eV

  energy without entropy =     -123.60925643  energy(sigma->0) =     -123.62139190


--------------------------------------------------------------------------------------------------------




----------------------------------------- Iteration    1(   6)  ---------------------------------------


    POTLOK:  cpu time   15.20: real time   15.20
    SETDIJ:  cpu time    0.01: real time    0.01
     EDDAV:  cpu time   71.21: real time   71.22
       DOS:  cpu time    0.01: real time    0.01
    CHARGE:  cpu time    4.17: real time    4.17
    MIXING:  cpu time    0.01: real time    0.01
    --------------------------------------------
      LOOP:  cpu time   90.61: real time   90.63

 eigenvalue-minimisations  :  8540
 total energy-change (2. order) : 0.3944392E+01  (-0.1039018E+01)
 number of electron     107.9999994 magnetization 
 augmentation part       -9.4793392 magnetization 

 Broyden mixing:
  rms(total) = 0.57729E+00    rms(broyden)= 0.57727E+00
  rms(prec ) = 0.61201E+00
  weight for this iteration     100.00

 eigenvalues of (default mixing * dielectric matrix)
  average eigenvalue GAMMA=   1.6226
  1.6226

 Free energy of the ion-electron system (eV)
  ---------------------------------------------------
  alpha Z        PSCENC =        36.80884744
  Ewald energy   TEWEN  =     11930.73761304
  -Hartree energ DENC   =    -15017.79403566
  -exchange      EXHF   =         0.00000000
  -V(xc)+E(xc)   XCENC  =       -84.46581336
  PAW double counting   =      1122.90520390     -800.74411015
  entropy T*S    EENTRO =        -0.02482162
  eigenvalues    EBANDS =      -661.15327929
  atomic energy  EATOM  =      3354.04126044
  ---------------------------------------------------
  free energy    TOTEN  =      -119.68913525 eV

  energy without entropy =     -119.66431363  energy(sigma->0) =     -119.67672444


--------------------------------------------------------------------------------------------------------




----------------------------------------- Iteration    1(   7)  ---------------------------------------


    POTLOK:  cpu time   15.12: real time   15.12
    SETDIJ:  cpu time    0.02: real time    0.02
     EDDAV:  cpu time   71.30: real time   71.32
       DOS:  cpu time    0.01: real time    0.01
    CHARGE:  cpu time    4.65: real time    4.65
    MIXING:  cpu time    0.02: real time    0.02
    --------------------------------------------
      LOOP:  cpu time   91.13: real time   91.14

 eigenvalue-minimisations  :  8512
 total energy-change (2. order) : 0.1742727E+00  (-0.6165230E+00)
 number of electron     107.9999994 magnetization 
 augmentation part       -9.3817811 magnetization 

 Broyden mixing:
  rms(total) = 0.23784E+00    rms(broyden)= 0.23778E+00
  rms(prec ) = 0.24960E+00
  weight for this iteration     100.00

 eigenvalues of (default mixing * dielectric matrix)
  average eigenvalue GAMMA=   1.4800
  1.1205  1.8395

 Free energy of the ion-electron system (eV)
  ---------------------------------------------------
  alpha Z        PSCENC =        36.80884744
  Ewald energy   TEWEN  =     11930.73761304
  -Hartree energ DENC   =    -15043.95051762
  -exchange      EXHF   =         0.00000000
  -V(xc)+E(xc)   XCENC  =       -81.73468089
  PAW double counting   =      1166.80597138     -845.87765517
  entropy T*S    EENTRO =        -0.02272980
  eigenvalues    EBANDS =      -636.32297135
  atomic energy  EATOM  =      3354.04126044
  ---------------------------------------------------
  free energy    TOTEN  =      -119.51486252 eV

  energy without entropy =     -119.49213273  energy(sigma->0) =     -119.50349762


--------------------------------------------------------------------------------------------------------




----------------------------------------- Iteration    1(   8)  ---------------------------------------


    POTLOK:  cpu time   14.78: real time   14.79
    SETDIJ:  cpu time    0.02: real time    0.02
     EDDAV:  cpu time   74.13: real time   74.14
       DOS:  cpu time    0.01: real time    0.01
    CHARGE:  cpu time    4.16: real time    4.16
    MIXING:  cpu time    0.01: real time    0.01
    --------------------------------------------
      LOOP:  cpu time   93.12: real time   93.14

 eigenvalue-minimisations  :  9000
 total energy-change (2. order) :-0.2249230E-01  (-0.6589983E-01)
 number of electron     107.9999995 magnetization 
 augmentation part       -9.3774046 magnetization 

 Broyden mixing:
  rms(total) = 0.11552E+00    rms(broyden)= 0.11551E+00
  rms(prec ) = 0.12184E+00
  weight for this iteration     100.00

 eigenvalues of (default mixing * dielectric matrix)
  average eigenvalue GAMMA=   1.5433
  2.3485  1.0406  1.2408

 Free energy of the ion-electron system (eV)
  ---------------------------------------------------
  alpha Z        PSCENC =        36.80884744
  Ewald energy   TEWEN  =     11930.73761304
  -Hartree energ DENC   =    -15053.62830802
  -exchange      EXHF   =         0.00000000
  -V(xc)+E(xc)   XCENC  =       -80.74416944
  PAW double counting   =      1175.71181768     -855.05172088
  entropy T*S    EENTRO =        -0.02303981
  eigenvalues    EBANDS =      -627.38965527
  atomic energy  EATOM  =      3354.04126044
  ---------------------------------------------------
  free energy    TOTEN  =      -119.53735482 eV

  energy without entropy =     -119.51431501  energy(sigma->0) =     -119.52583491


--------------------------------------------------------------------------------------------------------




----------------------------------------- Iteration    1(   9)  ---------------------------------------


    POTLOK:  cpu time   14.70: real time   14.70
    SETDIJ:  cpu time    0.01: real time    0.02
     EDDAV:  cpu time   74.46: real time   74.49
       DOS:  cpu time    0.01: real time    0.01
    CHARGE:  cpu time    4.18: real time    4.18
    MIXING:  cpu time    0.01: real time    0.01
    --------------------------------------------
      LOOP:  cpu time   93.38: real time   93.41

 eigenvalue-minimisations  :  9040
 total energy-change (2. order) : 0.6600847E-02  (-0.1164878E-01)
 number of electron     107.9999994 magnetization 
 augmentation part       -9.3757919 magnetization 

 Broyden mixing:
  rms(total) = 0.32886E-01    rms(broyden)= 0.32882E-01
  rms(prec ) = 0.35793E-01
  weight for this iteration     100.00

 eigenvalues of (default mixing * dielectric matrix)
  average eigenvalue GAMMA=   1.5138
  2.5789  0.9964  0.9964  1.4833

 Free energy of the ion-electron system (eV)
  ---------------------------------------------------
  alpha Z        PSCENC =        36.80884744
  Ewald energy   TEWEN  =     11930.73761304
  -Hartree energ DENC   =    -15061.48504362
  -exchange      EXHF   =         0.00000000
  -V(xc)+E(xc)   XCENC  =       -80.13530013
  PAW double counting   =      1178.34710924     -857.76869742
  entropy T*S    EENTRO =        -0.02346359
  eigenvalues    EBANDS =      -620.05307938
  atomic energy  EATOM  =      3354.04126044
  ---------------------------------------------------
  free energy    TOTEN  =      -119.53075397 eV

  energy without entropy =     -119.50729039  energy(sigma->0) =     -119.51902218


--------------------------------------------------------------------------------------------------------




----------------------------------------- Iteration    1(  10)  ---------------------------------------


    POTLOK:  cpu time   14.69: real time   14.69
    SETDIJ:  cpu time    0.02: real time    0.02
     EDDAV:  cpu time   72.66: real time   72.67
       DOS:  cpu time    0.01: real time    0.01
    CHARGE:  cpu time    4.17: real time    4.17
    MIXING:  cpu time    0.01: real time    0.01
    --------------------------------------------
      LOOP:  cpu time   91.56: real time   91.57

 eigenvalue-minimisations  :  8760
 total energy-change (2. order) : 0.8291559E-02  (-0.2683699E-02)
 number of electron     107.9999994 magnetization 
 augmentation part       -9.3768867 magnetization 

 Broyden mixing:
  rms(total) = 0.13049E-01    rms(broyden)= 0.13047E-01
  rms(prec ) = 0.14718E-01
  weight for this iteration     100.00

 eigenvalues of (default mixing * dielectric matrix)
  average eigenvalue GAMMA=   1.4603
  2.6175  1.3555  1.3555  0.9866  0.9866

 Free energy of the ion-electron system (eV)
  ---------------------------------------------------
  alpha Z        PSCENC =        36.80884744
  Ewald energy   TEWEN  =     11930.73761304
  -Hartree energ DENC   =    -15062.88344157
  -exchange      EXHF   =         0.00000000
  -V(xc)+E(xc)   XCENC  =       -79.99196016
  PAW double counting   =      1177.15331860     -856.54419713
  entropy T*S    EENTRO =        -0.02357514
  eigenvalues    EBANDS =      -618.82032793
  atomic energy  EATOM  =      3354.04126044
  ---------------------------------------------------
  free energy    TOTEN  =      -119.52246241 eV

  energy without entropy =     -119.49888727  energy(sigma->0) =     -119.51067484


--------------------------------------------------------------------------------------------------------




----------------------------------------- Iteration    1(  11)  ---------------------------------------


    POTLOK:  cpu time   14.68: real time   14.68
    SETDIJ:  cpu time    0.01: real time    0.02
     EDDAV:  cpu time   74.80: real time   74.82
       DOS:  cpu time    0.01: real time    0.01
    CHARGE:  cpu time    4.18: real time    4.18
    MIXING:  cpu time    0.01: real time    0.01
    --------------------------------------------
      LOOP:  cpu time   93.70: real time   93.72

 eigenvalue-minimisations  :  9112
 total energy-change (2. order) : 0.6035113E-02  (-0.3544937E-03)
 number of electron     107.9999994 magnetization 
 augmentation part       -9.3768013 magnetization 

 Broyden mixing:
  rms(total) = 0.71469E-02    rms(broyden)= 0.71464E-02
  rms(prec ) = 0.85178E-02
  weight for this iteration     100.00

 eigenvalues of (default mixing * dielectric matrix)
  average eigenvalue GAMMA=   1.4798
  2.6241  1.7108  1.7108  0.9643  0.9643  0.9048

 Free energy of the ion-electron system (eV)
  ---------------------------------------------------
  alpha Z        PSCENC =        36.80884744
  Ewald energy   TEWEN  =     11930.73761304
  -Hartree energ DENC   =    -15064.06308718
  -exchange      EXHF   =         0.00000000
  -V(xc)+E(xc)   XCENC  =       -79.96701811
  PAW double counting   =      1176.35200632     -855.72075418
  entropy T*S    EENTRO =        -0.02353434
  eigenvalues    EBANDS =      -617.68176074
  atomic energy  EATOM  =      3354.04126044
  ---------------------------------------------------
  free energy    TOTEN  =      -119.51642730 eV

  energy without entropy =     -119.49289296  energy(sigma->0) =     -119.50466013


--------------------------------------------------------------------------------------------------------




----------------------------------------- Iteration    1(  12)  ---------------------------------------


    POTLOK:  cpu time   14.73: real time   14.74
    SETDIJ:  cpu time    0.02: real time    0.02
     EDDAV:  cpu time   74.62: real time   74.64
       DOS:  cpu time    0.01: real time    0.01
    CHARGE:  cpu time    4.14: real time    4.14
    MIXING:  cpu time    0.01: real time    0.01
    --------------------------------------------
      LOOP:  cpu time   93.54: real time   93.56

 eigenvalue-minimisations  :  9032
 total energy-change (2. order) : 0.6039012E-02  (-0.1275171E-03)
 number of electron     107.9999994 magnetization 
 augmentation part       -9.3767214 magnetization 

 Broyden mixing:
  rms(total) = 0.36763E-02    rms(broyden)= 0.36759E-02
  rms(prec ) = 0.48457E-02
  weight for this iteration     100.00

 eigenvalues of (default mixing * dielectric matrix)
  average eigenvalue GAMMA=   1.4707
  2.6893  2.2046  1.3296  1.3296  0.8457  0.9480  0.9480

 Free energy of the ion-electron system (eV)
  ---------------------------------------------------
  alpha Z        PSCENC =        36.80884744
  Ewald energy   TEWEN  =     11930.73761304
  -Hartree energ DENC   =    -15065.35934198
  -exchange      EXHF   =         0.00000000
  -V(xc)+E(xc)   XCENC  =       -79.95681088
  PAW double counting   =      1175.44335781     -854.78814081
  entropy T*S    EENTRO =        -0.02341444
  eigenvalues    EBANDS =      -616.41375891
  atomic energy  EATOM  =      3354.04126044
  ---------------------------------------------------
  free energy    TOTEN  =      -119.51038829 eV

  energy without entropy =     -119.48697384  energy(sigma->0) =     -119.49868107


--------------------------------------------------------------------------------------------------------




----------------------------------------- Iteration    1(  13)  ---------------------------------------


    POTLOK:  cpu time   15.16: real time   15.17
    SETDIJ:  cpu time    0.02: real time    0.02
     EDDAV:  cpu time   74.20: real time   74.21
       DOS:  cpu time    0.01: real time    0.01
    CHARGE:  cpu time    4.17: real time    4.17
    MIXING:  cpu time    0.01: real time    0.01
    --------------------------------------------
      LOOP:  cpu time   93.58: real time   93.60

 eigenvalue-minimisations  :  9008
 total energy-change (2. order) : 0.3108520E-02  (-0.3748671E-04)
 number of electron     107.9999994 magnetization 
 augmentation part       -9.3771708 magnetization 

 Broyden mixing:
  rms(total) = 0.16794E-02    rms(broyden)= 0.16792E-02
  rms(prec ) = 0.28271E-02
  weight for this iteration     100.00

 eigenvalues of (default mixing * dielectric matrix)
  average eigenvalue GAMMA=   1.4857
  2.7773  2.3284  1.4878  1.3101  1.3101  0.9379  0.9379  0.7962

 Free energy of the ion-electron system (eV)
  ---------------------------------------------------
  alpha Z        PSCENC =        36.80884744
  Ewald energy   TEWEN  =     11930.73761304
  -Hartree energ DENC   =    -15066.07351962
  -exchange      EXHF   =         0.00000000
  -V(xc)+E(xc)   XCENC  =       -79.95413473
  PAW double counting   =      1174.93684361     -854.26854884
  entropy T*S    EENTRO =        -0.02345122
  eigenvalues    EBANDS =      -615.71218990
  atomic energy  EATOM  =      3354.04126044
  ---------------------------------------------------
  free energy    TOTEN  =      -119.50727977 eV

  energy without entropy =     -119.48382855  energy(sigma->0) =     -119.49555416


--------------------------------------------------------------------------------------------------------




----------------------------------------- Iteration    1(  14)  ---------------------------------------


    POTLOK:  cpu time   15.17: real time   15.18
    SETDIJ:  cpu time    0.01: real time    0.02
     EDDAV:  cpu time   75.03: real time   75.04
       DOS:  cpu time    0.01: real time    0.01
    CHARGE:  cpu time    4.15: real time    4.15
    MIXING:  cpu time    0.01: real time    0.01
    --------------------------------------------
      LOOP:  cpu time   94.39: real time   94.41

 eigenvalue-minimisations  :  9144
 total energy-change (2. order) : 0.1077559E-02  (-0.1174602E-04)
 number of electron     107.9999994 magnetization 
 augmentation part       -9.3767854 magnetization 

 Broyden mixing:
  rms(total) = 0.10736E-02    rms(broyden)= 0.10736E-02
  rms(prec ) = 0.19001E-02
  weight for this iteration     100.00

 eigenvalues of (default mixing * dielectric matrix)
  average eigenvalue GAMMA=   1.5131
  3.0009  2.5850  1.7702  1.3177  1.3177  0.9297  0.9297  0.9927  0.7739

 Free energy of the ion-electron system (eV)
  ---------------------------------------------------
  alpha Z        PSCENC =        36.80884744
  Ewald energy   TEWEN  =     11930.73761304
  -Hartree energ DENC   =    -15066.92851078
  -exchange      EXHF   =         0.00000000
  -V(xc)+E(xc)   XCENC  =       -79.94737089
  PAW double counting   =      1174.81151309     -854.14034227
  entropy T*S    EENTRO =        -0.02342407
  eigenvalues    EBANDS =      -614.86578823
  atomic energy  EATOM  =      3354.04126044
  ---------------------------------------------------
  free energy    TOTEN  =      -119.50620221 eV

  energy without entropy =     -119.48277814  energy(sigma->0) =     -119.49449018


--------------------------------------------------------------------------------------------------------




----------------------------------------- Iteration    1(  15)  ---------------------------------------


    POTLOK:  cpu time   15.18: real time   15.18
    SETDIJ:  cpu time    0.01: real time    0.01
     EDDAV:  cpu time   70.64: real time   70.65
       DOS:  cpu time    0.01: real time    0.01
    CHARGE:  cpu time    4.17: real time    4.17
    MIXING:  cpu time    0.01: real time    0.02
    --------------------------------------------
      LOOP:  cpu time   90.02: real time   90.04

 eigenvalue-minimisations  :  8432
 total energy-change (2. order) : 0.4847799E-03  (-0.6083332E-05)
 number of electron     107.9999994 magnetization 
 augmentation part       -9.3765514 magnetization 

 Broyden mixing:
  rms(total) = 0.68259E-03    rms(broyden)= 0.68255E-03
  rms(prec ) = 0.11664E-02
  weight for this iteration     100.00

 eigenvalues of (default mixing * dielectric matrix)
  average eigenvalue GAMMA=   1.5729
  3.4559  2.6447  1.9230  1.5614  1.2775  1.2775  0.9298  0.9298  0.9689  0.7607

 Free energy of the ion-electron system (eV)
  ---------------------------------------------------
  alpha Z        PSCENC =        36.80884744
  Ewald energy   TEWEN  =     11930.73761304
  -Hartree energ DENC   =    -15067.77029792
  -exchange      EXHF   =         0.00000000
  -V(xc)+E(xc)   XCENC  =       -79.94243997
  PAW double counting   =      1174.72352065     -854.05035054
  entropy T*S    EENTRO =        -0.02342389
  eigenvalues    EBANDS =      -614.03044668
  atomic energy  EATOM  =      3354.04126044
  ---------------------------------------------------
  free energy    TOTEN  =      -119.50571743 eV

  energy without entropy =     -119.48229354  energy(sigma->0) =     -119.49400549


--------------------------------------------------------------------------------------------------------




----------------------------------------- Iteration    1(  16)  ---------------------------------------


    POTLOK:  cpu time   15.15: real time   15.15
    SETDIJ:  cpu time    0.02: real time    0.02
     EDDAV:  cpu time   68.66: real time   68.67
       DOS:  cpu time    0.01: real time    0.01
    CHARGE:  cpu time    4.15: real time    4.15
    MIXING:  cpu time    0.02: real time    0.02
    --------------------------------------------
      LOOP:  cpu time   88.00: real time   88.02

 eigenvalue-minimisations  :  8152
 total energy-change (2. order) :-0.3203948E-03  (-0.5811126E-05)
 number of electron     107.9999994 magnetization 
 augmentation part       -9.3765250 magnetization 

 Broyden mixing:
  rms(total) = 0.39510E-03    rms(broyden)= 0.39508E-03
  rms(prec ) = 0.69043E-03
  weight for this iteration     100.00

 eigenvalues of (default mixing * dielectric matrix)
  average eigenvalue GAMMA=   1.7097
  4.6848  2.7449  2.3898  1.6476  1.2930  1.2930  1.2121  0.9173  0.9173  0.9587
  0.7487

 Free energy of the ion-electron system (eV)
  ---------------------------------------------------
  alpha Z        PSCENC =        36.80884744
  Ewald energy   TEWEN  =     11930.73761304
  -Hartree energ DENC   =    -15068.31352186
  -exchange      EXHF   =         0.00000000
  -V(xc)+E(xc)   XCENC  =       -79.93938204
  PAW double counting   =      1174.72407415     -854.05096822
  entropy T*S    EENTRO =        -0.02342687
  eigenvalues    EBANDS =      -613.49053391
  atomic energy  EATOM  =      3354.04126044
  ---------------------------------------------------
  free energy    TOTEN  =      -119.50603782 eV

  energy without entropy =     -119.48261095  energy(sigma->0) =     -119.49432439


--------------------------------------------------------------------------------------------------------




----------------------------------------- Iteration    1(  17)  ---------------------------------------


    POTLOK:  cpu time   15.20: real time   15.20
    SETDIJ:  cpu time    0.01: real time    0.02
     EDDAV:  cpu time   69.53: real time   69.55
       DOS:  cpu time    0.01: real time    0.01
    CHARGE:  cpu time    4.16: real time    4.16
    MIXING:  cpu time    0.01: real time    0.01
    --------------------------------------------
      LOOP:  cpu time   88.93: real time   88.95

 eigenvalue-minimisations  :  8296
 total energy-change (2. order) :-0.4815036E-03  (-0.1675430E-04)
 number of electron     107.9999994 magnetization 
 augmentation part       -9.3764810 magnetization 

 Broyden mixing:
  rms(total) = 0.22550E-03    rms(broyden)= 0.22548E-03
  rms(prec ) = 0.38053E-03
  weight for this iteration     100.00

 eigenvalues of (default mixing * dielectric matrix)
  average eigenvalue GAMMA=   1.7857
  5.6311  2.8151  2.4875  1.7873  1.6059  1.2659  1.2659  0.9139  0.9139  0.9964
  0.9964  0.7488

 Free energy of the ion-electron system (eV)
  ---------------------------------------------------
  alpha Z        PSCENC =        36.80884744
  Ewald energy   TEWEN  =     11930.73761304
  -Hartree energ DENC   =    -15068.77812920
  -exchange      EXHF   =         0.00000000
  -V(xc)+E(xc)   XCENC  =       -79.93706621
  PAW double counting   =      1174.75815615     -854.08583067
  entropy T*S    EENTRO =        -0.02342832
  eigenvalues    EBANDS =      -613.02794201
  atomic energy  EATOM  =      3354.04126044
  ---------------------------------------------------
  free energy    TOTEN  =      -119.50651933 eV

  energy without entropy =     -119.48309101  energy(sigma->0) =     -119.49480517


--------------------------------------------------------------------------------------------------------




----------------------------------------- Iteration    1(  18)  ---------------------------------------


    POTLOK:  cpu time   15.41: real time   15.41
    SETDIJ:  cpu time    0.02: real time    0.02
     EDDAV:  cpu time   65.41: real time   65.42
       DOS:  cpu time    0.01: real time    0.01
    CHARGE:  cpu time    4.15: real time    4.15
    MIXING:  cpu time    0.02: real time    0.02
    --------------------------------------------
      LOOP:  cpu time   85.01: real time   85.03

 eigenvalue-minimisations  :  7624
 total energy-change (2. order) :-0.1146397E-03  (-0.4632929E-05)
 number of electron     107.9999994 magnetization 
 augmentation part       -9.3764567 magnetization 

 Broyden mixing:
  rms(total) = 0.13746E-03    rms(broyden)= 0.13745E-03
  rms(prec ) = 0.24769E-03
  weight for this iteration     100.00

 eigenvalues of (default mixing * dielectric matrix)
  average eigenvalue GAMMA=   1.8213
  6.1383  2.9324  2.5826  2.1403  1.5207  1.2938  1.2938  1.2340  0.9118  0.9118
  0.9838  0.9838  0.7491

 Free energy of the ion-electron system (eV)
  ---------------------------------------------------
  alpha Z        PSCENC =        36.80884744
  Ewald energy   TEWEN  =     11930.73761304
  -Hartree energ DENC   =    -15068.96111730
  -exchange      EXHF   =         0.00000000
  -V(xc)+E(xc)   XCENC  =       -79.93636453
  PAW double counting   =      1174.76676907     -854.09456186
  entropy T*S    EENTRO =        -0.02342733
  eigenvalues    EBANDS =      -612.84565296
  atomic energy  EATOM  =      3354.04126044
  ---------------------------------------------------
  free energy    TOTEN  =      -119.50663397 eV

  energy without entropy =     -119.48320664  energy(sigma->0) =     -119.49492031


--------------------------------------------------------------------------------------------------------




----------------------------------------- Iteration    1(  19)  ---------------------------------------


    POTLOK:  cpu time   15.10: real time   15.10
    SETDIJ:  cpu time    0.02: real time    0.02
     EDDAV:  cpu time   56.53: real time   56.54
       DOS:  cpu time    0.01: real time    0.01
    CHARGE:  cpu time    4.18: real time    4.18
    MIXING:  cpu time    0.02: real time    0.02
    --------------------------------------------
      LOOP:  cpu time   75.85: real time   75.87

 eigenvalue-minimisations  :  6176
 total energy-change (2. order) :-0.2782075E-04  (-0.8305033E-06)
 number of electron     107.9999994 magnetization 
 augmentation part       -9.3764609 magnetization 

 Broyden mixing:
  rms(total) = 0.96662E-04    rms(broyden)= 0.96660E-04
  rms(prec ) = 0.16857E-03
  weight for this iteration     100.00

 eigenvalues of (default mixing * dielectric matrix)
  average eigenvalue GAMMA=   1.8485
  6.5882  3.1805  2.6824  2.1465  1.6047  1.6047  1.2573  1.2573  1.1078  0.9128
  0.9128  0.9374  0.9374  0.7488

 Free energy of the ion-electron system (eV)
  ---------------------------------------------------
  alpha Z        PSCENC =        36.80884744
  Ewald energy   TEWEN  =     11930.73761304
  -Hartree energ DENC   =    -15069.05550427
  -exchange      EXHF   =         0.00000000
  -V(xc)+E(xc)   XCENC  =       -79.93625246
  PAW double counting   =      1174.76520715     -854.09291021
  entropy T*S    EENTRO =        -0.02342872
  eigenvalues    EBANDS =      -612.75149419
  atomic energy  EATOM  =      3354.04126044
  ---------------------------------------------------
  free energy    TOTEN  =      -119.50666179 eV

  energy without entropy =     -119.48323307  energy(sigma->0) =     -119.49494743


--------------------------------------------------------------------------------------------------------




----------------------------------------- Iteration    1(  20)  ---------------------------------------


    POTLOK:  cpu time   14.71: real time   14.72
    SETDIJ:  cpu time    0.02: real time    0.02
     EDDAV:  cpu time   63.43: real time   63.44
       DOS:  cpu time    0.01: real time    0.01
    CHARGE:  cpu time    4.24: real time    4.24
    MIXING:  cpu time    0.02: real time    0.02
    --------------------------------------------
      LOOP:  cpu time   82.42: real time   82.44

 eigenvalue-minimisations  :  6984
 total energy-change (2. order) :-0.3389238E-04  (-0.2686462E-05)
 number of electron     107.9999994 magnetization 
 augmentation part       -9.3764640 magnetization 

 Broyden mixing:
  rms(total) = 0.68253E-04    rms(broyden)= 0.68249E-04
  rms(prec ) = 0.11004E-03
  weight for this iteration     100.00

 eigenvalues of (default mixing * dielectric matrix)
  average eigenvalue GAMMA=   1.8601
  6.8351  3.4160  2.7154  2.3610  1.7798  1.2713  1.2713  1.3240  1.2568  1.2568
  0.9148  0.9148  0.7478  0.9180  0.9180

 Free energy of the ion-electron system (eV)
  ---------------------------------------------------
  alpha Z        PSCENC =        36.80884744
  Ewald energy   TEWEN  =     11930.73761304
  -Hartree energ DENC   =    -15069.10902226
  -exchange      EXHF   =         0.00000000
  -V(xc)+E(xc)   XCENC  =       -79.93621845
  PAW double counting   =      1174.76492327     -854.09262034
  entropy T*S    EENTRO =        -0.02342950
  eigenvalues    EBANDS =      -612.69804931
  atomic energy  EATOM  =      3354.04126044
  ---------------------------------------------------
  free energy    TOTEN  =      -119.50669568 eV

  energy without entropy =     -119.48326618  energy(sigma->0) =     -119.49498093


--------------------------------------------------------------------------------------------------------




----------------------------------------- Iteration    1(  21)  ---------------------------------------


    POTLOK:  cpu time   14.98: real time   14.98
    SETDIJ:  cpu time    0.02: real time    0.02
     EDDAV:  cpu time   61.03: real time   61.04
       DOS:  cpu time    0.01: real time    0.01
    CHARGE:  cpu time    4.15: real time    4.16
    MIXING:  cpu time    0.02: real time    0.02
    --------------------------------------------
      LOOP:  cpu time   80.21: real time   80.22

 eigenvalue-minimisations  :  6704
 total energy-change (2. order) : 0.2156527E-04  (-0.1580000E-05)
 number of electron     107.9999994 magnetization 
 augmentation part       -9.3764635 magnetization 

 Broyden mixing:
  rms(total) = 0.46631E-04    rms(broyden)= 0.46628E-04
  rms(prec ) = 0.69500E-04
  weight for this iteration     100.00

 eigenvalues of (default mixing * dielectric matrix)
  average eigenvalue GAMMA=   1.9638
  7.1918  4.5774  2.8201  2.5563  1.8150  1.8150  1.2497  1.2497  1.3611  1.3611
  0.9150  0.9150  0.7477  1.0113  0.9170  0.9170

 Free energy of the ion-electron system (eV)
  ---------------------------------------------------
  alpha Z        PSCENC =        36.80884744
  Ewald energy   TEWEN  =     11930.73761304
  -Hartree energ DENC   =    -15069.13291588
  -exchange      EXHF   =         0.00000000
  -V(xc)+E(xc)   XCENC  =       -79.93630592
  PAW double counting   =      1174.76149965     -854.08912621
  entropy T*S    EENTRO =        -0.02342951
  eigenvalues    EBANDS =      -612.67411718
  atomic energy  EATOM  =      3354.04126044
  ---------------------------------------------------
  free energy    TOTEN  =      -119.50667412 eV

  energy without entropy =     -119.48324461  energy(sigma->0) =     -119.49495936


--------------------------------------------------------------------------------------------------------




----------------------------------------- Iteration    1(  22)  ---------------------------------------


    POTLOK:  cpu time   14.79: real time   14.80
    SETDIJ:  cpu time    0.02: real time    0.02
     EDDAV:  cpu time   57.24: real time   57.25
       DOS:  cpu time    0.01: real time    0.01
    CHARGE:  cpu time    4.13: real time    4.13
    MIXING:  cpu time    0.02: real time    0.02
    --------------------------------------------
      LOOP:  cpu time   76.21: real time   76.23

 eigenvalue-minimisations  :  6408
 total energy-change (2. order) : 0.6569724E-04  (-0.1109797E-05)
 number of electron     107.9999994 magnetization 
 augmentation part       -9.3764623 magnetization 

 Broyden mixing:
  rms(total) = 0.23264E-04    rms(broyden)= 0.23262E-04
  rms(prec ) = 0.31691E-04
  weight for this iteration     100.00

 eigenvalues of (default mixing * dielectric matrix)
  average eigenvalue GAMMA=   2.0466
  7.6356  5.7470  2.9800  2.6504  2.2101  1.7155  1.3956  1.3956  1.2537  1.2537
  0.9143  0.9143  1.0800  1.0800  0.7476  0.9092  0.9092

 Free energy of the ion-electron system (eV)
  ---------------------------------------------------
  alpha Z        PSCENC =        36.80884744
  Ewald energy   TEWEN  =     11930.73761304
  -Hartree energ DENC   =    -15069.14647386
  -exchange      EXHF   =         0.00000000
  -V(xc)+E(xc)   XCENC  =       -79.93635144
  PAW double counting   =      1174.75995799     -854.08756097
  entropy T*S    EENTRO =        -0.02342896
  eigenvalues    EBANDS =      -612.66047209
  atomic energy  EATOM  =      3354.04126044
  ---------------------------------------------------
  free energy    TOTEN  =      -119.50660842 eV

  energy without entropy =     -119.48317946  energy(sigma->0) =     -119.49489394


--------------------------------------------------------------------------------------------------------




----------------------------------------- Iteration    1(  23)  ---------------------------------------


    POTLOK:  cpu time   14.79: real time   14.80
    SETDIJ:  cpu time    0.02: real time    0.02
     EDDAV:  cpu time   56.18: real time   56.19
       DOS:  cpu time    0.01: real time    0.01
    CHARGE:  cpu time    4.19: real time    4.19
    MIXING:  cpu time    0.02: real time    0.02
    --------------------------------------------
      LOOP:  cpu time   75.20: real time   75.22

 eigenvalue-minimisations  :  6224
 total energy-change (2. order) : 0.3672847E-04  (-0.5974596E-06)
 number of electron     107.9999994 magnetization 
 augmentation part       -9.3764614 magnetization 

 Broyden mixing:
  rms(total) = 0.12690E-04    rms(broyden)= 0.12688E-04
  rms(prec ) = 0.15961E-04
  weight for this iteration     100.00

 eigenvalues of (default mixing * dielectric matrix)
  average eigenvalue GAMMA=   2.1218
  8.2590  6.5521  3.1090  2.7164  2.2974  1.6730  1.6730  1.5869  1.2530  1.2530
  1.2201  1.2201  0.9151  0.9151  0.7476  0.9609  0.9199  0.9199

 Free energy of the ion-electron system (eV)
  ---------------------------------------------------
  alpha Z        PSCENC =        36.80884744
  Ewald energy   TEWEN  =     11930.73761304
  -Hartree energ DENC   =    -15069.15201672
  -exchange      EXHF   =         0.00000000
  -V(xc)+E(xc)   XCENC  =       -79.93633992
  PAW double counting   =      1174.75962241     -854.08722537
  entropy T*S    EENTRO =        -0.02342899
  eigenvalues    EBANDS =      -612.65490402
  atomic energy  EATOM  =      3354.04126044
  ---------------------------------------------------
  free energy    TOTEN  =      -119.50657169 eV

  energy without entropy =     -119.48314270  energy(sigma->0) =     -119.49485720


[...]
     31      -4.0372      2.00000
     32      -3.9046      2.00000
     33      -3.7611      2.00000
     34      -3.6034      2.00000
     35      -3.3749      2.00000
     36      -3.2693      2.00000
     37      -3.2245      2.00000
     38      -3.0929      2.00000
     39      -3.0735      2.00000
     40      -2.8062      2.00000
     41      -2.6674      2.00000
     42      -2.5724      2.00000
     43      -2.5534      2.00000
     44      -2.2648      2.00000
     45      -2.1680      2.00000
     46      -2.0241      2.00000
     47      -1.8956      2.00000
     48      -1.7923      2.00000
     49      -1.4135      2.00000
     50      -1.2763      2.00000
     51      -1.0671      2.00000
     52      -0.7402      2.00000
     53      -0.1380      1.99999
     54       0.1025      1.65241
     55       0.5523      0.00000
     56       0.6441      0.00000
     57       1.2384      0.00000
     58       1.4381      0.00000
     59       1.5710      0.00000
     60       1.8359      0.00000
     61       2.1706      0.00000
     62       2.2147      0.00000
     63       2.5411      0.00000
     64       2.6024      0.00000
     65       2.6817      0.00000
     66       2.8711      0.00000
     67       3.0206      0.00000
     68       3.2327      0.00000

 k-point    52 :       0.3077    0.5000    0.5000
  band No.  band energies     occupation 
      1     -13.9477      2.00000
      2     -12.5347      2.00000
      3     -12.1912      2.00000
      4     -12.1286      2.00000
      5     -11.6706      2.00000
      6     -11.4530      2.00000
      7     -11.3269      2.00000
      8     -11.0404      2.00000
      9     -10.8352      2.00000
     10     -10.7372      2.00000
     11     -10.4204      2.00000
     12     -10.1985      2.00000
     13      -8.9483      2.00000
     14      -8.2449      2.00000
     15      -7.8005      2.00000
     16      -7.7232      2.00000
     17      -7.0915      2.00000
     18      -6.9926      2.00000
     19      -6.9404      2.00000
     20      -6.5719      2.00000
     21      -6.2683      2.00000
     22      -6.2046      2.00000
     23      -5.9528      2.00000
     24      -5.9056      2.00000
     25      -5.3842      2.00000
     26      -5.0112      2.00000
     27      -4.9226      2.00000
     28      -4.8138      2.00000
     29      -4.5560      2.00000
     30      -4.4524      2.00000
     31      -4.3526      2.00000
     32      -4.1652      2.00000
     33      -4.0993      2.00000
     34      -3.7427      2.00000
     35      -3.4112      2.00000
     36      -3.2740      2.00000
     37      -3.1399      2.00000
     38      -3.1100      2.00000
     39      -3.0173      2.00000
     40      -2.9138      2.00000
     41      -2.8068      2.00000
     42      -2.6830      2.00000
     43      -2.5713      2.00000
     44      -2.4073      2.00000
     45      -2.2587      2.00000
     46      -2.1677      2.00000
     47      -1.9660      2.00000
     48      -1.8968      2.00000
     49      -1.7674      2.00000
     50      -1.3362      2.00000
     51      -1.1868      2.00000
     52      -0.8228      2.00000
     53      -0.3755      2.00000
     54      -0.1689      2.00000
     55       0.1270      1.44611
     56       0.5178      0.00000
     57       0.8710      0.00000
     58       1.2672      0.00000
     59       1.3383      0.00000
     60       1.5762      0.00000
     61       1.8325      0.00000
     62       2.1290      0.00000
     63       2.2750      0.00000
     64       2.3356      0.00000
     65       2.4389      0.00000
     66       2.5164      0.00000
     67       2.7268      0.00000
     68       2.9567      0.00000

 k-point    53 :       0.3846    0.5000    0.5000
  band No.  band energies     occupation 
      1     -13.7761      2.00000
      2     -12.0584      2.00000
      3     -11.6953      2.00000
      4     -11.6814      2.00000
      5     -11.2747      2.00000
      6     -11.0991      2.00000
      7     -10.9937      2.00000
      8     -10.7957      2.00000
      9     -10.6443      2.00000
     10     -10.6038      2.00000
     11     -10.4872      2.00000
     12      -9.8978      2.00000
     13      -8.9328      2.00000
     14      -8.5625      2.00000
     15      -8.2747      2.00000
     16      -7.9657      2.00000
     17      -7.6412      2.00000
     18      -7.4753      2.00000
     19      -7.4065      2.00000
     20      -6.9176      2.00000
     21      -6.7520      2.00000
     22      -6.7335      2.00000
     23      -6.6819      2.00000
     24      -6.2129      2.00000
     25      -5.3379      2.00000
     26      -5.3251      2.00000
     27      -4.9771      2.00000
     28      -4.7023      2.00000
     29      -4.5872      2.00000
     30      -4.4249      2.00000
     31      -4.1721      2.00000
     32      -4.0906      2.00000
     33      -4.0404      2.00000
     34      -3.5833      2.00000
     35      -3.5582      2.00000
     36      -3.3358      2.00000
     37      -3.2698      2.00000
     38      -3.2069      2.00000
     39      -3.1477      2.00000
     40      -2.9373      2.00000
     41      -2.8911      2.00000
     42      -2.8184      2.00000
     43      -2.6861      2.00000
     44      -2.5404      2.00000
     45      -2.3625      2.00000
     46      -2.2631      2.00000
     47      -2.1055      2.00000
     48      -2.0691      2.00000
     49      -1.8734      2.00000
     50      -1.4863      2.00000
     51      -1.2463      2.00000
     52      -0.8955      2.00000
     53      -0.5185      2.00000
     54      -0.4746      2.00000
     55      -0.0565      1.99856
     56       0.5023      0.00000
     57       0.6416      0.00000
     58       1.2134      0.00000
     59       1.3249      0.00000
     60       1.4861      0.00000
     61       1.6469      0.00000
     62       1.8096      0.00000
     63       2.0530      0.00000
     64       2.0947      0.00000
     65       2.1787      0.00000
     66       2.3228      0.00000
     67       2.5553      0.00000
     68       2.6641      0.00000

 k-point    54 :       0.4615    0.5000    0.5000
  band No.  band energies     occupation 
      1     -13.6713      2.00000
      2     -11.5153      2.00000
      3     -11.2288      2.00000
      4     -11.1954      2.00000
      5     -10.9724      2.00000
      6     -10.8892      2.00000
      7     -10.8709      2.00000
      8     -10.7577      2.00000
      9     -10.7474      2.00000
     10     -10.6549      2.00000
     11     -10.6450      2.00000
     12      -9.7057      2.00000
     13      -8.8539      2.00000
     14      -8.6908      2.00000
     15      -8.4654      2.00000
     16      -8.1448      2.00000
     17      -8.0039      2.00000
     18      -7.7962      2.00000
     19      -7.5838      2.00000
     20      -7.3509      2.00000
     21      -7.3128      2.00000
     22      -7.2000      2.00000
     23      -7.1674      2.00000
     24      -6.2091      2.00000
     25      -5.5630      2.00000
     26      -4.9938      2.00000
     27      -4.9551      2.00000
     28      -4.5036      2.00000
     29      -4.3248      2.00000
     30      -4.1463      2.00000
     31      -4.0899      2.00000
     32      -3.9746      2.00000
     33      -3.8830      2.00000
     34      -3.7939      2.00000
     35      -3.6236      2.00000
     36      -3.5857      2.00000
     37      -3.4130      2.00000
     38      -3.2851      2.00000
     39      -3.2208      2.00000
     40      -3.1156      2.00000
     41      -3.0365      2.00000
     42      -2.9102      2.00000
     43      -2.7472      2.00000
     44      -2.7036      2.00000
     45      -2.4083      2.00000
     46      -2.3209      2.00000
     47      -2.1921      2.00000
     48      -2.1220      2.00000
     49      -1.7475      2.00000
     50      -1.5701      2.00000
     51      -1.3487      2.00000
     52      -0.8817      2.00000
     53      -0.6698      2.00000
     54      -0.4564      2.00000
     55      -0.1290      1.99997
     56       0.3392      0.01600
     57       0.6469      0.00000
     58       1.1750      0.00000
     59       1.3446      0.00000
     60       1.5130      0.00000
     61       1.6014      0.00000
     62       1.6543      0.00000
     63       1.8355      0.00000
     64       1.9009      0.00000
     65       2.0365      0.00000
     66       2.3392      0.00000
     67       2.4596      0.00000
     68       2.6038      0.00000


--------------------------------------------------------------------------------------------------------


 soft charge-density along one line, spin component           1
         0         1         2         3         4         5         6         7         8         9
 total charge-density along one line
 
 pseudopotential strength for first ion, spin component:           1
 29.781   0.008  -0.001  -0.023   0.000  -0.000  -0.001   0.000
  0.008   0.009  -0.000  -0.000  -0.000   0.000   0.000   0.000
 -0.001  -0.000   6.549  -0.001   0.000  -0.003   0.000  -0.000
 -0.023  -0.000  -0.001   6.544   0.000   0.000  -0.002  -0.000
  0.000  -0.000   0.000   0.000   6.550  -0.000  -0.000  -0.003
 -0.000   0.000  -0.003   0.000  -0.000   0.015  -0.000   0.000
 -0.001   0.000   0.000  -0.002  -0.000  -0.000   0.015  -0.000
  0.000   0.000  -0.000  -0.000  -0.003   0.000  -0.000   0.015
 total augmentation occupancy for first ion, spin component:           1
  1.816  -0.349   0.006   0.254  -0.000   0.004   0.115   0.000
 -0.349   1.298   0.024   0.859  -0.001   0.003  -0.433   0.000
  0.006   0.024   1.141   0.011   0.000  -0.502   0.014   0.000
  0.254   0.859   0.011   1.286  -0.001   0.014  -0.417   0.000
 -0.000  -0.001   0.000  -0.001   1.144   0.000   0.000  -0.526
  0.004   0.003  -0.502   0.014   0.000   0.291  -0.015  -0.000
  0.115  -0.433   0.014  -0.417   0.000  -0.015   0.226  -0.000
  0.000   0.000   0.000   0.000  -0.526  -0.000  -0.000   0.325


------------------------ aborting loop because EDIFF is reached ----------------------------------------


    CHARGE:  cpu time    4.20: real time    4.21
    FORLOC:  cpu time    0.06: real time    0.06
    FORNL :  cpu time   24.41: real time   24.41
    STRESS:  cpu time   62.52: real time   62.53
    FORCOR:  cpu time   14.70: real time   14.70
    FORHAR:  cpu time    0.15: real time    0.15
    MIXING:  cpu time    0.02: real time    0.02
    OFIELD:  cpu time    0.00: real time    0.00

  FORCE on cell =-STRESS in cart. coord.  units (eV):
  Direction    XX          YY          ZZ          XY          YZ          ZX
  --------------------------------------------------------------------------------------
  Alpha Z    36.80885    36.80885    36.80885
  Ewald   14333.94846 13997.24540-16400.46376    10.46601     3.53170    46.32369
  Hartree 14890.13128 14607.77855-14428.75686     2.82960     7.45714     7.17308
  E(xc)    -357.93129  -357.54412  -356.36748     0.27261     0.10809    -0.24413
  Local  -30783.34380-30162.67350 29247.71055   -12.37106   -15.41816   -52.24042
  n-local  1157.90442  1163.25780  1158.84083    -2.36782    -3.04407    10.52383
  augment  -202.76002  -203.51291  -205.18226     0.08656    -0.21674    -0.84918
  Kinetic   928.84350   935.76319   979.88033     0.83011    -0.46464     7.14832
  Fock        0.00000     0.00000     0.00000     0.00000     0.00000     0.00000
  -------------------------------------------------------------------------------------
  Total       3.60139    17.12326    32.47020    -0.25401    -8.04667    17.83518
  in kB       5.75672    27.37100    51.90261    -0.40602   -12.86235    28.50898
  external pressure =       28.34 kB  Pullay stress =        0.00 kB


 VOLUME and BASIS-vectors are now :
 -----------------------------------------------------------------------------
  energy-cutoff  :      300.00
  volume of cell :     1002.32
      direct lattice vectors                 reciprocal lattice vectors
     3.540400000  0.000000000  0.000000000     0.282453960  0.048570342  0.000000000
    -1.770200000 10.294348000  0.000000000     0.000000000  0.097140683  0.000000000
     0.000000000  0.000000000 27.501429000     0.000000000  0.000000000  0.036361747

  length of vectors
     3.540400000 10.445439617 27.501429000     0.286599577  0.097140683  0.036361747


 FORCES acting on ions
    electron-ion (+dipol)            ewald-force                    non-local-force                 convergence-correction
 -----------------------------------------------------------------------------------------------
   -.566E-01 0.103E+02 0.273E+02   -.260E-02 -.102E+02 -.228E+02   0.333E-01 -.182E+00 -.453E+01   0.222E-07 0.247E-06 0.249E-05
   -.651E-01 0.598E+01 -.572E+03   0.349E+00 -.630E+01 0.576E+03   0.110E+00 0.108E+00 -.349E+01   -.263E-06 0.158E-05 0.500E-05
   -.117E-02 0.622E+02 0.476E+02   -.226E-02 -.637E+02 -.434E+02   0.889E-03 0.152E+01 -.411E+01   0.316E-07 0.334E-05 0.128E-05
   -.180E+00 0.444E+02 -.516E+03   -.719E-01 -.456E+02 0.520E+03   0.458E+00 0.130E+01 -.348E+01   -.133E-06 0.173E-05 -.213E-05
   0.405E-02 -.573E+02 0.526E+03   0.717E-04 0.589E+02 -.531E+03   -.182E-02 -.154E+01 0.429E+01   0.176E-07 -.379E-05 0.898E-06
   0.273E+02 -.109E+03 0.274E+01   -.261E+02 0.109E+03 -.135E+01   -.858E+01 0.872E+01 -.213E+02   -.158E-05 -.156E-05 -.120E-04
   -.696E-02 0.538E+02 0.526E+03   0.183E-04 -.557E+02 -.530E+03   0.223E-02 0.191E+01 0.417E+01   -.224E-07 0.205E-05 0.781E-05
   -.288E+00 0.800E+02 -.772E+02   -.465E-01 -.824E+02 0.750E+02   -.288E+00 0.279E+01 0.323E+01   0.582E-07 0.581E-05 -.544E-05
   -.116E-03 0.190E+01 0.572E+03   -.843E-04 -.210E+01 -.577E+03   0.115E-02 0.206E+00 0.478E+01   0.130E-06 0.440E-05 -.427E-05
   -.689E+00 0.111E+01 -.170E+02   0.343E+00 -.197E+01 0.141E+02   -.897E-01 0.116E+01 0.247E+01   0.334E-07 -.120E-05 -.300E-05
   -.548E-02 -.642E+02 0.606E+02   0.699E-02 0.661E+02 -.565E+02   -.177E-02 -.192E+01 -.403E+01   -.533E-07 -.243E-05 0.124E-05
   -.939E+00 -.509E+02 -.540E+03   0.131E+01 0.532E+02 0.545E+03   0.149E+00 -.238E+01 -.442E+01   0.116E-06 -.341E-05 -.212E-05
   0.117E-01 0.304E+02 0.208E+03   0.174E-03 -.326E+02 -.209E+03   -.826E-02 0.213E+01 0.355E+00   0.698E-08 0.313E-05 0.101E-04
   -.110E+01 -.127E+02 -.238E+03   0.177E+01 0.105E+02 0.238E+03   -.252E+00 0.290E+01 0.304E+00   0.204E-06 0.397E-05 -.103E-05
   0.699E-02 -.117E+02 0.139E+03   -.122E-02 0.119E+02 -.142E+03   -.739E-02 -.248E+00 0.254E+01   0.211E-07 0.499E-06 0.535E-05
   0.120E+01 -.353E+01 -.334E+03   -.674E+00 0.252E+01 0.332E+03   -.391E+00 0.302E+00 0.127E+01   -.222E-07 0.368E-06 -.217E-05
   -.112E-02 -.504E+01 0.346E+03   0.548E-04 0.552E+01 -.343E+03   -.634E-03 -.472E+00 -.251E+01   -.742E-08 0.557E-06 0.609E-05
   0.102E+02 0.169E+02 -.115E+03   -.852E+01 -.142E+02 0.117E+03   -.394E+01 -.942E+01 -.693E+01   -.489E-06 -.835E-05 -.489E-05
   -.458E-02 0.989E+01 0.335E+03   -.516E-05 -.101E+02 -.332E+03   -.267E-02 0.235E+00 -.253E+01   0.422E-08 0.197E-05 0.103E-04
   0.273E-01 0.272E+02 -.151E+03   0.532E+00 -.281E+02 0.149E+03   -.443E+00 0.841E+00 0.963E+00   0.129E-07 0.234E-05 -.427E-05
   0.486E-01 0.118E+02 0.126E+03   0.131E-03 -.121E+02 -.128E+03   -.433E-01 0.347E+00 0.253E+01   -.123E-08 0.738E-06 0.436E-05
   0.113E+01 0.183E+02 -.326E+03   -.102E+01 -.187E+02 0.328E+03   0.191E-01 0.128E+00 -.202E+01   -.769E-07 0.385E-05 -.150E-05
   -.571E-02 -.316E+02 0.254E+03   0.595E-04 0.337E+02 -.254E+03   0.588E-02 -.212E+01 -.380E+00   -.126E-07 -.508E-05 0.994E-05
   -.365E+02 -.289E+02 -.285E+03   0.322E+02 0.324E+02 0.277E+03   0.133E+02 -.592E+01 0.309E+02   0.143E-05 -.633E-05 0.127E-05
 -----------------------------------------------------------------------------------------------
   -.890E-02 -.394E+00 0.188E+01   -.213E-13 0.711E-13 -.114E-12   0.154E-01 0.393E+00 -.187E+01   -.568E-06 0.442E-05 0.233E-04
 
 
 POSITION                                       TOTAL-FORCE (eV/Angst)
 -----------------------------------------------------------------------------------
      0.00000      2.34757      6.41229        -0.026218     -0.035176      0.043978
      2.30126      1.31814     14.16300         0.393451     -0.209692      0.463497
     -0.00000      9.43147      5.75866        -0.002812     -0.009642      0.083236
     -1.23914      8.40203     13.50937         0.205349      0.105427      0.089313
     -0.00000      6.40009      2.31424         0.002035     -0.003467      0.006061
     -0.00000      6.40009     10.06495        -7.451086      8.814415    -19.873624
      1.77020     10.27849      2.37372        -0.004981     -0.003279     -0.000721
      1.77020     10.27849     10.12443        -0.622513      0.447255      1.060881
      1.77020      3.18974      1.66157         0.000677     -0.000539      0.016345
      1.77020      3.18974      9.41228        -0.436394      0.299988     -0.492835
      1.77020      5.55354      5.69975        -0.000533      0.006396      0.093034
      0.53106      4.52411     13.45047         0.515375     -0.054572      0.931189
      1.77020      9.05319      4.34076         0.003312     -0.003383      0.004722
      0.53106      8.02375     12.09147         0.415841      0.761362      0.510110
      0.00000      4.22380      5.10944        -0.001890      0.011940      0.068527
      2.30126      3.19437     12.86016         0.132953     -0.704222     -0.477829
     -0.00000      4.15582      2.74166        -0.001974      0.000766     -0.025151
     -0.00000      4.15582     10.49237        -2.299098     -6.738894     -4.860610
      1.77020      1.31366      2.96438        -0.007522     -0.015361     -0.013531
      1.77020      1.31366     10.71510         0.116049     -0.038538     -0.270979
      1.77020      1.38163      5.33187         0.005206     -0.020167      0.006164
      0.53106      0.35219     13.08259         0.130073     -0.263926     -0.359034
      1.77020      6.77850      3.73234        -0.000038      0.011775     -0.002947
      0.53106      5.74906     11.48306         8.934738     -2.358466     23.000202
 -----------------------------------------------------------------------------------
    total drift:                                0.006543     -0.000713      0.004153


--------------------------------------------------------------------------------------------------------



  FREE ENERGIE OF THE ION-ELECTRON SYSTEM (eV)
  ---------------------------------------------------
  free  energy   TOTEN  =      -119.50653522 eV

  energy  without entropy=     -119.48310625  energy(sigma->0) =     -119.49482073
 


--------------------------------------------------------------------------------------------------------


    POTLOK:  cpu time   14.69: real time   14.69


--------------------------------------------------------------------------------------------------------


     LOOP+:  cpu time 2407.16: real time 2407.84
    4ORBIT:  cpu time    0.00: real time    0.00

 total amount of memory used by VASP on root node   146493. kBytes
========================================================================

   base      :      30000. kBytes
   nonlr-proj:       3452. kBytes
   fftplans  :       9347. kBytes
   grid      :      14649. kBytes
   one-center:         36. kBytes
   wavefun   :      89009. kBytes
 
  
  
 General timing and accounting informations for this job:
 ========================================================
  
                  Total CPU time used (sec):     2423.297
                            User time (sec):     2392.351
                          System time (sec):       30.945
                         Elapsed time (sec):     2425.049
  
                   Maximum memory used (kb):      335436.
                   Average memory used (kb):           0.
  
                          Minor page faults:      7870789
                          Major page faults:           14
                 Voluntary context switches:         1237
