  24  24   0   0
  0.4176334E+02  0.3540400E-09  0.1044544E-08  0.2750143E-08  0.5000000E-15
  1.000000000000000E-004
  CAR 
 unknown system                          
      4.23273025    -15.03194053  301      0.17382925      1.00000000
    -15.032  0.0000E+00  0.0000E+00
    -14.968  0.0000E+00  0.0000E+00
    -14.904  0.0000E+00  0.0000E+00
    -14.839  0.0000E+00  0.0000E+00
    -14.775  0.0000E+00  0.0000E+00
    -14.711  0.0000E+00  0.0000E+00
    -14.647  0.0000E+00  0.0000E+00
    -14.582  0.3624E-14  0.2327E-15
    -14.518  0.3439E-11  0.2210E-12
    -14.454  0.1460E-08  0.9399E-10
    -14.390  0.2813E-06  0.1816E-07
    -14.326  0.2486E-04  0.1615E-05
    -14.261  0.1023E-02  0.6728E-04
    -14.197  0.1994E-01  0.1348E-02
    -14.133  0.1882E+00  0.1343E-01
    -14.069  0.8784E+00  0.6984E-01
    -14.004  0.2085E+01  0.2037E+00
    -13.940  0.2733E+01  0.3792E+00
    -13.876  0.2529E+01  0.5417E+00
    -13.812  0.2090E+01  0.6759E+00
    -13.748  0.1527E+01  0.7740E+00
    -13.683  0.1739E+01  0.8857E+00
    -13.619  0.2658E+01  0.1056E+01
    -13.555  0.2967E+01  0.1247E+01
    -13.491  0.2907E+01  0.1434E+01
    -13.427  0.3339E+01  0.1648E+01
    -13.362  0.3524E+01  0.1874E+01
    -13.298  0.2874E+01  0.2059E+01
    -13.234  0.2652E+01  0.2229E+01
    -13.170  0.3237E+01  0.2437E+01
    -13.105  0.3981E+01  0.2693E+01
    -13.041  0.4914E+01  0.3008E+01
    -12.977  0.5294E+01  0.3348E+01
    -12.913  0.4551E+01  0.3640E+01
    -12.849  0.3653E+01  0.3875E+01
    -12.784  0.3417E+01  0.4094E+01
    -12.720  0.4123E+01  0.4359E+01
    -12.656  0.4984E+01  0.4679E+01
    -12.592  0.5271E+01  0.5018E+01
    -12.528  0.5281E+01  0.5357E+01
    -12.463  0.5052E+01  0.5681E+01
    -12.399  0.4852E+01  0.5993E+01
    -12.335  0.4938E+01  0.6310E+01
    -12.271  0.4844E+01  0.6621E+01
    -12.206  0.4743E+01  0.6926E+01
    -12.142  0.5575E+01  0.7284E+01
    -12.078  0.6741E+01  0.7716E+01
    -12.014  0.6774E+01  0.8151E+01
    -11.950  0.5939E+01  0.8533E+01
    -11.885  0.5041E+01  0.8857E+01
    -11.821  0.4948E+01  0.9174E+01
    -11.757  0.6567E+01  0.9596E+01
    -11.693  0.8951E+01  0.1017E+02
    -11.629  0.1027E+02  0.1083E+02
    -11.564  0.9770E+01  0.1146E+02
    -11.500  0.7837E+01  0.1196E+02
    -11.436  0.6914E+01  0.1240E+02
    -11.372  0.8423E+01  0.1295E+02
    -11.307  0.9961E+01  0.1359E+02
    -11.243  0.9798E+01  0.1421E+02
    -11.179  0.9494E+01  0.1482E+02
    -11.115  0.1035E+02  0.1549E+02
    -11.051  0.1100E+02  0.1620E+02
    -10.986  0.1065E+02  0.1688E+02
    -10.922  0.1131E+02  0.1761E+02
    -10.858  0.1271E+02  0.1842E+02
    -10.794  0.1280E+02  0.1924E+02
    -10.729  0.1236E+02  0.2004E+02
    -10.665  0.1171E+02  0.2079E+02
    -10.601  0.1032E+02  0.2145E+02
    -10.537  0.9472E+01  0.2206E+02
    -10.473  0.8088E+01  0.2258E+02
    -10.408  0.4992E+01  0.2290E+02
    -10.344  0.2195E+01  0.2304E+02
    -10.280  0.1148E+01  0.2311E+02
    -10.216  0.1433E+01  0.2321E+02
    -10.152  0.1573E+01  0.2331E+02
    -10.087  0.9691E+00  0.2337E+02
    -10.023  0.6699E+00  0.2341E+02
     -9.959  0.1258E+01  0.2349E+02
     -9.895  0.1727E+01  0.2360E+02
     -9.830  0.1425E+01  0.2370E+02
     -9.766  0.1458E+01  0.2379E+02
     -9.702  0.1719E+01  0.2390E+02
     -9.638  0.1141E+01  0.2397E+02
     -9.574  0.3582E+00  0.2400E+02
     -9.509  0.5193E-01  0.2400E+02
     -9.445  0.3450E-02  0.2400E+02
     -9.381  0.1133E-03  0.2400E+02
     -9.317  0.4316E-03  0.2400E+02
     -9.253  0.9511E-02  0.2400E+02
     -9.188  0.9930E-01  0.2401E+02
     -9.124  0.5051E+00  0.2404E+02
     -9.060  0.1335E+01  0.2413E+02
     -8.996  0.2205E+01  0.2427E+02
     -8.931  0.3302E+01  0.2448E+02
     -8.867  0.4980E+01  0.2480E+02
     -8.803  0.6031E+01  0.2519E+02
     -8.739  0.5687E+01  0.2555E+02
     -8.675  0.4647E+01  0.2585E+02
     -8.610  0.4126E+01  0.2611E+02
     -8.546  0.4874E+01  0.2643E+02
     -8.482  0.5924E+01  0.2681E+02
     -8.418  0.6137E+01  0.2720E+02
     -8.354  0.6782E+01  0.2764E+02
     -8.289  0.7758E+01  0.2814E+02
     -8.225  0.7056E+01  0.2859E+02
     -8.161  0.5565E+01  0.2895E+02
     -8.097  0.4031E+01  0.2920E+02
     -8.032  0.2646E+01  0.2937E+02
     -7.968  0.2518E+01  0.2954E+02
     -7.904  0.3509E+01  0.2976E+02
     -7.840  0.4163E+01  0.3003E+02
     -7.776  0.3889E+01  0.3028E+02
     -7.711  0.4109E+01  0.3054E+02
     -7.647  0.4882E+01  0.3086E+02
     -7.583  0.5556E+01  0.3121E+02
     -7.519  0.7334E+01  0.3168E+02
     -7.455  0.9721E+01  0.3231E+02
     -7.390  0.1051E+02  0.3298E+02
     -7.326  0.9762E+01  0.3361E+02
     -7.262  0.9129E+01  0.3420E+02
     -7.198  0.8587E+01  0.3475E+02
     -7.133  0.7762E+01  0.3525E+02
     -7.069  0.7661E+01  0.3574E+02
     -7.005  0.8802E+01  0.3630E+02
     -6.941  0.9710E+01  0.3693E+02
     -6.877  0.9424E+01  0.3753E+02
     -6.812  0.9832E+01  0.3816E+02
     -6.748  0.1102E+02  0.3887E+02
     -6.684  0.9854E+01  0.3950E+02
     -6.620  0.7068E+01  0.3996E+02
     -6.555  0.4982E+01  0.4028E+02
     -6.491  0.3298E+01  0.4049E+02
     -6.427  0.2460E+01  0.4065E+02
     -6.363  0.3250E+01  0.4086E+02
     -6.299  0.4873E+01  0.4117E+02
     -6.234  0.5792E+01  0.4154E+02
     -6.170  0.5592E+01  0.4190E+02
     -6.106  0.5758E+01  0.4227E+02
     -6.042  0.6617E+01  0.4269E+02
     -5.978  0.6614E+01  0.4312E+02
     -5.913  0.6229E+01  0.4352E+02
     -5.849  0.6778E+01  0.4395E+02
     -5.785  0.7038E+01  0.4441E+02
     -5.721  0.5591E+01  0.4477E+02
     -5.656  0.3397E+01  0.4498E+02
     -5.592  0.2377E+01  0.4514E+02
     -5.528  0.3556E+01  0.4536E+02
     -5.464  0.5841E+01  0.4574E+02
     -5.400  0.7252E+01  0.4621E+02
     -5.335  0.8248E+01  0.4674E+02
     -5.271  0.9213E+01  0.4733E+02
     -5.207  0.8792E+01  0.4789E+02
     -5.143  0.8770E+01  0.4845E+02
     -5.079  0.1045E+02  0.4913E+02
     -5.014  0.1157E+02  0.4987E+02
     -4.950  0.1093E+02  0.5057E+02
     -4.886  0.9159E+01  0.5116E+02
     -4.822  0.7569E+01  0.5164E+02
     -4.757  0.7316E+01  0.5211E+02
     -4.693  0.7501E+01  0.5260E+02
     -4.629  0.7470E+01  0.5308E+02
     -4.565  0.7509E+01  0.5356E+02
     -4.501  0.8156E+01  0.5408E+02
     -4.436  0.9933E+01  0.5472E+02
     -4.372  0.1155E+02  0.5546E+02
     -4.308  0.1128E+02  0.5619E+02
     -4.244  0.1057E+02  0.5686E+02
     -4.180  0.1185E+02  0.5762E+02
     -4.115  0.1352E+02  0.5849E+02
     -4.051  0.1347E+02  0.5936E+02
     -3.987  0.1298E+02  0.6019E+02
     -3.923  0.1345E+02  0.6106E+02
     -3.858  0.1376E+02  0.6194E+02
     -3.794  0.1320E+02  0.6279E+02
     -3.730  0.1269E+02  0.6360E+02
     -3.666  0.1184E+02  0.6436E+02
     -3.602  0.1148E+02  0.6510E+02
     -3.537  0.1283E+02  0.6592E+02
     -3.473  0.1395E+02  0.6682E+02
     -3.409  0.1421E+02  0.6773E+02
     -3.345  0.1482E+02  0.6868E+02
     -3.280  0.1501E+02  0.6965E+02
     -3.216  0.1511E+02  0.7062E+02
     -3.152  0.1574E+02  0.7163E+02
     -3.088  0.1561E+02  0.7263E+02
     -3.024  0.1443E+02  0.7356E+02
     -2.959  0.1324E+02  0.7441E+02
     -2.895  0.1345E+02  0.7527E+02
     -2.831  0.1495E+02  0.7623E+02
     -2.767  0.1605E+02  0.7726E+02
     -2.703  0.1722E+02  0.7837E+02
     -2.638  0.1835E+02  0.7955E+02
     -2.574  0.1806E+02  0.8071E+02
     -2.510  0.1691E+02  0.8179E+02
     -2.446  0.1596E+02  0.8282E+02
     -2.381  0.1532E+02  0.8380E+02
     -2.317  0.1514E+02  0.8477E+02
     -2.253  0.1574E+02  0.8578E+02
     -2.189  0.1636E+02  0.8683E+02
     -2.125  0.1700E+02  0.8792E+02
     -2.060  0.1853E+02  0.8911E+02
     -1.996  0.1981E+02  0.9039E+02
     -1.932  0.1977E+02  0.9166E+02
     -1.868  0.1929E+02  0.9289E+02
     -1.804  0.1835E+02  0.9407E+02
     -1.739  0.1512E+02  0.9504E+02
     -1.675  0.1184E+02  0.9580E+02
     -1.611  0.1154E+02  0.9654E+02
     -1.547  0.1250E+02  0.9735E+02
     -1.482  0.1214E+02  0.9813E+02
     -1.418  0.1038E+02  0.9879E+02
     -1.354  0.9805E+01  0.9942E+02
     -1.290  0.1103E+02  0.1001E+03
     -1.226  0.1149E+02  0.1009E+03
     -1.161  0.1061E+02  0.1016E+03
     -1.097  0.9627E+01  0.1022E+03
     -1.033  0.9127E+01  0.1028E+03
     -0.969  0.8628E+01  0.1033E+03
     -0.905  0.7337E+01  0.1038E+03
     -0.840  0.5446E+01  0.1041E+03
     -0.776  0.3664E+01  0.1044E+03
     -0.712  0.2565E+01  0.1045E+03
     -0.648  0.2152E+01  0.1047E+03
     -0.583  0.1806E+01  0.1048E+03
     -0.519  0.1930E+01  0.1049E+03
     -0.455  0.2424E+01  0.1051E+03
     -0.391  0.2653E+01  0.1052E+03
     -0.327  0.3019E+01  0.1054E+03
     -0.262  0.3573E+01  0.1057E+03
     -0.198  0.4157E+01  0.1059E+03
     -0.134  0.5051E+01  0.1062E+03
     -0.070  0.6149E+01  0.1066E+03
     -0.005  0.6577E+01  0.1071E+03
      0.059  0.5896E+01  0.1074E+03
      0.123  0.5117E+01  0.1078E+03
      0.187  0.4382E+01  0.1081E+03
      0.251  0.4074E+01  0.1083E+03
      0.316  0.4529E+01  0.1086E+03
      0.380  0.4329E+01  0.1089E+03
      0.444  0.3151E+01  0.1091E+03
      0.508  0.2032E+01  0.1092E+03
      0.572  0.1683E+01  0.1093E+03
      0.637  0.1829E+01  0.1094E+03
      0.701  0.2008E+01  0.1096E+03
      0.765  0.2951E+01  0.1098E+03
      0.829  0.4029E+01  0.1100E+03
      0.894  0.3846E+01  0.1103E+03
      0.958  0.3215E+01  0.1105E+03
      1.022  0.3177E+01  0.1107E+03
      1.086  0.4338E+01  0.1110E+03
      1.150  0.6442E+01  0.1114E+03
      1.215  0.8802E+01  0.1119E+03
      1.279  0.1142E+02  0.1127E+03
      1.343  0.1269E+02  0.1135E+03
      1.407  0.1147E+02  0.1142E+03
      1.471  0.9905E+01  0.1149E+03
      1.536  0.1039E+02  0.1155E+03
      1.600  0.1218E+02  0.1163E+03
      1.664  0.1385E+02  0.1172E+03
      1.728  0.1413E+02  0.1181E+03
      1.793  0.1257E+02  0.1189E+03
      1.857  0.1041E+02  0.1196E+03
      1.921  0.9842E+01  0.1202E+03
      1.985  0.1210E+02  0.1210E+03
      2.049  0.1505E+02  0.1220E+03
      2.114  0.1659E+02  0.1230E+03
      2.178  0.1627E+02  0.1241E+03
      2.242  0.1473E+02  0.1250E+03
      2.306  0.1466E+02  0.1260E+03
      2.370  0.1561E+02  0.1270E+03
      2.435  0.1559E+02  0.1280E+03
      2.499  0.1580E+02  0.1290E+03
      2.563  0.1666E+02  0.1300E+03
      2.627  0.1609E+02  0.1311E+03
      2.692  0.1346E+02  0.1319E+03
      2.756  0.1136E+02  0.1327E+03
      2.820  0.1043E+02  0.1333E+03
      2.884  0.8949E+01  0.1339E+03
      2.948  0.7468E+01  0.1344E+03
      3.013  0.6848E+01  0.1348E+03
      3.077  0.6231E+01  0.1352E+03
      3.141  0.4953E+01  0.1355E+03
      3.205  0.3685E+01  0.1358E+03
      3.269  0.2285E+01  0.1359E+03
      3.334  0.8791E+00  0.1360E+03
      3.398  0.1784E+00  0.1360E+03
      3.462  0.1801E-01  0.1360E+03
      3.526  0.8794E-03  0.1360E+03
      3.591  0.2042E-04  0.1360E+03
      3.655  0.2222E-06  0.1360E+03
      3.719  0.1120E-08  0.1360E+03
      3.783  0.2591E-11  0.1360E+03
      3.847  0.2726E-14  0.1360E+03
      3.912  0.0000E+00  0.1360E+03
      3.976  0.0000E+00  0.1360E+03
      4.040  0.0000E+00  0.1360E+03
      4.104  0.0000E+00  0.1360E+03
      4.169  0.0000E+00  0.1360E+03
      4.233  0.0000E+00  0.1360E+03
