       N       E                     dE             d eps       ncg     rms          rms(c)
DAV:   1     0.530364084996E+03    0.53036E+03   -0.28727E+04  7352   0.790E+02
DAV:   2    -0.365487229549E+02   -0.56691E+03   -0.55247E+03  9772   0.190E+02
DAV:   3    -0.955656994238E+02   -0.59017E+02   -0.58225E+02  9180   0.633E+01
DAV:   4    -0.984619210003E+02   -0.28962E+01   -0.28737E+01 11624   0.148E+01
DAV:   5    -0.985061421562E+02   -0.44221E-01   -0.44156E-01 10400   0.196E+00    0.134E+01
DAV:   6    -0.930519849728E+02    0.54542E+01   -0.13949E+01  9072   0.118E+01    0.632E+00
DAV:   7    -0.934388577787E+02   -0.38687E+00   -0.11921E+01  8648   0.772E+00    0.311E+00
DAV:   8    -0.933173641543E+02    0.12149E+00   -0.13734E+00  8892   0.367E+00    0.179E+00
DAV:   9    -0.933521656964E+02   -0.34802E-01   -0.54582E-01  8928   0.203E+00    0.689E-01
DAV:  10    -0.933542142423E+02   -0.20485E-02   -0.10236E-01  8888   0.103E+00    0.260E-01
DAV:  11    -0.933399619599E+02    0.14252E-01   -0.32257E-02  8992   0.437E-01    0.142E-01
DAV:  12    -0.933300736904E+02    0.98883E-02   -0.48740E-03  9056   0.223E-01    0.449E-02
DAV:  13    -0.933261729333E+02    0.39008E-02   -0.13424E-03  8880   0.913E-02    0.296E-02
DAV:  14    -0.933236920481E+02    0.24809E-02   -0.18945E-04  9504   0.401E-02    0.145E-02
DAV:  15    -0.933227951919E+02    0.89686E-03   -0.10293E-04  9168   0.257E-02    0.984E-03
DAV:  16    -0.933229045013E+02   -0.10931E-03   -0.93700E-05  8100   0.250E-02    0.514E-03
DAV:  17    -0.933235297867E+02   -0.62529E-03   -0.13812E-04  8424   0.241E-02    0.305E-03
DAV:  18    -0.933237299029E+02   -0.20012E-03   -0.99436E-05  7728   0.177E-02    0.164E-03
DAV:  19    -0.933237602627E+02   -0.30360E-04   -0.22473E-05  7016   0.107E-02    0.133E-03
DAV:  20    -0.933237975366E+02   -0.37274E-04   -0.20393E-05  6928   0.102E-02    0.789E-04
DAV:  21    -0.933237700847E+02    0.27452E-04   -0.18705E-05  7144   0.979E-03    0.559E-04
DAV:  22    -0.933237223836E+02    0.47701E-04   -0.17878E-05  6616   0.111E-02    0.301E-04
DAV:  23    -0.933236781637E+02    0.44220E-04   -0.77396E-06  6368   0.908E-03    0.202E-04
DAV:  24    -0.933236673595E+02    0.10804E-04   -0.36751E-06  6016   0.659E-03    0.987E-05
DAV:  25    -0.933236575994E+02    0.97601E-05   -0.52145E-06  6656   0.739E-03    0.413E-05
DAV:  26    -0.933236610897E+02   -0.34903E-05   -0.26773E-06  6408   0.588E-03    0.250E-05
DAV:  27    -0.933236603707E+02    0.71895E-06   -0.26840E-06  6096   0.591E-03
   1 F= -.93323660E+02 E0= -.93313244E+02  d E =-.208331E-01
