<?xml version="1.0" encoding="ISO-8859-1"?>
<modeling>
 <generator>
  <i name="program" type="string">vasp </i>
  <i name="version" type="string">5.3.5  </i>
  <i name="subversion" type="string">31Mar14 (build Oct 29 2014 16:16:03) complex                          parallel </i>
  <i name="platform" type="string">Linux-UFHPC </i>
  <i name="date" type="string">2016 02 09 </i>
  <i name="time" type="string">17:30:14 </i>
 </generator>
 <incar>
  <i type="string" name="PREC">accurate</i>
  <i type="int" name="IBRION">     2</i>
  <i name="EDIFF">      0.00000100</i>
  <i type="int" name="NSW">     0</i>
  <i type="int" name="ISIF">     3</i>
  <i name="ENCUT">    300.00000000</i>
  <i type="string" name="LREAL"> Auto</i>
  <i type="int" name="ISMEAR">     0</i>
  <i name="SIGMA">      0.10000000</i>
  <i type="logical" name="LWAVE"> F  </i>
  <i type="logical" name="LCHARG"> F  </i>
  <i type="logical" name="LAECHG"> F  </i>
  <i type="string" name="GGA"> Bo</i>
  <i name="PARAM1">      0.18333333</i>
  <i name="PARAM2">      0.22000000</i>
  <i type="logical" name="LUSE_VDW"> T  </i>
  <i name="AGGAC">      0.00000000</i>
 </incar>
 <kpoints>
  <generation param="Gamma">
   <v type="int" name="divisions">      13        4        2 </v>
   <v name="usershift">      0.00000000       0.00000000       0.00000000 </v>
   <v name="genvec1">      0.07692308      -0.00000000       0.00000000 </v>
   <v name="genvec2">      0.00000000       0.25000000       0.00000000 </v>
   <v name="genvec3">      0.00000000       0.00000000       0.50000000 </v>
   <v name="shift">      0.00000000       0.00000000       0.00000000 </v>
  </generation>
  <varray name="kpointlist" >
   <v>       0.00000000       0.00000000       0.00000000 </v>
   <v>       0.07692308      -0.00000000       0.00000000 </v>
   <v>       0.15384615      -0.00000000       0.00000000 </v>
   <v>       0.23076923      -0.00000000       0.00000000 </v>
   <v>       0.30769231      -0.00000000       0.00000000 </v>
   <v>       0.38461538      -0.00000000       0.00000000 </v>
   <v>       0.46153846      -0.00000000       0.00000000 </v>
   <v>       0.00000000       0.25000000       0.00000000 </v>
   <v>       0.07692308       0.25000000       0.00000000 </v>
   <v>       0.15384615       0.25000000       0.00000000 </v>
   <v>       0.23076923       0.25000000       0.00000000 </v>
   <v>       0.30769231       0.25000000       0.00000000 </v>
   <v>       0.38461538       0.25000000       0.00000000 </v>
   <v>       0.46153846       0.25000000       0.00000000 </v>
   <v>      -0.46153846       0.25000000       0.00000000 </v>
   <v>      -0.38461538       0.25000000       0.00000000 </v>
   <v>      -0.30769231       0.25000000       0.00000000 </v>
   <v>      -0.23076923       0.25000000       0.00000000 </v>
   <v>      -0.15384615       0.25000000       0.00000000 </v>
   <v>      -0.07692308       0.25000000       0.00000000 </v>
   <v>       0.00000000       0.50000000       0.00000000 </v>
   <v>       0.07692308       0.50000000       0.00000000 </v>
   <v>       0.15384615       0.50000000       0.00000000 </v>
   <v>       0.23076923       0.50000000       0.00000000 </v>
   <v>       0.30769231       0.50000000       0.00000000 </v>
   <v>       0.38461538       0.50000000       0.00000000 </v>
   <v>       0.46153846       0.50000000       0.00000000 </v>
   <v>       0.00000000       0.00000000       0.50000000 </v>
   <v>       0.07692308      -0.00000000       0.50000000 </v>
   <v>       0.15384615      -0.00000000       0.50000000 </v>
   <v>       0.23076923      -0.00000000       0.50000000 </v>
   <v>       0.30769231      -0.00000000       0.50000000 </v>
   <v>       0.38461538      -0.00000000       0.50000000 </v>
   <v>       0.46153846      -0.00000000       0.50000000 </v>
   <v>       0.00000000       0.25000000       0.50000000 </v>
   <v>       0.07692308       0.25000000       0.50000000 </v>
   <v>       0.15384615       0.25000000       0.50000000 </v>
   <v>       0.23076923       0.25000000       0.50000000 </v>
   <v>       0.30769231       0.25000000       0.50000000 </v>
   <v>       0.38461538       0.25000000       0.50000000 </v>
   <v>       0.46153846       0.25000000       0.50000000 </v>
   <v>      -0.46153846       0.25000000       0.50000000 </v>
   <v>      -0.38461538       0.25000000       0.50000000 </v>
   <v>      -0.30769231       0.25000000       0.50000000 </v>
   <v>      -0.23076923       0.25000000       0.50000000 </v>
   <v>      -0.15384615       0.25000000       0.50000000 </v>
   <v>      -0.07692308       0.25000000       0.50000000 </v>
   <v>       0.00000000       0.50000000       0.50000000 </v>
   <v>       0.07692308       0.50000000       0.50000000 </v>
   <v>       0.15384615       0.50000000       0.50000000 </v>
   <v>       0.23076923       0.50000000       0.50000000 </v>
   <v>       0.30769231       0.50000000       0.50000000 </v>
   <v>       0.38461538       0.50000000       0.50000000 </v>
   <v>       0.46153846       0.50000000       0.50000000 </v>
  </varray>
  <varray name="weights" >
   <v>       0.00961538 </v>
   <v>       0.01923077 </v>
   <v>       0.01923077 </v>
   <v>       0.01923077 </v>
   <v>       0.01923077 </v>
   <v>       0.01923077 </v>
   <v>       0.01923077 </v>
   <v>       0.01923077 </v>
   <v>       0.01923077 </v>
   <v>       0.01923077 </v>
   <v>       0.01923077 </v>
   <v>       0.01923077 </v>
   <v>       0.01923077 </v>
   <v>       0.01923077 </v>
   <v>       0.01923077 </v>
   <v>       0.01923077 </v>
   <v>       0.01923077 </v>
   <v>       0.01923077 </v>
   <v>       0.01923077 </v>
   <v>       0.01923077 </v>
   <v>       0.00961538 </v>
   <v>       0.01923077 </v>
   <v>       0.01923077 </v>
   <v>       0.01923077 </v>
   <v>       0.01923077 </v>
   <v>       0.01923077 </v>
   <v>       0.01923077 </v>
   <v>       0.00961538 </v>
   <v>       0.01923077 </v>
   <v>       0.01923077 </v>
   <v>       0.01923077 </v>
   <v>       0.01923077 </v>
   <v>       0.01923077 </v>
   <v>       0.01923077 </v>
   <v>       0.01923077 </v>
   <v>       0.01923077 </v>
   <v>       0.01923077 </v>
   <v>       0.01923077 </v>
   <v>       0.01923077 </v>
   <v>       0.01923077 </v>
   <v>       0.01923077 </v>
   <v>       0.01923077 </v>
   <v>       0.01923077 </v>
   <v>       0.01923077 </v>
   <v>       0.01923077 </v>
   <v>       0.01923077 </v>
   <v>       0.01923077 </v>
   <v>       0.00961538 </v>
   <v>       0.01923077 </v>
   <v>       0.01923077 </v>
   <v>       0.01923077 </v>
   <v>       0.01923077 </v>
   <v>       0.01923077 </v>
   <v>       0.01923077 </v>
  </varray>
 </kpoints>
 <parameters>
  <separator name="general" >
   <i type="string" name="SYSTEM">unknown system</i>
   <i type="logical" name="LCOMPAT"> F  </i>
  </separator>
  <separator name="electronic" >
   <i type="string" name="PREC">accura</i>
   <i name="ENMAX">    300.00000000</i>
   <i name="ENAUG">    342.92400000</i>
   <i name="EDIFF">      0.00000100</i>
   <i type="int" name="IALGO">    38</i>
   <i type="int" name="IWAVPR">    10</i>
   <i type="int" name="NBANDS">    68</i>
   <i name="NELECT">    108.00000000</i>
   <i type="int" name="TURBO">     0</i>
   <i type="int" name="IRESTART">     0</i>
   <i type="int" name="NREBOOT">     0</i>
   <i type="int" name="NMIN">     0</i>
   <i name="EREF">      0.00000000</i>
   <separator name="electronic smearing" >
    <i type="int" name="ISMEAR">     0</i>
    <i name="SIGMA">      0.10000000</i>
    <i name="KSPACING">      0.50000000</i>
    <i type="logical" name="KGAMMA"> T  </i>
   </separator>
   <separator name="electronic projectors" >
    <i type="logical" name="LREAL"> T  </i>
    <v name="ROPT">     -0.00025000     -0.00025000</v>
    <i type="int" name="LMAXPAW">  -100</i>
    <i type="int" name="LMAXMIX">     2</i>
    <i type="logical" name="NLSPLINE"> F  </i>
   </separator>
   <separator name="electronic startup" >
    <i type="int" name="ISTART">     0</i>
    <i type="int" name="ICHARG">     2</i>
    <i type="int" name="INIWAV">     1</i>
   </separator>
   <separator name="electronic spin" >
    <i type="int" name="ISPIN">     1</i>
    <i type="logical" name="LNONCOLLINEAR"> F  </i>
    <v name="MAGMOM">      1.00000000      1.00000000      1.00000000      1.00000000      1.00000000      1.00000000      1.00000000      1.00000000      1.00000000      1.00000000      1.00000000      1.00000000      1.00000000      1.00000000      1.00000000      1.00000000      1.00000000      1.00000000      1.00000000      1.00000000
      1.00000000      1.00000000      1.00000000      1.00000000</v>
    <i name="NUPDOWN">     -1.00000000</i>
    <i type="logical" name="LSORBIT"> F  </i>
    <v name="SAXIS">      0.00000000      0.00000000      1.00000000</v>
    <i type="logical" name="LSPIRAL"> F  </i>
    <v name="QSPIRAL">      0.00000000      0.00000000      0.00000000</v>
    <i type="logical" name="LZEROZ"> F  </i>
   </separator>
   <separator name="electronic exchange-correlation" >
    <i type="logical" name="LASPH"> F  </i>
    <i type="logical" name="LMETAGGA"> F  </i>
   </separator>
   <separator name="electronic convergence" >
    <i type="int" name="NELM">    60</i>
    <i type="int" name="NELMDL">    -5</i>
    <i type="int" name="NELMIN">     2</i>
    <i name="ENINI">    300.00000000</i>
    <separator name="electronic convergence detail" >
     <i type="logical" name="LDIAG"> T  </i>
     <i type="logical" name="LSUBROT"> F  </i>
     <i name="WEIMIN">      0.00000000</i>
     <i name="EBREAK">      0.00000000</i>
     <i name="DEPER">      0.30000000</i>
     <i type="int" name="NRMM">     4</i>
     <i name="TIME">      0.40000000</i>
    </separator>
   </separator>
   <separator name="electronic mixer" >
    <i name="AMIX">      0.40000000</i>
    <i name="BMIX">      1.00000000</i>
    <i name="AMIN">      0.10000000</i>
    <i name="AMIX_MAG">      1.60000000</i>
    <i name="BMIX_MAG">      1.00000000</i>
    <separator name="electronic mixer details" >
     <i type="int" name="IMIX">     4</i>
     <i type="int" name="MAXMIX">   -45</i>
     <i name="WC">    100.00000000</i>
     <i type="int" name="INIMIX">     1</i>
     <i type="int" name="MIXPRE">     1</i>
     <i type="int" name="MREMOVE">     5</i>
    </separator>
   </separator>
   <separator name="electronic dipolcorrection" >
    <i type="logical" name="LDIPOL"> F  </i>
    <i type="logical" name="LMONO"> F  </i>
    <i type="int" name="IDIPOL">     0</i>
    <i name="EPSILON">      1.00000000</i>
    <v name="DIPOL">   -100.00000000   -100.00000000   -100.00000000</v>
    <i name="EFIELD">      0.00000000</i>
   </separator>
  </separator>
  <separator name="grids" >
   <i type="int" name="NGX">    20</i>
   <i type="int" name="NGY">    60</i>
   <i type="int" name="NGZ">   160</i>
   <i type="int" name="NGXF">    40</i>
   <i type="int" name="NGYF">   120</i>
   <i type="int" name="NGZF">   320</i>
   <i type="logical" name="ADDGRID"> F  </i>
  </separator>
  <separator name="ionic" >
   <i type="int" name="NSW">     0</i>
   <i type="int" name="IBRION">    -1</i>
   <i type="int" name="ISIF">     3</i>
   <i name="PSTRESS">      0.00000000</i>
   <i name="EDIFFG">      0.00001000</i>
   <i type="int" name="NFREE">     1</i>
   <i name="POTIM">      0.50000000</i>
   <i name="SMASS">     -3.00000000</i>
   <i name="SCALEE">      1.00000000</i>
  </separator>
  <separator name="ionic md" >
   <i name="TEBEG">      0.00010000</i>
   <i name="TEEND">      0.00010000</i>
   <i type="int" name="NBLOCK">     1</i>
   <i type="int" name="KBLOCK">     1</i>
   <i type="int" name="NPACO">   256</i>
   <i name="APACO">     16.00000000</i>
  </separator>
  <separator name="symmetry" >
   <i type="int" name="ISYM">     2</i>
   <i name="SYMPREC">      0.00001000</i>
  </separator>
  <separator name="dos" >
   <i type="logical" name="LORBIT"> F  </i>
   <v name="RWIGS">     -1.00000000     -1.00000000</v>
   <i type="int" name="NEDOS">   301</i>
   <i name="EMIN">     10.00000000</i>
   <i name="EMAX">    -10.00000000</i>
   <i name="EFERMI">      0.00000000</i>
  </separator>
  <separator name="writing" >
   <i type="int" name="NWRITE">     2</i>
   <i type="logical" name="LWAVE"> F  </i>
   <i type="logical" name="LCHARG"> F  </i>
   <i type="logical" name="LPARD"> F  </i>
   <i type="logical" name="LVTOT"> F  </i>
   <i type="logical" name="LVHAR"> F  </i>
   <i type="logical" name="LELF"> F  </i>
   <i type="logical" name="LOPTICS"> F  </i>
   <v name="STM">      0.00000000      0.00000000      0.00000000      0.00000000      0.00000000      0.00000000      0.00000000</v>
  </separator>
  <separator name="performance" >
   <i type="int" name="NPAR">     4</i>
   <i type="int" name="NSIM">     4</i>
   <i type="int" name="NBLK">    -1</i>
   <i type="logical" name="LPLANE"> T  </i>
   <i type="logical" name="LSCALAPACK"> T  </i>
   <i type="logical" name="LSCAAWARE"> F  </i>
   <i type="logical" name="LSCALU"> F  </i>
   <i type="logical" name="LASYNC"> F  </i>
   <i type="logical" name="LORBITALREAL"> F  </i>
  </separator>
  <separator name="miscellaneous" >
   <i type="int" name="IDIOT">     3</i>
   <i type="logical" name="LMUSIC"> F  </i>
   <v name="POMASS">     30.97400000     28.08500000</v>
   <v name="DARWINR">      0.00000000      0.00000000</v>
   <v name="DARWINV">      1.00000000      1.00000000</v>
   <i type="logical" name="LCORR"> T  </i>
  </separator>
  <i type="logical" name="GGA_COMPAT"> T  </i>
  <i type="logical" name="LBERRY"> F  </i>
  <i type="int" name="ICORELEVEL">     0</i>
  <i type="logical" name="LDAU"> F  </i>
  <i type="int" name="I_CONSTRAINED_M">     0</i>
  <separator name="electronic exchange-correlation" >
   <i type="string" name="GGA">BO</i>
   <i type="int" name="VOSKOWN">     0</i>
   <i type="logical" name="LHFCALC"> F  </i>
   <i type="string" name="PRECFOCK"></i>
   <i type="logical" name="LSYMGRAD"> F  </i>
   <i type="logical" name="LHFONE"> F  </i>
   <i type="logical" name="LRHFCALC"> F  </i>
   <i type="logical" name="LTHOMAS"> F  </i>
   <i type="logical" name="LMODELHF"> F  </i>
   <i name="ENCUT4O">     -1.00000000</i>
   <i type="int" name="EXXOEP">     0</i>
   <i type="int" name="FOURORBIT">     0</i>
   <i name="AEXX">      0.00000000</i>
   <i name="HFALPHA">      0.00000000</i>
   <i name="MCALPHA">      0.00000000</i>
   <i name="ALDAX">      1.00000000</i>
   <i name="AGGAX">      1.00000000</i>
   <i name="ALDAC">      1.00000000</i>
   <i name="AGGAC">      0.00000000</i>
   <i type="int" name="NKREDX">     1</i>
   <i type="int" name="NKREDY">     1</i>
   <i type="int" name="NKREDZ">     1</i>
   <i type="logical" name="SHIFTRED"> F  </i>
   <i type="logical" name="ODDONLY"> F  </i>
   <i type="logical" name="EVENONLY"> F  </i>
   <i type="int" name="LMAXFOCK">     0</i>
   <i type="int" name="NMAXFOCKAE">     0</i>
   <i type="logical" name="LFOCKAEDFT"> F  </i>
   <i name="HFSCREEN">      0.00000000</i>
   <i name="HFSCREENC">      0.00000000</i>
   <i type="int" name="NBANDSGWLOW">     0</i>
  </separator>
  <separator name="vdW DFT" >
   <i type="logical" name="LUSE_VDW"> T  </i>
   <i name="Zab_VDW">     -0.84910000</i>
   <i name="PARAM1">      0.18333333</i>
   <i name="PARAM2">      0.22000000</i>
   <i name="PARAM3">      0.00000000</i>
  </separator>
  <separator name="model GW" >
   <i type="int" name="MODEL_GW">     0</i>
   <i name="MODEL_EPS0">     25.05800243</i>
   <i name="MODEL_ALPHA">      1.00000000</i>
  </separator>
  <separator name="linear response parameters" >
   <i type="logical" name="LEPSILON"> F  </i>
   <i type="logical" name="LRPA"> F  </i>
   <i type="logical" name="LNABLA"> F  </i>
   <i type="logical" name="LVEL"> F  </i>
   <i type="int" name="KINTER">     0</i>
   <i name="CSHIFT">      0.10000000</i>
   <i name="OMEGAMAX">     -1.00000000</i>
   <i name="DEG_THRESHOLD">      0.00200000</i>
  </separator>
  <separator name="orbital magnetization" >
   <i type="logical" name="NUCIND"> F  </i>
   <v name="MAGPOS">      0.00000000      0.00000000      0.00000000</v>
   <i type="logical" name="LNICSALL"> T  </i>
   <i type="logical" name="ORBITALMAG"> F  </i>
   <i type="logical" name="LMAGBLOCH"> F  </i>
   <i type="logical" name="LCHIMAG"> F  </i>
   <i type="logical" name="LGAUGE"> T  </i>
   <i type="int" name="MAGATOM">     0</i>
   <v name="MAGDIPOL">      0.00000000      0.00000000      0.00000000</v>
   <v name="AVECCONST">      0.00000000      0.00000000      0.00000000</v>
  </separator>
  <separator name="response functions" >
   <i type="logical" name="LADDER"> F  </i>
   <i type="logical" name="LFXC"> F  </i>
   <i type="logical" name="LHARTREE"> T  </i>
   <i type="int" name="IBSE">     0</i>
   <i type="logical" name="LTCTE"> F  </i>
   <i type="logical" name="LTETE"> F  </i>
   <i type="logical" name="LTRIPLET"> F  </i>
   <i type="logical" name="LFXCEPS"> F  </i>
   <i type="logical" name="LFXHEG"> F  </i>
   <i type="logical" name="L2ORDER"> F  </i>
   <i type="logical" name="LUSEW"> F  </i>
   <i name="ENCUTGW">     -2.00000000</i>
   <i name="ENCUTGWSOFT">     -2.00000000</i>
   <i name="ENCUTLF">     -1.00000000</i>
   <i type="int" name="LMAXMP2">    -1</i>
   <i name="SCISSOR">      0.00000000</i>
   <i type="int" name="NOMEGA">     0</i>
   <i type="int" name="NOMEGAR">     0</i>
   <i type="int" name="NBANDSGW">    -1</i>
   <i type="int" name="NBANDSO">    -1</i>
   <i type="int" name="NBANDSV">    -1</i>
   <i type="int" name="NELM">     1</i>
   <i type="int" name="DIM">     3</i>
   <i type="int" name="ANTIRES">     0</i>
   <i name="OMEGAMAX">    -30.00000000</i>
   <i name="OMEGAMIN">    -30.00000000</i>
   <i name="OMEGATL">   -200.00000000</i>
   <i type="int" name="OMEGAGRID">     0</i>
   <i name="CSHIFT">     -0.10000000</i>
   <i type="logical" name="SELFENERGY"> F  </i>
   <i type="logical" name="LSPECTRAL"> F  </i>
   <i type="logical" name="ODDONLYGW"> F  </i>
   <i type="logical" name="EVENONLYGW"> F  </i>
   <i type="int" name="NKREDLFX">     1</i>
   <i type="int" name="NKREDLFY">     1</i>
   <i type="int" name="NKREDLFZ">     1</i>
   <i type="int" name="MAXMEM">  1800</i>
   <i type="int" name="TELESCOPE">     0</i>
   <i type="int" name="TAUPAR">     1</i>
  </separator>
  <separator name="External order field" >
   <i name="OFIELD_KAPPA">      0.00000000</i>
   <v name="OFIELD_K">      0.00000000      0.00000000      0.00000000</v>
   <i name="OFIELD_Q6_NEAR">      0.00000000</i>
   <i name="OFIELD_Q6_FAR">      0.00000000</i>
   <i name="OFIELD_A">      0.00000000</i>
  </separator>
 </parameters>
 <atominfo>
  <atoms>      24 </atoms>
  <types>       2 </types>
  <array name="atoms" >
   <dimension dim="1">ion</dimension>
   <field type="string">element</field>
   <field type="int">atomtype</field>
   <set>
    <rc><c>P </c><c>   1</c></rc>
    <rc><c>P </c><c>   1</c></rc>
    <rc><c>P </c><c>   1</c></rc>
    <rc><c>P </c><c>   1</c></rc>
    <rc><c>P </c><c>   1</c></rc>
    <rc><c>P </c><c>   1</c></rc>
    <rc><c>P </c><c>   1</c></rc>
    <rc><c>P </c><c>   1</c></rc>
    <rc><c>P </c><c>   1</c></rc>
    <rc><c>P </c><c>   1</c></rc>
    <rc><c>P </c><c>   1</c></rc>
    <rc><c>P </c><c>   1</c></rc>
    <rc><c>Si</c><c>   2</c></rc>
    <rc><c>Si</c><c>   2</c></rc>
    <rc><c>Si</c><c>   2</c></rc>
    <rc><c>Si</c><c>   2</c></rc>
    <rc><c>Si</c><c>   2</c></rc>
    <rc><c>Si</c><c>   2</c></rc>
    <rc><c>Si</c><c>   2</c></rc>
    <rc><c>Si</c><c>   2</c></rc>
    <rc><c>Si</c><c>   2</c></rc>
    <rc><c>Si</c><c>   2</c></rc>
    <rc><c>Si</c><c>   2</c></rc>
    <rc><c>Si</c><c>   2</c></rc>
   </set>
  </array>
  <array name="atomtypes" >
   <dimension dim="1">type</dimension>
   <field type="int">atomspertype</field>
   <field type="string">element</field>
   <field>mass</field>
   <field>valence</field>
   <field type="string">pseudopotential</field>
   <set>
    <rc><c>  12</c><c>P </c><c>     30.97400000</c><c>      5.00000000</c><c>  PAW_PBE P 17Jan2003                   </c></rc>
    <rc><c>  12</c><c>Si</c><c>     28.08500000</c><c>      4.00000000</c><c> PAW_PBE Si 05Jan2001                   </c></rc>
   </set>
  </array>
 </atominfo>
 <structure name="initialpos" >
  <crystal>
   <varray name="basis" >
    <v>       3.54040000       0.00000000       0.00000000 </v>
    <v>      -1.77020000      10.29434800       0.00000000 </v>
    <v>       0.00000000       0.00000000      27.50142900 </v>
   </varray>
   <i name="volume">   1002.32009712 </i>
   <varray name="rec_basis" >
    <v>       0.28245396       0.04857034       0.00000000 </v>
    <v>       0.00000000       0.09714068       0.00000000 </v>
    <v>       0.00000000       0.00000000       0.03636175 </v>
   </varray>
  </crystal>
  <varray name="positions" >
   <v>       0.11402300       0.22804500       0.23316207 </v>
   <v>       0.31402300       0.12804500       0.51499159 </v>
   <v>       0.45808900       0.91617900       0.20939482 </v>
   <v>       0.65808900       0.81617900       0.49122434 </v>
   <v>       0.31085400       0.62170900       0.08414979 </v>
   <v>       0.31085400       0.62170900       0.36597930 </v>
   <v>       0.99923000       0.99846000       0.08631254 </v>
   <v>       0.99923000       0.99846000       0.36814206 </v>
   <v>       0.65492700       0.30985400       0.06041748 </v>
   <v>       0.65492700       0.30985400       0.34224700 </v>
   <v>       0.76973800       0.53947500       0.20725292 </v>
   <v>       0.96973800       0.43947500       0.48908244 </v>
   <v>       0.93971600       0.87943300       0.15783749 </v>
   <v>       0.13971600       0.77943300       0.43966701 </v>
   <v>       0.20515200       0.41030300       0.18578822 </v>
   <v>       0.40515200       0.31030300       0.46761774 </v>
   <v>       0.20184900       0.40369900       0.09969156 </v>
   <v>       0.20184900       0.40369900       0.38152107 </v>
   <v>       0.56380500       0.12761000       0.10779021 </v>
   <v>       0.56380500       0.12761000       0.38961973 </v>
   <v>       0.56710600       0.13421200       0.19387616 </v>
   <v>       0.76710600       0.03421200       0.47570568 </v>
   <v>       0.82923400       0.65846800       0.13571444 </v>
   <v>       0.02923400       0.55846800       0.41754396 </v>
  </varray>
 </structure>
 <calculation>
  <scstep>
   <time name="dav">   75.88   75.91</time>
   <time name="total">   92.37   92.40</time>
   <energy>
    <i name="alphaZ">     36.80884744 </i>
    <i name="ewald">  11917.55830403 </i>
    <i name="hartreedc"> -14966.20029475 </i>
    <i name="XCdc">    -87.98489861 </i>
    <i name="pawpsdc">   1056.43050070 </i>
    <i name="pawaedc">   -732.41190547 </i>
    <i name="eentropy">     -0.04958467 </i>
    <i name="bandstr">    -88.15518162 </i>
    <i name="atom">   3354.04126044 </i>
    <i name="e_fr_energy">    490.03704750 </i>
    <i name="e_wo_entrp">    490.08663217 </i>
    <i name="e_0_energy">    490.06183984 </i>
   </energy>
  </scstep>
  <scstep>
   <time name="dav">   94.24   94.26</time>
   <time name="total">   94.25   94.27</time>
   <energy>
    <i name="e_fr_energy">    -67.10515527 </i>
    <i name="e_wo_entrp">    -67.07896210 </i>
    <i name="e_0_energy">    -67.09205868 </i>
   </energy>
  </scstep>
  <scstep>
   <time name="dav">   88.17   88.19</time>
   <time name="total">   88.18   88.20</time>
   <energy>
    <i name="e_fr_energy">   -123.60234545 </i>
    <i name="e_wo_entrp">   -123.57007534 </i>
    <i name="e_0_energy">   -123.58621039 </i>
   </energy>
  </scstep>
  <scstep>
   <time name="dav">  103.13  103.15</time>
   <time name="total">  103.14  103.16</time>
   <energy>
    <i name="e_fr_energy">   -126.13205587 </i>
    <i name="e_wo_entrp">   -126.09781497 </i>
    <i name="e_0_energy">   -126.11493542 </i>
   </energy>
  </scstep>
  <scstep>
   <time name="dav">   97.58   97.60</time>
   <time name="total">  102.40  102.43</time>
   <energy>
    <i name="e_fr_energy">   -126.19576285 </i>
    <i name="e_wo_entrp">   -126.16138466 </i>
    <i name="e_0_energy">   -126.17857376 </i>
   </energy>
  </scstep>
  <scstep>
   <time name="dav">   86.93   86.95</time>
   <time name="total">  106.66  106.69</time>
   <energy>
    <i name="e_fr_energy">   -123.43443621 </i>
    <i name="e_wo_entrp">   -123.40080660 </i>
    <i name="e_0_energy">   -123.41762140 </i>
   </energy>
  </scstep>
  <scstep>
   <time name="dav">   85.31   85.32</time>
   <time name="total">  105.18  105.20</time>
   <energy>
    <i name="e_fr_energy">   -123.19736710 </i>
    <i name="e_wo_entrp">   -123.17067149 </i>
    <i name="e_0_energy">   -123.18401929 </i>
   </energy>
  </scstep>
  <scstep>
   <time name="dav">   89.21   89.23</time>
   <time name="total">  108.98  109.01</time>
   <energy>
    <i name="e_fr_energy">   -123.21641925 </i>
    <i name="e_wo_entrp">   -123.18784973 </i>
    <i name="e_0_energy">   -123.20213449 </i>
   </energy>
  </scstep>
  <scstep>
   <time name="dav">   91.05   91.07</time>
   <time name="total">  110.80  110.83</time>
   <energy>
    <i name="e_fr_energy">   -123.19653202 </i>
    <i name="e_wo_entrp">   -123.16658457 </i>
    <i name="e_0_energy">   -123.18155830 </i>
   </energy>
  </scstep>
  <scstep>
   <time name="dav">   88.13   88.15</time>
   <time name="total">  107.90  107.93</time>
   <energy>
    <i name="e_fr_energy">   -123.18534643 </i>
    <i name="e_wo_entrp">   -123.15580316 </i>
    <i name="e_0_energy">   -123.17057480 </i>
   </energy>
  </scstep>
  <scstep>
   <time name="dav">   88.65   88.68</time>
   <time name="total">  108.41  108.45</time>
   <energy>
    <i name="e_fr_energy">   -123.17925638 </i>
    <i name="e_wo_entrp">   -123.14960944 </i>
    <i name="e_0_energy">   -123.16443291 </i>
   </energy>
  </scstep>
  <scstep>
   <time name="dav">   91.84   91.89</time>
   <time name="total">  111.60  111.74</time>
   <energy>
    <i name="e_fr_energy">   -123.17453102 </i>
    <i name="e_wo_entrp">   -123.14479304 </i>
    <i name="e_0_energy">   -123.15966203 </i>
   </energy>
  </scstep>
  <scstep>
   <time name="dav">   90.50   90.60</time>
   <time name="total">  110.23  110.35</time>
   <energy>
    <i name="e_fr_energy">   -123.17203025 </i>
    <i name="e_wo_entrp">   -123.14225850 </i>
    <i name="e_0_energy">   -123.15714438 </i>
   </energy>
  </scstep>
  <scstep>
   <time name="dav">   89.45   89.48</time>
   <time name="total">  109.21  109.24</time>
   <energy>
    <i name="e_fr_energy">   -123.17094627 </i>
    <i name="e_wo_entrp">   -123.14114501 </i>
    <i name="e_0_energy">   -123.15604564 </i>
   </energy>
  </scstep>
  <scstep>
   <time name="dav">   84.24   84.31</time>
   <time name="total">  104.03  104.18</time>
   <energy>
    <i name="e_fr_energy">   -123.17082145 </i>
    <i name="e_wo_entrp">   -123.14100729 </i>
    <i name="e_0_energy">   -123.15591437 </i>
   </energy>
  </scstep>
  <scstep>
   <time name="dav">   82.24   82.34</time>
   <time name="total">  102.00  102.12</time>
   <energy>
    <i name="e_fr_energy">   -123.17133350 </i>
    <i name="e_wo_entrp">   -123.14151190 </i>
    <i name="e_0_energy">   -123.15642270 </i>
   </energy>
  </scstep>
  <scstep>
   <time name="dav">   79.82   79.98</time>
   <time name="total">   99.67   99.84</time>
   <energy>
    <i name="e_fr_energy">   -123.17173724 </i>
    <i name="e_wo_entrp">   -123.14191995 </i>
    <i name="e_0_energy">   -123.15682860 </i>
   </energy>
  </scstep>
  <scstep>
   <time name="dav">   76.03   76.11</time>
   <time name="total">   95.85   96.06</time>
   <energy>
    <i name="e_fr_energy">   -123.17179129 </i>
    <i name="e_wo_entrp">   -123.14197500 </i>
    <i name="e_0_energy">   -123.15688315 </i>
   </energy>
  </scstep>
  <scstep>
   <time name="dav">   72.94   72.99</time>
   <time name="total">   92.72   92.79</time>
   <energy>
    <i name="e_fr_energy">   -123.17182175 </i>
    <i name="e_wo_entrp">   -123.14200350 </i>
    <i name="e_0_energy">   -123.15691262 </i>
   </energy>
  </scstep>
  <scstep>
   <time name="dav">   74.13   74.23</time>
   <time name="total">   93.89   94.01</time>
   <energy>
    <i name="e_fr_energy">   -123.17182543 </i>
    <i name="e_wo_entrp">   -123.14200701 </i>
    <i name="e_0_energy">   -123.15691622 </i>
   </energy>
  </scstep>
  <scstep>
   <time name="dav">   68.06   68.11</time>
   <time name="total">   87.93   88.01</time>
   <energy>
    <i name="e_fr_energy">   -123.17175788 </i>
    <i name="e_wo_entrp">   -123.14193868 </i>
    <i name="e_0_energy">   -123.15684828 </i>
   </energy>
  </scstep>
  <scstep>
   <time name="dav">   67.93   68.00</time>
   <time name="total">   87.70   87.79</time>
   <energy>
    <i name="e_fr_energy">   -123.17170647 </i>
    <i name="e_wo_entrp">   -123.14188671 </i>
    <i name="e_0_energy">   -123.15679659 </i>
   </energy>
  </scstep>
  <scstep>
   <time name="dav">   70.95   71.02</time>
   <time name="total">   90.82   90.91</time>
   <energy>
    <i name="e_fr_energy">   -123.17168543 </i>
    <i name="e_wo_entrp">   -123.14186549 </i>
    <i name="e_0_energy">   -123.15677546 </i>
   </energy>
  </scstep>
  <scstep>
   <time name="dav">   71.12   71.19</time>
   <time name="total">   90.88   90.97</time>
   <energy>
    <i name="e_fr_energy">   -123.17167451 </i>
    <i name="e_wo_entrp">   -123.14185445 </i>
    <i name="e_0_energy">   -123.15676448 </i>
   </energy>
  </scstep>
  <scstep>
   <time name="dav">   68.03   68.12</time>
   <time name="total">   87.76   87.87</time>
   <energy>
    <i name="e_fr_energy">   -123.17167040 </i>
    <i name="e_wo_entrp">   -123.14185038 </i>
    <i name="e_0_energy">   -123.15676039 </i>
   </energy>
  </scstep>
  <scstep>
   <time name="dav">   66.01   66.06</time>
   <time name="total">   85.80   85.87</time>
   <energy>
    <i name="e_fr_energy">   -123.17166911 </i>
    <i name="e_wo_entrp">   -123.14184905 </i>
    <i name="e_0_energy">   -123.15675908 </i>
   </energy>
  </scstep>
  <scstep>
   <time name="dav">   62.13   62.26</time>
   <time name="total">   77.08   77.24</time>
   <energy>
    <i name="alphaZ">     36.80884744 </i>
    <i name="ewald">  11917.55830403 </i>
    <i name="hartreedc"> -15062.20457874 </i>
    <i name="XCdc">    -80.35361262 </i>
    <i name="pawpsdc">   1162.89157419 </i>
    <i name="pawaedc">   -841.84573895 </i>
    <i name="eentropy">     -0.02981995 </i>
    <i name="bandstr">   -610.03790531 </i>
    <i name="atom">   3354.04126044 </i>
    <i name="e_fr_energy">   -123.17166946 </i>
    <i name="e_wo_entrp">   -123.14184951 </i>
    <i name="e_0_energy">   -123.15675948 </i>
   </energy>
  </scstep>
  <structure>
   <crystal>
    <varray name="basis" >
     <v>       3.54040000       0.00000000       0.00000000 </v>
     <v>      -1.77020000      10.29434800       0.00000000 </v>
     <v>       0.00000000       0.00000000      27.50142900 </v>
    </varray>
    <i name="volume">   1002.32009712 </i>
    <varray name="rec_basis" >
     <v>       0.28245396       0.04857034       0.00000000 </v>
     <v>       0.00000000       0.09714068       0.00000000 </v>
     <v>       0.00000000       0.00000000       0.03636175 </v>
    </varray>
   </crystal>
   <varray name="positions" >
    <v>       0.11402300       0.22804500       0.23316207 </v>
    <v>       0.31402300       0.12804500       0.51499159 </v>
    <v>       0.45808900       0.91617900       0.20939482 </v>
    <v>       0.65808900       0.81617900       0.49122434 </v>
    <v>       0.31085400       0.62170900       0.08414979 </v>
    <v>       0.31085400       0.62170900       0.36597930 </v>
    <v>       0.99923000       0.99846000       0.08631254 </v>
    <v>       0.99923000       0.99846000       0.36814206 </v>
    <v>       0.65492700       0.30985400       0.06041748 </v>
    <v>       0.65492700       0.30985400       0.34224700 </v>
    <v>       0.76973800       0.53947500       0.20725292 </v>
    <v>       0.96973800       0.43947500       0.48908244 </v>
    <v>       0.93971600       0.87943300       0.15783749 </v>
    <v>       0.13971600       0.77943300       0.43966701 </v>
    <v>       0.20515200       0.41030300       0.18578822 </v>
    <v>       0.40515200       0.31030300       0.46761774 </v>
    <v>       0.20184900       0.40369900       0.09969156 </v>
    <v>       0.20184900       0.40369900       0.38152107 </v>
    <v>       0.56380500       0.12761000       0.10779021 </v>
    <v>       0.56380500       0.12761000       0.38961973 </v>
    <v>       0.56710600       0.13421200       0.19387616 </v>
    <v>       0.76710600       0.03421200       0.47570568 </v>
    <v>       0.82923400       0.65846800       0.13571444 </v>
    <v>       0.02923400       0.55846800       0.41754396 </v>
   </varray>
  </structure>
  <varray name="forces" >
   <v>       0.02440186      -0.04238908       0.03219223 </v>
   <v>      -0.41098278      -0.14250071       0.37035888 </v>
   <v>       0.00188949      -0.01158844       0.08649588 </v>
   <v>      -0.25838522       0.34886064      -0.05282979 </v>
   <v>      -0.00289076      -0.00435868       0.00682222 </v>
   <v>       6.30850098       3.54008179      -9.49401780 </v>
   <v>       0.00380990      -0.00040994      -0.00031611 </v>
   <v>       0.76137558       0.06054024       0.61328687 </v>
   <v>       0.00135978      -0.00025161       0.01705755 </v>
   <v>       0.52279780       0.05935218      -0.30918270 </v>
   <v>       0.00050482       0.00906875       0.09102434 </v>
   <v>      -0.53840570       0.09060599       0.66173792 </v>
   <v>       0.00221835      -0.00168123       0.00602290 </v>
   <v>      -0.60440619       0.71325981       0.42000630 </v>
   <v>      -0.00260909       0.01071352       0.06231948 </v>
   <v>      -0.24063336      -0.24451687      -0.56500754 </v>
   <v>       0.00113319       0.00225178      -0.02691224 </v>
   <v>       2.24998555      -3.99177086      -2.82639086 </v>
   <v>       0.00226030      -0.01390406      -0.01655991 </v>
   <v>      -0.11359963      -0.55915017      -0.04542817 </v>
   <v>      -0.00485561      -0.02501916       0.01650956 </v>
   <v>      -0.11762943       0.05487588      -0.26310831 </v>
   <v>       0.00290908       0.01464664      -0.00343200 </v>
   <v>      -7.58874895       0.13328358      11.21935129 </v>
  </varray>
  <varray name="stress" >
   <v>      10.19638333      -0.63236232     -27.10153400 </v>
   <v>      -0.63236223      11.95853381       0.32614310 </v>
   <v>     -27.10153422       0.32614310      23.63647433 </v>
  </varray>
  <energy>
   <i name="e_fr_energy">   -123.17166946 </i>
   <i name="e_wo_entrp">   -123.15675948 </i>
   <i name="e_0_energy">     -0.02981995 </i>
  </energy>
  <time name="totalsc"> 2773.50 2775.87</time>
  <eigenvalues>
   <array>
    <dimension dim="1">band</dimension>
    <dimension dim="2">kpoint</dimension>
    <dimension dim="3">spin</dimension>
    <field>eigene</field>
    <field>occ</field>
    <set>
     <set comment="spin 1">
      <set comment="kpoint 1">
       <r>  -14.1248    1.0000 </r>
       <r>  -13.5849    1.0000 </r>
       <r>  -12.8456    1.0000 </r>
       <r>  -12.7941    1.0000 </r>
       <r>  -12.5321    1.0000 </r>
       <r>  -12.2193    1.0000 </r>
       <r>  -12.1463    1.0000 </r>
       <r>  -12.0866    1.0000 </r>
       <r>  -11.4779    1.0000 </r>
       <r>  -11.2607    1.0000 </r>
       <r>  -11.0372    1.0000 </r>
       <r>  -10.8761    1.0000 </r>
       <r>   -8.0872    1.0000 </r>
       <r>   -7.9101    1.0000 </r>
       <r>   -7.8676    1.0000 </r>
       <r>   -7.0459    1.0000 </r>
       <r>   -6.9172    1.0000 </r>
       <r>   -6.7461    1.0000 </r>
       <r>   -6.5368    1.0000 </r>
       <r>   -6.4647    1.0000 </r>
       <r>   -5.8728    1.0000 </r>
       <r>   -5.6292    1.0000 </r>
       <r>   -4.7911    1.0000 </r>
       <r>   -4.4874    1.0000 </r>
       <r>   -4.0627    1.0000 </r>
       <r>   -3.7347    1.0000 </r>
       <r>   -3.7016    1.0000 </r>
       <r>   -3.4912    1.0000 </r>
       <r>   -3.1644    1.0000 </r>
       <r>   -3.1008    1.0000 </r>
       <r>   -2.8886    1.0000 </r>
       <r>   -2.8542    1.0000 </r>
       <r>   -2.7305    1.0000 </r>
       <r>   -2.5967    1.0000 </r>
       <r>   -2.4934    1.0000 </r>
       <r>   -2.4297    1.0000 </r>
       <r>   -2.3635    1.0000 </r>
       <r>   -2.2810    1.0000 </r>
       <r>   -2.1763    1.0000 </r>
       <r>   -2.0756    1.0000 </r>
       <r>   -1.8829    1.0000 </r>
       <r>   -1.7733    1.0000 </r>
       <r>   -1.6889    1.0000 </r>
       <r>   -1.6592    1.0000 </r>
       <r>   -1.6189    1.0000 </r>
       <r>   -1.5453    1.0000 </r>
       <r>   -1.4770    1.0000 </r>
       <r>   -1.4052    1.0000 </r>
       <r>   -1.2447    1.0000 </r>
       <r>   -1.0283    1.0000 </r>
       <r>   -0.7268    1.0000 </r>
       <r>   -0.4114    1.0000 </r>
       <r>   -0.1320    1.0000 </r>
       <r>    0.1984    0.5107 </r>
       <r>    0.3087    0.0625 </r>
       <r>    0.6097    0.0000 </r>
       <r>    0.8107    0.0000 </r>
       <r>    1.1584    0.0000 </r>
       <r>    1.2705    0.0000 </r>
       <r>    1.5438    0.0000 </r>
       <r>    1.6693    0.0000 </r>
       <r>    1.8459    0.0000 </r>
       <r>    1.9436    0.0000 </r>
       <r>    2.0706    0.0000 </r>
       <r>    2.1850    0.0000 </r>
       <r>    2.3866    0.0000 </r>
       <r>    2.5859    0.0000 </r>
       <r>    2.6237    0.0000 </r>
      </set>
      <set comment="kpoint 2">
       <r>  -14.0792    1.0000 </r>
       <r>  -13.5235    1.0000 </r>
       <r>  -12.7935    1.0000 </r>
       <r>  -12.7415    1.0000 </r>
       <r>  -12.4765    1.0000 </r>
       <r>  -12.1655    1.0000 </r>
       <r>  -12.0855    1.0000 </r>
       <r>  -12.0275    1.0000 </r>
       <r>  -11.4290    1.0000 </r>
       <r>  -11.2149    1.0000 </r>
       <r>  -10.9887    1.0000 </r>
       <r>  -10.8243    1.0000 </r>
       <r>   -8.1199    1.0000 </r>
       <r>   -7.8948    1.0000 </r>
       <r>   -7.8275    1.0000 </r>
       <r>   -7.0606    1.0000 </r>
       <r>   -6.8773    1.0000 </r>
       <r>   -6.7119    1.0000 </r>
       <r>   -6.5313    1.0000 </r>
       <r>   -6.4636    1.0000 </r>
       <r>   -5.8390    1.0000 </r>
       <r>   -5.6030    1.0000 </r>
       <r>   -4.7938    1.0000 </r>
       <r>   -4.4591    1.0000 </r>
       <r>   -4.0628    1.0000 </r>
       <r>   -3.7769    1.0000 </r>
       <r>   -3.7348    1.0000 </r>
       <r>   -3.6135    1.0000 </r>
       <r>   -3.4638    1.0000 </r>
       <r>   -3.3278    1.0000 </r>
       <r>   -3.2752    1.0000 </r>
       <r>   -3.2031    1.0000 </r>
       <r>   -2.9614    1.0000 </r>
       <r>   -2.8281    1.0000 </r>
       <r>   -2.7560    1.0000 </r>
       <r>   -2.6044    1.0000 </r>
       <r>   -2.5213    1.0000 </r>
       <r>   -2.3723    1.0000 </r>
       <r>   -2.2427    1.0000 </r>
       <r>   -2.1883    1.0000 </r>
       <r>   -2.0673    1.0000 </r>
       <r>   -2.0098    1.0000 </r>
       <r>   -1.9164    1.0000 </r>
       <r>   -1.8788    1.0000 </r>
       <r>   -1.7973    1.0000 </r>
       <r>   -1.7526    1.0000 </r>
       <r>   -1.5837    1.0000 </r>
       <r>   -1.5441    1.0000 </r>
       <r>   -1.2232    1.0000 </r>
       <r>   -1.0779    1.0000 </r>
       <r>   -0.9133    1.0000 </r>
       <r>   -0.3998    1.0000 </r>
       <r>   -0.0139    0.9988 </r>
       <r>    0.2416    0.2795 </r>
       <r>    0.4099    0.0015 </r>
       <r>    0.7151    0.0000 </r>
       <r>    1.1344    0.0000 </r>
       <r>    1.5284    0.0000 </r>
       <r>    1.6767    0.0000 </r>
       <r>    1.7501    0.0000 </r>
       <r>    2.0762    0.0000 </r>
       <r>    2.1446    0.0000 </r>
       <r>    2.2049    0.0000 </r>
       <r>    2.2674    0.0000 </r>
       <r>    2.5211    0.0000 </r>
       <r>    2.5652    0.0000 </r>
       <r>    2.7238    0.0000 </r>
       <r>    2.8801    0.0000 </r>
      </set>
      <set comment="kpoint 3">
       <r>  -13.9466    1.0000 </r>
       <r>  -13.3405    1.0000 </r>
       <r>  -12.6378    1.0000 </r>
       <r>  -12.5848    1.0000 </r>
       <r>  -12.3118    1.0000 </r>
       <r>  -12.0062    1.0000 </r>
       <r>  -11.9081    1.0000 </r>
       <r>  -11.8532    1.0000 </r>
       <r>  -11.2870    1.0000 </r>
       <r>  -11.0822    1.0000 </r>
       <r>  -10.8495    1.0000 </r>
       <r>  -10.6728    1.0000 </r>
       <r>   -8.2129    1.0000 </r>
       <r>   -7.8522    1.0000 </r>
       <r>   -7.7838    1.0000 </r>
       <r>   -7.1137    1.0000 </r>
       <r>   -6.7930    1.0000 </r>
       <r>   -6.6629    1.0000 </r>
       <r>   -6.5452    1.0000 </r>
       <r>   -6.4713    1.0000 </r>
       <r>   -5.7638    1.0000 </r>
       <r>   -5.5560    1.0000 </r>
       <r>   -4.9102    1.0000 </r>
       <r>   -4.5258    1.0000 </r>
       <r>   -4.3296    1.0000 </r>
       <r>   -4.2637    1.0000 </r>
       <r>   -4.1382    1.0000 </r>
       <r>   -4.0613    1.0000 </r>
       <r>   -3.9701    1.0000 </r>
       <r>   -3.8113    1.0000 </r>
       <r>   -3.7273    1.0000 </r>
       <r>   -3.5295    1.0000 </r>
       <r>   -3.4151    1.0000 </r>
       <r>   -3.2480    1.0000 </r>
       <r>   -3.1370    1.0000 </r>
       <r>   -3.0142    1.0000 </r>
       <r>   -3.0053    1.0000 </r>
       <r>   -2.9225    1.0000 </r>
       <r>   -2.6947    1.0000 </r>
       <r>   -2.5562    1.0000 </r>
       <r>   -2.4228    1.0000 </r>
       <r>   -2.2148    1.0000 </r>
       <r>   -2.1786    1.0000 </r>
       <r>   -2.1147    1.0000 </r>
       <r>   -1.9856    1.0000 </r>
       <r>   -1.9274    1.0000 </r>
       <r>   -1.7726    1.0000 </r>
       <r>   -1.6856    1.0000 </r>
       <r>   -1.2905    1.0000 </r>
       <r>   -1.1966    1.0000 </r>
       <r>   -0.9465    1.0000 </r>
       <r>   -0.4549    1.0000 </r>
       <r>   -0.0353    0.9996 </r>
       <r>    0.2263    0.3561 </r>
       <r>    0.5036    0.0000 </r>
       <r>    0.7981    0.0000 </r>
       <r>    1.4978    0.0000 </r>
       <r>    1.8510    0.0000 </r>
       <r>    1.9599    0.0000 </r>
       <r>    2.2289    0.0000 </r>
       <r>    2.3776    0.0000 </r>
       <r>    2.5642    0.0000 </r>
       <r>    2.6110    0.0000 </r>
       <r>    2.8032    0.0000 </r>
       <r>    2.8773    0.0000 </r>
       <r>    2.9019    0.0000 </r>
       <r>    2.9916    0.0000 </r>
       <r>    3.0448    0.0000 </r>
      </set>
      <set comment="kpoint 4">
       <r>  -13.7417    1.0000 </r>
       <r>  -13.0395    1.0000 </r>
       <r>  -12.3816    1.0000 </r>
       <r>  -12.3285    1.0000 </r>
       <r>  -12.0451    1.0000 </r>
       <r>  -11.7493    1.0000 </r>
       <r>  -11.6308    1.0000 </r>
       <r>  -11.5753    1.0000 </r>
       <r>  -11.0704    1.0000 </r>
       <r>  -10.8804    1.0000 </r>
       <r>  -10.6457    1.0000 </r>
       <r>  -10.4349    1.0000 </r>
       <r>   -8.4034    1.0000 </r>
       <r>   -7.8769    1.0000 </r>
       <r>   -7.8400    1.0000 </r>
       <r>   -7.2863    1.0000 </r>
       <r>   -6.8102    1.0000 </r>
       <r>   -6.7422    1.0000 </r>
       <r>   -6.6781    1.0000 </r>
       <r>   -6.4572    1.0000 </r>
       <r>   -5.7826    1.0000 </r>
       <r>   -5.6334    1.0000 </r>
       <r>   -5.3825    1.0000 </r>
       <r>   -5.2012    1.0000 </r>
       <r>   -4.8581    1.0000 </r>
       <r>   -4.6941    1.0000 </r>
       <r>   -4.6526    1.0000 </r>
       <r>   -4.5538    1.0000 </r>
       <r>   -4.4147    1.0000 </r>
       <r>   -4.2259    1.0000 </r>
       <r>   -4.0813    1.0000 </r>
       <r>   -3.9043    1.0000 </r>
       <r>   -3.8249    1.0000 </r>
       <r>   -3.6508    1.0000 </r>
       <r>   -3.5120    1.0000 </r>
       <r>   -3.4511    1.0000 </r>
       <r>   -3.2497    1.0000 </r>
       <r>   -3.0474    1.0000 </r>
       <r>   -2.9418    1.0000 </r>
       <r>   -2.7929    1.0000 </r>
       <r>   -2.6374    1.0000 </r>
       <r>   -2.4902    1.0000 </r>
       <r>   -2.3144    1.0000 </r>
       <r>   -2.2550    1.0000 </r>
       <r>   -2.0012    1.0000 </r>
       <r>   -1.9365    1.0000 </r>
       <r>   -1.8411    1.0000 </r>
       <r>   -1.7577    1.0000 </r>
       <r>   -1.5115    1.0000 </r>
       <r>   -1.2351    1.0000 </r>
       <r>   -1.0946    1.0000 </r>
       <r>   -0.6310    1.0000 </r>
       <r>   -0.2503    1.0000 </r>
       <r>   -0.0017    0.9979 </r>
       <r>    0.4768    0.0000 </r>
       <r>    0.7816    0.0000 </r>
       <r>    1.3099    0.0000 </r>
       <r>    1.8226    0.0000 </r>
       <r>    1.8839    0.0000 </r>
       <r>    1.9867    0.0000 </r>
       <r>    2.2319    0.0000 </r>
       <r>    2.3285    0.0000 </r>
       <r>    2.5523    0.0000 </r>
       <r>    2.6457    0.0000 </r>
       <r>    2.7516    0.0000 </r>
       <r>    2.8415    0.0000 </r>
       <r>    2.9347    0.0000 </r>
       <r>    3.1590    0.0000 </r>
      </set>
      <set comment="kpoint 5">
       <r>  -13.4949    1.0000 </r>
       <r>  -12.6278    1.0000 </r>
       <r>  -12.0334    1.0000 </r>
       <r>  -11.9824    1.0000 </r>
       <r>  -11.6931    1.0000 </r>
       <r>  -11.4146    1.0000 </r>
       <r>  -11.2850    1.0000 </r>
       <r>  -11.2242    1.0000 </r>
       <r>  -10.8263    1.0000 </r>
       <r>  -10.6573    1.0000 </r>
       <r>  -10.4592    1.0000 </r>
       <r>  -10.1410    1.0000 </r>
       <r>   -8.6983    1.0000 </r>
       <r>   -8.1292    1.0000 </r>
       <r>   -8.0542    1.0000 </r>
       <r>   -7.6509    1.0000 </r>
       <r>   -7.0944    1.0000 </r>
       <r>   -7.0384    1.0000 </r>
       <r>   -6.9456    1.0000 </r>
       <r>   -6.5394    1.0000 </r>
       <r>   -6.2063    1.0000 </r>
       <r>   -6.0459    1.0000 </r>
       <r>   -6.0052    1.0000 </r>
       <r>   -5.8444    1.0000 </r>
       <r>   -5.2544    1.0000 </r>
       <r>   -4.9821    1.0000 </r>
       <r>   -4.8511    1.0000 </r>
       <r>   -4.7763    1.0000 </r>
       <r>   -4.7393    1.0000 </r>
       <r>   -4.3751    1.0000 </r>
       <r>   -4.3138    1.0000 </r>
       <r>   -4.2444    1.0000 </r>
       <r>   -4.1727    1.0000 </r>
       <r>   -3.8147    1.0000 </r>
       <r>   -3.4540    1.0000 </r>
       <r>   -3.4092    1.0000 </r>
       <r>   -3.1489    1.0000 </r>
       <r>   -3.0961    1.0000 </r>
       <r>   -2.9820    1.0000 </r>
       <r>   -2.9087    1.0000 </r>
       <r>   -2.8197    1.0000 </r>
       <r>   -2.6469    1.0000 </r>
       <r>   -2.5097    1.0000 </r>
       <r>   -2.3229    1.0000 </r>
       <r>   -2.1074    1.0000 </r>
       <r>   -2.0462    1.0000 </r>
       <r>   -1.9251    1.0000 </r>
       <r>   -1.8911    1.0000 </r>
       <r>   -1.7556    1.0000 </r>
       <r>   -1.3480    1.0000 </r>
       <r>   -1.2133    1.0000 </r>
       <r>   -0.9054    1.0000 </r>
       <r>   -0.5125    1.0000 </r>
       <r>   -0.4075    1.0000 </r>
       <r>    0.3853    0.0044 </r>
       <r>    0.8023    0.0000 </r>
       <r>    1.0522    0.0000 </r>
       <r>    1.5530    0.0000 </r>
       <r>    1.7110    0.0000 </r>
       <r>    1.7913    0.0000 </r>
       <r>    1.9641    0.0000 </r>
       <r>    2.1428    0.0000 </r>
       <r>    2.2287    0.0000 </r>
       <r>    2.3186    0.0000 </r>
       <r>    2.4260    0.0000 </r>
       <r>    2.6405    0.0000 </r>
       <r>    2.7842    0.0000 </r>
       <r>    2.9693    0.0000 </r>
      </set>
      <set comment="kpoint 6">
       <r>  -13.2585    1.0000 </r>
       <r>  -12.1194    1.0000 </r>
       <r>  -11.6143    1.0000 </r>
       <r>  -11.5687    1.0000 </r>
       <r>  -11.2939    1.0000 </r>
       <r>  -11.0511    1.0000 </r>
       <r>  -10.9272    1.0000 </r>
       <r>  -10.8849    1.0000 </r>
       <r>  -10.6719    1.0000 </r>
       <r>  -10.5276    1.0000 </r>
       <r>  -10.4995    1.0000 </r>
       <r>   -9.8521    1.0000 </r>
       <r>   -8.8748    1.0000 </r>
       <r>   -8.4557    1.0000 </r>
       <r>   -8.4190    1.0000 </r>
       <r>   -8.0006    1.0000 </r>
       <r>   -7.5042    1.0000 </r>
       <r>   -7.4626    1.0000 </r>
       <r>   -7.4388    1.0000 </r>
       <r>   -6.9000    1.0000 </r>
       <r>   -6.8044    1.0000 </r>
       <r>   -6.7044    1.0000 </r>
       <r>   -6.5205    1.0000 </r>
       <r>   -6.3406    1.0000 </r>
       <r>   -5.2623    1.0000 </r>
       <r>   -5.2452    1.0000 </r>
       <r>   -4.8179    1.0000 </r>
       <r>   -4.6773    1.0000 </r>
       <r>   -4.5718    1.0000 </r>
       <r>   -4.3375    1.0000 </r>
       <r>   -4.2477    1.0000 </r>
       <r>   -4.1355    1.0000 </r>
       <r>   -4.0457    1.0000 </r>
       <r>   -3.6992    1.0000 </r>
       <r>   -3.5836    1.0000 </r>
       <r>   -3.3536    1.0000 </r>
       <r>   -3.3103    1.0000 </r>
       <r>   -3.2220    1.0000 </r>
       <r>   -3.1537    1.0000 </r>
       <r>   -2.9192    1.0000 </r>
       <r>   -2.8326    1.0000 </r>
       <r>   -2.6847    1.0000 </r>
       <r>   -2.6611    1.0000 </r>
       <r>   -2.5192    1.0000 </r>
       <r>   -2.3419    1.0000 </r>
       <r>   -2.2159    1.0000 </r>
       <r>   -2.0737    1.0000 </r>
       <r>   -2.0279    1.0000 </r>
       <r>   -1.8569    1.0000 </r>
       <r>   -1.4972    1.0000 </r>
       <r>   -1.3475    1.0000 </r>
       <r>   -1.0461    1.0000 </r>
       <r>   -0.7779    1.0000 </r>
       <r>   -0.6543    1.0000 </r>
       <r>    0.2666    0.1741 </r>
       <r>    0.7054    0.0000 </r>
       <r>    0.9674    0.0000 </r>
       <r>    1.3589    0.0000 </r>
       <r>    1.5848    0.0000 </r>
       <r>    1.6475    0.0000 </r>
       <r>    1.7200    0.0000 </r>
       <r>    1.9399    0.0000 </r>
       <r>    2.0113    0.0000 </r>
       <r>    2.1256    0.0000 </r>
       <r>    2.2425    0.0000 </r>
       <r>    2.3300    0.0000 </r>
       <r>    2.6511    0.0000 </r>
       <r>    2.6972    0.0000 </r>
      </set>
      <set comment="kpoint 7">
       <r>  -13.1076    1.0000 </r>
       <r>  -11.5456    1.0000 </r>
       <r>  -11.1914    1.0000 </r>
       <r>  -11.1489    1.0000 </r>
       <r>  -10.9891    1.0000 </r>
       <r>  -10.8895    1.0000 </r>
       <r>  -10.8109    1.0000 </r>
       <r>  -10.7720    1.0000 </r>
       <r>  -10.6810    1.0000 </r>
       <r>  -10.6749    1.0000 </r>
       <r>  -10.5897    1.0000 </r>
       <r>   -9.6656    1.0000 </r>
       <r>   -8.7857    1.0000 </r>
       <r>   -8.7315    1.0000 </r>
       <r>   -8.4840    1.0000 </r>
       <r>   -8.1253    1.0000 </r>
       <r>   -8.0998    1.0000 </r>
       <r>   -7.6961    1.0000 </r>
       <r>   -7.6141    1.0000 </r>
       <r>   -7.3303    1.0000 </r>
       <r>   -7.2746    1.0000 </r>
       <r>   -7.2217    1.0000 </r>
       <r>   -7.0233    1.0000 </r>
       <r>   -6.4910    1.0000 </r>
       <r>   -5.3464    1.0000 </r>
       <r>   -4.9607    1.0000 </r>
       <r>   -4.7152    1.0000 </r>
       <r>   -4.5433    1.0000 </r>
       <r>   -4.3222    1.0000 </r>
       <r>   -4.1179    1.0000 </r>
       <r>   -4.0150    1.0000 </r>
       <r>   -3.9731    1.0000 </r>
       <r>   -3.8783    1.0000 </r>
       <r>   -3.8247    1.0000 </r>
       <r>   -3.6239    1.0000 </r>
       <r>   -3.5945    1.0000 </r>
       <r>   -3.3542    1.0000 </r>
       <r>   -3.2990    1.0000 </r>
       <r>   -3.2417    1.0000 </r>
       <r>   -3.0794    1.0000 </r>
       <r>   -3.0142    1.0000 </r>
       <r>   -2.8718    1.0000 </r>
       <r>   -2.7325    1.0000 </r>
       <r>   -2.6791    1.0000 </r>
       <r>   -2.4059    1.0000 </r>
       <r>   -2.2656    1.0000 </r>
       <r>   -2.1701    1.0000 </r>
       <r>   -2.0909    1.0000 </r>
       <r>   -1.7684    1.0000 </r>
       <r>   -1.6091    1.0000 </r>
       <r>   -1.4921    1.0000 </r>
       <r>   -1.1787    1.0000 </r>
       <r>   -0.8621    1.0000 </r>
       <r>   -0.6997    1.0000 </r>
       <r>    0.1970    0.5185 </r>
       <r>    0.5345    0.0000 </r>
       <r>    0.9548    0.0000 </r>
       <r>    1.3191    0.0000 </r>
       <r>    1.5070    0.0000 </r>
       <r>    1.5537    0.0000 </r>
       <r>    1.6323    0.0000 </r>
       <r>    1.8104    0.0000 </r>
       <r>    1.8557    0.0000 </r>
       <r>    1.9462    0.0000 </r>
       <r>    2.0911    0.0000 </r>
       <r>    2.3709    0.0000 </r>
       <r>    2.4565    0.0000 </r>
       <r>    2.5979    0.0000 </r>
      </set>
      <set comment="kpoint 8">
       <r>  -14.1166    1.0000 </r>
       <r>  -13.5294    1.0000 </r>
       <r>  -13.0193    1.0000 </r>
       <r>  -12.8676    1.0000 </r>
       <r>  -12.5303    1.0000 </r>
       <r>  -12.2034    1.0000 </r>
       <r>  -12.0116    1.0000 </r>
       <r>  -11.9087    1.0000 </r>
       <r>  -11.5228    1.0000 </r>
       <r>  -11.3022    1.0000 </r>
       <r>  -11.0455    1.0000 </r>
       <r>  -10.8710    1.0000 </r>
       <r>   -8.5608    1.0000 </r>
       <r>   -7.9328    1.0000 </r>
       <r>   -7.4397    1.0000 </r>
       <r>   -7.3514    1.0000 </r>
       <r>   -6.7322    1.0000 </r>
       <r>   -6.7122    1.0000 </r>
       <r>   -6.6145    1.0000 </r>
       <r>   -6.1988    1.0000 </r>
       <r>   -5.7935    1.0000 </r>
       <r>   -5.5312    1.0000 </r>
       <r>   -4.6884    1.0000 </r>
       <r>   -4.3081    1.0000 </r>
       <r>   -4.1151    1.0000 </r>
       <r>   -4.0394    1.0000 </r>
       <r>   -3.6760    1.0000 </r>
       <r>   -3.6309    1.0000 </r>
       <r>   -3.3764    1.0000 </r>
       <r>   -3.1725    1.0000 </r>
       <r>   -2.8985    1.0000 </r>
       <r>   -2.7649    1.0000 </r>
       <r>   -2.7529    1.0000 </r>
       <r>   -2.6126    1.0000 </r>
       <r>   -2.4634    1.0000 </r>
       <r>   -2.4295    1.0000 </r>
       <r>   -2.3869    1.0000 </r>
       <r>   -2.2548    1.0000 </r>
       <r>   -2.1780    1.0000 </r>
       <r>   -2.1285    1.0000 </r>
       <r>   -2.0090    1.0000 </r>
       <r>   -1.9267    1.0000 </r>
       <r>   -1.6741    1.0000 </r>
       <r>   -1.6435    1.0000 </r>
       <r>   -1.5909    1.0000 </r>
       <r>   -1.4739    1.0000 </r>
       <r>   -1.4076    1.0000 </r>
       <r>   -1.3731    1.0000 </r>
       <r>   -1.1840    1.0000 </r>
       <r>   -0.9863    1.0000 </r>
       <r>   -0.8043    1.0000 </r>
       <r>   -0.6177    1.0000 </r>
       <r>   -0.1496    1.0000 </r>
       <r>    0.3041    0.0709 </r>
       <r>    0.4163    0.0011 </r>
       <r>    0.7414    0.0000 </r>
       <r>    1.0366    0.0000 </r>
       <r>    1.1754    0.0000 </r>
       <r>    1.3502    0.0000 </r>
       <r>    1.5549    0.0000 </r>
       <r>    1.6808    0.0000 </r>
       <r>    1.8012    0.0000 </r>
       <r>    1.9233    0.0000 </r>
       <r>    2.1242    0.0000 </r>
       <r>    2.2149    0.0000 </r>
       <r>    2.5153    0.0000 </r>
       <r>    2.6090    0.0000 </r>
       <r>    2.7063    0.0000 </r>
      </set>
      <set comment="kpoint 9">
       <r>  -14.0697    1.0000 </r>
       <r>  -13.4526    1.0000 </r>
       <r>  -13.0002    1.0000 </r>
       <r>  -12.8258    1.0000 </r>
       <r>  -12.4732    1.0000 </r>
       <r>  -12.1469    1.0000 </r>
       <r>  -11.9362    1.0000 </r>
       <r>  -11.8103    1.0000 </r>
       <r>  -11.4814    1.0000 </r>
       <r>  -11.2613    1.0000 </r>
       <r>  -11.0011    1.0000 </r>
       <r>  -10.8219    1.0000 </r>
       <r>   -8.6191    1.0000 </r>
       <r>   -7.8943    1.0000 </r>
       <r>   -7.4382    1.0000 </r>
       <r>   -7.3595    1.0000 </r>
       <r>   -6.7272    1.0000 </r>
       <r>   -6.6717    1.0000 </r>
       <r>   -6.5554    1.0000 </r>
       <r>   -6.1632    1.0000 </r>
       <r>   -5.7449    1.0000 </r>
       <r>   -5.4967    1.0000 </r>
       <r>   -4.7334    1.0000 </r>
       <r>   -4.3000    1.0000 </r>
       <r>   -4.1349    1.0000 </r>
       <r>   -4.1008    1.0000 </r>
       <r>   -3.7831    1.0000 </r>
       <r>   -3.6863    1.0000 </r>
       <r>   -3.5716    1.0000 </r>
       <r>   -3.4314    1.0000 </r>
       <r>   -3.1953    1.0000 </r>
       <r>   -3.0734    1.0000 </r>
       <r>   -3.0025    1.0000 </r>
       <r>   -2.8014    1.0000 </r>
       <r>   -2.7108    1.0000 </r>
       <r>   -2.6372    1.0000 </r>
       <r>   -2.5361    1.0000 </r>
       <r>   -2.4559    1.0000 </r>
       <r>   -2.3383    1.0000 </r>
       <r>   -2.2108    1.0000 </r>
       <r>   -2.1578    1.0000 </r>
       <r>   -2.0457    1.0000 </r>
       <r>   -2.0041    1.0000 </r>
       <r>   -1.8788    1.0000 </r>
       <r>   -1.8044    1.0000 </r>
       <r>   -1.7711    1.0000 </r>
       <r>   -1.5097    1.0000 </r>
       <r>   -1.3987    1.0000 </r>
       <r>   -1.1704    1.0000 </r>
       <r>   -1.1165    1.0000 </r>
       <r>   -0.9149    1.0000 </r>
       <r>   -0.5949    1.0000 </r>
       <r>   -0.0421    0.9997 </r>
       <r>    0.3476    0.0186 </r>
       <r>    0.5245    0.0000 </r>
       <r>    0.8906    0.0000 </r>
       <r>    1.2894    0.0000 </r>
       <r>    1.5579    0.0000 </r>
       <r>    1.6831    0.0000 </r>
       <r>    1.8058    0.0000 </r>
       <r>    1.9151    0.0000 </r>
       <r>    2.1680    0.0000 </r>
       <r>    2.2505    0.0000 </r>
       <r>    2.4634    0.0000 </r>
       <r>    2.5073    0.0000 </r>
       <r>    2.6135    0.0000 </r>
       <r>    2.8862    0.0000 </r>
       <r>    2.9520    0.0000 </r>
      </set>
      <set comment="kpoint 10">
       <r>  -13.9371    1.0000 </r>
       <r>  -13.2560    1.0000 </r>
       <r>  -12.8637    1.0000 </r>
       <r>  -12.6703    1.0000 </r>
       <r>  -12.3069    1.0000 </r>
       <r>  -11.9831    1.0000 </r>
       <r>  -11.7694    1.0000 </r>
       <r>  -11.6133    1.0000 </r>
       <r>  -11.3420    1.0000 </r>
       <r>  -11.1225    1.0000 </r>
       <r>  -10.8596    1.0000 </r>
       <r>  -10.6752    1.0000 </r>
       <r>   -8.6846    1.0000 </r>
       <r>   -7.8423    1.0000 </r>
       <r>   -7.4511    1.0000 </r>
       <r>   -7.3405    1.0000 </r>
       <r>   -6.7031    1.0000 </r>
       <r>   -6.6040    1.0000 </r>
       <r>   -6.5174    1.0000 </r>
       <r>   -6.2096    1.0000 </r>
       <r>   -5.6975    1.0000 </r>
       <r>   -5.5036    1.0000 </r>
       <r>   -4.8863    1.0000 </r>
       <r>   -4.5537    1.0000 </r>
       <r>   -4.4278    1.0000 </r>
       <r>   -4.3486    1.0000 </r>
       <r>   -4.2841    1.0000 </r>
       <r>   -4.0907    1.0000 </r>
       <r>   -4.0089    1.0000 </r>
       <r>   -3.7266    1.0000 </r>
       <r>   -3.6544    1.0000 </r>
       <r>   -3.4909    1.0000 </r>
       <r>   -3.4022    1.0000 </r>
       <r>   -3.1750    1.0000 </r>
       <r>   -3.1144    1.0000 </r>
       <r>   -3.0102    1.0000 </r>
       <r>   -2.9568    1.0000 </r>
       <r>   -2.8603    1.0000 </r>
       <r>   -2.6912    1.0000 </r>
       <r>   -2.6395    1.0000 </r>
       <r>   -2.4896    1.0000 </r>
       <r>   -2.3915    1.0000 </r>
       <r>   -2.3317    1.0000 </r>
       <r>   -2.1154    1.0000 </r>
       <r>   -1.9984    1.0000 </r>
       <r>   -1.9319    1.0000 </r>
       <r>   -1.8657    1.0000 </r>
       <r>   -1.5301    1.0000 </r>
       <r>   -1.3024    1.0000 </r>
       <r>   -1.1825    1.0000 </r>
       <r>   -0.9225    1.0000 </r>
       <r>   -0.5736    1.0000 </r>
       <r>   -0.0756    1.0000 </r>
       <r>    0.2554    0.2177 </r>
       <r>    0.5405    0.0000 </r>
       <r>    1.0128    0.0000 </r>
       <r>    1.4612    0.0000 </r>
       <r>    1.6419    0.0000 </r>
       <r>    2.0032    0.0000 </r>
       <r>    2.1030    0.0000 </r>
       <r>    2.3094    0.0000 </r>
       <r>    2.6284    0.0000 </r>
       <r>    2.7374    0.0000 </r>
       <r>    2.8174    0.0000 </r>
       <r>    2.8880    0.0000 </r>
       <r>    3.0165    0.0000 </r>
       <r>    3.0638    0.0000 </r>
       <r>    3.1810    0.0000 </r>
      </set>
      <set comment="kpoint 11">
       <r>  -13.7339    1.0000 </r>
       <r>  -12.9446    1.0000 </r>
       <r>  -12.6124    1.0000 </r>
       <r>  -12.4048    1.0000 </r>
       <r>  -12.0392    1.0000 </r>
       <r>  -11.7206    1.0000 </r>
       <r>  -11.5265    1.0000 </r>
       <r>  -11.3371    1.0000 </r>
       <r>  -11.1203    1.0000 </r>
       <r>  -10.9023    1.0000 </r>
       <r>  -10.6419    1.0000 </r>
       <r>  -10.4433    1.0000 </r>
       <r>   -8.8158    1.0000 </r>
       <r>   -7.8884    1.0000 </r>
       <r>   -7.4629    1.0000 </r>
       <r>   -7.4311    1.0000 </r>
       <r>   -6.7407    1.0000 </r>
       <r>   -6.6958    1.0000 </r>
       <r>   -6.5995    1.0000 </r>
       <r>   -6.4263    1.0000 </r>
       <r>   -5.8652    1.0000 </r>
       <r>   -5.7235    1.0000 </r>
       <r>   -5.2544    1.0000 </r>
       <r>   -5.2012    1.0000 </r>
       <r>   -5.0746    1.0000 </r>
       <r>   -4.7135    1.0000 </r>
       <r>   -4.6345    1.0000 </r>
       <r>   -4.5648    1.0000 </r>
       <r>   -4.4239    1.0000 </r>
       <r>   -4.2268    1.0000 </r>
       <r>   -4.0637    1.0000 </r>
       <r>   -3.8330    1.0000 </r>
       <r>   -3.7708    1.0000 </r>
       <r>   -3.5039    1.0000 </r>
       <r>   -3.3560    1.0000 </r>
       <r>   -3.2542    1.0000 </r>
       <r>   -3.1892    1.0000 </r>
       <r>   -3.1358    1.0000 </r>
       <r>   -2.9833    1.0000 </r>
       <r>   -2.7713    1.0000 </r>
       <r>   -2.6723    1.0000 </r>
       <r>   -2.5725    1.0000 </r>
       <r>   -2.4633    1.0000 </r>
       <r>   -2.2152    1.0000 </r>
       <r>   -2.0674    1.0000 </r>
       <r>   -2.0067    1.0000 </r>
       <r>   -1.8934    1.0000 </r>
       <r>   -1.8084    1.0000 </r>
       <r>   -1.4355    1.0000 </r>
       <r>   -1.2925    1.0000 </r>
       <r>   -1.0741    1.0000 </r>
       <r>   -0.6403    1.0000 </r>
       <r>   -0.3098    1.0000 </r>
       <r>   -0.0221    0.9992 </r>
       <r>    0.3911    0.0035 </r>
       <r>    0.7735    0.0000 </r>
       <r>    1.2564    0.0000 </r>
       <r>    1.4349    0.0000 </r>
       <r>    1.5805    0.0000 </r>
       <r>    1.9157    0.0000 </r>
       <r>    2.2044    0.0000 </r>
       <r>    2.4889    0.0000 </r>
       <r>    2.5546    0.0000 </r>
       <r>    2.6688    0.0000 </r>
       <r>    2.7665    0.0000 </r>
       <r>    2.9778    0.0000 </r>
       <r>    3.0026    0.0000 </r>
       <r>    3.2483    0.0000 </r>
      </set>
      <set comment="kpoint 12">
       <r>  -13.4897    1.0000 </r>
       <r>  -12.5279    1.0000 </r>
       <r>  -12.2533    1.0000 </r>
       <r>  -12.0396    1.0000 </r>
       <r>  -11.6878    1.0000 </r>
       <r>  -11.3806    1.0000 </r>
       <r>  -11.2343    1.0000 </r>
       <r>  -11.0238    1.0000 </r>
       <r>  -10.8568    1.0000 </r>
       <r>  -10.6523    1.0000 </r>
       <r>  -10.4359    1.0000 </r>
       <r>  -10.1520    1.0000 </r>
       <r>   -9.0150    1.0000 </r>
       <r>   -8.1485    1.0000 </r>
       <r>   -7.7518    1.0000 </r>
       <r>   -7.5692    1.0000 </r>
       <r>   -7.1573    1.0000 </r>
       <r>   -7.0231    1.0000 </r>
       <r>   -7.0010    1.0000 </r>
       <r>   -6.6124    1.0000 </r>
       <r>   -6.2514    1.0000 </r>
       <r>   -6.1940    1.0000 </r>
       <r>   -5.9621    1.0000 </r>
       <r>   -5.7537    1.0000 </r>
       <r>   -5.4247    1.0000 </r>
       <r>   -5.0133    1.0000 </r>
       <r>   -4.9765    1.0000 </r>
       <r>   -4.8091    1.0000 </r>
       <r>   -4.5012    1.0000 </r>
       <r>   -4.4071    1.0000 </r>
       <r>   -4.3395    1.0000 </r>
       <r>   -4.0898    1.0000 </r>
       <r>   -4.0457    1.0000 </r>
       <r>   -3.5578    1.0000 </r>
       <r>   -3.4126    1.0000 </r>
       <r>   -3.3586    1.0000 </r>
       <r>   -3.0774    1.0000 </r>
       <r>   -3.0379    1.0000 </r>
       <r>   -2.9797    1.0000 </r>
       <r>   -2.8989    1.0000 </r>
       <r>   -2.7391    1.0000 </r>
       <r>   -2.6165    1.0000 </r>
       <r>   -2.5585    1.0000 </r>
       <r>   -2.4037    1.0000 </r>
       <r>   -2.2591    1.0000 </r>
       <r>   -2.0721    1.0000 </r>
       <r>   -1.9789    1.0000 </r>
       <r>   -1.9093    1.0000 </r>
       <r>   -1.7899    1.0000 </r>
       <r>   -1.3805    1.0000 </r>
       <r>   -1.2767    1.0000 </r>
       <r>   -0.9148    1.0000 </r>
       <r>   -0.5645    1.0000 </r>
       <r>   -0.4121    1.0000 </r>
       <r>    0.2294    0.3399 </r>
       <r>    0.5877    0.0000 </r>
       <r>    0.9695    0.0000 </r>
       <r>    1.1957    0.0000 </r>
       <r>    1.2716    0.0000 </r>
       <r>    1.6670    0.0000 </r>
       <r>    2.1072    0.0000 </r>
       <r>    2.1713    0.0000 </r>
       <r>    2.3690    0.0000 </r>
       <r>    2.4071    0.0000 </r>
       <r>    2.4985    0.0000 </r>
       <r>    2.5963    0.0000 </r>
       <r>    2.8205    0.0000 </r>
       <r>    3.0009    0.0000 </r>
      </set>
      <set comment="kpoint 13">
       <r>  -13.2561    1.0000 </r>
       <r>  -12.0244    1.0000 </r>
       <r>  -11.8032    1.0000 </r>
       <r>  -11.5979    1.0000 </r>
       <r>  -11.2921    1.0000 </r>
       <r>  -11.0209    1.0000 </r>
       <r>  -10.9353    1.0000 </r>
       <r>  -10.7665    1.0000 </r>
       <r>  -10.6463    1.0000 </r>
       <r>  -10.5124    1.0000 </r>
       <r>  -10.5023    1.0000 </r>
       <r>   -9.8531    1.0000 </r>
       <r>   -9.0053    1.0000 </r>
       <r>   -8.4978    1.0000 </r>
       <r>   -8.1554    1.0000 </r>
       <r>   -7.8896    1.0000 </r>
       <r>   -7.8235    1.0000 </r>
       <r>   -7.4405    1.0000 </r>
       <r>   -7.3994    1.0000 </r>
       <r>   -7.0467    1.0000 </r>
       <r>   -6.7400    1.0000 </r>
       <r>   -6.7053    1.0000 </r>
       <r>   -6.5973    1.0000 </r>
       <r>   -6.2458    1.0000 </r>
       <r>   -5.3880    1.0000 </r>
       <r>   -5.2103    1.0000 </r>
       <r>   -4.9293    1.0000 </r>
       <r>   -4.8307    1.0000 </r>
       <r>   -4.5420    1.0000 </r>
       <r>   -4.3218    1.0000 </r>
       <r>   -4.1682    1.0000 </r>
       <r>   -3.9497    1.0000 </r>
       <r>   -3.9039    1.0000 </r>
       <r>   -3.4592    1.0000 </r>
       <r>   -3.3979    1.0000 </r>
       <r>   -3.3494    1.0000 </r>
       <r>   -3.3061    1.0000 </r>
       <r>   -3.1908    1.0000 </r>
       <r>   -3.1634    1.0000 </r>
       <r>   -2.9608    1.0000 </r>
       <r>   -2.8016    1.0000 </r>
       <r>   -2.7129    1.0000 </r>
       <r>   -2.6292    1.0000 </r>
       <r>   -2.5545    1.0000 </r>
       <r>   -2.3680    1.0000 </r>
       <r>   -2.2456    1.0000 </r>
       <r>   -2.1190    1.0000 </r>
       <r>   -2.0349    1.0000 </r>
       <r>   -1.8874    1.0000 </r>
       <r>   -1.5741    1.0000 </r>
       <r>   -1.4067    1.0000 </r>
       <r>   -1.1515    1.0000 </r>
       <r>   -0.8167    1.0000 </r>
       <r>   -0.6720    1.0000 </r>
       <r>    0.1394    0.8052 </r>
       <r>    0.5839    0.0000 </r>
       <r>    0.7605    0.0000 </r>
       <r>    1.1553    0.0000 </r>
       <r>    1.2821    0.0000 </r>
       <r>    1.4958    0.0000 </r>
       <r>    1.7752    0.0000 </r>
       <r>    1.9554    0.0000 </r>
       <r>    2.0318    0.0000 </r>
       <r>    2.1914    0.0000 </r>
       <r>    2.3291    0.0000 </r>
       <r>    2.5574    0.0000 </r>
       <r>    2.6113    0.0000 </r>
       <r>    2.7998    0.0000 </r>
      </set>
      <set comment="kpoint 14">
       <r>  -13.1071    1.0000 </r>
       <r>  -11.4746    1.0000 </r>
       <r>  -11.3079    1.0000 </r>
       <r>  -11.1468    1.0000 </r>
       <r>  -11.0020    1.0000 </r>
       <r>  -10.9098    1.0000 </r>
       <r>  -10.8221    1.0000 </r>
       <r>  -10.7434    1.0000 </r>
       <r>  -10.6913    1.0000 </r>
       <r>  -10.6256    1.0000 </r>
       <r>  -10.5708    1.0000 </r>
       <r>   -9.6706    1.0000 </r>
       <r>   -8.7086    1.0000 </r>
       <r>   -8.5989    1.0000 </r>
       <r>   -8.4441    1.0000 </r>
       <r>   -8.3718    1.0000 </r>
       <r>   -8.1063    1.0000 </r>
       <r>   -7.7720    1.0000 </r>
       <r>   -7.5601    1.0000 </r>
       <r>   -7.3610    1.0000 </r>
       <r>   -7.3062    1.0000 </r>
       <r>   -7.1834    1.0000 </r>
       <r>   -7.0517    1.0000 </r>
       <r>   -6.4178    1.0000 </r>
       <r>   -5.2905    1.0000 </r>
       <r>   -5.0629    1.0000 </r>
       <r>   -4.8008    1.0000 </r>
       <r>   -4.5175    1.0000 </r>
       <r>   -4.2787    1.0000 </r>
       <r>   -4.1882    1.0000 </r>
       <r>   -4.0626    1.0000 </r>
       <r>   -3.9766    1.0000 </r>
       <r>   -3.7845    1.0000 </r>
       <r>   -3.7018    1.0000 </r>
       <r>   -3.5922    1.0000 </r>
       <r>   -3.5419    1.0000 </r>
       <r>   -3.4635    1.0000 </r>
       <r>   -3.3070    1.0000 </r>
       <r>   -3.1475    1.0000 </r>
       <r>   -3.0292    1.0000 </r>
       <r>   -2.9952    1.0000 </r>
       <r>   -2.7330    1.0000 </r>
       <r>   -2.6704    1.0000 </r>
       <r>   -2.6441    1.0000 </r>
       <r>   -2.5632    1.0000 </r>
       <r>   -2.2661    1.0000 </r>
       <r>   -2.1716    1.0000 </r>
       <r>   -2.1284    1.0000 </r>
       <r>   -1.7702    1.0000 </r>
       <r>   -1.6294    1.0000 </r>
       <r>   -1.5232    1.0000 </r>
       <r>   -1.2609    1.0000 </r>
       <r>   -1.0043    1.0000 </r>
       <r>   -0.6525    1.0000 </r>
       <r>    0.1115    0.8953 </r>
       <r>    0.5490    0.0000 </r>
       <r>    0.7884    0.0000 </r>
       <r>    1.3574    0.0000 </r>
       <r>    1.4434    0.0000 </r>
       <r>    1.4712    0.0000 </r>
       <r>    1.5206    0.0000 </r>
       <r>    1.7401    0.0000 </r>
       <r>    1.9816    0.0000 </r>
       <r>    2.0665    0.0000 </r>
       <r>    2.2429    0.0000 </r>
       <r>    2.4036    0.0000 </r>
       <r>    2.4633    0.0000 </r>
       <r>    2.5993    0.0000 </r>
      </set>
      <set comment="kpoint 15">
       <r>  -13.1080    1.0000 </r>
       <r>  -11.5793    1.0000 </r>
       <r>  -11.1377    1.0000 </r>
       <r>  -11.1144    1.0000 </r>
       <r>  -10.9752    1.0000 </r>
       <r>  -10.8533    1.0000 </r>
       <r>  -10.8113    1.0000 </r>
       <r>  -10.7982    1.0000 </r>
       <r>  -10.7478    1.0000 </r>
       <r>  -10.7096    1.0000 </r>
       <r>  -10.5711    1.0000 </r>
       <r>   -9.6736    1.0000 </r>
       <r>   -8.8013    1.0000 </r>
       <r>   -8.7580    1.0000 </r>
       <r>   -8.4780    1.0000 </r>
       <r>   -8.0336    1.0000 </r>
       <r>   -7.9878    1.0000 </r>
       <r>   -7.8295    1.0000 </r>
       <r>   -7.6477    1.0000 </r>
       <r>   -7.3252    1.0000 </r>
       <r>   -7.2898    1.0000 </r>
       <r>   -7.2606    1.0000 </r>
       <r>   -7.0205    1.0000 </r>
       <r>   -6.4019    1.0000 </r>
       <r>   -5.3064    1.0000 </r>
       <r>   -4.7795    1.0000 </r>
       <r>   -4.6975    1.0000 </r>
       <r>   -4.6222    1.0000 </r>
       <r>   -4.4106    1.0000 </r>
       <r>   -4.1709    1.0000 </r>
       <r>   -4.0550    1.0000 </r>
       <r>   -4.0389    1.0000 </r>
       <r>   -3.9287    1.0000 </r>
       <r>   -3.7915    1.0000 </r>
       <r>   -3.6900    1.0000 </r>
       <r>   -3.6401    1.0000 </r>
       <r>   -3.4972    1.0000 </r>
       <r>   -3.3974    1.0000 </r>
       <r>   -3.1548    1.0000 </r>
       <r>   -2.9946    1.0000 </r>
       <r>   -2.8510    1.0000 </r>
       <r>   -2.7496    1.0000 </r>
       <r>   -2.7295    1.0000 </r>
       <r>   -2.6550    1.0000 </r>
       <r>   -2.4318    1.0000 </r>
       <r>   -2.2513    1.0000 </r>
       <r>   -2.2129    1.0000 </r>
       <r>   -2.1072    1.0000 </r>
       <r>   -1.7470    1.0000 </r>
       <r>   -1.5707    1.0000 </r>
       <r>   -1.4887    1.0000 </r>
       <r>   -1.2129    1.0000 </r>
       <r>   -0.9816    1.0000 </r>
       <r>   -0.5971    1.0000 </r>
       <r>    0.1103    0.8984 </r>
       <r>    0.5929    0.0000 </r>
       <r>    0.9049    0.0000 </r>
       <r>    1.3205    0.0000 </r>
       <r>    1.4908    0.0000 </r>
       <r>    1.6203    0.0000 </r>
       <r>    1.6996    0.0000 </r>
       <r>    1.7644    0.0000 </r>
       <r>    2.0289    0.0000 </r>
       <r>    2.1249    0.0000 </r>
       <r>    2.2339    0.0000 </r>
       <r>    2.3386    0.0000 </r>
       <r>    2.5177    0.0000 </r>
       <r>    2.5742    0.0000 </r>
      </set>
      <set comment="kpoint 16">
       <r>  -13.2593    1.0000 </r>
       <r>  -12.1460    1.0000 </r>
       <r>  -11.5516    1.0000 </r>
       <r>  -11.5285    1.0000 </r>
       <r>  -11.2919    1.0000 </r>
       <r>  -11.0599    1.0000 </r>
       <r>  -10.9823    1.0000 </r>
       <r>  -10.9479    1.0000 </r>
       <r>  -10.6747    1.0000 </r>
       <r>  -10.4977    1.0000 </r>
       <r>  -10.4938    1.0000 </r>
       <r>   -9.8342    1.0000 </r>
       <r>   -8.7861    1.0000 </r>
       <r>   -8.5931    1.0000 </r>
       <r>   -8.5348    1.0000 </r>
       <r>   -7.8116    1.0000 </r>
       <r>   -7.4897    1.0000 </r>
       <r>   -7.4653    1.0000 </r>
       <r>   -7.3731    1.0000 </r>
       <r>   -6.9890    1.0000 </r>
       <r>   -6.8534    1.0000 </r>
       <r>   -6.7093    1.0000 </r>
       <r>   -6.5600    1.0000 </r>
       <r>   -6.2122    1.0000 </r>
       <r>   -5.2401    1.0000 </r>
       <r>   -5.0941    1.0000 </r>
       <r>   -4.8932    1.0000 </r>
       <r>   -4.7547    1.0000 </r>
       <r>   -4.4676    1.0000 </r>
       <r>   -4.4239    1.0000 </r>
       <r>   -4.3018    1.0000 </r>
       <r>   -4.1362    1.0000 </r>
       <r>   -4.0110    1.0000 </r>
       <r>   -3.7660    1.0000 </r>
       <r>   -3.6923    1.0000 </r>
       <r>   -3.4522    1.0000 </r>
       <r>   -3.3930    1.0000 </r>
       <r>   -3.2178    1.0000 </r>
       <r>   -3.1053    1.0000 </r>
       <r>   -3.0385    1.0000 </r>
       <r>   -2.7838    1.0000 </r>
       <r>   -2.6288    1.0000 </r>
       <r>   -2.5588    1.0000 </r>
       <r>   -2.4996    1.0000 </r>
       <r>   -2.3071    1.0000 </r>
       <r>   -2.2343    1.0000 </r>
       <r>   -2.0379    1.0000 </r>
       <r>   -1.9870    1.0000 </r>
       <r>   -1.8456    1.0000 </r>
       <r>   -1.4785    1.0000 </r>
       <r>   -1.3628    1.0000 </r>
       <r>   -1.0836    1.0000 </r>
       <r>   -0.8022    1.0000 </r>
       <r>   -0.5070    1.0000 </r>
       <r>    0.1444    0.7853 </r>
       <r>    0.7526    0.0000 </r>
       <r>    0.9998    0.0000 </r>
       <r>    1.3390    0.0000 </r>
       <r>    1.5926    0.0000 </r>
       <r>    1.7206    0.0000 </r>
       <r>    1.8515    0.0000 </r>
       <r>    2.0324    0.0000 </r>
       <r>    2.1307    0.0000 </r>
       <r>    2.2327    0.0000 </r>
       <r>    2.3343    0.0000 </r>
       <r>    2.3832    0.0000 </r>
       <r>    2.5527    0.0000 </r>
       <r>    2.6543    0.0000 </r>
      </set>
      <set comment="kpoint 17">
       <r>  -13.4955    1.0000 </r>
       <r>  -12.6401    1.0000 </r>
       <r>  -11.9922    1.0000 </r>
       <r>  -11.9718    1.0000 </r>
       <r>  -11.6925    1.0000 </r>
       <r>  -11.4091    1.0000 </r>
       <r>  -11.3225    1.0000 </r>
       <r>  -11.2668    1.0000 </r>
       <r>  -10.8180    1.0000 </r>
       <r>  -10.6382    1.0000 </r>
       <r>  -10.4653    1.0000 </r>
       <r>  -10.1260    1.0000 </r>
       <r>   -8.5991    1.0000 </r>
       <r>   -8.2461    1.0000 </r>
       <r>   -8.2294    1.0000 </r>
       <r>   -7.3527    1.0000 </r>
       <r>   -7.1468    1.0000 </r>
       <r>   -7.0428    1.0000 </r>
       <r>   -6.9166    1.0000 </r>
       <r>   -6.5376    1.0000 </r>
       <r>   -6.2005    1.0000 </r>
       <r>   -6.1764    1.0000 </r>
       <r>   -6.0165    1.0000 </r>
       <r>   -5.7700    1.0000 </r>
       <r>   -5.1934    1.0000 </r>
       <r>   -5.0698    1.0000 </r>
       <r>   -4.9316    1.0000 </r>
       <r>   -4.6989    1.0000 </r>
       <r>   -4.6417    1.0000 </r>
       <r>   -4.4054    1.0000 </r>
       <r>   -4.3262    1.0000 </r>
       <r>   -4.2840    1.0000 </r>
       <r>   -4.1130    1.0000 </r>
       <r>   -3.8555    1.0000 </r>
       <r>   -3.5251    1.0000 </r>
       <r>   -3.4866    1.0000 </r>
       <r>   -3.1579    1.0000 </r>
       <r>   -3.1006    1.0000 </r>
       <r>   -3.0584    1.0000 </r>
       <r>   -2.8572    1.0000 </r>
       <r>   -2.8090    1.0000 </r>
       <r>   -2.6480    1.0000 </r>
       <r>   -2.4364    1.0000 </r>
       <r>   -2.2893    1.0000 </r>
       <r>   -2.0713    1.0000 </r>
       <r>   -2.0273    1.0000 </r>
       <r>   -1.9077    1.0000 </r>
       <r>   -1.8886    1.0000 </r>
       <r>   -1.7436    1.0000 </r>
       <r>   -1.3590    1.0000 </r>
       <r>   -1.2826    1.0000 </r>
       <r>   -0.9189    1.0000 </r>
       <r>   -0.4669    1.0000 </r>
       <r>   -0.3274    1.0000 </r>
       <r>    0.1864    0.5775 </r>
       <r>    0.9562    0.0000 </r>
       <r>    1.1320    0.0000 </r>
       <r>    1.5724    0.0000 </r>
       <r>    1.6551    0.0000 </r>
       <r>    1.8847    0.0000 </r>
       <r>    1.9442    0.0000 </r>
       <r>    2.1734    0.0000 </r>
       <r>    2.2366    0.0000 </r>
       <r>    2.3878    0.0000 </r>
       <r>    2.5660    0.0000 </r>
       <r>    2.6501    0.0000 </r>
       <r>    2.7091    0.0000 </r>
       <r>    2.8701    0.0000 </r>
      </set>
      <set comment="kpoint 18">
       <r>  -13.7409    1.0000 </r>
       <r>  -13.0353    1.0000 </r>
       <r>  -12.3962    1.0000 </r>
       <r>  -12.3367    1.0000 </r>
       <r>  -12.0449    1.0000 </r>
       <r>  -11.7357    1.0000 </r>
       <r>  -11.6334    1.0000 </r>
       <r>  -11.5640    1.0000 </r>
       <r>  -11.0741    1.0000 </r>
       <r>  -10.8753    1.0000 </r>
       <r>  -10.6443    1.0000 </r>
       <r>  -10.4272    1.0000 </r>
       <r>   -8.4435    1.0000 </r>
       <r>   -7.9831    1.0000 </r>
       <r>   -7.8259    1.0000 </r>
       <r>   -7.1035    1.0000 </r>
       <r>   -6.8723    1.0000 </r>
       <r>   -6.7290    1.0000 </r>
       <r>   -6.6812    1.0000 </r>
       <r>   -6.3576    1.0000 </r>
       <r>   -5.7842    1.0000 </r>
       <r>   -5.7252    1.0000 </r>
       <r>   -5.3789    1.0000 </r>
       <r>   -5.2711    1.0000 </r>
       <r>   -4.8777    1.0000 </r>
       <r>   -4.7433    1.0000 </r>
       <r>   -4.6449    1.0000 </r>
       <r>   -4.5581    1.0000 </r>
       <r>   -4.3062    1.0000 </r>
       <r>   -4.2023    1.0000 </r>
       <r>   -4.0143    1.0000 </r>
       <r>   -3.9177    1.0000 </r>
       <r>   -3.8214    1.0000 </r>
       <r>   -3.7330    1.0000 </r>
       <r>   -3.4925    1.0000 </r>
       <r>   -3.4621    1.0000 </r>
       <r>   -3.2473    1.0000 </r>
       <r>   -3.0690    1.0000 </r>
       <r>   -2.9986    1.0000 </r>
       <r>   -2.7389    1.0000 </r>
       <r>   -2.5883    1.0000 </r>
       <r>   -2.4936    1.0000 </r>
       <r>   -2.4524    1.0000 </r>
       <r>   -2.1513    1.0000 </r>
       <r>   -1.9843    1.0000 </r>
       <r>   -1.9151    1.0000 </r>
       <r>   -1.8460    1.0000 </r>
       <r>   -1.7500    1.0000 </r>
       <r>   -1.5041    1.0000 </r>
       <r>   -1.2399    1.0000 </r>
       <r>   -1.1028    1.0000 </r>
       <r>   -0.6878    1.0000 </r>
       <r>   -0.1596    1.0000 </r>
       <r>   -0.0180    0.9990 </r>
       <r>    0.2198    0.3909 </r>
       <r>    1.1143    0.0000 </r>
       <r>    1.3439    0.0000 </r>
       <r>    1.7383    0.0000 </r>
       <r>    1.8245    0.0000 </r>
       <r>    1.9613    0.0000 </r>
       <r>    2.2008    0.0000 </r>
       <r>    2.3219    0.0000 </r>
       <r>    2.5147    0.0000 </r>
       <r>    2.6776    0.0000 </r>
       <r>    2.7706    0.0000 </r>
       <r>    2.8765    0.0000 </r>
       <r>    2.9192    0.0000 </r>
[...]
       <r>    2.7064    0.0000 </r>
      </set>
      <set comment="kpoint 54">
       <r>  -13.1075    1.0000 </r>
       <r>  -11.5342    1.0000 </r>
       <r>  -11.2133    1.0000 </r>
       <r>  -11.1349    1.0000 </r>
       <r>  -10.9921    1.0000 </r>
       <r>  -10.8952    1.0000 </r>
       <r>  -10.8222    1.0000 </r>
       <r>  -10.7659    1.0000 </r>
       <r>  -10.7169    1.0000 </r>
       <r>  -10.6665    1.0000 </r>
       <r>  -10.5583    1.0000 </r>
       <r>   -9.6784    1.0000 </r>
       <r>   -8.7096    1.0000 </r>
       <r>   -8.6755    1.0000 </r>
       <r>   -8.4847    1.0000 </r>
       <r>   -8.1633    1.0000 </r>
       <r>   -8.0398    1.0000 </r>
       <r>   -7.8948    1.0000 </r>
       <r>   -7.6039    1.0000 </r>
       <r>   -7.3536    1.0000 </r>
       <r>   -7.3270    1.0000 </r>
       <r>   -7.2140    1.0000 </r>
       <r>   -7.0337    1.0000 </r>
       <r>   -6.3330    1.0000 </r>
       <r>   -5.2136    1.0000 </r>
       <r>   -4.9893    1.0000 </r>
       <r>   -4.8621    1.0000 </r>
       <r>   -4.5234    1.0000 </r>
       <r>   -4.3433    1.0000 </r>
       <r>   -4.1881    1.0000 </r>
       <r>   -4.1047    1.0000 </r>
       <r>   -3.9935    1.0000 </r>
       <r>   -3.8129    1.0000 </r>
       <r>   -3.7572    1.0000 </r>
       <r>   -3.6223    1.0000 </r>
       <r>   -3.5844    1.0000 </r>
       <r>   -3.5262    1.0000 </r>
       <r>   -3.3013    1.0000 </r>
       <r>   -3.1364    1.0000 </r>
       <r>   -3.0438    1.0000 </r>
       <r>   -2.9690    1.0000 </r>
       <r>   -2.7429    1.0000 </r>
       <r>   -2.6634    1.0000 </r>
       <r>   -2.5236    1.0000 </r>
       <r>   -2.4270    1.0000 </r>
       <r>   -2.2825    1.0000 </r>
       <r>   -2.2224    1.0000 </r>
       <r>   -2.1000    1.0000 </r>
       <r>   -1.7681    1.0000 </r>
       <r>   -1.6163    1.0000 </r>
       <r>   -1.5461    1.0000 </r>
       <r>   -1.2401    1.0000 </r>
       <r>   -1.0596    1.0000 </r>
       <r>   -0.6091    1.0000 </r>
       <r>   -0.0255    0.9993 </r>
       <r>    0.5973    0.0000 </r>
       <r>    0.7765    0.0000 </r>
       <r>    1.3037    0.0000 </r>
       <r>    1.4970    0.0000 </r>
       <r>    1.5864    0.0000 </r>
       <r>    1.6229    0.0000 </r>
       <r>    1.8449    0.0000 </r>
       <r>    2.0030    0.0000 </r>
       <r>    2.1298    0.0000 </r>
       <r>    2.2047    0.0000 </r>
       <r>    2.3241    0.0000 </r>
       <r>    2.4688    0.0000 </r>
       <r>    2.6152    0.0000 </r>
      </set>
     </set>
    </set>
   </array>
  </eigenvalues>
  <separator name="orbital magnetization" >
   <v name="MAGDIPOLOUT">      0.00000000      0.00000000      0.00000000</v>
  </separator>
  <dos>
   <i name="efermi">      0.20025980 </i>
   <total>
    <array>
     <dimension dim="1">gridpoints</dimension>
     <dimension dim="2">spin</dimension>
     <field>energy</field>
     <field>total</field>
     <field>integrated</field>
     <set>
      <set comment="spin 1">
       <r>   -15.1248     0.0000     0.0000 </r>
       <r>   -15.0603     0.0000     0.0000 </r>
       <r>   -14.9957     0.0000     0.0000 </r>
       <r>   -14.9311     0.0000     0.0000 </r>
       <r>   -14.8665     0.0000     0.0000 </r>
       <r>   -14.8020     0.0000     0.0000 </r>
       <r>   -14.7374     0.0000     0.0000 </r>
       <r>   -14.6728     0.0000     0.0000 </r>
       <r>   -14.6082     0.0000     0.0000 </r>
       <r>   -14.5437     0.0000     0.0000 </r>
       <r>   -14.4791     0.0000     0.0000 </r>
       <r>   -14.4145     0.0000     0.0000 </r>
       <r>   -14.3499     0.0014     0.0001 </r>
       <r>   -14.2853     0.0254     0.0017 </r>
       <r>   -14.2208     0.2266     0.0164 </r>
       <r>   -14.1562     0.9922     0.0804 </r>
       <r>   -14.0916     2.2000     0.2225 </r>
       <r>   -14.0270     2.7147     0.3978 </r>
       <r>   -13.9625     2.4535     0.5562 </r>
       <r>   -13.8979     2.0057     0.6858 </r>
       <r>   -13.8333     1.3958     0.7759 </r>
       <r>   -13.7687     1.4316     0.8683 </r>
       <r>   -13.7041     1.7559     0.9817 </r>
       <r>   -13.6396     1.4506     1.0754 </r>
       <r>   -13.5750     1.6581     1.1825 </r>
       <r>   -13.5104     2.9886     1.3755 </r>
       <r>   -13.4458     3.6756     1.6128 </r>
       <r>   -13.3813     3.0701     1.8111 </r>
       <r>   -13.3167     2.8902     1.9977 </r>
       <r>   -13.2521     3.4434     2.2201 </r>
       <r>   -13.1875     3.5658     2.4504 </r>
       <r>   -13.1230     3.4630     2.6740 </r>
       <r>   -13.0584     3.6320     2.9086 </r>
       <r>   -12.9938     3.7443     3.1503 </r>
       <r>   -12.9292     3.9426     3.4050 </r>
       <r>   -12.8646     4.1144     3.6706 </r>
       <r>   -12.8001     3.9037     3.9227 </r>
       <r>   -12.7355     3.6241     4.1568 </r>
       <r>   -12.6709     4.0254     4.4167 </r>
       <r>   -12.6063     4.7858     4.7258 </r>
       <r>   -12.5418     4.9387     5.0447 </r>
       <r>   -12.4772     4.6893     5.3475 </r>
       <r>   -12.4126     4.4775     5.6367 </r>
       <r>   -12.3480     4.4614     5.9248 </r>
       <r>   -12.2835     4.4540     6.2124 </r>
       <r>   -12.2189     4.4686     6.5010 </r>
       <r>   -12.1543     5.2759     6.8417 </r>
       <r>   -12.0897     6.9659     7.2915 </r>
       <r>   -12.0251     8.8778     7.8648 </r>
       <r>   -11.9606     9.0866     8.4516 </r>
       <r>   -11.8960     7.1578     8.9138 </r>
       <r>   -11.8314     5.5588     9.2728 </r>
       <r>   -11.7668     5.7121     9.6417 </r>
       <r>   -11.7023     6.8791    10.0859 </r>
       <r>   -11.6377     7.7662    10.5874 </r>
       <r>   -11.5731     8.6136    11.1437 </r>
       <r>   -11.5085     8.7861    11.7110 </r>
       <r>   -11.4439     7.4696    12.1934 </r>
       <r>   -11.3794     7.0899    12.6513 </r>
       <r>   -11.3148     9.0045    13.2327 </r>
       <r>   -11.2502    10.2491    13.8946 </r>
       <r>   -11.1856     9.2684    14.4931 </r>
       <r>   -11.1211     9.0172    15.0754 </r>
       <r>   -11.0565    10.3204    15.7419 </r>
       <r>   -10.9919    11.3044    16.4719 </r>
       <r>   -10.9273    11.9365    17.2427 </r>
       <r>   -10.8628    13.4129    18.1089 </r>
       <r>   -10.7982    13.8024    19.0002 </r>
       <r>   -10.7336    12.3667    19.7988 </r>
       <r>   -10.6690    12.0659    20.5780 </r>
       <r>   -10.6044    11.3683    21.3121 </r>
       <r>   -10.5399     9.1107    21.9005 </r>
       <r>   -10.4753     7.8199    22.4055 </r>
       <r>   -10.4107     6.2247    22.8074 </r>
       <r>   -10.3461     3.1836    23.0130 </r>
       <r>   -10.2816     0.9701    23.0757 </r>
       <r>   -10.2170     0.6611    23.1184 </r>
       <r>   -10.1524     1.3787    23.2074 </r>
       <r>   -10.0878     1.6134    23.3116 </r>
       <r>   -10.0232     0.9077    23.3702 </r>
       <r>    -9.9587     0.4487    23.3992 </r>
       <r>    -9.8941     0.9154    23.4583 </r>
       <r>    -9.8295     1.6739    23.5664 </r>
       <r>    -9.7649     1.7575    23.6799 </r>
       <r>    -9.7004     1.7282    23.7915 </r>
       <r>    -9.6358     1.7697    23.9058 </r>
       <r>    -9.5712     1.0903    23.9762 </r>
       <r>    -9.5066     0.3224    23.9970 </r>
       <r>    -9.4421     0.0439    23.9998 </r>
       <r>    -9.3775     0.0027    24.0000 </r>
       <r>    -9.3129     0.0001    24.0000 </r>
       <r>    -9.2483     0.0010    24.0001 </r>
       <r>    -9.1837     0.0180    24.0012 </r>
       <r>    -9.1192     0.1582    24.0114 </r>
       <r>    -9.0546     0.6770    24.0552 </r>
       <r>    -8.9900     1.4931    24.1516 </r>
       <r>    -8.9254     2.0273    24.2825 </r>
       <r>    -8.8609     2.6828    24.4557 </r>
       <r>    -8.7963     4.1713    24.7251 </r>
       <r>    -8.7317     5.3302    25.0693 </r>
       <r>    -8.6671     5.2215    25.4065 </r>
       <r>    -8.6026     4.7564    25.7137 </r>
       <r>    -8.5380     4.7744    26.0220 </r>
       <r>    -8.4734     5.2400    26.3604 </r>
       <r>    -8.4088     5.0393    26.6858 </r>
       <r>    -8.3442     3.7078    26.9252 </r>
       <r>    -8.2797     2.8109    27.1068 </r>
       <r>    -8.2151     3.1555    27.3105 </r>
       <r>    -8.1505     4.2179    27.5829 </r>
       <r>    -8.0859     5.0807    27.9110 </r>
       <r>    -8.0214     5.3552    28.2568 </r>
       <r>    -7.9568     6.1671    28.6551 </r>
       <r>    -7.8922     8.0805    29.1769 </r>
       <r>    -7.8276     8.8995    29.7516 </r>
       <r>    -7.7630     7.0354    30.2059 </r>
       <r>    -7.6985     4.8834    30.5213 </r>
       <r>    -7.6339     4.5593    30.8157 </r>
       <r>    -7.5693     5.1825    31.1504 </r>
       <r>    -7.5047     6.4653    31.5679 </r>
       <r>    -7.4402     8.6621    32.1273 </r>
       <r>    -7.3756    10.1875    32.7852 </r>
       <r>    -7.3110    10.2611    33.4478 </r>
       <r>    -7.2464     8.7312    34.0116 </r>
       <r>    -7.1819     6.7444    34.4472 </r>
       <r>    -7.1173     6.3847    34.8595 </r>
       <r>    -7.0527     7.3294    35.3328 </r>
       <r>    -6.9881     7.4060    35.8110 </r>
       <r>    -6.9235     6.0155    36.1995 </r>
       <r>    -6.8590     5.5242    36.5562 </r>
       <r>    -6.7944     7.6247    37.0486 </r>
       <r>    -6.7298    11.6993    37.8041 </r>
       <r>    -6.6652    14.1256    38.7163 </r>
       <r>    -6.6007    12.8058    39.5433 </r>
       <r>    -6.5361    10.0839    40.1945 </r>
       <r>    -6.4715     7.7557    40.6953 </r>
       <r>    -6.4069     6.0374    41.0852 </r>
       <r>    -6.3423     5.2068    41.4214 </r>
       <r>    -6.2778     5.5452    41.7795 </r>
       <r>    -6.2132     6.4291    42.1947 </r>
       <r>    -6.1486     5.8423    42.5720 </r>
       <r>    -6.0840     3.7917    42.8168 </r>
       <r>    -6.0195     3.0893    43.0163 </r>
       <r>    -5.9549     3.6993    43.2552 </r>
       <r>    -5.8903     4.1560    43.5236 </r>
       <r>    -5.8257     5.0295    43.8484 </r>
       <r>    -5.7612     6.2859    44.2543 </r>
       <r>    -5.6966     6.2407    44.6573 </r>
       <r>    -5.6320     4.9991    44.9802 </r>
       <r>    -5.5674     4.3219    45.2593 </r>
       <r>    -5.5028     4.1631    45.5281 </r>
       <r>    -5.4383     3.9986    45.7863 </r>
       <r>    -5.3737     4.4428    46.0732 </r>
       <r>    -5.3091     5.7584    46.4451 </r>
       <r>    -5.2445     7.0511    46.9004 </r>
       <r>    -5.1800     6.6053    47.3270 </r>
       <r>    -5.1154     5.2238    47.6643 </r>
       <r>    -5.0508     5.3865    48.0122 </r>
       <r>    -4.9862     6.6225    48.4398 </r>
       <r>    -4.9217     7.5462    48.9271 </r>
       <r>    -4.8571     8.0992    49.4502 </r>
       <r>    -4.7925     9.0172    50.0325 </r>
       <r>    -4.7279    10.3787    50.7027 </r>
       <r>    -4.6633    10.9301    51.4085 </r>
       <r>    -4.5988    10.2777    52.0722 </r>
       <r>    -4.5342     9.4457    52.6822 </r>
       <r>    -4.4696     9.0623    53.2674 </r>
       <r>    -4.4050    10.0705    53.9178 </r>
       <r>    -4.3405    12.3091    54.7127 </r>
       <r>    -4.2759    13.2517    55.5684 </r>
       <r>    -4.2113    12.6544    56.3856 </r>
       <r>    -4.1467    13.5130    57.2582 </r>
       <r>    -4.0821    15.4509    58.2560 </r>
       <r>    -4.0176    15.1359    59.2334 </r>
       <r>    -3.9530    12.3809    60.0330 </r>
       <r>    -3.8884    10.1318    60.6872 </r>
       <r>    -3.8238    10.4278    61.3606 </r>
       <r>    -3.7593    12.5714    62.1725 </r>
       <r>    -3.6947    13.9920    63.0760 </r>
       <r>    -3.6301    13.7021    63.9609 </r>
       <r>    -3.5655    13.2184    64.8145 </r>
       <r>    -3.5010    13.8908    65.7115 </r>
       <r>    -3.4364    14.7337    66.6630 </r>
       <r>    -3.3718    14.6406    67.6084 </r>
       <r>    -3.3072    14.0863    68.5181 </r>
       <r>    -3.2426    14.0860    69.4277 </r>
       <r>    -3.1781    15.4323    70.4243 </r>
       <r>    -3.1135    17.1550    71.5321 </r>
       <r>    -3.0489    17.9991    72.6944 </r>
       <r>    -2.9843    18.0004    73.8569 </r>
       <r>    -2.9198    16.6501    74.9321 </r>
       <r>    -2.8552    14.8963    75.8940 </r>
       <r>    -2.7906    15.1119    76.8699 </r>
       <r>    -2.7260    17.1107    77.9749 </r>
       <r>    -2.6614    18.8209    79.1903 </r>
       <r>    -2.5969    19.0363    80.4196 </r>
       <r>    -2.5323    18.0119    81.5828 </r>
       <r>    -2.4677    16.7700    82.6657 </r>
       <r>    -2.4031    15.4170    83.6613 </r>
       <r>    -2.3386    13.9339    84.5611 </r>
       <r>    -2.2740    14.0379    85.4677 </r>
       <r>    -2.2094    15.9351    86.4967 </r>
       <r>    -2.1448    17.5474    87.6299 </r>
       <r>    -2.0803    18.5094    88.8251 </r>
       <r>    -2.0157    18.8387    90.0417 </r>
       <r>    -1.9511    18.0254    91.2057 </r>
       <r>    -1.8865    16.9155    92.2981 </r>
       <r>    -1.8219    16.1687    93.3422 </r>
       <r>    -1.7574    14.8114    94.2987 </r>
       <r>    -1.6928    11.6612    95.0517 </r>
       <r>    -1.6282     9.0708    95.6375 </r>
       <r>    -1.5636     9.3065    96.2385 </r>
       <r>    -1.4991    10.6147    96.9239 </r>
       <r>    -1.4345    10.8888    97.6271 </r>
       <r>    -1.3699    10.4367    98.3011 </r>
       <r>    -1.3053    10.3809    98.9715 </r>
       <r>    -1.2408    10.5244    99.6511 </r>
       <r>    -1.1762    10.1856   100.3088 </r>
       <r>    -1.1116     9.3467   100.9124 </r>
       <r>    -1.0470     8.3949   101.4545 </r>
       <r>    -0.9824     7.9825   101.9700 </r>
       <r>    -0.9179     8.3555   102.5096 </r>
       <r>    -0.8533     7.5426   102.9967 </r>
       <r>    -0.7887     5.4593   103.3492 </r>
       <r>    -0.7241     4.8073   103.6597 </r>
       <r>    -0.6596     6.4993   104.0794 </r>
       <r>    -0.5950     8.0160   104.5970 </r>
       <r>    -0.5304     6.7676   105.0341 </r>
       <r>    -0.4658     4.6037   105.3314 </r>
       <r>    -0.4012     3.7039   105.5706 </r>
       <r>    -0.3367     3.3463   105.7866 </r>
       <r>    -0.2721     2.6699   105.9591 </r>
       <r>    -0.2075     2.0304   106.0902 </r>
       <r>    -0.1429     2.4153   106.2462 </r>
       <r>    -0.0784     4.1855   106.5164 </r>
       <r>    -0.0138     5.9437   106.9003 </r>
       <r>     0.0508     5.6001   107.2619 </r>
       <r>     0.1154     4.5854   107.5580 </r>
       <r>     0.1799     5.0239   107.8824 </r>
       <r>     0.2445     6.1039   108.2766 </r>
       <r>     0.3091     6.4114   108.6906 </r>
       <r>     0.3737     5.9323   109.0737 </r>
       <r>     0.4383     5.3984   109.4224 </r>
       <r>     0.5028     5.2405   109.7608 </r>
       <r>     0.5674     5.3364   110.1054 </r>
       <r>     0.6320     4.8598   110.4192 </r>
       <r>     0.6966     4.5748   110.7146 </r>
       <r>     0.7611     5.5332   111.0720 </r>
       <r>     0.8257     5.8650   111.4507 </r>
       <r>     0.8903     4.9727   111.7718 </r>
       <r>     0.9549     4.8431   112.0846 </r>
       <r>     1.0195     5.0624   112.4115 </r>
       <r>     1.0840     5.0373   112.7368 </r>
       <r>     1.1486     5.6686   113.1029 </r>
       <r>     1.2132     6.5195   113.5239 </r>
       <r>     1.2778     7.3238   113.9968 </r>
       <r>     1.3423     7.8039   114.5008 </r>
       <r>     1.4069     7.6256   114.9932 </r>
       <r>     1.4715     8.6357   115.5509 </r>
       <r>     1.5361    11.1429   116.2705 </r>
       <r>     1.6006    12.8260   117.0987 </r>
       <r>     1.6652    12.7711   117.9234 </r>
       <r>     1.7298    12.2972   118.7176 </r>
       <r>     1.7944    12.0950   119.4986 </r>
       <r>     1.8590    11.4818   120.2401 </r>
       <r>     1.9235    10.8796   120.9427 </r>
       <r>     1.9881    11.0121   121.6538 </r>
       <r>     2.0527    11.4512   122.3933 </r>
       <r>     2.1173    12.8288   123.2217 </r>
       <r>     2.1818    15.0269   124.1921 </r>
       <r>     2.2464    15.5157   125.1941 </r>
       <r>     2.3110    13.5247   126.0675 </r>
       <r>     2.3756    11.8100   126.8301 </r>
       <r>     2.4401    11.7162   127.5867 </r>
       <r>     2.5047    13.0695   128.4307 </r>
       <r>     2.5693    15.3565   129.4224 </r>
       <r>     2.6339    16.3638   130.4791 </r>
       <r>     2.6985    14.9239   131.4429 </r>
       <r>     2.7630    12.7268   132.2647 </r>
       <r>     2.8276    11.2505   132.9913 </r>
       <r>     2.8922    10.7232   133.6837 </r>
       <r>     2.9568    10.2717   134.3470 </r>
       <r>     3.0213     8.8970   134.9216 </r>
       <r>     3.0859     6.5873   135.3470 </r>
       <r>     3.1505     4.4262   135.6328 </r>
       <r>     3.2151     3.0092   135.8271 </r>
       <r>     3.2797     1.7846   135.9424 </r>
       <r>     3.3442     0.7126   135.9884 </r>
       <r>     3.4088     0.1603   135.9988 </r>
       <r>     3.4734     0.0183   135.9999 </r>
       <r>     3.5380     0.0010   136.0000 </r>
       <r>     3.6025     0.0000   136.0000 </r>
       <r>     3.6671     0.0000   136.0000 </r>
       <r>     3.7317     0.0000   136.0000 </r>
       <r>     3.7963     0.0000   136.0000 </r>
       <r>     3.8608     0.0000   136.0000 </r>
       <r>     3.9254     0.0000   136.0000 </r>
       <r>     3.9900     0.0000   136.0000 </r>
       <r>     4.0546     0.0000   136.0000 </r>
       <r>     4.1192     0.0000   136.0000 </r>
       <r>     4.1837     0.0000   136.0000 </r>
       <r>     4.2483     0.0000   136.0000 </r>
      </set>
     </set>
    </array>
   </total>
  </dos>
 </calculation>
 <structure name="finalpos" >
  <crystal>
   <varray name="basis" >
    <v>       3.54040000       0.00000000       0.00000000 </v>
    <v>      -1.77020000      10.29434800       0.00000000 </v>
    <v>       0.00000000       0.00000000      27.50142900 </v>
   </varray>
   <i name="volume">   1002.32009712 </i>
   <varray name="rec_basis" >
    <v>       0.28245396       0.04857034       0.00000000 </v>
    <v>       0.00000000       0.09714068       0.00000000 </v>
    <v>       0.00000000       0.00000000       0.03636175 </v>
   </varray>
  </crystal>
  <varray name="positions" >
   <v>       0.11402300       0.22804500       0.23316207 </v>
   <v>       0.31402300       0.12804500       0.51499159 </v>
   <v>       0.45808900       0.91617900       0.20939482 </v>
   <v>       0.65808900       0.81617900       0.49122434 </v>
   <v>       0.31085400       0.62170900       0.08414979 </v>
   <v>       0.31085400       0.62170900       0.36597930 </v>
   <v>       0.99923000       0.99846000       0.08631254 </v>
   <v>       0.99923000       0.99846000       0.36814206 </v>
   <v>       0.65492700       0.30985400       0.06041748 </v>
   <v>       0.65492700       0.30985400       0.34224700 </v>
   <v>       0.76973800       0.53947500       0.20725292 </v>
   <v>       0.96973800       0.43947500       0.48908244 </v>
   <v>       0.93971600       0.87943300       0.15783749 </v>
   <v>       0.13971600       0.77943300       0.43966701 </v>
   <v>       0.20515200       0.41030300       0.18578822 </v>
   <v>       0.40515200       0.31030300       0.46761774 </v>
   <v>       0.20184900       0.40369900       0.09969156 </v>
   <v>       0.20184900       0.40369900       0.38152107 </v>
   <v>       0.56380500       0.12761000       0.10779021 </v>
   <v>       0.56380500       0.12761000       0.38961973 </v>
   <v>       0.56710600       0.13421200       0.19387616 </v>
   <v>       0.76710600       0.03421200       0.47570568 </v>
   <v>       0.82923400       0.65846800       0.13571444 </v>
   <v>       0.02923400       0.55846800       0.41754396 </v>
  </varray>
 </structure>
</modeling>
