<?xml version="1.0" encoding="ISO-8859-1"?>
<modeling>
 <generator>
  <i name="program" type="string">vasp </i>
  <i name="version" type="string">5.3.5  </i>
  <i name="subversion" type="string">31Mar14 (build Oct 29 2014 16:16:03) complex                          parallel </i>
  <i name="platform" type="string">Linux-UFHPC </i>
  <i name="date" type="string">2016 02 09 </i>
  <i name="time" type="string">18:25:32 </i>
 </generator>
 <incar>
  <i type="string" name="PREC">accurate</i>
  <i type="int" name="IBRION">     2</i>
  <i name="EDIFF">      0.00000100</i>
  <i type="int" name="NSW">     0</i>
  <i type="int" name="ISIF">     3</i>
  <i name="ENCUT">    300.00000000</i>
  <i type="string" name="LREAL"> Auto</i>
  <i type="int" name="ISMEAR">     0</i>
  <i name="SIGMA">      0.10000000</i>
  <i type="logical" name="LWAVE"> F  </i>
  <i type="logical" name="LCHARG"> F  </i>
  <i type="logical" name="LAECHG"> F  </i>
  <i type="string" name="GGA"> Bo</i>
  <i name="PARAM1">      0.18333333</i>
  <i name="PARAM2">      0.22000000</i>
  <i type="logical" name="LUSE_VDW"> T  </i>
  <i name="AGGAC">      0.00000000</i>
 </incar>
 <kpoints>
  <generation param="Gamma">
   <v type="int" name="divisions">      13        4        2 </v>
   <v name="usershift">      0.00000000       0.00000000       0.00000000 </v>
   <v name="genvec1">      0.07692308      -0.00000000       0.00000000 </v>
   <v name="genvec2">      0.00000000       0.25000000       0.00000000 </v>
   <v name="genvec3">      0.00000000       0.00000000       0.50000000 </v>
   <v name="shift">      0.00000000       0.00000000       0.00000000 </v>
  </generation>
  <varray name="kpointlist" >
   <v>       0.00000000       0.00000000       0.00000000 </v>
   <v>       0.07692308      -0.00000000       0.00000000 </v>
   <v>       0.15384615      -0.00000000       0.00000000 </v>
   <v>       0.23076923      -0.00000000       0.00000000 </v>
   <v>       0.30769231      -0.00000000       0.00000000 </v>
   <v>       0.38461538      -0.00000000       0.00000000 </v>
   <v>       0.46153846      -0.00000000       0.00000000 </v>
   <v>       0.00000000       0.25000000       0.00000000 </v>
   <v>       0.07692308       0.25000000       0.00000000 </v>
   <v>       0.15384615       0.25000000       0.00000000 </v>
   <v>       0.23076923       0.25000000       0.00000000 </v>
   <v>       0.30769231       0.25000000       0.00000000 </v>
   <v>       0.38461538       0.25000000       0.00000000 </v>
   <v>       0.46153846       0.25000000       0.00000000 </v>
   <v>      -0.46153846       0.25000000       0.00000000 </v>
   <v>      -0.38461538       0.25000000       0.00000000 </v>
   <v>      -0.30769231       0.25000000       0.00000000 </v>
   <v>      -0.23076923       0.25000000       0.00000000 </v>
   <v>      -0.15384615       0.25000000       0.00000000 </v>
   <v>      -0.07692308       0.25000000       0.00000000 </v>
   <v>       0.00000000       0.50000000       0.00000000 </v>
   <v>       0.07692308       0.50000000       0.00000000 </v>
   <v>       0.15384615       0.50000000       0.00000000 </v>
   <v>       0.23076923       0.50000000       0.00000000 </v>
   <v>       0.30769231       0.50000000       0.00000000 </v>
   <v>       0.38461538       0.50000000       0.00000000 </v>
   <v>       0.46153846       0.50000000       0.00000000 </v>
   <v>       0.00000000       0.00000000       0.50000000 </v>
   <v>       0.07692308      -0.00000000       0.50000000 </v>
   <v>       0.15384615      -0.00000000       0.50000000 </v>
   <v>       0.23076923      -0.00000000       0.50000000 </v>
   <v>       0.30769231      -0.00000000       0.50000000 </v>
   <v>       0.38461538      -0.00000000       0.50000000 </v>
   <v>       0.46153846      -0.00000000       0.50000000 </v>
   <v>       0.00000000       0.25000000       0.50000000 </v>
   <v>       0.07692308       0.25000000       0.50000000 </v>
   <v>       0.15384615       0.25000000       0.50000000 </v>
   <v>       0.23076923       0.25000000       0.50000000 </v>
   <v>       0.30769231       0.25000000       0.50000000 </v>
   <v>       0.38461538       0.25000000       0.50000000 </v>
   <v>       0.46153846       0.25000000       0.50000000 </v>
   <v>      -0.46153846       0.25000000       0.50000000 </v>
   <v>      -0.38461538       0.25000000       0.50000000 </v>
   <v>      -0.30769231       0.25000000       0.50000000 </v>
   <v>      -0.23076923       0.25000000       0.50000000 </v>
   <v>      -0.15384615       0.25000000       0.50000000 </v>
   <v>      -0.07692308       0.25000000       0.50000000 </v>
   <v>       0.00000000       0.50000000       0.50000000 </v>
   <v>       0.07692308       0.50000000       0.50000000 </v>
   <v>       0.15384615       0.50000000       0.50000000 </v>
   <v>       0.23076923       0.50000000       0.50000000 </v>
   <v>       0.30769231       0.50000000       0.50000000 </v>
   <v>       0.38461538       0.50000000       0.50000000 </v>
   <v>       0.46153846       0.50000000       0.50000000 </v>
  </varray>
  <varray name="weights" >
   <v>       0.00961538 </v>
   <v>       0.01923077 </v>
   <v>       0.01923077 </v>
   <v>       0.01923077 </v>
   <v>       0.01923077 </v>
   <v>       0.01923077 </v>
   <v>       0.01923077 </v>
   <v>       0.01923077 </v>
   <v>       0.01923077 </v>
   <v>       0.01923077 </v>
   <v>       0.01923077 </v>
   <v>       0.01923077 </v>
   <v>       0.01923077 </v>
   <v>       0.01923077 </v>
   <v>       0.01923077 </v>
   <v>       0.01923077 </v>
   <v>       0.01923077 </v>
   <v>       0.01923077 </v>
   <v>       0.01923077 </v>
   <v>       0.01923077 </v>
   <v>       0.00961538 </v>
   <v>       0.01923077 </v>
   <v>       0.01923077 </v>
   <v>       0.01923077 </v>
   <v>       0.01923077 </v>
   <v>       0.01923077 </v>
   <v>       0.01923077 </v>
   <v>       0.00961538 </v>
   <v>       0.01923077 </v>
   <v>       0.01923077 </v>
   <v>       0.01923077 </v>
   <v>       0.01923077 </v>
   <v>       0.01923077 </v>
   <v>       0.01923077 </v>
   <v>       0.01923077 </v>
   <v>       0.01923077 </v>
   <v>       0.01923077 </v>
   <v>       0.01923077 </v>
   <v>       0.01923077 </v>
   <v>       0.01923077 </v>
   <v>       0.01923077 </v>
   <v>       0.01923077 </v>
   <v>       0.01923077 </v>
   <v>       0.01923077 </v>
   <v>       0.01923077 </v>
   <v>       0.01923077 </v>
   <v>       0.01923077 </v>
   <v>       0.00961538 </v>
   <v>       0.01923077 </v>
   <v>       0.01923077 </v>
   <v>       0.01923077 </v>
   <v>       0.01923077 </v>
   <v>       0.01923077 </v>
   <v>       0.01923077 </v>
  </varray>
 </kpoints>
 <parameters>
  <separator name="general" >
   <i type="string" name="SYSTEM">unknown system</i>
   <i type="logical" name="LCOMPAT"> F  </i>
  </separator>
  <separator name="electronic" >
   <i type="string" name="PREC">accura</i>
   <i name="ENMAX">    300.00000000</i>
   <i name="ENAUG">    342.92400000</i>
   <i name="EDIFF">      0.00000100</i>
   <i type="int" name="IALGO">    38</i>
   <i type="int" name="IWAVPR">    10</i>
   <i type="int" name="NBANDS">    68</i>
   <i name="NELECT">    108.00000000</i>
   <i type="int" name="TURBO">     0</i>
   <i type="int" name="IRESTART">     0</i>
   <i type="int" name="NREBOOT">     0</i>
   <i type="int" name="NMIN">     0</i>
   <i name="EREF">      0.00000000</i>
   <separator name="electronic smearing" >
    <i type="int" name="ISMEAR">     0</i>
    <i name="SIGMA">      0.10000000</i>
    <i name="KSPACING">      0.50000000</i>
    <i type="logical" name="KGAMMA"> T  </i>
   </separator>
   <separator name="electronic projectors" >
    <i type="logical" name="LREAL"> T  </i>
    <v name="ROPT">     -0.00025000     -0.00025000</v>
    <i type="int" name="LMAXPAW">  -100</i>
    <i type="int" name="LMAXMIX">     2</i>
    <i type="logical" name="NLSPLINE"> F  </i>
   </separator>
   <separator name="electronic startup" >
    <i type="int" name="ISTART">     0</i>
    <i type="int" name="ICHARG">     2</i>
    <i type="int" name="INIWAV">     1</i>
   </separator>
   <separator name="electronic spin" >
    <i type="int" name="ISPIN">     1</i>
    <i type="logical" name="LNONCOLLINEAR"> F  </i>
    <v name="MAGMOM">      1.00000000      1.00000000      1.00000000      1.00000000      1.00000000      1.00000000      1.00000000      1.00000000      1.00000000      1.00000000      1.00000000      1.00000000      1.00000000      1.00000000      1.00000000      1.00000000      1.00000000      1.00000000      1.00000000      1.00000000
      1.00000000      1.00000000      1.00000000      1.00000000</v>
    <i name="NUPDOWN">     -1.00000000</i>
    <i type="logical" name="LSORBIT"> F  </i>
    <v name="SAXIS">      0.00000000      0.00000000      1.00000000</v>
    <i type="logical" name="LSPIRAL"> F  </i>
    <v name="QSPIRAL">      0.00000000      0.00000000      0.00000000</v>
    <i type="logical" name="LZEROZ"> F  </i>
   </separator>
   <separator name="electronic exchange-correlation" >
    <i type="logical" name="LASPH"> F  </i>
    <i type="logical" name="LMETAGGA"> F  </i>
   </separator>
   <separator name="electronic convergence" >
    <i type="int" name="NELM">    60</i>
    <i type="int" name="NELMDL">    -5</i>
    <i type="int" name="NELMIN">     2</i>
    <i name="ENINI">    300.00000000</i>
    <separator name="electronic convergence detail" >
     <i type="logical" name="LDIAG"> T  </i>
     <i type="logical" name="LSUBROT"> F  </i>
     <i name="WEIMIN">      0.00000000</i>
     <i name="EBREAK">      0.00000000</i>
     <i name="DEPER">      0.30000000</i>
     <i type="int" name="NRMM">     4</i>
     <i name="TIME">      0.40000000</i>
    </separator>
   </separator>
   <separator name="electronic mixer" >
    <i name="AMIX">      0.40000000</i>
    <i name="BMIX">      1.00000000</i>
    <i name="AMIN">      0.10000000</i>
    <i name="AMIX_MAG">      1.60000000</i>
    <i name="BMIX_MAG">      1.00000000</i>
    <separator name="electronic mixer details" >
     <i type="int" name="IMIX">     4</i>
     <i type="int" name="MAXMIX">   -45</i>
     <i name="WC">    100.00000000</i>
     <i type="int" name="INIMIX">     1</i>
     <i type="int" name="MIXPRE">     1</i>
     <i type="int" name="MREMOVE">     5</i>
    </separator>
   </separator>
   <separator name="electronic dipolcorrection" >
    <i type="logical" name="LDIPOL"> F  </i>
    <i type="logical" name="LMONO"> F  </i>
    <i type="int" name="IDIPOL">     0</i>
    <i name="EPSILON">      1.00000000</i>
    <v name="DIPOL">   -100.00000000   -100.00000000   -100.00000000</v>
    <i name="EFIELD">      0.00000000</i>
   </separator>
  </separator>
  <separator name="grids" >
   <i type="int" name="NGX">    20</i>
   <i type="int" name="NGY">    60</i>
   <i type="int" name="NGZ">   160</i>
   <i type="int" name="NGXF">    40</i>
   <i type="int" name="NGYF">   120</i>
   <i type="int" name="NGZF">   320</i>
   <i type="logical" name="ADDGRID"> F  </i>
  </separator>
  <separator name="ionic" >
   <i type="int" name="NSW">     0</i>
   <i type="int" name="IBRION">    -1</i>
   <i type="int" name="ISIF">     3</i>
   <i name="PSTRESS">      0.00000000</i>
   <i name="EDIFFG">      0.00001000</i>
   <i type="int" name="NFREE">     1</i>
   <i name="POTIM">      0.50000000</i>
   <i name="SMASS">     -3.00000000</i>
   <i name="SCALEE">      1.00000000</i>
  </separator>
  <separator name="ionic md" >
   <i name="TEBEG">      0.00010000</i>
   <i name="TEEND">      0.00010000</i>
   <i type="int" name="NBLOCK">     1</i>
   <i type="int" name="KBLOCK">     1</i>
   <i type="int" name="NPACO">   256</i>
   <i name="APACO">     16.00000000</i>
  </separator>
  <separator name="symmetry" >
   <i type="int" name="ISYM">     2</i>
   <i name="SYMPREC">      0.00001000</i>
  </separator>
  <separator name="dos" >
   <i type="logical" name="LORBIT"> F  </i>
   <v name="RWIGS">     -1.00000000     -1.00000000</v>
   <i type="int" name="NEDOS">   301</i>
   <i name="EMIN">     10.00000000</i>
   <i name="EMAX">    -10.00000000</i>
   <i name="EFERMI">      0.00000000</i>
  </separator>
  <separator name="writing" >
   <i type="int" name="NWRITE">     2</i>
   <i type="logical" name="LWAVE"> F  </i>
   <i type="logical" name="LCHARG"> F  </i>
   <i type="logical" name="LPARD"> F  </i>
   <i type="logical" name="LVTOT"> F  </i>
   <i type="logical" name="LVHAR"> F  </i>
   <i type="logical" name="LELF"> F  </i>
   <i type="logical" name="LOPTICS"> F  </i>
   <v name="STM">      0.00000000      0.00000000      0.00000000      0.00000000      0.00000000      0.00000000      0.00000000</v>
  </separator>
  <separator name="performance" >
   <i type="int" name="NPAR">     4</i>
   <i type="int" name="NSIM">     4</i>
   <i type="int" name="NBLK">    -1</i>
   <i type="logical" name="LPLANE"> T  </i>
   <i type="logical" name="LSCALAPACK"> T  </i>
   <i type="logical" name="LSCAAWARE"> F  </i>
   <i type="logical" name="LSCALU"> F  </i>
   <i type="logical" name="LASYNC"> F  </i>
   <i type="logical" name="LORBITALREAL"> F  </i>
  </separator>
  <separator name="miscellaneous" >
   <i type="int" name="IDIOT">     3</i>
   <i type="logical" name="LMUSIC"> F  </i>
   <v name="POMASS">     30.97400000     28.08500000</v>
   <v name="DARWINR">      0.00000000      0.00000000</v>
   <v name="DARWINV">      1.00000000      1.00000000</v>
   <i type="logical" name="LCORR"> T  </i>
  </separator>
  <i type="logical" name="GGA_COMPAT"> T  </i>
  <i type="logical" name="LBERRY"> F  </i>
  <i type="int" name="ICORELEVEL">     0</i>
  <i type="logical" name="LDAU"> F  </i>
  <i type="int" name="I_CONSTRAINED_M">     0</i>
  <separator name="electronic exchange-correlation" >
   <i type="string" name="GGA">BO</i>
   <i type="int" name="VOSKOWN">     0</i>
   <i type="logical" name="LHFCALC"> F  </i>
   <i type="string" name="PRECFOCK"></i>
   <i type="logical" name="LSYMGRAD"> F  </i>
   <i type="logical" name="LHFONE"> F  </i>
   <i type="logical" name="LRHFCALC"> F  </i>
   <i type="logical" name="LTHOMAS"> F  </i>
   <i type="logical" name="LMODELHF"> F  </i>
   <i name="ENCUT4O">     -1.00000000</i>
   <i type="int" name="EXXOEP">     0</i>
   <i type="int" name="FOURORBIT">     0</i>
   <i name="AEXX">      0.00000000</i>
   <i name="HFALPHA">      0.00000000</i>
   <i name="MCALPHA">      0.00000000</i>
   <i name="ALDAX">      1.00000000</i>
   <i name="AGGAX">      1.00000000</i>
   <i name="ALDAC">      1.00000000</i>
   <i name="AGGAC">      0.00000000</i>
   <i type="int" name="NKREDX">     1</i>
   <i type="int" name="NKREDY">     1</i>
   <i type="int" name="NKREDZ">     1</i>
   <i type="logical" name="SHIFTRED"> F  </i>
   <i type="logical" name="ODDONLY"> F  </i>
   <i type="logical" name="EVENONLY"> F  </i>
   <i type="int" name="LMAXFOCK">     0</i>
   <i type="int" name="NMAXFOCKAE">     0</i>
   <i type="logical" name="LFOCKAEDFT"> F  </i>
   <i name="HFSCREEN">      0.00000000</i>
   <i name="HFSCREENC">      0.00000000</i>
   <i type="int" name="NBANDSGWLOW">     0</i>
  </separator>
  <separator name="vdW DFT" >
   <i type="logical" name="LUSE_VDW"> T  </i>
   <i name="Zab_VDW">     -0.84910000</i>
   <i name="PARAM1">      0.18333333</i>
   <i name="PARAM2">      0.22000000</i>
   <i name="PARAM3">      0.00000000</i>
  </separator>
  <separator name="model GW" >
   <i type="int" name="MODEL_GW">     0</i>
   <i name="MODEL_EPS0">     25.05800243</i>
   <i name="MODEL_ALPHA">      1.00000000</i>
  </separator>
  <separator name="linear response parameters" >
   <i type="logical" name="LEPSILON"> F  </i>
   <i type="logical" name="LRPA"> F  </i>
   <i type="logical" name="LNABLA"> F  </i>
   <i type="logical" name="LVEL"> F  </i>
   <i type="int" name="KINTER">     0</i>
   <i name="CSHIFT">      0.10000000</i>
   <i name="OMEGAMAX">     -1.00000000</i>
   <i name="DEG_THRESHOLD">      0.00200000</i>
  </separator>
  <separator name="orbital magnetization" >
   <i type="logical" name="NUCIND"> F  </i>
   <v name="MAGPOS">      0.00000000      0.00000000      0.00000000</v>
   <i type="logical" name="LNICSALL"> T  </i>
   <i type="logical" name="ORBITALMAG"> F  </i>
   <i type="logical" name="LMAGBLOCH"> F  </i>
   <i type="logical" name="LCHIMAG"> F  </i>
   <i type="logical" name="LGAUGE"> T  </i>
   <i type="int" name="MAGATOM">     0</i>
   <v name="MAGDIPOL">      0.00000000      0.00000000      0.00000000</v>
   <v name="AVECCONST">      0.00000000      0.00000000      0.00000000</v>
  </separator>
  <separator name="response functions" >
   <i type="logical" name="LADDER"> F  </i>
   <i type="logical" name="LFXC"> F  </i>
   <i type="logical" name="LHARTREE"> T  </i>
   <i type="int" name="IBSE">     0</i>
   <i type="logical" name="LTCTE"> F  </i>
   <i type="logical" name="LTETE"> F  </i>
   <i type="logical" name="LTRIPLET"> F  </i>
   <i type="logical" name="LFXCEPS"> F  </i>
   <i type="logical" name="LFXHEG"> F  </i>
   <i type="logical" name="L2ORDER"> F  </i>
   <i type="logical" name="LUSEW"> F  </i>
   <i name="ENCUTGW">     -2.00000000</i>
   <i name="ENCUTGWSOFT">     -2.00000000</i>
   <i name="ENCUTLF">     -1.00000000</i>
   <i type="int" name="LMAXMP2">    -1</i>
   <i name="SCISSOR">      0.00000000</i>
   <i type="int" name="NOMEGA">     0</i>
   <i type="int" name="NOMEGAR">     0</i>
   <i type="int" name="NBANDSGW">    -1</i>
   <i type="int" name="NBANDSO">    -1</i>
   <i type="int" name="NBANDSV">    -1</i>
   <i type="int" name="NELM">     1</i>
   <i type="int" name="DIM">     3</i>
   <i type="int" name="ANTIRES">     0</i>
   <i name="OMEGAMAX">    -30.00000000</i>
   <i name="OMEGAMIN">    -30.00000000</i>
   <i name="OMEGATL">   -200.00000000</i>
   <i type="int" name="OMEGAGRID">     0</i>
   <i name="CSHIFT">     -0.10000000</i>
   <i type="logical" name="SELFENERGY"> F  </i>
   <i type="logical" name="LSPECTRAL"> F  </i>
   <i type="logical" name="ODDONLYGW"> F  </i>
   <i type="logical" name="EVENONLYGW"> F  </i>
   <i type="int" name="NKREDLFX">     1</i>
   <i type="int" name="NKREDLFY">     1</i>
   <i type="int" name="NKREDLFZ">     1</i>
   <i type="int" name="MAXMEM">  1800</i>
   <i type="int" name="TELESCOPE">     0</i>
   <i type="int" name="TAUPAR">     1</i>
  </separator>
  <separator name="External order field" >
   <i name="OFIELD_KAPPA">      0.00000000</i>
   <v name="OFIELD_K">      0.00000000      0.00000000      0.00000000</v>
   <i name="OFIELD_Q6_NEAR">      0.00000000</i>
   <i name="OFIELD_Q6_FAR">      0.00000000</i>
   <i name="OFIELD_A">      0.00000000</i>
  </separator>
 </parameters>
 <atominfo>
  <atoms>      24 </atoms>
  <types>       2 </types>
  <array name="atoms" >
   <dimension dim="1">ion</dimension>
   <field type="string">element</field>
   <field type="int">atomtype</field>
   <set>
    <rc><c>P </c><c>   1</c></rc>
    <rc><c>P </c><c>   1</c></rc>
    <rc><c>P </c><c>   1</c></rc>
    <rc><c>P </c><c>   1</c></rc>
    <rc><c>P </c><c>   1</c></rc>
    <rc><c>P </c><c>   1</c></rc>
    <rc><c>P </c><c>   1</c></rc>
    <rc><c>P </c><c>   1</c></rc>
    <rc><c>P </c><c>   1</c></rc>
    <rc><c>P </c><c>   1</c></rc>
    <rc><c>P </c><c>   1</c></rc>
    <rc><c>P </c><c>   1</c></rc>
    <rc><c>Si</c><c>   2</c></rc>
    <rc><c>Si</c><c>   2</c></rc>
    <rc><c>Si</c><c>   2</c></rc>
    <rc><c>Si</c><c>   2</c></rc>
    <rc><c>Si</c><c>   2</c></rc>
    <rc><c>Si</c><c>   2</c></rc>
    <rc><c>Si</c><c>   2</c></rc>
    <rc><c>Si</c><c>   2</c></rc>
    <rc><c>Si</c><c>   2</c></rc>
    <rc><c>Si</c><c>   2</c></rc>
    <rc><c>Si</c><c>   2</c></rc>
    <rc><c>Si</c><c>   2</c></rc>
   </set>
  </array>
  <array name="atomtypes" >
   <dimension dim="1">type</dimension>
   <field type="int">atomspertype</field>
   <field type="string">element</field>
   <field>mass</field>
   <field>valence</field>
   <field type="string">pseudopotential</field>
   <set>
    <rc><c>  12</c><c>P </c><c>     30.97400000</c><c>      5.00000000</c><c>  PAW_PBE P 17Jan2003                   </c></rc>
    <rc><c>  12</c><c>Si</c><c>     28.08500000</c><c>      4.00000000</c><c> PAW_PBE Si 05Jan2001                   </c></rc>
   </set>
  </array>
 </atominfo>
 <structure name="initialpos" >
  <crystal>
   <varray name="basis" >
    <v>       3.54040000       0.00000000       0.00000000 </v>
    <v>      -1.77020000      10.29434800       0.00000000 </v>
    <v>       0.00000000       0.00000000      27.50142900 </v>
   </varray>
   <i name="volume">   1002.32009712 </i>
   <varray name="rec_basis" >
    <v>       0.28245396       0.04857034       0.00000000 </v>
    <v>       0.00000000       0.09714068       0.00000000 </v>
    <v>       0.00000000       0.00000000       0.03636175 </v>
   </varray>
  </crystal>
  <varray name="positions" >
   <v>       0.11402300       0.22804500       0.23316207 </v>
   <v>       0.81402300       0.72804500       0.51499159 </v>
   <v>       0.45808900       0.91617900       0.20939482 </v>
   <v>       0.15808900       0.41617900       0.49122434 </v>
   <v>       0.31085400       0.62170900       0.08414979 </v>
   <v>       0.31085400       0.62170900       0.36597930 </v>
   <v>       0.99923000       0.99846000       0.08631254 </v>
   <v>       0.99923000       0.99846000       0.36814206 </v>
   <v>       0.65492700       0.30985400       0.06041748 </v>
   <v>       0.65492700       0.30985400       0.34224700 </v>
   <v>       0.76973800       0.53947500       0.20725292 </v>
   <v>       0.46973800       0.03947500       0.48908244 </v>
   <v>       0.93971600       0.87943300       0.15783749 </v>
   <v>       0.63971600       0.37943300       0.43966701 </v>
   <v>       0.20515200       0.41030300       0.18578822 </v>
   <v>       0.90515200       0.91030300       0.46761774 </v>
   <v>       0.20184900       0.40369900       0.09969156 </v>
   <v>       0.20184900       0.40369900       0.38152107 </v>
   <v>       0.56380500       0.12761000       0.10779021 </v>
   <v>       0.56380500       0.12761000       0.38961973 </v>
   <v>       0.56710600       0.13421200       0.19387616 </v>
   <v>       0.26710600       0.63421200       0.47570568 </v>
   <v>       0.82923400       0.65846800       0.13571444 </v>
   <v>       0.52923400       0.15846800       0.41754396 </v>
  </varray>
 </structure>
 <calculation>
  <scstep>
   <time name="dav">   75.84   75.86</time>
   <time name="total">   94.34   94.38</time>
   <energy>
    <i name="alphaZ">     36.80884744 </i>
    <i name="ewald">  12130.11150991 </i>
    <i name="hartreedc"> -15066.39490216 </i>
    <i name="XCdc">    -88.09397857 </i>
    <i name="pawpsdc">   1056.43050070 </i>
    <i name="pawaedc">   -732.41190547 </i>
    <i name="eentropy">     -0.04173138 </i>
    <i name="bandstr">    -93.86288914 </i>
    <i name="atom">   3354.04126044 </i>
    <i name="e_fr_energy">    596.58671177 </i>
    <i name="e_wo_entrp">    596.62844315 </i>
    <i name="e_0_energy">    596.60757746 </i>
   </energy>
  </scstep>
  <scstep>
   <time name="dav">   95.20   95.22</time>
   <time name="total">   95.21   95.24</time>
   <energy>
    <i name="e_fr_energy">     29.27386887 </i>
    <i name="e_wo_entrp">     29.29791913 </i>
    <i name="e_0_energy">     29.28589400 </i>
   </energy>
  </scstep>
  <scstep>
   <time name="dav">   96.96   96.98</time>
   <time name="total">   96.97   96.99</time>
   <energy>
    <i name="e_fr_energy">    -34.54419044 </i>
    <i name="e_wo_entrp">    -34.50911102 </i>
    <i name="e_0_energy">    -34.52665073 </i>
   </energy>
  </scstep>
  <scstep>
   <time name="dav">  105.58  105.61</time>
   <time name="total">  105.59  105.62</time>
   <energy>
    <i name="e_fr_energy">    -38.12654417 </i>
    <i name="e_wo_entrp">    -38.09434388 </i>
    <i name="e_0_energy">    -38.11044402 </i>
   </energy>
  </scstep>
  <scstep>
   <time name="dav">  101.09  101.11</time>
   <time name="total">  105.89  105.91</time>
   <energy>
    <i name="e_fr_energy">    -38.22087387 </i>
    <i name="e_wo_entrp">    -38.18843848 </i>
    <i name="e_0_energy">    -38.20465618 </i>
   </energy>
  </scstep>
  <scstep>
   <time name="dav">  102.05  102.08</time>
   <time name="total">  123.98  124.01</time>
   <energy>
    <i name="e_fr_energy">    -31.07353216 </i>
    <i name="e_wo_entrp">    -31.03929901 </i>
    <i name="e_0_energy">    -31.05641558 </i>
   </energy>
  </scstep>
  <scstep>
   <time name="dav">   82.22   82.24</time>
   <time name="total">  104.17  104.20</time>
   <energy>
    <i name="e_fr_energy">    -31.04085244 </i>
    <i name="e_wo_entrp">    -31.00462709 </i>
    <i name="e_0_energy">    -31.02273977 </i>
   </energy>
  </scstep>
  <scstep>
   <time name="dav">   90.54   90.56</time>
   <time name="total">  112.49  112.52</time>
   <energy>
    <i name="e_fr_energy">    -31.01498350 </i>
    <i name="e_wo_entrp">    -30.98146559 </i>
    <i name="e_0_energy">    -30.99822454 </i>
   </energy>
  </scstep>
  <scstep>
   <time name="dav">   90.05   90.07</time>
   <time name="total">  111.98  112.01</time>
   <energy>
    <i name="e_fr_energy">    -31.07435094 </i>
    <i name="e_wo_entrp">    -31.03808941 </i>
    <i name="e_0_energy">    -31.05622017 </i>
   </energy>
  </scstep>
  <scstep>
   <time name="dav">   90.44   90.46</time>
   <time name="total">  110.97  111.01</time>
   <energy>
    <i name="e_fr_energy">    -31.07127931 </i>
    <i name="e_wo_entrp">    -31.03730233 </i>
    <i name="e_0_energy">    -31.05429082 </i>
   </energy>
  </scstep>
  <scstep>
   <time name="dav">   88.15   88.17</time>
   <time name="total">  108.60  108.63</time>
   <energy>
    <i name="e_fr_energy">    -31.06322002 </i>
    <i name="e_wo_entrp">    -31.02837709 </i>
    <i name="e_0_energy">    -31.04579855 </i>
   </energy>
  </scstep>
  <scstep>
   <time name="dav">   90.73   90.76</time>
   <time name="total">  111.08  111.11</time>
   <energy>
    <i name="e_fr_energy">    -31.05306217 </i>
    <i name="e_wo_entrp">    -31.01831568 </i>
    <i name="e_0_energy">    -31.03568892 </i>
   </energy>
  </scstep>
  <scstep>
   <time name="dav">   89.35   89.38</time>
   <time name="total">  109.79  109.83</time>
   <energy>
    <i name="e_fr_energy">    -31.04702229 </i>
    <i name="e_wo_entrp">    -31.01217319 </i>
    <i name="e_0_energy">    -31.02959774 </i>
   </energy>
  </scstep>
  <scstep>
   <time name="dav">   92.20   92.22</time>
   <time name="total">  112.67  112.70</time>
   <energy>
    <i name="e_fr_energy">    -31.04419219 </i>
    <i name="e_wo_entrp">    -31.00936769 </i>
    <i name="e_0_energy">    -31.02677994 </i>
   </energy>
  </scstep>
  <scstep>
   <time name="dav">   91.68   91.70</time>
   <time name="total">  112.14  112.17</time>
   <energy>
    <i name="e_fr_energy">    -31.04224317 </i>
    <i name="e_wo_entrp">    -31.00746223 </i>
    <i name="e_0_energy">    -31.02485270 </i>
   </energy>
  </scstep>
  <scstep>
   <time name="dav">   86.07   86.10</time>
   <time name="total">  106.58  106.60</time>
   <energy>
    <i name="e_fr_energy">    -31.04154940 </i>
    <i name="e_wo_entrp">    -31.00674275 </i>
    <i name="e_0_energy">    -31.02414607 </i>
   </energy>
  </scstep>
  <scstep>
   <time name="dav">   81.06   81.08</time>
   <time name="total">  101.57  101.59</time>
   <energy>
    <i name="e_fr_energy">    -31.04209189 </i>
    <i name="e_wo_entrp">    -31.00730237 </i>
    <i name="e_0_energy">    -31.02469713 </i>
   </energy>
  </scstep>
  <scstep>
   <time name="dav">   82.43   82.45</time>
   <time name="total">  103.07  103.09</time>
   <energy>
    <i name="e_fr_energy">    -31.04253372 </i>
    <i name="e_wo_entrp">    -31.00774007 </i>
    <i name="e_0_energy">    -31.02513689 </i>
   </energy>
  </scstep>
  <scstep>
   <time name="dav">   78.48   78.50</time>
   <time name="total">   99.02   99.04</time>
   <energy>
    <i name="e_fr_energy">    -31.04265109 </i>
    <i name="e_wo_entrp">    -31.00785728 </i>
    <i name="e_0_energy">    -31.02525419 </i>
   </energy>
  </scstep>
  <scstep>
   <time name="dav">   71.54   71.56</time>
   <time name="total">   91.99   92.01</time>
   <energy>
    <i name="e_fr_energy">    -31.04267011 </i>
    <i name="e_wo_entrp">    -31.00787954 </i>
    <i name="e_0_energy">    -31.02527483 </i>
   </energy>
  </scstep>
  <scstep>
   <time name="dav">   74.10   74.12</time>
   <time name="total">   95.12   95.14</time>
   <energy>
    <i name="e_fr_energy">    -31.04267657 </i>
    <i name="e_wo_entrp">    -31.00788547 </i>
    <i name="e_0_energy">    -31.02528102 </i>
   </energy>
  </scstep>
  <scstep>
   <time name="dav">   74.59   74.60</time>
   <time name="total">   95.08   95.10</time>
   <energy>
    <i name="e_fr_energy">    -31.04268104 </i>
    <i name="e_wo_entrp">    -31.00788892 </i>
    <i name="e_0_energy">    -31.02528498 </i>
   </energy>
  </scstep>
  <scstep>
   <time name="dav">   74.87   74.89</time>
   <time name="total">   95.78   95.81</time>
   <energy>
    <i name="e_fr_energy">    -31.04262129 </i>
    <i name="e_wo_entrp">    -31.00782829 </i>
    <i name="e_0_energy">    -31.02522479 </i>
   </energy>
  </scstep>
  <scstep>
   <time name="dav">   69.50   69.52</time>
   <time name="total">   90.12   90.14</time>
   <energy>
    <i name="e_fr_energy">    -31.04259677 </i>
    <i name="e_wo_entrp">    -31.00780407 </i>
    <i name="e_0_energy">    -31.02520042 </i>
   </energy>
  </scstep>
  <scstep>
   <time name="dav">   74.91   74.92</time>
   <time name="total">   95.76   95.78</time>
   <energy>
    <i name="e_fr_energy">    -31.04258176 </i>
    <i name="e_wo_entrp">    -31.00778901 </i>
    <i name="e_0_energy">    -31.02518538 </i>
   </energy>
  </scstep>
  <scstep>
   <time name="dav">   68.23   68.25</time>
   <time name="total">   88.99   89.01</time>
   <energy>
    <i name="e_fr_energy">    -31.04257925 </i>
    <i name="e_wo_entrp">    -31.00778659 </i>
    <i name="e_0_energy">    -31.02518292 </i>
   </energy>
  </scstep>
  <scstep>
   <time name="dav">   64.91   64.92</time>
   <time name="total">   85.64   85.66</time>
   <energy>
    <i name="e_fr_energy">    -31.04257518 </i>
    <i name="e_wo_entrp">    -31.00778255 </i>
    <i name="e_0_energy">    -31.02517886 </i>
   </energy>
  </scstep>
  <scstep>
   <time name="dav">   64.27   64.28</time>
   <time name="total">   85.16   85.18</time>
   <energy>
    <i name="e_fr_energy">    -31.04257389 </i>
    <i name="e_wo_entrp">    -31.00778123 </i>
    <i name="e_0_energy">    -31.02517756 </i>
   </energy>
  </scstep>
  <scstep>
   <time name="dav">   62.42   62.43</time>
   <time name="total">   82.93   82.95</time>
   <energy>
    <i name="e_fr_energy">    -31.04257288 </i>
    <i name="e_wo_entrp">    -31.00778023 </i>
    <i name="e_0_energy">    -31.02517655 </i>
   </energy>
  </scstep>
  <scstep>
   <time name="dav">   60.82   60.84</time>
   <time name="total">   76.36   76.39</time>
   <energy>
    <i name="alphaZ">     36.80884744 </i>
    <i name="ewald">  12130.11150991 </i>
    <i name="hartreedc"> -15174.60498576 </i>
    <i name="XCdc">    -79.78619400 </i>
    <i name="pawpsdc">   1210.17204340 </i>
    <i name="pawaedc">   -891.00522567 </i>
    <i name="eentropy">     -0.03479265 </i>
    <i name="bandstr">   -616.74503571 </i>
    <i name="atom">   3354.04126044 </i>
    <i name="e_fr_energy">    -31.04257259 </i>
    <i name="e_wo_entrp">    -31.00777994 </i>
    <i name="e_0_energy">    -31.02517627 </i>
   </energy>
  </scstep>
  <structure>
   <crystal>
    <varray name="basis" >
     <v>       3.54040000       0.00000000       0.00000000 </v>
     <v>      -1.77020000      10.29434800       0.00000000 </v>
     <v>       0.00000000       0.00000000      27.50142900 </v>
    </varray>
    <i name="volume">   1002.32009712 </i>
    <varray name="rec_basis" >
     <v>       0.28245396       0.04857034       0.00000000 </v>
     <v>       0.00000000       0.09714068       0.00000000 </v>
     <v>       0.00000000       0.00000000       0.03636175 </v>
    </varray>
   </crystal>
   <varray name="positions" >
    <v>       0.11402300       0.22804500       0.23316207 </v>
    <v>       0.81402300       0.72804500       0.51499159 </v>
    <v>       0.45808900       0.91617900       0.20939482 </v>
    <v>       0.15808900       0.41617900       0.49122434 </v>
    <v>       0.31085400       0.62170900       0.08414979 </v>
    <v>       0.31085400       0.62170900       0.36597930 </v>
    <v>       0.99923000       0.99846000       0.08631254 </v>
    <v>       0.99923000       0.99846000       0.36814206 </v>
    <v>       0.65492700       0.30985400       0.06041748 </v>
    <v>       0.65492700       0.30985400       0.34224700 </v>
    <v>       0.76973800       0.53947500       0.20725292 </v>
    <v>       0.46973800       0.03947500       0.48908244 </v>
    <v>       0.93971600       0.87943300       0.15783749 </v>
    <v>       0.63971600       0.37943300       0.43966701 </v>
    <v>       0.20515200       0.41030300       0.18578822 </v>
    <v>       0.90515200       0.91030300       0.46761774 </v>
    <v>       0.20184900       0.40369900       0.09969156 </v>
    <v>       0.20184900       0.40369900       0.38152107 </v>
    <v>       0.56380500       0.12761000       0.10779021 </v>
    <v>       0.56380500       0.12761000       0.38961973 </v>
    <v>       0.56710600       0.13421200       0.19387616 </v>
    <v>       0.26710600       0.63421200       0.47570568 </v>
    <v>       0.82923400       0.65846800       0.13571444 </v>
    <v>       0.52923400       0.15846800       0.41754396 </v>
   </varray>
  </structure>
  <varray name="forces" >
   <v>       0.02964313      -0.01902937       0.04827646 </v>
   <v>       0.01819413       0.02789071      -0.50469555 </v>
   <v>       0.00059295      -0.01629376       0.08208212 </v>
   <v>      -0.14165599       0.59116019       1.85988599 </v>
   <v>      -0.00097435      -0.00470905       0.00797861 </v>
   <v>      -0.11470261      -0.39432719       1.29025846 </v>
   <v>       0.00102860       0.00234374      -0.00270860 </v>
   <v>       0.52684850      -1.33231007       0.04849877 </v>
   <v>       0.00122851      -0.00051340       0.01966735 </v>
   <v>       0.23040888      -0.66544221      -2.51173374 </v>
   <v>       0.00012052       0.00421848       0.09498398 </v>
   <v>      -0.06597212      -0.50362457       0.61166554 </v>
   <v>       0.00273340       0.00448100       0.01128308 </v>
   <v>       0.12114933      -0.04546078       1.93687151 </v>
   <v>      -0.00066764       0.00425738       0.04206416 </v>
   <v>       0.04408152       0.84260090      -0.78938880 </v>
   <v>      -0.00128518       0.00338570      -0.02476628 </v>
   <v>      -0.18838141       1.88086001      -1.94708802 </v>
   <v>       0.00060060      -0.01743881      -0.02969844 </v>
   <v>      55.73595020    -100.27437839    -241.44782093 </v>
   <v>      -0.00463169      -0.02031299       0.02413799 </v>
   <v>       0.08852593      -0.53156562      -1.21269711 </v>
   <v>       0.00205743       0.01588262      -0.00264544 </v>
   <v>     -56.28489263     100.44832548     242.39558890 </v>
  </varray>
  <varray name="stress" >
   <v>      12.67729426     -30.40649959     -70.35188833 </v>
   <v>     -30.40649962      50.54320114     127.63682865 </v>
   <v>     -70.35188824     127.63682867     302.34489512 </v>
  </varray>
  <energy>
   <i name="e_fr_energy">    -31.04257259 </i>
   <i name="e_wo_entrp">    -31.02517627 </i>
   <i name="e_0_energy">     -0.03479265 </i>
  </energy>
  <time name="totalsc"> 3128.62 3129.43</time>
  <eigenvalues>
   <array>
    <dimension dim="1">band</dimension>
    <dimension dim="2">kpoint</dimension>
    <dimension dim="3">spin</dimension>
    <field>eigene</field>
    <field>occ</field>
    <set>
     <set comment="spin 1">
      <set comment="kpoint 1">
       <r>  -14.0997    1.0000 </r>
       <r>  -13.5173    1.0000 </r>
       <r>  -13.0321    1.0000 </r>
       <r>  -12.8036    1.0000 </r>
       <r>  -12.7756    1.0000 </r>
       <r>  -12.4601    1.0000 </r>
       <r>  -12.0639    1.0000 </r>
       <r>  -11.7366    1.0000 </r>
       <r>  -11.4226    1.0000 </r>
       <r>  -11.4064    1.0000 </r>
       <r>  -10.9677    1.0000 </r>
       <r>  -10.0770    1.0000 </r>
       <r>   -8.5051    1.0000 </r>
       <r>   -8.0050    1.0000 </r>
       <r>   -7.8092    1.0000 </r>
       <r>   -7.7753    1.0000 </r>
       <r>   -7.2795    1.0000 </r>
       <r>   -6.8085    1.0000 </r>
       <r>   -6.4713    1.0000 </r>
       <r>   -6.1641    1.0000 </r>
       <r>   -5.9716    1.0000 </r>
       <r>   -5.8050    1.0000 </r>
       <r>   -5.5687    1.0000 </r>
       <r>   -4.7264    1.0000 </r>
       <r>   -4.6562    1.0000 </r>
       <r>   -4.2642    1.0000 </r>
       <r>   -3.6943    1.0000 </r>
       <r>   -3.5965    1.0000 </r>
       <r>   -3.3700    1.0000 </r>
       <r>   -3.2906    1.0000 </r>
       <r>   -3.0508    1.0000 </r>
       <r>   -3.0331    1.0000 </r>
       <r>   -2.8199    1.0000 </r>
       <r>   -2.6521    1.0000 </r>
       <r>   -2.5970    1.0000 </r>
       <r>   -2.4362    1.0000 </r>
       <r>   -2.3693    1.0000 </r>
       <r>   -2.3276    1.0000 </r>
       <r>   -2.1983    1.0000 </r>
       <r>   -2.1700    1.0000 </r>
       <r>   -2.0386    1.0000 </r>
       <r>   -1.8506    1.0000 </r>
       <r>   -1.7058    1.0000 </r>
       <r>   -1.6220    1.0000 </r>
       <r>   -1.5901    1.0000 </r>
       <r>   -1.5564    1.0000 </r>
       <r>   -1.4797    1.0000 </r>
       <r>   -1.4088    1.0000 </r>
       <r>   -1.2487    1.0000 </r>
       <r>   -1.0504    1.0000 </r>
       <r>   -0.9712    1.0000 </r>
       <r>   -0.5213    1.0000 </r>
       <r>   -0.1661    0.9966 </r>
       <r>    0.0476    0.3745 </r>
       <r>    0.1385    0.0543 </r>
       <r>    0.7632    0.0000 </r>
       <r>    1.1300    0.0000 </r>
       <r>    1.1976    0.0000 </r>
       <r>    1.2799    0.0000 </r>
       <r>    1.3723    0.0000 </r>
       <r>    1.6397    0.0000 </r>
       <r>    1.6940    0.0000 </r>
       <r>    1.8309    0.0000 </r>
       <r>    2.0011    0.0000 </r>
       <r>    2.0699    0.0000 </r>
       <r>    2.2310    0.0000 </r>
       <r>    2.3616    0.0000 </r>
       <r>    2.4558    0.0000 </r>
      </set>
      <set comment="kpoint 2">
       <r>  -14.0434    1.0000 </r>
       <r>  -13.4559    1.0000 </r>
       <r>  -12.9816    1.0000 </r>
       <r>  -12.7419    1.0000 </r>
       <r>  -12.7228    1.0000 </r>
       <r>  -12.4046    1.0000 </r>
       <r>  -12.0017    1.0000 </r>
       <r>  -11.6955    1.0000 </r>
       <r>  -11.3687    1.0000 </r>
       <r>  -11.3547    1.0000 </r>
       <r>  -10.9194    1.0000 </r>
       <r>  -10.0486    1.0000 </r>
       <r>   -8.4804    1.0000 </r>
       <r>   -8.0422    1.0000 </r>
       <r>   -7.7822    1.0000 </r>
       <r>   -7.7552    1.0000 </r>
       <r>   -7.2521    1.0000 </r>
       <r>   -6.7754    1.0000 </r>
       <r>   -6.4655    1.0000 </r>
       <r>   -6.2109    1.0000 </r>
       <r>   -6.0974    1.0000 </r>
       <r>   -5.7712    1.0000 </r>
       <r>   -5.5510    1.0000 </r>
       <r>   -4.7455    1.0000 </r>
       <r>   -4.7098    1.0000 </r>
       <r>   -4.2410    1.0000 </r>
       <r>   -3.8253    1.0000 </r>
       <r>   -3.7256    1.0000 </r>
       <r>   -3.6055    1.0000 </r>
       <r>   -3.4106    1.0000 </r>
       <r>   -3.2650    1.0000 </r>
       <r>   -3.2223    1.0000 </r>
       <r>   -3.1042    1.0000 </r>
       <r>   -3.0352    1.0000 </r>
       <r>   -2.7579    1.0000 </r>
       <r>   -2.7062    1.0000 </r>
       <r>   -2.5043    1.0000 </r>
       <r>   -2.4614    1.0000 </r>
       <r>   -2.3265    1.0000 </r>
       <r>   -2.2489    1.0000 </r>
       <r>   -2.1715    1.0000 </r>
       <r>   -2.0262    1.0000 </r>
       <r>   -1.9418    1.0000 </r>
       <r>   -1.8231    1.0000 </r>
       <r>   -1.8042    1.0000 </r>
       <r>   -1.7283    1.0000 </r>
       <r>   -1.4984    1.0000 </r>
       <r>   -1.4177    1.0000 </r>
       <r>   -1.2015    1.0000 </r>
       <r>   -1.0164    1.0000 </r>
       <r>   -0.9329    1.0000 </r>
       <r>   -0.5897    1.0000 </r>
       <r>   -0.1511    0.9936 </r>
       <r>    0.0777    0.2280 </r>
       <r>    0.4962    0.0000 </r>
       <r>    0.8315    0.0000 </r>
       <r>    0.9922    0.0000 </r>
       <r>    1.4421    0.0000 </r>
       <r>    1.6065    0.0000 </r>
       <r>    1.7828    0.0000 </r>
       <r>    1.8048    0.0000 </r>
       <r>    1.9482    0.0000 </r>
       <r>    2.1483    0.0000 </r>
       <r>    2.1754    0.0000 </r>
       <r>    2.2561    0.0000 </r>
       <r>    2.3367    0.0000 </r>
       <r>    2.5845    0.0000 </r>
       <r>    2.6669    0.0000 </r>
      </set>
      <set comment="kpoint 3">
       <r>  -13.8764    1.0000 </r>
       <r>  -13.2730    1.0000 </r>
       <r>  -12.8297    1.0000 </r>
       <r>  -12.5711    1.0000 </r>
       <r>  -12.5557    1.0000 </r>
       <r>  -12.2398    1.0000 </r>
       <r>  -11.8193    1.0000 </r>
       <r>  -11.5737    1.0000 </r>
       <r>  -11.2219    1.0000 </r>
       <r>  -11.1991    1.0000 </r>
       <r>  -10.7807    1.0000 </r>
       <r>   -9.9725    1.0000 </r>
       <r>   -8.4173    1.0000 </r>
       <r>   -8.1389    1.0000 </r>
       <r>   -7.7892    1.0000 </r>
       <r>   -7.7229    1.0000 </r>
       <r>   -7.1850    1.0000 </r>
       <r>   -6.6993    1.0000 </r>
       <r>   -6.6088    1.0000 </r>
       <r>   -6.4772    1.0000 </r>
       <r>   -6.1173    1.0000 </r>
       <r>   -5.6964    1.0000 </r>
       <r>   -5.5296    1.0000 </r>
       <r>   -5.1559    1.0000 </r>
       <r>   -4.8411    1.0000 </r>
       <r>   -4.4382    1.0000 </r>
       <r>   -4.2283    1.0000 </r>
       <r>   -4.1424    1.0000 </r>
       <r>   -4.0565    1.0000 </r>
       <r>   -3.9383    1.0000 </r>
       <r>   -3.7404    1.0000 </r>
       <r>   -3.6551    1.0000 </r>
       <r>   -3.3909    1.0000 </r>
       <r>   -3.3367    1.0000 </r>
       <r>   -3.1961    1.0000 </r>
       <r>   -3.1049    1.0000 </r>
       <r>   -2.9977    1.0000 </r>
       <r>   -2.9426    1.0000 </r>
       <r>   -2.8362    1.0000 </r>
       <r>   -2.5940    1.0000 </r>
       <r>   -2.3700    1.0000 </r>
       <r>   -2.3208    1.0000 </r>
       <r>   -2.1298    1.0000 </r>
       <r>   -1.9422    1.0000 </r>
       <r>   -1.8021    1.0000 </r>
       <r>   -1.7469    1.0000 </r>
       <r>   -1.6415    1.0000 </r>
       <r>   -1.3357    1.0000 </r>
       <r>   -1.2252    1.0000 </r>
       <r>   -1.0296    1.0000 </r>
       <r>   -0.9404    1.0000 </r>
       <r>   -0.8095    1.0000 </r>
       <r>   -0.2247    0.9998 </r>
       <r>    0.0419    0.4056 </r>
       <r>    0.4577    0.0000 </r>
       <r>    0.7083    0.0000 </r>
       <r>    1.2672    0.0000 </r>
       <r>    1.6278    0.0000 </r>
       <r>    1.9013    0.0000 </r>
       <r>    2.0108    0.0000 </r>
       <r>    2.1055    0.0000 </r>
       <r>    2.2865    0.0000 </r>
       <r>    2.4369    0.0000 </r>
       <r>    2.6091    0.0000 </r>
       <r>    2.6642    0.0000 </r>
       <r>    2.7528    0.0000 </r>
       <r>    2.9461    0.0000 </r>
       <r>    3.0174    0.0000 </r>
      </set>
      <set comment="kpoint 4">
       <r>  -13.6053    1.0000 </r>
       <r>  -12.9719    1.0000 </r>
       <r>  -12.5780    1.0000 </r>
       <r>  -12.3133    1.0000 </r>
       <r>  -12.2677    1.0000 </r>
       <r>  -11.9732    1.0000 </r>
       <r>  -11.5318    1.0000 </r>
       <r>  -11.3814    1.0000 </r>
       <r>  -11.0040    1.0000 </r>
       <r>  -10.9689    1.0000 </r>
       <r>  -10.5778    1.0000 </r>
       <r>   -9.8791    1.0000 </r>
       <r>   -8.3716    1.0000 </r>
       <r>   -8.3180    1.0000 </r>
       <r>   -7.9833    1.0000 </r>
       <r>   -7.7995    1.0000 </r>
       <r>   -7.1542    1.0000 </r>
       <r>   -6.9397    1.0000 </r>
       <r>   -6.6701    1.0000 </r>
       <r>   -6.6107    1.0000 </r>
       <r>   -6.3238    1.0000 </r>
       <r>   -5.8713    1.0000 </r>
       <r>   -5.7167    1.0000 </r>
       <r>   -5.6259    1.0000 </r>
       <r>   -5.3146    1.0000 </r>
       <r>   -4.7916    1.0000 </r>
       <r>   -4.7538    1.0000 </r>
       <r>   -4.5850    1.0000 </r>
       <r>   -4.4974    1.0000 </r>
       <r>   -4.4123    1.0000 </r>
       <r>   -4.1766    1.0000 </r>
       <r>   -4.1402    1.0000 </r>
       <r>   -3.9054    1.0000 </r>
       <r>   -3.7664    1.0000 </r>
       <r>   -3.5639    1.0000 </r>
       <r>   -3.4425    1.0000 </r>
       <r>   -3.1270    1.0000 </r>
       <r>   -3.0209    1.0000 </r>
       <r>   -2.9747    1.0000 </r>
       <r>   -2.7285    1.0000 </r>
       <r>   -2.5626    1.0000 </r>
       <r>   -2.4218    1.0000 </r>
       <r>   -2.3947    1.0000 </r>
       <r>   -1.8916    1.0000 </r>
       <r>   -1.8129    1.0000 </r>
       <r>   -1.7322    1.0000 </r>
       <r>   -1.6734    1.0000 </r>
       <r>   -1.4506    1.0000 </r>
       <r>   -1.3366    1.0000 </r>
       <r>   -1.1078    1.0000 </r>
       <r>   -1.0561    1.0000 </r>
       <r>   -0.8925    1.0000 </r>
       <r>   -0.5704    1.0000 </r>
       <r>   -0.2165    0.9997 </r>
       <r>    0.2964    0.0001 </r>
       <r>    0.4758    0.0000 </r>
       <r>    1.1719    0.0000 </r>
       <r>    1.5899    0.0000 </r>
       <r>    1.7863    0.0000 </r>
       <r>    1.9181    0.0000 </r>
       <r>    2.0497    0.0000 </r>
       <r>    2.2760    0.0000 </r>
       <r>    2.3722    0.0000 </r>
       <r>    2.5501    0.0000 </r>
       <r>    2.7059    0.0000 </r>
       <r>    2.8154    0.0000 </r>
       <r>    2.9191    0.0000 </r>
       <r>    2.9745    0.0000 </r>
      </set>
      <set comment="kpoint 5">
       <r>  -13.2459    1.0000 </r>
       <r>  -12.5602    1.0000 </r>
       <r>  -12.2356    1.0000 </r>
       <r>  -11.9648    1.0000 </r>
       <r>  -11.8964    1.0000 </r>
       <r>  -11.6217    1.0000 </r>
       <r>  -11.1796    1.0000 </r>
       <r>  -11.1494    1.0000 </r>
       <r>  -10.7625    1.0000 </r>
       <r>  -10.7518    1.0000 </r>
       <r>  -10.3922    1.0000 </r>
       <r>   -9.8167    1.0000 </r>
       <r>   -8.6317    1.0000 </r>
       <r>   -8.3998    1.0000 </r>
       <r>   -8.3339    1.0000 </r>
       <r>   -8.0608    1.0000 </r>
       <r>   -7.3454    1.0000 </r>
       <r>   -7.0841    1.0000 </r>
       <r>   -6.9724    1.0000 </r>
       <r>   -6.9001    1.0000 </r>
       <r>   -6.8735    1.0000 </r>
       <r>   -6.2192    1.0000 </r>
       <r>   -6.1338    1.0000 </r>
       <r>   -5.9458    1.0000 </r>
       <r>   -5.8947    1.0000 </r>
       <r>   -5.2048    1.0000 </r>
       <r>   -5.1615    1.0000 </r>
       <r>   -4.7776    1.0000 </r>
       <r>   -4.6905    1.0000 </r>
       <r>   -4.6520    1.0000 </r>
       <r>   -4.4820    1.0000 </r>
       <r>   -4.2902    1.0000 </r>
       <r>   -4.1973    1.0000 </r>
       <r>   -3.9733    1.0000 </r>
       <r>   -3.5924    1.0000 </r>
       <r>   -3.3662    1.0000 </r>
       <r>   -3.2353    1.0000 </r>
       <r>   -3.0616    1.0000 </r>
       <r>   -2.9399    1.0000 </r>
       <r>   -2.8453    1.0000 </r>
       <r>   -2.7193    1.0000 </r>
       <r>   -2.5661    1.0000 </r>
       <r>   -2.4026    1.0000 </r>
       <r>   -2.0494    1.0000 </r>
       <r>   -1.8883    1.0000 </r>
       <r>   -1.8622    1.0000 </r>
       <r>   -1.7034    1.0000 </r>
       <r>   -1.6157    1.0000 </r>
       <r>   -1.5387    1.0000 </r>
       <r>   -1.2933    1.0000 </r>
       <r>   -1.2057    1.0000 </r>
       <r>   -0.9787    1.0000 </r>
       <r>   -0.8463    1.0000 </r>
       <r>   -0.3764    1.0000 </r>
       <r>    0.0980    0.1508 </r>
       <r>    0.3746    0.0000 </r>
       <r>    1.1124    0.0000 </r>
       <r>    1.2979    0.0000 </r>
       <r>    1.5862    0.0000 </r>
       <r>    1.6420    0.0000 </r>
       <r>    1.8216    0.0000 </r>
       <r>    2.0010    0.0000 </r>
       <r>    2.1972    0.0000 </r>
       <r>    2.2949    0.0000 </r>
       <r>    2.3990    0.0000 </r>
       <r>    2.6487    0.0000 </r>
       <r>    2.7170    0.0000 </r>
       <r>    2.8635    0.0000 </r>
      </set>
      <set comment="kpoint 6">
       <r>  -12.8362    1.0000 </r>
       <r>  -12.0519    1.0000 </r>
       <r>  -11.8282    1.0000 </r>
       <r>  -11.5456    1.0000 </r>
       <r>  -11.5008    1.0000 </r>
       <r>  -11.2244    1.0000 </r>
       <r>  -11.0048    1.0000 </r>
       <r>  -10.8282    1.0000 </r>
       <r>  -10.7279    1.0000 </r>
       <r>  -10.6038    1.0000 </r>
       <r>  -10.4326    1.0000 </r>
       <r>   -9.7755    1.0000 </r>
       <r>   -8.8077    1.0000 </r>
       <r>   -8.6226    1.0000 </r>
       <r>   -8.4865    1.0000 </r>
       <r>   -8.3526    1.0000 </r>
       <r>   -7.8676    1.0000 </r>
       <r>   -7.4437    1.0000 </r>
       <r>   -7.4334    1.0000 </r>
       <r>   -7.3889    1.0000 </r>
       <r>   -6.9868    1.0000 </r>
       <r>   -6.7354    1.0000 </r>
       <r>   -6.6942    1.0000 </r>
       <r>   -6.6378    1.0000 </r>
       <r>   -5.9121    1.0000 </r>
       <r>   -5.5114    1.0000 </r>
       <r>   -5.1875    1.0000 </r>
       <r>   -4.9282    1.0000 </r>
       <r>   -4.6027    1.0000 </r>
       <r>   -4.5038    1.0000 </r>
       <r>   -4.3307    1.0000 </r>
       <r>   -4.2033    1.0000 </r>
       <r>   -4.0686    1.0000 </r>
       <r>   -3.8815    1.0000 </r>
       <r>   -3.6849    1.0000 </r>
       <r>   -3.6250    1.0000 </r>
       <r>   -3.3408    1.0000 </r>
       <r>   -3.2449    1.0000 </r>
       <r>   -3.1383    1.0000 </r>
       <r>   -2.8124    1.0000 </r>
       <r>   -2.7222    1.0000 </r>
       <r>   -2.4924    1.0000 </r>
       <r>   -2.4265    1.0000 </r>
       <r>   -2.2699    1.0000 </r>
       <r>   -2.1249    1.0000 </r>
       <r>   -2.0069    1.0000 </r>
       <r>   -1.8576    1.0000 </r>
       <r>   -1.8023    1.0000 </r>
       <r>   -1.7128    1.0000 </r>
       <r>   -1.4144    1.0000 </r>
       <r>   -1.3276    1.0000 </r>
       <r>   -1.2020    1.0000 </r>
       <r>   -0.8458    1.0000 </r>
       <r>   -0.4070    1.0000 </r>
       <r>    0.0110    0.5786 </r>
       <r>    0.3749    0.0000 </r>
       <r>    0.9764    0.0000 </r>
       <r>    1.0687    0.0000 </r>
       <r>    1.3816    0.0000 </r>
       <r>    1.4460    0.0000 </r>
       <r>    1.7284    0.0000 </r>
       <r>    1.7588    0.0000 </r>
       <r>    2.0019    0.0000 </r>
       <r>    2.0876    0.0000 </r>
       <r>    2.2833    0.0000 </r>
       <r>    2.3254    0.0000 </r>
       <r>    2.3917    0.0000 </r>
       <r>    2.6899    0.0000 </r>
      </set>
      <set comment="kpoint 7">
       <r>  -12.4928    1.0000 </r>
       <r>  -11.4785    1.0000 </r>
       <r>  -11.4365    1.0000 </r>
       <r>  -11.2379    1.0000 </r>
       <r>  -11.1229    1.0000 </r>
       <r>  -11.0866    1.0000 </r>
       <r>  -10.9260    1.0000 </r>
       <r>  -10.8302    1.0000 </r>
       <r>  -10.8185    1.0000 </r>
       <r>  -10.7049    1.0000 </r>
       <r>  -10.6133    1.0000 </r>
       <r>   -9.7291    1.0000 </r>
       <r>   -8.7807    1.0000 </r>
       <r>   -8.6650    1.0000 </r>
       <r>   -8.4857    1.0000 </r>
       <r>   -8.4141    1.0000 </r>
       <r>   -8.1924    1.0000 </r>
       <r>   -8.0555    1.0000 </r>
       <r>   -7.6960    1.0000 </r>
       <r>   -7.5479    1.0000 </r>
       <r>   -7.3532    1.0000 </r>
       <r>   -7.2614    1.0000 </r>
       <r>   -7.1555    1.0000 </r>
       <r>   -6.7401    1.0000 </r>
       <r>   -5.8794    1.0000 </r>
       <r>   -5.6762    1.0000 </r>
       <r>   -4.9184    1.0000 </r>
       <r>   -4.8139    1.0000 </r>
       <r>   -4.4961    1.0000 </r>
       <r>   -4.3912    1.0000 </r>
       <r>   -4.2248    1.0000 </r>
       <r>   -4.0406    1.0000 </r>
       <r>   -3.9231    1.0000 </r>
       <r>   -3.9067    1.0000 </r>
       <r>   -3.8040    1.0000 </r>
       <r>   -3.6484    1.0000 </r>
       <r>   -3.5508    1.0000 </r>
       <r>   -3.2969    1.0000 </r>
       <r>   -3.2309    1.0000 </r>
       <r>   -2.9867    1.0000 </r>
       <r>   -2.6932    1.0000 </r>
       <r>   -2.6718    1.0000 </r>
       <r>   -2.6035    1.0000 </r>
       <r>   -2.3299    1.0000 </r>
       <r>   -2.1781    1.0000 </r>
       <r>   -2.0956    1.0000 </r>
       <r>   -2.0069    1.0000 </r>
       <r>   -1.8168    1.0000 </r>
       <r>   -1.6862    1.0000 </r>
       <r>   -1.5079    1.0000 </r>
       <r>   -1.4700    1.0000 </r>
       <r>   -1.2526    1.0000 </r>
       <r>   -0.8209    1.0000 </r>
       <r>   -0.4522    1.0000 </r>
       <r>    0.0047    0.6128 </r>
       <r>    0.4703    0.0000 </r>
       <r>    0.6842    0.0000 </r>
       <r>    1.0600    0.0000 </r>
       <r>    1.2593    0.0000 </r>
       <r>    1.3999    0.0000 </r>
       <r>    1.6054    0.0000 </r>
       <r>    1.6935    0.0000 </r>
       <r>    1.8673    0.0000 </r>
       <r>    1.9422    0.0000 </r>
       <r>    2.1078    0.0000 </r>
       <r>    2.2101    0.0000 </r>
       <r>    2.4133    0.0000 </r>
       <r>    2.4821    0.0000 </r>
      </set>
      <set comment="kpoint 8">
       <r>  -14.0893    1.0000 </r>
       <r>  -13.4619    1.0000 </r>
       <r>  -13.1525    1.0000 </r>
       <r>  -12.9508    1.0000 </r>
       <r>  -12.6256    1.0000 </r>
       <r>  -12.4570    1.0000 </r>
       <r>  -11.9384    1.0000 </r>
       <r>  -11.8461    1.0000 </r>
       <r>  -11.4559    1.0000 </r>
       <r>  -11.2549    1.0000 </r>
       <r>  -10.9768    1.0000 </r>
       <r>  -10.0556    1.0000 </r>
       <r>   -8.7073    1.0000 </r>
       <r>   -8.4888    1.0000 </r>
       <r>   -7.6980    1.0000 </r>
       <r>   -7.3750    1.0000 </r>
       <r>   -7.1983    1.0000 </r>
       <r>   -6.6479    1.0000 </r>
       <r>   -6.5816    1.0000 </r>
       <r>   -6.1299    1.0000 </r>
       <r>   -5.9700    1.0000 </r>
       <r>   -5.7275    1.0000 </r>
       <r>   -5.5885    1.0000 </r>
       <r>   -4.6284    1.0000 </r>
       <r>   -4.5332    1.0000 </r>
       <r>   -4.1759    1.0000 </r>
       <r>   -3.9961    1.0000 </r>
       <r>   -3.5905    1.0000 </r>
       <r>   -3.4200    1.0000 </r>
       <r>   -3.3096    1.0000 </r>
       <r>   -3.2190    1.0000 </r>
       <r>   -3.1043    1.0000 </r>
       <r>   -2.9237    1.0000 </r>
       <r>   -2.7137    1.0000 </r>
       <r>   -2.6848    1.0000 </r>
       <r>   -2.4123    1.0000 </r>
       <r>   -2.3701    1.0000 </r>
       <r>   -2.3177    1.0000 </r>
       <r>   -2.1681    1.0000 </r>
       <r>   -2.0754    1.0000 </r>
       <r>   -1.9541    1.0000 </r>
       <r>   -1.8855    1.0000 </r>
       <r>   -1.8591    1.0000 </r>
       <r>   -1.6375    1.0000 </r>
       <r>   -1.6048    1.0000 </r>
       <r>   -1.5198    1.0000 </r>
       <r>   -1.3822    1.0000 </r>
       <r>   -1.3392    1.0000 </r>
       <r>   -1.1882    1.0000 </r>
       <r>   -1.0532    1.0000 </r>
       <r>   -0.9410    1.0000 </r>
       <r>   -0.5434    1.0000 </r>
       <r>   -0.0954    0.9557 </r>
       <r>    0.0636    0.2926 </r>
       <r>    0.1246    0.0795 </r>
       <r>    0.6701    0.0000 </r>
       <r>    1.1445    0.0000 </r>
       <r>    1.2137    0.0000 </r>
       <r>    1.3077    0.0000 </r>
       <r>    1.4237    0.0000 </r>
       <r>    1.7026    0.0000 </r>
       <r>    1.7361    0.0000 </r>
       <r>    1.7963    0.0000 </r>
       <r>    1.9314    0.0000 </r>
       <r>    2.1721    0.0000 </r>
       <r>    2.2875    0.0000 </r>
       <r>    2.3323    0.0000 </r>
       <r>    2.5520    0.0000 </r>
      </set>
      <set comment="kpoint 9">
       <r>  -14.0309    1.0000 </r>
       <r>  -13.3850    1.0000 </r>
       <r>  -13.1151    1.0000 </r>
       <r>  -12.9317    1.0000 </r>
       <r>  -12.5346    1.0000 </r>
       <r>  -12.3991    1.0000 </r>
       <r>  -11.9271    1.0000 </r>
       <r>  -11.7476    1.0000 </r>
       <r>  -11.4147    1.0000 </r>
       <r>  -11.1782    1.0000 </r>
       <r>  -10.9325    1.0000 </r>
       <r>  -10.0239    1.0000 </r>
       <r>   -8.7152    1.0000 </r>
       <r>   -8.5470    1.0000 </r>
       <r>   -7.6814    1.0000 </r>
       <r>   -7.3301    1.0000 </r>
       <r>   -7.1478    1.0000 </r>
       <r>   -6.6562    1.0000 </r>
       <r>   -6.5087    1.0000 </r>
       <r>   -6.1935    1.0000 </r>
       <r>   -6.0821    1.0000 </r>
       <r>   -5.6786    1.0000 </r>
       <r>   -5.5684    1.0000 </r>
       <r>   -4.6711    1.0000 </r>
       <r>   -4.5761    1.0000 </r>
       <r>   -4.2078    1.0000 </r>
       <r>   -4.0560    1.0000 </r>
       <r>   -3.7820    1.0000 </r>
       <r>   -3.6048    1.0000 </r>
       <r>   -3.4956    1.0000 </r>
       <r>   -3.3820    1.0000 </r>
       <r>   -3.3291    1.0000 </r>
       <r>   -3.0824    1.0000 </r>
       <r>   -3.0017    1.0000 </r>
       <r>   -2.9143    1.0000 </r>
       <r>   -2.6738    1.0000 </r>
       <r>   -2.5405    1.0000 </r>
       <r>   -2.4648    1.0000 </r>
       <r>   -2.3384    1.0000 </r>
       <r>   -2.2668    1.0000 </r>
       <r>   -2.1475    1.0000 </r>
       <r>   -2.0434    1.0000 </r>
       <r>   -1.9898    1.0000 </r>
       <r>   -1.8289    1.0000 </r>
       <r>   -1.7714    1.0000 </r>
       <r>   -1.7209    1.0000 </r>
       <r>   -1.4256    1.0000 </r>
       <r>   -1.3235    1.0000 </r>
       <r>   -1.1479    1.0000 </r>
       <r>   -1.0309    1.0000 </r>
       <r>   -0.9053    1.0000 </r>
       <r>   -0.5950    1.0000 </r>
       <r>   -0.1296    0.9856 </r>
       <r>    0.0936    0.1661 </r>
       <r>    0.4920    0.0000 </r>
       <r>    0.7862    0.0000 </r>
       <r>    0.9881    0.0000 </r>
       <r>    1.4869    0.0000 </r>
       <r>    1.6215    0.0000 </r>
       <r>    1.7759    0.0000 </r>
       <r>    1.8198    0.0000 </r>
       <r>    1.9430    0.0000 </r>
       <r>    2.0898    0.0000 </r>
       <r>    2.1992    0.0000 </r>
       <r>    2.3284    0.0000 </r>
       <r>    2.4524    0.0000 </r>
       <r>    2.5821    0.0000 </r>
       <r>    2.6868    0.0000 </r>
      </set>
      <set comment="kpoint 10">
       <r>  -13.8629    1.0000 </r>
       <r>  -13.1885    1.0000 </r>
       <r>  -12.9622    1.0000 </r>
       <r>  -12.7952    1.0000 </r>
       <r>  -12.3411    1.0000 </r>
       <r>  -12.2318    1.0000 </r>
       <r>  -11.8144    1.0000 </r>
       <r>  -11.5498    1.0000 </r>
       <r>  -11.2753    1.0000 </r>
       <r>  -11.0191    1.0000 </r>
       <r>  -10.7914    1.0000 </r>
       <r>   -9.9485    1.0000 </r>
       <r>   -8.6677    1.0000 </r>
       <r>   -8.6070    1.0000 </r>
       <r>   -7.6724    1.0000 </r>
       <r>   -7.2955    1.0000 </r>
       <r>   -7.1151    1.0000 </r>
       <r>   -6.6346    1.0000 </r>
       <r>   -6.5786    1.0000 </r>
       <r>   -6.4753    1.0000 </r>
       <r>   -6.1206    1.0000 </r>
       <r>   -5.6296    1.0000 </r>
       <r>   -5.5439    1.0000 </r>
       <r>   -5.0543    1.0000 </r>
       <r>   -4.8198    1.0000 </r>
       <r>   -4.4808    1.0000 </r>
       <r>   -4.3566    1.0000 </r>
       <r>   -4.2744    1.0000 </r>
       <r>   -4.0923    1.0000 </r>
       <r>   -3.9437    1.0000 </r>
       <r>   -3.7423    1.0000 </r>
       <r>   -3.6071    1.0000 </r>
       <r>   -3.5605    1.0000 </r>
       <r>   -3.2759    1.0000 </r>
       <r>   -3.1062    1.0000 </r>
       <r>   -3.0295    1.0000 </r>
       <r>   -2.9428    1.0000 </r>
       <r>   -2.8968    1.0000 </r>
       <r>   -2.7894    1.0000 </r>
       <r>   -2.6898    1.0000 </r>
       <r>   -2.5724    1.0000 </r>
       <r>   -2.2985    1.0000 </r>
       <r>   -2.2406    1.0000 </r>
       <r>   -1.9597    1.0000 </r>
       <r>   -1.8696    1.0000 </r>
       <r>   -1.6772    1.0000 </r>
       <r>   -1.4820    1.0000 </r>
       <r>   -1.2903    1.0000 </r>
       <r>   -1.1919    1.0000 </r>
       <r>   -1.0671    1.0000 </r>
       <r>   -0.9377    1.0000 </r>
       <r>   -0.8545    1.0000 </r>
       <r>   -0.2603    1.0000 </r>
       <r>    0.1038    0.1324 </r>
       <r>    0.4665    0.0000 </r>
       <r>    0.7178    0.0000 </r>
       <r>    1.3132    0.0000 </r>
       <r>    1.6244    0.0000 </r>
       <r>    1.6931    0.0000 </r>
       <r>    1.7928    0.0000 </r>
       <r>    2.1223    0.0000 </r>
       <r>    2.1541    0.0000 </r>
       <r>    2.3681    0.0000 </r>
       <r>    2.6768    0.0000 </r>
       <r>    2.7814    0.0000 </r>
       <r>    2.8803    0.0000 </r>
       <r>    3.0254    0.0000 </r>
       <r>    3.0977    0.0000 </r>
      </set>
      <set comment="kpoint 11">
       <r>  -13.5923    1.0000 </r>
       <r>  -12.8771    1.0000 </r>
       <r>  -12.6979    1.0000 </r>
       <r>  -12.5438    1.0000 </r>
       <r>  -12.0594    1.0000 </r>
       <r>  -11.9636    1.0000 </r>
       <r>  -11.6074    1.0000 </r>
       <r>  -11.2731    1.0000 </r>
       <r>  -11.0537    1.0000 </r>
       <r>  -10.8125    1.0000 </r>
       <r>  -10.5743    1.0000 </r>
       <r>   -9.8613    1.0000 </r>
       <r>   -8.7498    1.0000 </r>
       <r>   -8.5766    1.0000 </r>
       <r>   -7.8381    1.0000 </r>
       <r>   -7.3759    1.0000 </r>
       <r>   -7.2114    1.0000 </r>
       <r>   -6.8445    1.0000 </r>
       <r>   -6.6733    1.0000 </r>
       <r>   -6.6194    1.0000 </r>
       <r>   -6.3512    1.0000 </r>
       <r>   -5.8305    1.0000 </r>
       <r>   -5.7704    1.0000 </r>
       <r>   -5.6251    1.0000 </r>
       <r>   -5.1855    1.0000 </r>
       <r>   -5.0060    1.0000 </r>
       <r>   -4.8401    1.0000 </r>
       <r>   -4.6465    1.0000 </r>
       <r>   -4.5335    1.0000 </r>
       <r>   -4.4532    1.0000 </r>
       <r>   -4.2382    1.0000 </r>
       <r>   -3.9942    1.0000 </r>
       <r>   -3.7576    1.0000 </r>
       <r>   -3.6940    1.0000 </r>
       <r>   -3.4594    1.0000 </r>
       <r>   -3.1902    1.0000 </r>
       <r>   -3.1582    1.0000 </r>
       <r>   -3.0691    1.0000 </r>
       <r>   -3.0309    1.0000 </r>
       <r>   -2.8116    1.0000 </r>
       <r>   -2.5772    1.0000 </r>
       <r>   -2.5032    1.0000 </r>
       <r>   -2.2601    1.0000 </r>
       <r>   -1.9723    1.0000 </r>
       <r>   -1.8990    1.0000 </r>
       <r>   -1.7540    1.0000 </r>
       <r>   -1.6464    1.0000 </r>
       <r>   -1.4074    1.0000 </r>
       <r>   -1.3605    1.0000 </r>
       <r>   -1.1476    1.0000 </r>
       <r>   -1.0523    1.0000 </r>
       <r>   -0.9498    1.0000 </r>
       <r>   -0.6191    1.0000 </r>
       <r>   -0.1789    0.9980 </r>
       <r>    0.3724    0.0000 </r>
       <r>    0.4851    0.0000 </r>
       <r>    1.2042    0.0000 </r>
       <r>    1.4595    0.0000 </r>
       <r>    1.5668    0.0000 </r>
       <r>    1.6407    0.0000 </r>
       <r>    1.7071    0.0000 </r>
       <r>    2.1711    0.0000 </r>
       <r>    2.2694    0.0000 </r>
       <r>    2.5801    0.0000 </r>
       <r>    2.7223    0.0000 </r>
       <r>    2.8389    0.0000 </r>
       <r>    2.9660    0.0000 </r>
       <r>    3.0648    0.0000 </r>
      </set>
      <set comment="kpoint 12">
       <r>  -13.2351    1.0000 </r>
       <r>  -12.4605    1.0000 </r>
       <r>  -12.3322    1.0000 </r>
       <r>  -12.1847    1.0000 </r>
       <r>  -11.7218    1.0000 </r>
       <r>  -11.6139    1.0000 </r>
       <r>  -11.3293    1.0000 </r>
       <r>  -10.9593    1.0000 </r>
       <r>  -10.7902    1.0000 </r>
       <r>  -10.6577    1.0000 </r>
       <r>  -10.3689    1.0000 </r>
       <r>   -9.8045    1.0000 </r>
       <r>   -8.9476    1.0000 </r>
       <r>   -8.5345    1.0000 </r>
       <r>   -8.2110    1.0000 </r>
       <r>   -7.6863    1.0000 </r>
       <r>   -7.4668    1.0000 </r>
       <r>   -7.0920    1.0000 </r>
       <r>   -7.0724    1.0000 </r>
       <r>   -6.9387    1.0000 </r>
       <r>   -6.7320    1.0000 </r>
       <r>   -6.3177    1.0000 </r>
       <r>   -6.1655    1.0000 </r>
       <r>   -5.8994    1.0000 </r>
       <r>   -5.8643    1.0000 </r>
       <r>   -5.3581    1.0000 </r>
       <r>   -5.2518    1.0000 </r>
       <r>   -4.9167    1.0000 </r>
       <r>   -4.7781    1.0000 </r>
       <r>   -4.4495    1.0000 </r>
       <r>   -4.3856    1.0000 </r>
       <r>   -4.2947    1.0000 </r>
       <r>   -3.9888    1.0000 </r>
       <r>   -3.8569    1.0000 </r>
       <r>   -3.4712    1.0000 </r>
       <r>   -3.3143    1.0000 </r>
       <r>   -3.2273    1.0000 </r>
       <r>   -2.9865    1.0000 </r>
       <r>   -2.8778    1.0000 </r>
       <r>   -2.8574    1.0000 </r>
       <r>   -2.7746    1.0000 </r>
       <r>   -2.4730    1.0000 </r>
       <r>   -2.3217    1.0000 </r>
       <r>   -2.2654    1.0000 </r>
       <r>   -1.9482    1.0000 </r>
       <r>   -1.8784    1.0000 </r>
       <r>   -1.7790    1.0000 </r>
       <r>   -1.7086    1.0000 </r>
       <r>   -1.5669    1.0000 </r>
       <r>   -1.2837    1.0000 </r>
       <r>   -1.1920    1.0000 </r>
       <r>   -1.0362    1.0000 </r>
       <r>   -0.8906    1.0000 </r>
       <r>   -0.4147    1.0000 </r>
       <r>    0.0895    0.1807 </r>
       <r>    0.5078    0.0000 </r>
       <r>    1.0901    0.0000 </r>
       <r>    1.2505    0.0000 </r>
       <r>    1.2804    0.0000 </r>
       <r>    1.3490    0.0000 </r>
       <r>    1.5253    0.0000 </r>
       <r>    1.8441    0.0000 </r>
       <r>    2.1834    0.0000 </r>
       <r>    2.3116    0.0000 </r>
       <r>    2.4760    0.0000 </r>
       <r>    2.5899    0.0000 </r>
       <r>    2.6508    0.0000 </r>
       <r>    2.8539    0.0000 </r>
      </set>
      <set comment="kpoint 13">
       <r>  -12.8297    1.0000 </r>
       <r>  -11.9571    1.0000 </r>
       <r>  -11.8873    1.0000 </r>
       <r>  -11.7346    1.0000 </r>
       <r>  -11.4096    1.0000 </r>
       <r>  -11.2225    1.0000 </r>
       <r>  -11.0568    1.0000 </r>
       <r>  -10.7221    1.0000 </r>
       <r>  -10.7005    1.0000 </r>
       <r>  -10.5794    1.0000 </r>
       <r>  -10.4451    1.0000 </r>
       <r>   -9.7646    1.0000 </r>
       <r>   -8.9379    1.0000 </r>
       <r>   -8.5800    1.0000 </r>
       <r>   -8.4792    1.0000 </r>
       <r>   -8.0898    1.0000 </r>
       <r>   -7.9816    1.0000 </r>
       <r>   -7.7557    1.0000 </r>
       <r>   -7.3389    1.0000 </r>
       <r>   -7.2588    1.0000 </r>
       <r>   -7.0069    1.0000 </r>
       <r>   -6.8447    1.0000 </r>
       <r>   -6.6732    1.0000 </r>
       <r>   -6.6341    1.0000 </r>
       <r>   -5.9220    1.0000 </r>
       <r>   -5.5172    1.0000 </r>
       <r>   -5.3176    1.0000 </r>
       <r>   -4.9215    1.0000 </r>
       <r>   -4.7621    1.0000 </r>
       <r>   -4.4322    1.0000 </r>
       <r>   -4.3176    1.0000 </r>
       <r>   -4.0948    1.0000 </r>
       <r>   -3.8503    1.0000 </r>
       <r>   -3.8268    1.0000 </r>
       <r>   -3.6156    1.0000 </r>
       <r>   -3.3292    1.0000 </r>
       <r>   -3.3191    1.0000 </r>
       <r>   -3.2531    1.0000 </r>
       <r>   -3.0973    1.0000 </r>
       <r>   -2.9082    1.0000 </r>
       <r>   -2.7090    1.0000 </r>
       <r>   -2.6090    1.0000 </r>
       <r>   -2.4015    1.0000 </r>
       <r>   -2.2775    1.0000 </r>
       <r>   -2.1697    1.0000 </r>
       <r>   -2.0547    1.0000 </r>
       <r>   -1.9307    1.0000 </r>
       <r>   -1.8501    1.0000 </r>
       <r>   -1.7245    1.0000 </r>
       <r>   -1.4562    1.0000 </r>
       <r>   -1.3895    1.0000 </r>
       <r>   -1.1789    1.0000 </r>
       <r>   -0.8355    1.0000 </r>
       <r>   -0.4920    1.0000 </r>
       <r>   -0.0460    0.8423 </r>
       <r>    0.4531    0.0000 </r>
       <r>    0.9770    0.0000 </r>
       <r>    1.1187    0.0000 </r>
       <r>    1.2251    0.0000 </r>
       <r>    1.3221    0.0000 </r>
       <r>    1.3752    0.0000 </r>
       <r>    1.7261    0.0000 </r>
       <r>    1.8467    0.0000 </r>
       <r>    2.0678    0.0000 </r>
       <r>    2.1900    0.0000 </r>
       <r>    2.3658    0.0000 </r>
       <r>    2.5624    0.0000 </r>
       <r>    2.6905    0.0000 </r>
      </set>
      <set comment="kpoint 14">
       <r>  -12.4912    1.0000 </r>
       <r>  -11.4190    1.0000 </r>
       <r>  -11.4077    1.0000 </r>
       <r>  -11.2910    1.0000 </r>
       <r>  -11.2393    1.0000 </r>
       <r>  -11.0695    1.0000 </r>
       <r>  -10.9381    1.0000 </r>
       <r>  -10.8416    1.0000 </r>
       <r>  -10.8068    1.0000 </r>
       <r>  -10.6754    1.0000 </r>
       <r>  -10.5591    1.0000 </r>
       <r>   -9.7358    1.0000 </r>
       <r>   -8.7790    1.0000 </r>
       <r>   -8.5318    1.0000 </r>
       <r>   -8.4767    1.0000 </r>
       <r>   -8.3743    1.0000 </r>
       <r>   -8.3053    1.0000 </r>
       <r>   -8.1921    1.0000 </r>
       <r>   -7.6295    1.0000 </r>
       <r>   -7.4939    1.0000 </r>
       <r>   -7.4328    1.0000 </r>
       <r>   -7.2912    1.0000 </r>
       <r>   -7.1153    1.0000 </r>
       <r>   -6.7468    1.0000 </r>
       <r>   -5.9279    1.0000 </r>
       <r>   -5.6485    1.0000 </r>
       <r>   -5.0016    1.0000 </r>
       <r>   -4.7692    1.0000 </r>
       <r>   -4.4973    1.0000 </r>
       <r>   -4.4278    1.0000 </r>
       <r>   -4.1685    1.0000 </r>
       <r>   -4.0972    1.0000 </r>
       <r>   -3.9136    1.0000 </r>
       <r>   -3.8988    1.0000 </r>
       <r>   -3.6358    1.0000 </r>
       <r>   -3.5969    1.0000 </r>
       <r>   -3.4727    1.0000 </r>
       <r>   -3.3175    1.0000 </r>
       <r>   -3.2344    1.0000 </r>
       <r>   -2.9715    1.0000 </r>
       <r>   -2.6660    1.0000 </r>
       <r>   -2.6327    1.0000 </r>
       <r>   -2.5878    1.0000 </r>
       <r>   -2.5215    1.0000 </r>
       <r>   -2.1545    1.0000 </r>
       <r>   -2.1080    1.0000 </r>
       <r>   -2.0456    1.0000 </r>
       <r>   -1.8355    1.0000 </r>
       <r>   -1.6700    1.0000 </r>
       <r>   -1.5756    1.0000 </r>
       <r>   -1.4915    1.0000 </r>
       <r>   -1.2141    1.0000 </r>
       <r>   -0.8178    1.0000 </r>
       <r>   -0.4733    1.0000 </r>
       <r>   -0.0214    0.7440 </r>
       <r>    0.3901    0.0000 </r>
       <r>    0.7863    0.0000 </r>
       <r>    1.1084    0.0000 </r>
       <r>    1.2375    0.0000 </r>
       <r>    1.4474    0.0000 </r>
       <r>    1.5380    0.0000 </r>
       <r>    1.5915    0.0000 </r>
       <r>    1.7875    0.0000 </r>
       <r>    1.8881    0.0000 </r>
       <r>    2.0765    0.0000 </r>
       <r>    2.2234    0.0000 </r>
       <r>    2.4060    0.0000 </r>
       <r>    2.4973    0.0000 </r>
      </set>
      <set comment="kpoint 15">
       <r>  -12.4940    1.0000 </r>
       <r>  -11.5121    1.0000 </r>
       <r>  -11.4311    1.0000 </r>
       <r>  -11.2497    1.0000 </r>
       <r>  -11.0512    1.0000 </r>
       <r>  -11.0460    1.0000 </r>
       <r>  -10.9141    1.0000 </r>
       <r>  -10.8588    1.0000 </r>
       <r>  -10.7851    1.0000 </r>
       <r>  -10.7333    1.0000 </r>
       <r>  -10.6809    1.0000 </r>
       <r>   -9.7249    1.0000 </r>
       <r>   -8.7636    1.0000 </r>
       <r>   -8.7310    1.0000 </r>
       <r>   -8.5020    1.0000 </r>
       <r>   -8.4086    1.0000 </r>
       <r>   -8.2005    1.0000 </r>
       <r>   -7.9208    1.0000 </r>
       <r>   -7.7511    1.0000 </r>
       <r>   -7.5811    1.0000 </r>
       <r>   -7.2939    1.0000 </r>
       <r>   -7.2554    1.0000 </r>
       <r>   -7.1925    1.0000 </r>
       <r>   -6.7178    1.0000 </r>
       <r>   -5.8898    1.0000 </r>
       <r>   -5.6639    1.0000 </r>
       <r>   -4.8966    1.0000 </r>
       <r>   -4.6886    1.0000 </r>
       <r>   -4.5514    1.0000 </r>
       <r>   -4.3927    1.0000 </r>
       <r>   -4.3058    1.0000 </r>
       <r>   -4.0115    1.0000 </r>
       <r>   -3.9728    1.0000 </r>
       <r>   -3.9087    1.0000 </r>
       <r>   -3.8595    1.0000 </r>
       <r>   -3.6739    1.0000 </r>
       <r>   -3.6173    1.0000 </r>
       <r>   -3.3331    1.0000 </r>
       <r>   -3.2697    1.0000 </r>
       <r>   -2.8061    1.0000 </r>
       <r>   -2.7293    1.0000 </r>
       <r>   -2.6738    1.0000 </r>
       <r>   -2.5813    1.0000 </r>
       <r>   -2.3592    1.0000 </r>
       <r>   -2.1475    1.0000 </r>
       <r>   -2.1167    1.0000 </r>
       <r>   -2.0066    1.0000 </r>
       <r>   -1.7975    1.0000 </r>
       <r>   -1.6932    1.0000 </r>
       <r>   -1.5016    1.0000 </r>
       <r>   -1.4583    1.0000 </r>
       <r>   -1.2202    1.0000 </r>
       <r>   -0.8229    1.0000 </r>
       <r>   -0.4389    1.0000 </r>
       <r>   -0.0283    0.7743 </r>
       <r>    0.4848    0.0000 </r>
       <r>    0.7227    0.0000 </r>
       <r>    1.1036    0.0000 </r>
       <r>    1.2411    0.0000 </r>
       <r>    1.3989    0.0000 </r>
       <r>    1.6739    0.0000 </r>
       <r>    1.7864    0.0000 </r>
       <r>    1.8210    0.0000 </r>
       <r>    1.9898    0.0000 </r>
       <r>    2.1499    0.0000 </r>
       <r>    2.2819    0.0000 </r>
       <r>    2.3966    0.0000 </r>
       <r>    2.5718    0.0000 </r>
      </set>
      <set comment="kpoint 16">
       <r>  -12.8390    1.0000 </r>
       <r>  -12.0784    1.0000 </r>
       <r>  -11.7908    1.0000 </r>
       <r>  -11.5507    1.0000 </r>
       <r>  -11.4606    1.0000 </r>
       <r>  -11.2224    1.0000 </r>
       <r>  -10.9855    1.0000 </r>
       <r>  -10.9088    1.0000 </r>
       <r>  -10.7282    1.0000 </r>
       <r>  -10.6064    1.0000 </r>
       <r>  -10.4281    1.0000 </r>
       <r>   -9.7814    1.0000 </r>
       <r>   -8.7190    1.0000 </r>
       <r>   -8.6548    1.0000 </r>
       <r>   -8.4877    1.0000 </r>
       <r>   -8.4552    1.0000 </r>
       <r>   -7.7637    1.0000 </r>
       <r>   -7.5515    1.0000 </r>
       <r>   -7.4170    1.0000 </r>
       <r>   -7.3055    1.0000 </r>
       <r>   -7.0014    1.0000 </r>
       <r>   -6.7843    1.0000 </r>
       <r>   -6.6433    1.0000 </r>
       <r>   -6.6171    1.0000 </r>
       <r>   -5.9325    1.0000 </r>
       <r>   -5.4795    1.0000 </r>
       <r>   -5.0420    1.0000 </r>
       <r>   -4.9307    1.0000 </r>
       <r>   -4.8077    1.0000 </r>
       <r>   -4.3836    1.0000 </r>
       <r>   -4.3292    1.0000 </r>
       <r>   -4.2351    1.0000 </r>
       <r>   -4.0892    1.0000 </r>
       <r>   -3.8920    1.0000 </r>
       <r>   -3.7199    1.0000 </r>
       <r>   -3.6905    1.0000 </r>
       <r>   -3.3832    1.0000 </r>
       <r>   -3.3349    1.0000 </r>
       <r>   -3.1522    1.0000 </r>
       <r>   -2.8340    1.0000 </r>
       <r>   -2.6968    1.0000 </r>
       <r>   -2.5001    1.0000 </r>
       <r>   -2.4367    1.0000 </r>
       <r>   -2.2300    1.0000 </r>
       <r>   -2.1170    1.0000 </r>
       <r>   -1.9232    1.0000 </r>
       <r>   -1.8540    1.0000 </r>
       <r>   -1.7609    1.0000 </r>
       <r>   -1.7125    1.0000 </r>
       <r>   -1.3951    1.0000 </r>
       <r>   -1.3407    1.0000 </r>
       <r>   -1.1683    1.0000 </r>
       <r>   -0.8247    1.0000 </r>
       <r>   -0.3757    1.0000 </r>
       <r>   -0.0544    0.8693 </r>
       <r>    0.3734    0.0000 </r>
       <r>    0.9943    0.0000 </r>
       <r>    1.1341    0.0000 </r>
       <r>    1.3590    0.0000 </r>
       <r>    1.4499    0.0000 </r>
       <r>    1.7990    0.0000 </r>
       <r>    1.9180    0.0000 </r>
       <r>    2.1208    0.0000 </r>
       <r>    2.1626    0.0000 </r>
       <r>    2.2636    0.0000 </r>
       <r>    2.3433    0.0000 </r>
       <r>    2.4543    0.0000 </r>
       <r>    2.6279    0.0000 </r>
      </set>
      <set comment="kpoint 17">
       <r>  -13.2476    1.0000 </r>
       <r>  -12.5725    1.0000 </r>
       <r>  -12.2119    1.0000 </r>
       <r>  -11.9303    1.0000 </r>
       <r>  -11.9212    1.0000 </r>
       <r>  -11.6213    1.0000 </r>
       <r>  -11.2202    1.0000 </r>
       <r>  -11.1321    1.0000 </r>
       <r>  -10.7704    1.0000 </r>
       <r>  -10.7489    1.0000 </r>
       <r>  -10.3983    1.0000 </r>
       <r>   -9.8221    1.0000 </r>
       <r>   -8.5335    1.0000 </r>
       <r>   -8.4677    1.0000 </r>
       <r>   -8.2374    1.0000 </r>
       <r>   -8.1623    1.0000 </r>
       <r>   -7.3675    1.0000 </r>
       <r>   -7.0794    1.0000 </r>
       <r>   -6.9776    1.0000 </r>
       <r>   -6.9057    1.0000 </r>
       <r>   -6.8450    1.0000 </r>
       <r>   -6.2409    1.0000 </r>
       <r>   -6.1299    1.0000 </r>
       <r>   -5.9533    1.0000 </r>
       <r>   -5.8780    1.0000 </r>
       <r>   -5.1622    1.0000 </r>
       <r>   -5.1100    1.0000 </r>
       <r>   -4.8613    1.0000 </r>
       <r>   -4.6581    1.0000 </r>
       <r>   -4.6073    1.0000 </r>
       <r>   -4.5273    1.0000 </r>
       <r>   -4.2923    1.0000 </r>
       <r>   -4.2184    1.0000 </r>
       <r>   -3.9624    1.0000 </r>
       <r>   -3.6231    1.0000 </r>
       <r>   -3.4317    1.0000 </r>
       <r>   -3.2354    1.0000 </r>
       <r>   -3.0596    1.0000 </r>
       <r>   -2.9403    1.0000 </r>
       <r>   -2.8419    1.0000 </r>
       <r>   -2.7307    1.0000 </r>
       <r>   -2.5648    1.0000 </r>
       <r>   -2.4250    1.0000 </r>
       <r>   -2.0084    1.0000 </r>
       <r>   -1.8807    1.0000 </r>
       <r>   -1.8500    1.0000 </r>
       <r>   -1.6968    1.0000 </r>
       <r>   -1.6154    1.0000 </r>
       <r>   -1.5217    1.0000 </r>
       <r>   -1.2972    1.0000 </r>
       <r>   -1.2058    1.0000 </r>
       <r>   -0.9843    1.0000 </r>
       <r>   -0.8088    1.0000 </r>
       <r>   -0.3304    1.0000 </r>
       <r>   -0.0395    0.8192 </r>
       <r>    0.4301    0.0000 </r>
       <r>    1.1067    0.0000 </r>
       <r>    1.3473    0.0000 </r>
       <r>    1.6215    0.0000 </r>
       <r>    1.6759    0.0000 </r>
       <r>    1.9389    0.0000 </r>
       <r>    1.9931    0.0000 </r>
       <r>    2.2194    0.0000 </r>
       <r>    2.3246    0.0000 </r>
       <r>    2.4207    0.0000 </r>
       <r>    2.6379    0.0000 </r>
       <r>    2.7086    0.0000 </r>
       <r>    2.7751    0.0000 </r>
      </set>
      <set comment="kpoint 18">
       <r>  -13.6044    1.0000 </r>
       <r>  -12.9677    1.0000 </r>
       <r>  -12.5901    1.0000 </r>
       <r>  -12.3277    1.0000 </r>
       <r>  -12.2509    1.0000 </r>
       <r>  -11.9732    1.0000 </r>
       <r>  -11.5149    1.0000 </r>
       <r>  -11.3994    1.0000 </r>
       <r>  -11.0073    1.0000 </r>
       <r>  -10.9537    1.0000 </r>
       <r>  -10.5764    1.0000 </r>
       <r>   -9.8787    1.0000 </r>
       <r>   -8.4094    1.0000 </r>
       <r>   -8.3615    1.0000 </r>
       <r>   -7.9212    1.0000 </r>
       <r>   -7.7576    1.0000 </r>
       <r>   -7.1835    1.0000 </r>
       <r>   -6.9633    1.0000 </r>
       <r>   -6.6686    1.0000 </r>
       <r>   -6.6144    1.0000 </r>
       <r>   -6.2728    1.0000 </r>
       <r>   -5.9099    1.0000 </r>
       <r>   -5.7179    1.0000 </r>
       <r>   -5.6178    1.0000 </r>
       <r>   -5.3099    1.0000 </r>
       <r>   -4.8108    1.0000 </r>
       <r>   -4.7312    1.0000 </r>
       <r>   -4.5785    1.0000 </r>
       <r>   -4.4989    1.0000 </r>
       <r>   -4.4131    1.0000 </r>
       <r>   -4.2078    1.0000 </r>
       <r>   -4.1564    1.0000 </r>
       <r>   -3.8688    1.0000 </r>
       <r>   -3.7583    1.0000 </r>
       <r>   -3.5597    1.0000 </r>
       <r>   -3.4238    1.0000 </r>
       <r>   -3.1239    1.0000 </r>
       <r>   -3.0142    1.0000 </r>
       <r>   -2.9704    1.0000 </r>
       <r>   -2.7291    1.0000 </r>
       <r>   -2.5766    1.0000 </r>
       <r>   -2.4251    1.0000 </r>
       <r>   -2.4098    1.0000 </r>
[...]
       <r>    2.7121    0.0000 </r>
      </set>
      <set comment="kpoint 54">
       <r>  -12.4924    1.0000 </r>
       <r>  -11.4671    1.0000 </r>
       <r>  -11.4113    1.0000 </r>
       <r>  -11.2999    1.0000 </r>
       <r>  -11.1448    1.0000 </r>
       <r>  -11.0424    1.0000 </r>
       <r>  -10.9294    1.0000 </r>
       <r>  -10.8374    1.0000 </r>
       <r>  -10.8240    1.0000 </r>
       <r>  -10.6981    1.0000 </r>
       <r>  -10.5998    1.0000 </r>
       <r>   -9.7315    1.0000 </r>
       <r>   -8.7618    1.0000 </r>
       <r>   -8.6421    1.0000 </r>
       <r>   -8.4851    1.0000 </r>
       <r>   -8.4124    1.0000 </r>
       <r>   -8.2188    1.0000 </r>
       <r>   -8.0952    1.0000 </r>
       <r>   -7.6919    1.0000 </r>
       <r>   -7.5376    1.0000 </r>
       <r>   -7.3571    1.0000 </r>
       <r>   -7.2653    1.0000 </r>
       <r>   -7.1456    1.0000 </r>
       <r>   -6.7263    1.0000 </r>
       <r>   -5.9362    1.0000 </r>
       <r>   -5.6300    1.0000 </r>
       <r>   -4.9407    1.0000 </r>
       <r>   -4.8205    1.0000 </r>
       <r>   -4.4808    1.0000 </r>
       <r>   -4.3891    1.0000 </r>
       <r>   -4.2327    1.0000 </r>
       <r>   -4.0580    1.0000 </r>
       <r>   -3.9269    1.0000 </r>
       <r>   -3.9024    1.0000 </r>
       <r>   -3.7436    1.0000 </r>
       <r>   -3.6297    1.0000 </r>
       <r>   -3.5334    1.0000 </r>
       <r>   -3.2977    1.0000 </r>
       <r>   -3.2328    1.0000 </r>
       <r>   -3.0082    1.0000 </r>
       <r>   -2.6918    1.0000 </r>
       <r>   -2.6732    1.0000 </r>
       <r>   -2.5620    1.0000 </r>
       <r>   -2.3462    1.0000 </r>
       <r>   -2.1793    1.0000 </r>
       <r>   -2.0930    1.0000 </r>
       <r>   -2.0150    1.0000 </r>
       <r>   -1.8358    1.0000 </r>
       <r>   -1.6965    1.0000 </r>
       <r>   -1.5949    1.0000 </r>
       <r>   -1.4863    1.0000 </r>
       <r>   -1.1844    1.0000 </r>
       <r>   -0.8178    1.0000 </r>
       <r>   -0.4466    1.0000 </r>
       <r>   -0.0401    0.8213 </r>
       <r>    0.4148    0.0000 </r>
       <r>    0.8021    0.0000 </r>
       <r>    1.1199    0.0000 </r>
       <r>    1.2478    0.0000 </r>
       <r>    1.3840    0.0000 </r>
       <r>    1.6198    0.0000 </r>
       <r>    1.6760    0.0000 </r>
       <r>    1.8630    0.0000 </r>
       <r>    1.9471    0.0000 </r>
       <r>    2.0529    0.0000 </r>
       <r>    2.1261    0.0000 </r>
       <r>    2.3756    0.0000 </r>
       <r>    2.4978    0.0000 </r>
      </set>
     </set>
    </set>
   </array>
  </eigenvalues>
  <separator name="orbital magnetization" >
   <v name="MAGDIPOLOUT">      0.00000000      0.00000000      0.00000000</v>
  </separator>
  <dos>
   <i name="efermi">      0.02498562 </i>
   <total>
    <array>
     <dimension dim="1">gridpoints</dimension>
     <dimension dim="2">spin</dimension>
     <field>energy</field>
     <field>total</field>
     <field>integrated</field>
     <set>
      <set comment="spin 1">
       <r>   -15.0997     0.0000     0.0000 </r>
       <r>   -15.0357     0.0000     0.0000 </r>
       <r>   -14.9717     0.0000     0.0000 </r>
       <r>   -14.9077     0.0000     0.0000 </r>
       <r>   -14.8437     0.0000     0.0000 </r>
       <r>   -14.7797     0.0000     0.0000 </r>
       <r>   -14.7157     0.0000     0.0000 </r>
       <r>   -14.6517     0.0000     0.0000 </r>
       <r>   -14.5876     0.0000     0.0000 </r>
       <r>   -14.5236     0.0000     0.0000 </r>
       <r>   -14.4596     0.0000     0.0000 </r>
       <r>   -14.3956     0.0000     0.0000 </r>
       <r>   -14.3316     0.0008     0.0001 </r>
       <r>   -14.2676     0.0160     0.0011 </r>
       <r>   -14.2036     0.1523     0.0108 </r>
       <r>   -14.1396     0.7299     0.0576 </r>
       <r>   -14.0756     1.8189     0.1740 </r>
       <r>   -14.0116     2.4365     0.3299 </r>
       <r>   -13.9475     2.0759     0.4628 </r>
       <r>   -13.8835     1.8635     0.5821 </r>
       <r>   -13.8195     1.7189     0.6921 </r>
       <r>   -13.7555     0.9919     0.7556 </r>
       <r>   -13.6915     0.6417     0.7967 </r>
       <r>   -13.6275     1.2660     0.8777 </r>
       <r>   -13.5635     1.9675     1.0037 </r>
       <r>   -13.4995     2.0259     1.1334 </r>
       <r>   -13.4355     2.0480     1.2645 </r>
       <r>   -13.3714     2.2295     1.4072 </r>
       <r>   -13.3074     2.7468     1.5830 </r>
       <r>   -13.2434     3.8204     1.8275 </r>
       <r>   -13.1794     4.4046     2.1095 </r>
       <r>   -13.1154     4.0258     2.3672 </r>
       <r>   -13.0514     3.5905     2.5970 </r>
       <r>   -12.9874     3.9676     2.8510 </r>
       <r>   -12.9234     4.9645     3.1688 </r>
       <r>   -12.8594     5.8247     3.5416 </r>
       <r>   -12.7953     5.7085     3.9070 </r>
       <r>   -12.7313     4.5653     4.1992 </r>
       <r>   -12.6673     4.0088     4.4558 </r>
       <r>   -12.6033     5.0380     4.7783 </r>
       <r>   -12.5393     6.8136     5.2145 </r>
       <r>   -12.4753     7.5973     5.7008 </r>
       <r>   -12.4113     6.9932     6.1484 </r>
       <r>   -12.3473     6.1324     6.5410 </r>
       <r>   -12.2833     5.9338     6.9208 </r>
       <r>   -12.2192     5.7525     7.2890 </r>
       <r>   -12.1552     4.7686     7.5943 </r>
       <r>   -12.0912     4.2030     7.8633 </r>
       <r>   -12.0272     5.1620     8.1937 </r>
       <r>   -11.9632     6.7180     8.6238 </r>
       <r>   -11.8992     7.4620     9.1014 </r>
       <r>   -11.8352     6.9840     9.5484 </r>
       <r>   -11.7712     6.1245     9.9405 </r>
       <r>   -11.7072     5.7348    10.3076 </r>
       <r>   -11.6431     6.2070    10.7049 </r>
       <r>   -11.5791     7.1250    11.1610 </r>
       <r>   -11.5151     8.0761    11.6779 </r>
       <r>   -11.4511     9.3615    12.2772 </r>
       <r>   -11.3871     9.8095    12.9051 </r>
       <r>   -11.3231     9.1769    13.4925 </r>
       <r>   -11.2591     9.6456    14.1099 </r>
       <r>   -11.1951    10.1974    14.7627 </r>
       <r>   -11.1311     9.3144    15.3589 </r>
       <r>   -11.0671     9.1885    15.9470 </r>
       <r>   -11.0030    10.4507    16.6160 </r>
       <r>   -10.9390    10.9452    17.3166 </r>
       <r>   -10.8750    10.3676    17.9803 </r>
       <r>   -10.8110    10.9669    18.6823 </r>
       <r>   -10.7470    11.9294    19.4459 </r>
       <r>   -10.6830    10.7255    20.1324 </r>
       <r>   -10.6190     8.5280    20.6783 </r>
       <r>   -10.5550     6.5799    21.0995 </r>
       <r>   -10.4910     4.5775    21.3925 </r>
       <r>   -10.4269     3.6433    21.6257 </r>
       <r>   -10.3629     3.2277    21.8323 </r>
       <r>   -10.2989     1.9088    21.9545 </r>
       <r>   -10.2349     0.6314    21.9949 </r>
       <r>   -10.1709     0.3294    22.0160 </r>
       <r>   -10.1069     1.0864    22.0855 </r>
       <r>   -10.0429     2.6595    22.2558 </r>
       <r>    -9.9789     3.8764    22.5039 </r>
       <r>    -9.9149     4.2344    22.7750 </r>
       <r>    -9.8508     4.7543    23.0793 </r>
       <r>    -9.7868     5.4917    23.4308 </r>
       <r>    -9.7228     4.9575    23.7481 </r>
       <r>    -9.6588     2.8467    23.9304 </r>
       <r>    -9.5948     0.9199    23.9893 </r>
       <r>    -9.5308     0.1546    23.9991 </r>
       <r>    -9.4668     0.0128    24.0000 </r>
       <r>    -9.4028     0.0005    24.0000 </r>
       <r>    -9.3388     0.0000    24.0000 </r>
       <r>    -9.2747     0.0000    24.0000 </r>
       <r>    -9.2107     0.0002    24.0000 </r>
       <r>    -9.1467     0.0051    24.0003 </r>
       <r>    -9.0827     0.0625    24.0043 </r>
       <r>    -9.0187     0.3797    24.0286 </r>
       <r>    -8.9547     1.2103    24.1061 </r>
       <r>    -8.8907     2.3631    24.2574 </r>
       <r>    -8.8267     3.7928    24.5002 </r>
       <r>    -8.7627     5.8986    24.8777 </r>
       <r>    -8.6987     7.7762    25.3755 </r>
       <r>    -8.6346     8.4448    25.9161 </r>
       <r>    -8.5706     8.7974    26.4792 </r>
       <r>    -8.5066     9.8412    27.1091 </r>
       <r>    -8.4426    10.5009    27.7813 </r>
       <r>    -8.3786     9.2968    28.3764 </r>
       <r>    -8.3146     6.9093    28.8187 </r>
       <r>    -8.2506     5.1856    29.1506 </r>
       <r>    -8.1866     4.9103    29.4649 </r>
       <r>    -8.1226     4.7062    29.7662 </r>
       <r>    -8.0585     4.0804    30.0274 </r>
       <r>    -7.9945     3.5831    30.2567 </r>
       <r>    -7.9305     3.3605    30.4718 </r>
       <r>    -7.8665     3.7475    30.7117 </r>
       <r>    -7.8025     5.4442    31.0602 </r>
       <r>    -7.7385     7.7561    31.5567 </r>
       <r>    -7.6745     8.3135    32.0888 </r>
       <r>    -7.6105     6.7277    32.5195 </r>
       <r>    -7.5465     5.2647    32.8565 </r>
       <r>    -7.4824     5.3427    33.1984 </r>
       <r>    -7.4184     6.7575    33.6310 </r>
       <r>    -7.3544     8.8099    34.1949 </r>
       <r>    -7.2904    10.2525    34.8512 </r>
       <r>    -7.2264    10.3910    35.5163 </r>
       <r>    -7.1624     9.6134    36.1317 </r>
       <r>    -7.0984     8.7563    36.6922 </r>
       <r>    -7.0344     7.8920    37.1974 </r>
       <r>    -6.9704     6.9472    37.6421 </r>
       <r>    -6.9063     6.2305    38.0409 </r>
       <r>    -6.8423     5.9244    38.4201 </r>
       <r>    -6.7783     7.0438    38.8710 </r>
       <r>    -6.7143    10.1890    39.5232 </r>
       <r>    -6.6503    13.0846    40.3608 </r>
       <r>    -6.5863    12.2919    41.1476 </r>
       <r>    -6.5223     8.1958    41.6722 </r>
       <r>    -6.4583     4.6475    41.9697 </r>
       <r>    -6.3943     3.2737    42.1792 </r>
       <r>    -6.3302     3.6414    42.4123 </r>
       <r>    -6.2662     4.7643    42.7173 </r>
       <r>    -6.2022     6.0276    43.1031 </r>
       <r>    -6.1382     7.1259    43.5593 </r>
       <r>    -6.0742     6.9080    44.0014 </r>
       <r>    -6.0102     5.9286    44.3809 </r>
       <r>    -5.9462     6.9387    44.8251 </r>
       <r>    -5.8822     8.6850    45.3810 </r>
       <r>    -5.8182     7.9391    45.8892 </r>
       <r>    -5.7542     6.4594    46.3027 </r>
       <r>    -5.6901     7.0012    46.7508 </r>
       <r>    -5.6261     8.7788    47.3128 </r>
       <r>    -5.5621     9.4812    47.9197 </r>
       <r>    -5.4981     7.6540    48.4096 </r>
       <r>    -5.4341     4.4592    48.6950 </r>
       <r>    -5.3701     2.7640    48.8720 </r>
       <r>    -5.3061     3.1552    49.0739 </r>
       <r>    -5.2421     4.0684    49.3344 </r>
       <r>    -5.1781     4.7709    49.6397 </r>
       <r>    -5.1140     4.7866    49.9461 </r>
       <r>    -5.0500     4.5391    50.2367 </r>
       <r>    -4.9860     5.3019    50.5761 </r>
       <r>    -4.9220     6.8982    51.0176 </r>
       <r>    -4.8580     8.4975    51.5616 </r>
       <r>    -4.7940     9.5535    52.1731 </r>
       <r>    -4.7300     9.5865    52.7867 </r>
       <r>    -4.6660     9.1923    53.3751 </r>
       <r>    -4.6020     9.1535    53.9611 </r>
       <r>    -4.5379     9.9343    54.5970 </r>
       <r>    -4.4739    11.7799    55.3510 </r>
       <r>    -4.4099    12.7957    56.1701 </r>
       <r>    -4.3459    12.1870    56.9502 </r>
       <r>    -4.2819    11.7905    57.7049 </r>
       <r>    -4.2179    12.0618    58.4770 </r>
       <r>    -4.1539    11.6323    59.2216 </r>
       <r>    -4.0899    10.8169    59.9140 </r>
       <r>    -4.0259    10.9043    60.6119 </r>
       <r>    -3.9618    11.7300    61.3628 </r>
       <r>    -3.8978    12.3139    62.1510 </r>
       <r>    -3.8338    11.6900    62.8993 </r>
       <r>    -3.7698    10.7473    63.5872 </r>
       <r>    -3.7058    11.3053    64.3109 </r>
       <r>    -3.6418    12.9881    65.1423 </r>
       <r>    -3.5778    13.6271    66.0146 </r>
       <r>    -3.5138    12.1745    66.7939 </r>
       <r>    -3.4498    10.8923    67.4911 </r>
       <r>    -3.3858    11.5083    68.2278 </r>
       <r>    -3.3217    13.4918    69.0914 </r>
       <r>    -3.2577    14.8245    70.0403 </r>
       <r>    -3.1937    14.4363    70.9644 </r>
       <r>    -3.1297    14.0261    71.8622 </r>
       <r>    -3.0657    15.0789    72.8274 </r>
       <r>    -3.0017    15.9080    73.8457 </r>
       <r>    -2.9377    14.9790    74.8045 </r>
       <r>    -2.8737    13.4892    75.6680 </r>
       <r>    -2.8097    12.8087    76.4879 </r>
       <r>    -2.7456    13.3638    77.3433 </r>
       <r>    -2.6816    14.4550    78.2686 </r>
       <r>    -2.6176    14.5530    79.2001 </r>
       <r>    -2.5536    14.3389    80.1180 </r>
       <r>    -2.4896    14.1936    81.0265 </r>
       <r>    -2.4256    14.0571    81.9263 </r>
       <r>    -2.3616    14.3408    82.8443 </r>
       <r>    -2.2976    14.1273    83.7486 </r>
       <r>    -2.2336    13.1839    84.5925 </r>
       <r>    -2.1695    12.8930    85.4178 </r>
       <r>    -2.1055    13.4020    86.2757 </r>
       <r>    -2.0415    13.5746    87.1446 </r>
       <r>    -1.9775    14.2102    88.0542 </r>
       <r>    -1.9135    16.0409    89.0810 </r>
       <r>    -1.8495    18.1669    90.2439 </r>
       <r>    -1.7855    19.2770    91.4778 </r>
       <r>    -1.7215    19.0231    92.6955 </r>
       <r>    -1.6575    16.7682    93.7688 </r>
       <r>    -1.5934    13.1361    94.6097 </r>
       <r>    -1.5294    10.9714    95.3120 </r>
       <r>    -1.4654    11.4537    96.0451 </r>
       <r>    -1.4014    12.7795    96.8632 </r>
       <r>    -1.3374    13.2190    97.7093 </r>
       <r>    -1.2734    13.1658    98.5521 </r>
       <r>    -1.2094    13.4859    99.4153 </r>
       <r>    -1.1454    13.0521   100.2508 </r>
       <r>    -1.0814    11.4670   100.9848 </r>
       <r>    -1.0173    10.8672   101.6804 </r>
       <r>    -0.9533    11.1605   102.3948 </r>
       <r>    -0.8893    11.4353   103.1268 </r>
       <r>    -0.8253    10.5557   103.8025 </r>
       <r>    -0.7613     7.2535   104.2668 </r>
       <r>    -0.6973     3.7986   104.5099 </r>
       <r>    -0.6333     3.1261   104.7100 </r>
       <r>    -0.5693     4.0272   104.9678 </r>
       <r>    -0.5053     4.5920   105.2618 </r>
       <r>    -0.4413     4.8427   105.5718 </r>
       <r>    -0.3772     4.6329   105.8683 </r>
       <r>    -0.3132     3.8213   106.1129 </r>
       <r>    -0.2492     3.7386   106.3522 </r>
       <r>    -0.1852     4.7642   106.6572 </r>
       <r>    -0.1212     5.7490   107.0252 </r>
       <r>    -0.0572     6.4044   107.4351 </r>
       <r>     0.0068     6.8497   107.8736 </r>
       <r>     0.0708     6.9031   108.3155 </r>
       <r>     0.1348     6.1916   108.7118 </r>
       <r>     0.1989     4.4664   108.9977 </r>
       <r>     0.2629     2.9646   109.1875 </r>
       <r>     0.3269     3.0686   109.3839 </r>
       <r>     0.3909     5.0538   109.7074 </r>
       <r>     0.4549     7.8217   110.2080 </r>
       <r>     0.5189     8.5206   110.7535 </r>
       <r>     0.5829     6.0260   111.1392 </r>
       <r>     0.6469     3.9528   111.3922 </r>
       <r>     0.7109     4.3422   111.6702 </r>
       <r>     0.7750     4.6724   111.9692 </r>
       <r>     0.8390     3.4918   112.1928 </r>
       <r>     0.9030     2.4613   112.3503 </r>
       <r>     0.9670     3.3515   112.5648 </r>
       <r>     1.0310     5.3702   112.9086 </r>
       <r>     1.0950     7.1542   113.3665 </r>
       <r>     1.1590     8.4956   113.9103 </r>
       <r>     1.2230     9.4409   114.5147 </r>
       <r>     1.2870    10.4828   115.1857 </r>
       <r>     1.3511    11.1409   115.8988 </r>
       <r>     1.4151    10.6990   116.5837 </r>
       <r>     1.4791     9.6558   117.2017 </r>
       <r>     1.5431     9.7279   117.8244 </r>
       <r>     1.6071    11.8296   118.5817 </r>
       <r>     1.6711    13.6113   119.4529 </r>
       <r>     1.7351    14.0067   120.3495 </r>
       <r>     1.7991    14.5590   121.2814 </r>
       <r>     1.8631    14.3894   122.2025 </r>
       <r>     1.9271    12.7267   123.0172 </r>
       <r>     1.9912    11.2356   123.7364 </r>
       <r>     2.0552    11.6122   124.4797 </r>
       <r>     2.1192    13.5768   125.3487 </r>
       <r>     2.1832    14.8971   126.3023 </r>
       <r>     2.2472    15.1301   127.2708 </r>
       <r>     2.3112    15.2602   128.2476 </r>
       <r>     2.3752    14.4986   129.1757 </r>
       <r>     2.4392    12.6915   129.9881 </r>
       <r>     2.5032    11.1135   130.6995 </r>
       <r>     2.5673    10.6130   131.3788 </r>
       <r>     2.6313    11.2355   132.0980 </r>
       <r>     2.6953    11.7709   132.8515 </r>
       <r>     2.7593    11.0242   133.5571 </r>
       <r>     2.8233     9.3323   134.1545 </r>
       <r>     2.8873     7.7068   134.6478 </r>
       <r>     2.9513     6.6667   135.0746 </r>
       <r>     3.0153     5.9124   135.4530 </r>
       <r>     3.0793     4.6093   135.7481 </r>
       <r>     3.1434     2.6932   135.9205 </r>
       <r>     3.2074     1.0074   135.9849 </r>
       <r>     3.2714     0.2112   135.9985 </r>
       <r>     3.3354     0.0228   135.9999 </r>
       <r>     3.3994     0.0012   136.0000 </r>
       <r>     3.4634     0.0000   136.0000 </r>
       <r>     3.5274     0.0000   136.0000 </r>
       <r>     3.5914     0.0000   136.0000 </r>
       <r>     3.6554     0.0000   136.0000 </r>
       <r>     3.7195     0.0000   136.0000 </r>
       <r>     3.7835     0.0000   136.0000 </r>
       <r>     3.8475     0.0000   136.0000 </r>
       <r>     3.9115     0.0000   136.0000 </r>
       <r>     3.9755     0.0000   136.0000 </r>
       <r>     4.0395     0.0000   136.0000 </r>
       <r>     4.1035     0.0000   136.0000 </r>
      </set>
     </set>
    </array>
   </total>
  </dos>
 </calculation>
 <structure name="finalpos" >
  <crystal>
   <varray name="basis" >
    <v>       3.54040000       0.00000000       0.00000000 </v>
    <v>      -1.77020000      10.29434800       0.00000000 </v>
    <v>       0.00000000       0.00000000      27.50142900 </v>
   </varray>
   <i name="volume">   1002.32009712 </i>
   <varray name="rec_basis" >
    <v>       0.28245396       0.04857034       0.00000000 </v>
    <v>       0.00000000       0.09714068       0.00000000 </v>
    <v>       0.00000000       0.00000000       0.03636175 </v>
   </varray>
  </crystal>
  <varray name="positions" >
   <v>       0.11402300       0.22804500       0.23316207 </v>
   <v>       0.81402300       0.72804500       0.51499159 </v>
   <v>       0.45808900       0.91617900       0.20939482 </v>
   <v>       0.15808900       0.41617900       0.49122434 </v>
   <v>       0.31085400       0.62170900       0.08414979 </v>
   <v>       0.31085400       0.62170900       0.36597930 </v>
   <v>       0.99923000       0.99846000       0.08631254 </v>
   <v>       0.99923000       0.99846000       0.36814206 </v>
   <v>       0.65492700       0.30985400       0.06041748 </v>
   <v>       0.65492700       0.30985400       0.34224700 </v>
   <v>       0.76973800       0.53947500       0.20725292 </v>
   <v>       0.46973800       0.03947500       0.48908244 </v>
   <v>       0.93971600       0.87943300       0.15783749 </v>
   <v>       0.63971600       0.37943300       0.43966701 </v>
   <v>       0.20515200       0.41030300       0.18578822 </v>
   <v>       0.90515200       0.91030300       0.46761774 </v>
   <v>       0.20184900       0.40369900       0.09969156 </v>
   <v>       0.20184900       0.40369900       0.38152107 </v>
   <v>       0.56380500       0.12761000       0.10779021 </v>
   <v>       0.56380500       0.12761000       0.38961973 </v>
   <v>       0.56710600       0.13421200       0.19387616 </v>
   <v>       0.26710600       0.63421200       0.47570568 </v>
   <v>       0.82923400       0.65846800       0.13571444 </v>
   <v>       0.52923400       0.15846800       0.41754396 </v>
  </varray>
 </structure>
</modeling>
