   3   3   0   0
  0.6797537E+02  0.3190643E-09  0.3190643E-09  0.2313053E-08  0.5000000E-15
  1.000000000000000E-004
  CAR 
 unknown system                          
      9.27697620    -40.52288717  301     -3.12579612      1.00000000
    -40.523  0.0000E+00  0.0000E+00  0.0000E+00  0.0000E+00
    -40.357  0.0000E+00  0.0000E+00  0.0000E+00  0.0000E+00
    -40.191  0.0000E+00  0.0000E+00  0.0000E+00  0.0000E+00
    -40.025  0.0000E+00  0.0000E+00  0.0000E+00  0.0000E+00
    -39.859  0.0000E+00  0.0000E+00  0.0000E+00  0.0000E+00
    -39.693  0.0000E+00  0.0000E+00  0.0000E+00  0.0000E+00
    -39.527  0.0000E+00  0.0000E+00  0.0000E+00  0.0000E+00
    -39.361  0.0000E+00  0.0000E+00  0.0000E+00  0.0000E+00
    -39.195 -0.1999E-39 -0.1999E-39 -0.3318E-40 -0.3318E-40
    -39.029 -0.3436E-27 -0.3435E-27 -0.5703E-28 -0.5703E-28
    -38.863 -0.2365E-17 -0.2365E-17 -0.3927E-18 -0.3927E-18
    -38.697 -0.6266E-10 -0.6266E-10 -0.1040E-10 -0.1040E-10
    -38.531 -0.6694E-05 -0.6694E-05 -0.1111E-05 -0.1111E-05
    -38.365 -0.1893E-02 -0.1893E-02 -0.3154E-03 -0.3154E-03
    -38.199  0.4364E-01  0.4364E-01  0.6929E-02  0.6929E-02
    -38.033  0.1672E+00  0.1672E+00  0.3468E-01  0.3468E-01
    -37.867  0.1554E+00  0.1553E+00  0.6047E-01  0.6047E-01
    -37.701 -0.2729E-02 -0.2728E-02  0.6002E-01  0.6002E-01
    -37.535 -0.1049E-03 -0.1049E-03  0.6000E-01  0.6000E-01
    -37.369 -0.6533E-08 -0.6533E-08  0.6000E-01  0.6000E-01
    -37.203 -0.1587E-14 -0.1587E-14  0.6000E-01  0.6000E-01
    -37.037  0.0000E+00  0.0000E+00  0.6000E-01  0.6000E-01
    -36.871  0.0000E+00  0.0000E+00  0.6000E-01  0.6000E-01
    -36.705  0.0000E+00  0.0000E+00  0.6000E-01  0.6000E-01
    -36.539  0.0000E+00  0.0000E+00  0.6000E-01  0.6000E-01
    -36.373  0.0000E+00  0.0000E+00  0.6000E-01  0.6000E-01
    -36.207  0.0000E+00  0.0000E+00  0.6000E-01  0.6000E-01
    -36.041  0.0000E+00  0.0000E+00  0.6000E-01  0.6000E-01
    -35.875  0.0000E+00  0.0000E+00  0.6000E-01  0.6000E-01
    -35.709  0.0000E+00  0.0000E+00  0.6000E-01  0.6000E-01
    -35.543  0.0000E+00  0.0000E+00  0.6000E-01  0.6000E-01
    -35.377  0.0000E+00  0.0000E+00  0.6000E-01  0.6000E-01
    -35.211  0.0000E+00  0.0000E+00  0.6000E-01  0.6000E-01
    -35.045  0.0000E+00  0.0000E+00  0.6000E-01  0.6000E-01
    -34.879  0.0000E+00  0.0000E+00  0.6000E-01  0.6000E-01
    -34.713  0.0000E+00  0.0000E+00  0.6000E-01  0.6000E-01
    -34.547  0.0000E+00  0.0000E+00  0.6000E-01  0.6000E-01
    -34.381  0.0000E+00  0.0000E+00  0.6000E-01  0.6000E-01
    -34.215  0.0000E+00  0.0000E+00  0.6000E-01  0.6000E-01
    -34.049  0.0000E+00  0.0000E+00  0.6000E-01  0.6000E-01
    -33.883  0.0000E+00  0.0000E+00  0.6000E-01  0.6000E-01
    -33.717  0.0000E+00  0.0000E+00  0.6000E-01  0.6000E-01
    -33.551  0.0000E+00  0.0000E+00  0.6000E-01  0.6000E-01
    -33.385  0.0000E+00  0.0000E+00  0.6000E-01  0.6000E-01
    -33.219  0.0000E+00  0.0000E+00  0.6000E-01  0.6000E-01
    -33.053  0.0000E+00  0.0000E+00  0.6000E-01  0.6000E-01
    -32.887  0.0000E+00  0.0000E+00  0.6000E-01  0.6000E-01
    -32.721  0.0000E+00  0.0000E+00  0.6000E-01  0.6000E-01
    -32.555  0.0000E+00  0.0000E+00  0.6000E-01  0.6000E-01
    -32.389  0.0000E+00  0.0000E+00  0.6000E-01  0.6000E-01
    -32.223  0.0000E+00  0.0000E+00  0.6000E-01  0.6000E-01
    -32.057  0.0000E+00  0.0000E+00  0.6000E-01  0.6000E-01
    -31.891  0.0000E+00  0.0000E+00  0.6000E-01  0.6000E-01
    -31.725  0.0000E+00  0.0000E+00  0.6000E-01  0.6000E-01
    -31.559  0.0000E+00  0.0000E+00  0.6000E-01  0.6000E-01
    -31.393  0.0000E+00  0.0000E+00  0.6000E-01  0.6000E-01
    -31.227  0.0000E+00  0.0000E+00  0.6000E-01  0.6000E-01
    -31.061  0.0000E+00  0.0000E+00  0.6000E-01  0.6000E-01
    -30.895  0.0000E+00  0.0000E+00  0.6000E-01  0.6000E-01
    -30.729  0.0000E+00  0.0000E+00  0.6000E-01  0.6000E-01
    -30.563  0.0000E+00  0.0000E+00  0.6000E-01  0.6000E-01
    -30.397  0.0000E+00  0.0000E+00  0.6000E-01  0.6000E-01
    -30.231  0.0000E+00  0.0000E+00  0.6000E-01  0.6000E-01
    -30.065  0.0000E+00  0.0000E+00  0.6000E-01  0.6000E-01
    -29.899  0.0000E+00  0.0000E+00  0.6000E-01  0.6000E-01
    -29.733  0.0000E+00  0.0000E+00  0.6000E-01  0.6000E-01
    -29.567  0.0000E+00  0.0000E+00  0.6000E-01  0.6000E-01
    -29.401  0.0000E+00  0.0000E+00  0.6000E-01  0.6000E-01
    -29.235  0.0000E+00  0.0000E+00  0.6000E-01  0.6000E-01
    -29.069  0.0000E+00  0.0000E+00  0.6000E-01  0.6000E-01
    -28.903  0.0000E+00  0.0000E+00  0.6000E-01  0.6000E-01
    -28.737  0.0000E+00  0.0000E+00  0.6000E-01  0.6000E-01
    -28.571  0.0000E+00  0.0000E+00  0.6000E-01  0.6000E-01
    -28.405  0.0000E+00  0.0000E+00  0.6000E-01  0.6000E-01
    -28.239  0.0000E+00  0.0000E+00  0.6000E-01  0.6000E-01
    -28.073  0.0000E+00  0.0000E+00  0.6000E-01  0.6000E-01
    -27.907  0.0000E+00  0.0000E+00  0.6000E-01  0.6000E-01
    -27.741  0.0000E+00  0.0000E+00  0.6000E-01  0.6000E-01
    -27.575  0.0000E+00  0.0000E+00  0.6000E-01  0.6000E-01
    -27.409  0.0000E+00  0.0000E+00  0.6000E-01  0.6000E-01
    -27.243  0.0000E+00  0.0000E+00  0.6000E-01  0.6000E-01
    -27.077  0.0000E+00  0.0000E+00  0.6000E-01  0.6000E-01
    -26.911  0.0000E+00  0.0000E+00  0.6000E-01  0.6000E-01
    -26.745  0.0000E+00  0.0000E+00  0.6000E-01  0.6000E-01
    -26.579  0.0000E+00  0.0000E+00  0.6000E-01  0.6000E-01
    -26.413  0.0000E+00  0.0000E+00  0.6000E-01  0.6000E-01
    -26.247  0.0000E+00  0.0000E+00  0.6000E-01  0.6000E-01
    -26.081  0.0000E+00  0.0000E+00  0.6000E-01  0.6000E-01
    -25.915  0.0000E+00  0.0000E+00  0.6000E-01  0.6000E-01
    -25.749  0.0000E+00  0.0000E+00  0.6000E-01  0.6000E-01
    -25.583  0.0000E+00  0.0000E+00  0.6000E-01  0.6000E-01
    -25.417  0.0000E+00  0.0000E+00  0.6000E-01  0.6000E-01
    -25.251  0.0000E+00  0.0000E+00  0.6000E-01  0.6000E-01
    -25.085  0.0000E+00  0.0000E+00  0.6000E-01  0.6000E-01
    -24.919  0.0000E+00  0.0000E+00  0.6000E-01  0.6000E-01
    -24.753  0.0000E+00  0.0000E+00  0.6000E-01  0.6000E-01
    -24.587  0.0000E+00  0.0000E+00  0.6000E-01  0.6000E-01
    -24.421  0.0000E+00  0.0000E+00  0.6000E-01  0.6000E-01
    -24.255  0.0000E+00  0.0000E+00  0.6000E-01  0.6000E-01
    -24.089  0.0000E+00  0.0000E+00  0.6000E-01  0.6000E-01
    -23.923  0.0000E+00  0.0000E+00  0.6000E-01  0.6000E-01
    -23.757  0.0000E+00  0.0000E+00  0.6000E-01  0.6000E-01
    -23.591  0.0000E+00  0.0000E+00  0.6000E-01  0.6000E-01
    -23.425  0.0000E+00  0.0000E+00  0.6000E-01  0.6000E-01
    -23.259  0.0000E+00  0.0000E+00  0.6000E-01  0.6000E-01
    -23.093  0.0000E+00  0.0000E+00  0.6000E-01  0.6000E-01
    -22.927  0.0000E+00  0.0000E+00  0.6000E-01  0.6000E-01
    -22.761  0.0000E+00  0.0000E+00  0.6000E-01  0.6000E-01
    -22.595  0.0000E+00  0.0000E+00  0.6000E-01  0.6000E-01
    -22.429  0.0000E+00  0.0000E+00  0.6000E-01  0.6000E-01
    -22.263  0.0000E+00  0.0000E+00  0.6000E-01  0.6000E-01
    -22.097  0.0000E+00  0.0000E+00  0.6000E-01  0.6000E-01
    -21.931  0.0000E+00  0.0000E+00  0.6000E-01  0.6000E-01
    -21.765  0.0000E+00  0.0000E+00  0.6000E-01  0.6000E-01
    -21.599  0.0000E+00  0.0000E+00  0.6000E-01  0.6000E-01
    -21.433  0.0000E+00  0.0000E+00  0.6000E-01  0.6000E-01
    -21.267  0.0000E+00  0.0000E+00  0.6000E-01  0.6000E-01
    -21.101  0.0000E+00  0.0000E+00  0.6000E-01  0.6000E-01
    -20.935  0.0000E+00  0.0000E+00  0.6000E-01  0.6000E-01
    -20.769  0.0000E+00  0.0000E+00  0.6000E-01  0.6000E-01
    -20.603  0.0000E+00  0.0000E+00  0.6000E-01  0.6000E-01
    -20.437  0.0000E+00  0.0000E+00  0.6000E-01  0.6000E-01
    -20.271  0.0000E+00  0.0000E+00  0.6000E-01  0.6000E-01
    -20.105  0.0000E+00  0.0000E+00  0.6000E-01  0.6000E-01
    -19.939  0.0000E+00  0.0000E+00  0.6000E-01  0.6000E-01
    -19.773  0.0000E+00  0.0000E+00  0.6000E-01  0.6000E-01
    -19.607  0.0000E+00  0.0000E+00  0.6000E-01  0.6000E-01
    -19.441  0.0000E+00  0.0000E+00  0.6000E-01  0.6000E-01
    -19.275  0.0000E+00  0.0000E+00  0.6000E-01  0.6000E-01
    -19.109  0.0000E+00  0.0000E+00  0.6000E-01  0.6000E-01
    -18.943  0.0000E+00  0.0000E+00  0.6000E-01  0.6000E-01
    -18.777  0.0000E+00  0.0000E+00  0.6000E-01  0.6000E-01
    -18.611  0.0000E+00  0.0000E+00  0.6000E-01  0.6000E-01
    -18.445  0.0000E+00  0.0000E+00  0.6000E-01  0.6000E-01
    -18.279  0.0000E+00  0.0000E+00  0.6000E-01  0.6000E-01
    -18.113  0.0000E+00  0.0000E+00  0.6000E-01  0.6000E-01
    -17.947 -0.1739E-39 -0.1740E-39  0.6000E-01  0.6000E-01
    -17.781 -0.1867E-27 -0.1868E-27  0.6000E-01  0.6000E-01
    -17.615 -0.7317E-18 -0.7319E-18  0.6000E-01  0.6000E-01
    -17.449 -0.1125E-10 -0.1125E-10  0.6000E-01  0.6000E-01
    -17.283 -0.5631E-06 -0.5632E-06  0.6000E-01  0.6000E-01
    -17.117 -0.7447E-04 -0.7447E-04  0.5999E-01  0.5999E-01
    -16.951  0.2364E-02  0.2364E-02  0.6038E-01  0.6038E-01
    -16.785  0.4411E-02  0.4411E-02  0.6111E-01  0.6111E-01
    -16.619  0.6615E-02  0.6614E-02  0.6221E-01  0.6221E-01
    -16.453  0.5081E-02  0.5081E-02  0.6305E-01  0.6305E-01
    -16.287  0.7032E-02  0.7031E-02  0.6422E-01  0.6422E-01
    -16.121  0.3625E-02  0.3625E-02  0.6482E-01  0.6482E-01
    -15.955  0.1067E-01  0.1067E-01  0.6659E-01  0.6659E-01
    -15.789  0.3944E-02  0.3944E-02  0.6725E-01  0.6725E-01
    -15.623  0.2248E-01  0.2248E-01  0.7098E-01  0.7098E-01
    -15.457  0.2042E-01  0.2042E-01  0.7437E-01  0.7437E-01
    -15.291  0.3542E-01  0.3542E-01  0.8025E-01  0.8025E-01
    -15.125  0.4214E-01  0.4214E-01  0.8725E-01  0.8725E-01
    -14.959  0.5779E-01  0.5779E-01  0.9684E-01  0.9684E-01
    -14.793  0.1969E-01  0.1969E-01  0.1001E+00  0.1001E+00
    -14.627 -0.6498E-03 -0.6498E-03  0.1000E+00  0.1000E+00
    -14.461 -0.6235E-05 -0.6234E-05  0.1000E+00  0.1000E+00
    -14.295 -0.1396E-09 -0.1395E-09  0.1000E+00  0.1000E+00
    -14.129 -0.1235E-16 -0.1235E-16  0.1000E+00  0.1000E+00
    -13.963  0.0000E+00  0.0000E+00  0.1000E+00  0.1000E+00
    -13.797  0.0000E+00  0.0000E+00  0.1000E+00  0.1000E+00
    -13.631  0.0000E+00  0.0000E+00  0.1000E+00  0.1000E+00
    -13.465  0.0000E+00  0.0000E+00  0.1000E+00  0.1000E+00
    -13.299  0.0000E+00  0.0000E+00  0.1000E+00  0.1000E+00
    -13.133  0.0000E+00  0.0000E+00  0.1000E+00  0.1000E+00
    -12.967  0.0000E+00  0.0000E+00  0.1000E+00  0.1000E+00
    -12.801  0.0000E+00  0.0000E+00  0.1000E+00  0.1000E+00
    -12.635  0.0000E+00  0.0000E+00  0.1000E+00  0.1000E+00
    -12.469  0.0000E+00  0.0000E+00  0.1000E+00  0.1000E+00
    -12.303  0.0000E+00  0.0000E+00  0.1000E+00  0.1000E+00
    -12.137  0.0000E+00  0.0000E+00  0.1000E+00  0.1000E+00
    -11.971  0.0000E+00  0.0000E+00  0.1000E+00  0.1000E+00
    -11.805  0.0000E+00  0.0000E+00  0.1000E+00  0.1000E+00
    -11.639  0.0000E+00  0.0000E+00  0.1000E+00  0.1000E+00
    -11.473  0.0000E+00  0.0000E+00  0.1000E+00  0.1000E+00
    -11.307  0.0000E+00  0.0000E+00  0.1000E+00  0.1000E+00
    -11.141  0.0000E+00  0.0000E+00  0.1000E+00  0.1000E+00
    -10.975  0.0000E+00  0.0000E+00  0.1000E+00  0.1000E+00
    -10.809  0.0000E+00  0.0000E+00  0.1000E+00  0.1000E+00
    -10.643  0.0000E+00  0.0000E+00  0.1000E+00  0.1000E+00
    -10.477  0.0000E+00  0.0000E+00  0.1000E+00  0.1000E+00
    -10.311  0.0000E+00  0.0000E+00  0.1000E+00  0.1000E+00
    -10.145  0.0000E+00  0.0000E+00  0.1000E+00  0.1000E+00
     -9.979  0.0000E+00  0.0000E+00  0.1000E+00  0.1000E+00
     -9.813  0.0000E+00  0.0000E+00  0.1000E+00  0.1000E+00
     -9.647 -0.6700E-39 -0.6699E-39  0.1000E+00  0.1000E+00
     -9.481 -0.7799E-27 -0.7798E-27  0.1000E+00  0.1000E+00
     -9.315 -0.3498E-17 -0.3498E-17  0.1000E+00  0.1000E+00
     -9.149 -0.5576E-10 -0.5576E-10  0.1000E+00  0.1000E+00
     -8.983 -0.3071E-05 -0.3071E-05  0.1000E+00  0.1000E+00
     -8.817 -0.2164E-03 -0.2164E-03  0.9996E-01  0.9996E-01
     -8.651  0.6834E-02  0.6834E-02  0.1011E+00  0.1011E+00
     -8.485  0.1537E-01  0.1537E-01  0.1036E+00  0.1036E+00
     -8.319  0.2163E-01  0.2163E-01  0.1072E+00  0.1072E+00
     -8.153  0.3055E-01  0.3055E-01  0.1123E+00  0.1123E+00
     -7.987  0.5498E-01  0.5498E-01  0.1214E+00  0.1214E+00
     -7.821  0.1694E-01  0.1694E-01  0.1242E+00  0.1242E+00
     -7.655  0.2786E-01  0.2786E-01  0.1289E+00  0.1289E+00
     -7.489  0.4680E-02  0.4680E-02  0.1297E+00  0.1297E+00
     -7.323  0.5870E-02  0.5870E-02  0.1306E+00  0.1306E+00
     -7.157  0.8377E-02  0.8377E-02  0.1320E+00  0.1320E+00
     -6.991  0.2576E-01  0.2576E-01  0.1363E+00  0.1363E+00
     -6.825  0.5576E-01  0.5576E-01  0.1455E+00  0.1455E+00
     -6.659  0.3707E-01  0.3706E-01  0.1517E+00  0.1517E+00
     -6.493  0.1510E-01  0.1510E-01  0.1542E+00  0.1542E+00
     -6.327  0.1827E-01  0.1827E-01  0.1572E+00  0.1572E+00
     -6.161  0.6097E-01  0.6097E-01  0.1674E+00  0.1674E+00
     -5.995  0.3326E-01  0.3326E-01  0.1729E+00  0.1729E+00
     -5.829  0.2209E-01  0.2209E-01  0.1765E+00  0.1765E+00
     -5.663  0.1056E-01  0.1056E-01  0.1783E+00  0.1783E+00
     -5.497  0.1622E-01  0.1622E-01  0.1810E+00  0.1810E+00
     -5.331  0.1453E-01  0.1453E-01  0.1834E+00  0.1834E+00
     -5.165  0.3168E-01  0.3168E-01  0.1887E+00  0.1887E+00
     -4.999  0.3087E-01  0.3087E-01  0.1938E+00  0.1938E+00
     -4.833  0.4369E-01  0.4369E-01  0.2010E+00  0.2010E+00
     -4.667  0.2794E-01  0.2794E-01  0.2057E+00  0.2057E+00
     -4.501  0.2910E-01  0.2910E-01  0.2105E+00  0.2105E+00
     -4.335  0.2061E-01  0.2061E-01  0.2139E+00  0.2139E+00
     -4.169  0.1932E-01  0.1932E-01  0.2171E+00  0.2171E+00
     -4.003  0.2476E-01  0.2476E-01  0.2212E+00  0.2212E+00
     -3.837  0.3094E-01  0.3094E-01  0.2264E+00  0.2264E+00
     -3.671  0.2948E-01  0.2948E-01  0.2313E+00  0.2313E+00
     -3.505  0.2406E-01  0.2406E-01  0.2353E+00  0.2353E+00
     -3.339  0.1356E-01  0.1356E-01  0.2375E+00  0.2375E+00
     -3.173  0.1354E-01  0.1354E-01  0.2398E+00  0.2398E+00
     -3.007  0.1444E-02  0.1444E-02  0.2400E+00  0.2400E+00
     -2.841 -0.6406E-04 -0.6406E-04  0.2400E+00  0.2400E+00
     -2.675 -0.2733E-07 -0.2733E-07  0.2400E+00  0.2400E+00
     -2.509 -0.4909E-13 -0.4911E-13  0.2400E+00  0.2400E+00
     -2.343 -0.3797E-37 -0.3803E-37  0.2400E+00  0.2400E+00
     -2.177 -0.2103E-25 -0.2105E-25  0.2400E+00  0.2400E+00
     -2.011 -0.4326E-16 -0.4330E-16  0.2400E+00  0.2400E+00
     -1.845 -0.3306E-09 -0.3308E-09  0.2400E+00  0.2400E+00
     -1.679 -0.7791E-05 -0.7794E-05  0.2400E+00  0.2400E+00
     -1.513  0.1135E-03  0.1136E-03  0.2400E+00  0.2400E+00
     -1.347  0.4171E-02  0.4171E-02  0.2407E+00  0.2407E+00
     -1.181  0.1384E-01  0.1384E-01  0.2430E+00  0.2430E+00
     -1.015  0.5492E-01  0.5492E-01  0.2521E+00  0.2521E+00
     -0.849  0.4260E-01  0.4260E-01  0.2592E+00  0.2592E+00
     -0.683  0.4549E-01  0.4549E-01  0.2667E+00  0.2667E+00
     -0.517  0.5651E-01  0.5651E-01  0.2761E+00  0.2761E+00
     -0.351  0.2624E-01  0.2624E-01  0.2805E+00  0.2805E+00
     -0.185  0.3878E-01  0.3878E-01  0.2869E+00  0.2869E+00
     -0.019  0.1510E-01  0.1510E-01  0.2894E+00  0.2894E+00
      0.147  0.3969E-01  0.3969E-01  0.2960E+00  0.2960E+00
      0.313  0.9609E-02  0.9610E-02  0.2976E+00  0.2976E+00
      0.479  0.2020E-01  0.2020E-01  0.3010E+00  0.3010E+00
      0.645  0.1214E-01  0.1214E-01  0.3030E+00  0.3030E+00
      0.811  0.1895E-01  0.1895E-01  0.3061E+00  0.3061E+00
      0.977  0.1908E-01  0.1908E-01  0.3093E+00  0.3093E+00
      1.143  0.3097E-01  0.3096E-01  0.3144E+00  0.3144E+00
      1.309  0.1560E-01  0.1560E-01  0.3170E+00  0.3170E+00
      1.475  0.1260E-01  0.1260E-01  0.3191E+00  0.3191E+00
      1.641  0.5133E-02  0.5133E-02  0.3200E+00  0.3200E+00
      1.807  0.1855E-03  0.2051E-03  0.3200E+00  0.3200E+00
      1.973  0.4227E-03  0.1146E-03  0.3201E+00  0.3200E+00
      2.139  0.6098E-02  0.2946E-02  0.3211E+00  0.3205E+00
      2.305  0.4466E-02  0.4811E-02  0.3218E+00  0.3213E+00
      2.471  0.1099E-01  0.8700E-02  0.3236E+00  0.3228E+00
      2.637  0.5081E-02  0.1284E-01  0.3245E+00  0.3249E+00
      2.803  0.6145E-02  0.6930E-02  0.3255E+00  0.3260E+00
      2.969  0.1376E-01  0.1629E-01  0.3278E+00  0.3287E+00
      3.135  0.1392E-01  0.1339E-01  0.3301E+00  0.3310E+00
      3.301  0.9711E-02  0.1744E-01  0.3317E+00  0.3339E+00
      3.467  0.2927E-01  0.2050E-01  0.3366E+00  0.3373E+00
      3.633  0.2743E-01  0.3490E-01  0.3411E+00  0.3431E+00
      3.799  0.2261E-01  0.1580E-01  0.3449E+00  0.3457E+00
      3.965  0.1319E-01  0.2066E-01  0.3471E+00  0.3491E+00
      4.131  0.4454E-01  0.4090E-01  0.3545E+00  0.3559E+00
      4.297  0.2173E-01  0.2299E-01  0.3581E+00  0.3597E+00
      4.463  0.1567E-01  0.9222E-02  0.3607E+00  0.3612E+00
      4.629  0.1986E-01  0.2758E-01  0.3640E+00  0.3658E+00
      4.795  0.1956E-01  0.2032E-01  0.3672E+00  0.3692E+00
      4.961  0.2572E-01  0.2040E-01  0.3715E+00  0.3726E+00
      5.127  0.4287E-01  0.4089E-01  0.3786E+00  0.3794E+00
      5.293  0.1603E-01  0.1394E-01  0.3813E+00  0.3817E+00
      5.459  0.2240E-01  0.2372E-01  0.3850E+00  0.3856E+00
      5.625  0.5003E-02  0.1058E-01  0.3858E+00  0.3874E+00
      5.791  0.3827E-01  0.3744E-01  0.3922E+00  0.3936E+00
      5.957  0.1284E-01  0.4557E-02  0.3943E+00  0.3943E+00
      6.123  0.1046E-02  0.2463E-03  0.3945E+00  0.3944E+00
      6.289  0.1486E-01  0.1386E-01  0.3969E+00  0.3967E+00
      6.455  0.1027E-01  0.1175E-01  0.3986E+00  0.3986E+00
      6.621  0.7988E-04 -0.9412E-04  0.3987E+00  0.3986E+00
      6.787  0.3960E-02  0.4124E-02  0.3993E+00  0.3993E+00
      6.953  0.6267E-03  0.2406E-03  0.3994E+00  0.3993E+00
      7.119  0.3688E-02  0.4068E-02  0.4000E+00  0.4000E+00
      7.285 -0.1509E-03 -0.1267E-03  0.4000E+00  0.4000E+00
      7.451 -0.7152E-06 -0.1785E-05  0.4000E+00  0.4000E+00
      7.617 -0.5173E-11 -0.2411E-10  0.4000E+00  0.4000E+00
      7.783  0.0000E+00 -0.9498E-18  0.4000E+00  0.4000E+00
      7.949  0.0000E+00  0.0000E+00  0.4000E+00  0.4000E+00
      8.115  0.0000E+00  0.0000E+00  0.4000E+00  0.4000E+00
      8.281  0.0000E+00  0.0000E+00  0.4000E+00  0.4000E+00
      8.447  0.0000E+00  0.0000E+00  0.4000E+00  0.4000E+00
      8.613  0.0000E+00  0.0000E+00  0.4000E+00  0.4000E+00
      8.779  0.0000E+00  0.0000E+00  0.4000E+00  0.4000E+00
      8.945  0.0000E+00  0.0000E+00  0.4000E+00  0.4000E+00
      9.111  0.0000E+00  0.0000E+00  0.4000E+00  0.4000E+00
      9.277  0.0000E+00  0.0000E+00  0.4000E+00  0.4000E+00
