       N       E                     dE             d eps       ncg     rms          rms(c)
DAV:   1     0.484583719892E+03    0.48458E+03   -0.28611E+04  7360   0.790E+02
DAV:   2    -0.704429849253E+02   -0.55503E+03   -0.54059E+03  9788   0.188E+02
DAV:   3    -0.125661042386E+03   -0.55218E+02   -0.54423E+02  8824   0.615E+01
DAV:   4    -0.128120054112E+03   -0.24590E+01   -0.24439E+01 10928   0.138E+01
DAV:   5    -0.128179147122E+03   -0.59093E-01   -0.59028E-01  9992   0.211E+00    0.998E+00
DAV:   6    -0.126340575395E+03    0.18386E+01   -0.34907E+00  8736   0.470E+00    0.560E+00
DAV:   7    -0.126066165935E+03    0.27441E+00   -0.27844E+00  8792   0.436E+00    0.152E+00
DAV:   8    -0.126052959441E+03    0.13206E-01   -0.38404E-01  9064   0.193E+00    0.678E-01
DAV:   9    -0.126032166802E+03    0.20793E-01   -0.76385E-02  8984   0.831E-01    0.234E-01
DAV:  10    -0.126020422710E+03    0.11744E-01   -0.11171E-02  9136   0.330E-01    0.969E-02
DAV:  11    -0.126014205822E+03    0.62169E-02   -0.24094E-03  9104   0.158E-01    0.444E-02
DAV:  12    -0.126010793501E+03    0.34123E-02   -0.56779E-04  8832   0.762E-02    0.209E-02
DAV:  13    -0.126009190217E+03    0.16033E-02   -0.14556E-04  9640   0.332E-02    0.122E-02
DAV:  14    -0.126008419135E+03    0.77108E-03   -0.61234E-05  8696   0.211E-02    0.711E-03
DAV:  15    -0.126008448245E+03   -0.29110E-04   -0.39369E-05  8224   0.151E-02    0.486E-03
DAV:  16    -0.126009097916E+03   -0.64967E-03   -0.20521E-04  8216   0.254E-02    0.237E-03
DAV:  17    -0.126009193136E+03   -0.95219E-04   -0.49626E-05  7608   0.121E-02    0.155E-03
DAV:  18    -0.126009228818E+03   -0.35682E-04   -0.25424E-05  6544   0.114E-02    0.105E-03
DAV:  19    -0.126009257534E+03   -0.28716E-04   -0.40449E-06  6040   0.592E-03    0.702E-04
DAV:  20    -0.126009220414E+03    0.37120E-04   -0.23382E-05  6880   0.842E-03    0.481E-04
DAV:  21    -0.126009194895E+03    0.25518E-04   -0.13851E-05  6240   0.983E-03    0.259E-04
DAV:  22    -0.126009134486E+03    0.60410E-04   -0.10089E-05  6576   0.767E-03    0.135E-04
DAV:  23    -0.126009131742E+03    0.27434E-05   -0.75634E-06  6232   0.793E-03    0.615E-05
DAV:  24    -0.126009115489E+03    0.16253E-04   -0.38174E-06  6584   0.628E-03    0.318E-05
DAV:  25    -0.126009113834E+03    0.16550E-05   -0.20444E-06  5612   0.502E-03    0.168E-05
DAV:  26    -0.126009112024E+03    0.18107E-05   -0.11930E-06  5536   0.424E-03    0.849E-06
DAV:  27    -0.126009111831E+03    0.19269E-06   -0.89519E-07  5356   0.389E-03
   1 F= -.12600911E+03 E0= -.12600020E+03  d E =-.178309E-01
