 vasp.5.3.5 31Mar14 (build Oct 29 2014 16:16:03) complex                        
  
 executed on          Linux-UFHPC date 2016.02.09  17:25:17
 running on    8 total cores
 distrk:  each k-point on    8 cores,    1 groups
 distr:  one band on NCORES_PER_BAND=   2 cores,    4 groups


--------------------------------------------------------------------------------------------------------


 INCAR:
 POTCAR:    PAW_PBE P 17Jan2003                   
 POTCAR:   PAW_PBE Si 05Jan2001                   

 ----------------------------------------------------------------------------- 
|                                                                             |
|  ADVICE TO THIS USER RUNNING 'VASP/VAMP'   (HEAR YOUR MASTER'S VOICE ...):  |
|                                                                             |
|      You have switched on vdW-DFT.                                          |
|      This routine was written and supplied by Jiri Klimes.                  |
|      We recommed that you carefully read and cite the following             |
|      publication                                                            |
|      J. Klimes, D.R. Bowler, A. Michelides                                  |
|        J. Phys.: Cond Matt. 22 022201 (2010)                                |
|      J. Klimes, D.R. Bowler, A. Michelides                                  |
|        Phys. Rev. B. 83, 195131 (2011)                                      |
|      and references therein.                                                |
|                                                                             |
 ----------------------------------------------------------------------------- 

 POTCAR:    PAW_PBE P 17Jan2003                   
   VRHFIN =P : s2p3                                                             
   LEXCH  = PE                                                                  
   EATOM  =   176.0430 eV,   12.9388 Ry                                         
                                                                                
   TITEL  = PAW_PBE P 17Jan2003                                                 
   LULTRA =        F    use ultrasoft PP ?                                      
   IUNSCR =        1    unscreen: 0-lin 1-nonlin 2-no                           
   RPACOR =    1.500    partial core radius                                     
   POMASS =   30.974; ZVAL   =    5.000    mass and valenz                      
   RCORE  =    1.900    outmost cutoff radius                                   
   RWIGS  =    2.330; RWIGS  =    1.233    wigner-seitz radius (au A)           
   ENMAX  =  270.000; ENMIN  =  191.280 eV                                      
   ICORE  =        2    local potential                                         
   LCOR   =        T    correct aug charges                                     
   LPAW   =        T    paw PP                                                  
   EAUG   =  342.924                                                            
   DEXC   =    -.002                                                            
   RMAX   =    2.887    core radius for proj-oper                               
   RAUG   =    1.300    factor for augmentation sphere                          
   RDEP   =    1.931    radius for radial grids                                 
   QCUT   =   -4.330; QGAM   =    8.659    optimization parameters              
                                                                                
   Description                                                                  
     l     E      TYP  RCUT    TYP  RCUT                                        
     0   .000     23  1.900                                                     
     0   .000     23  1.900                                                     
     1   .000     23  1.900                                                     
     1   .000     23  1.900                                                     
     2   .000     23  1.900                                                     
  local pseudopotential read in
  partial core-charges read in
  atomic valenz-charges read in
  non local Contribution for L=           0  read in
    real space projection operators read in
  non local Contribution for L=           0  read in
    real space projection operators read in
  non local Contribution for L=           1  read in
    real space projection operators read in
  non local Contribution for L=           1  read in
    real space projection operators read in
    PAW grid and wavefunctions read in
 
   number of l-projection  operators is LMAX  =           4
   number of lm-projection operators is LMMAX =           8
 
 POTCAR:   PAW_PBE Si 05Jan2001                   
   VRHFIN =Si: s2p2                                                             
   LEXCH  = PE                                                                  
   EATOM  =   103.0669 eV,    7.5752 Ry                                         
                                                                                
   TITEL  = PAW_PBE Si 05Jan2001                                                
   LULTRA =        F    use ultrasoft PP ?                                      
   IUNSCR =        1    unscreen: 0-lin 1-nonlin 2-no                           
   RPACOR =    1.500    partial core radius                                     
   POMASS =   28.085; ZVAL   =    4.000    mass and valenz                      
   RCORE  =    1.900    outmost cutoff radius                                   
   RWIGS  =    2.480; RWIGS  =    1.312    wigner-seitz radius (au A)           
   ENMAX  =  245.345; ENMIN  =  184.009 eV                                      
   ICORE  =        2    local potential                                         
   LCOR   =        T    correct aug charges                                     
   LPAW   =        T    paw PP                                                  
   EAUG   =  322.069                                                            
   DEXC   =    -.007                                                            
   RMAX   =    2.944    core radius for proj-oper                               
   RAUG   =    1.300    factor for augmentation sphere                          
   RDEP   =    1.993    radius for radial grids                                 
   QCUT   =   -4.246; QGAM   =    8.493    optimization parameters              
                                                                                
   Description                                                                  
     l     E      TYP  RCUT    TYP  RCUT                                        
     0   .000     23  1.900                                                     
     0   .000     23  1.900                                                     
     1   .000     23  1.900                                                     
     1   .000     23  1.900                                                     
     2   .000      7  1.900                                                     
  local pseudopotential read in
  partial core-charges read in
  atomic valenz-charges read in
  non local Contribution for L=           0  read in
    real space projection operators read in
  non local Contribution for L=           0  read in
    real space projection operators read in
  non local Contribution for L=           1  read in
    real space projection operators read in
  non local Contribution for L=           1  read in
    real space projection operators read in
    PAW grid and wavefunctions read in
 
   number of l-projection  operators is LMAX  =           4
   number of lm-projection operators is LMMAX =           8
 
 Optimization of the real space projectors (new method)

 maximal supplied QI-value         = 19.84
 optimisation between [QCUT,QGAM] = [  8.73, 17.66] = [ 21.34, 87.33] Ry 
 Optimized for a Real-space Cutoff    1.50 Angstroem

   l    n(q)    QCUT    max X(q) W(low)/X(q) W(high)/X(q)  e(spline) 
   0      8     8.731     6.651    0.16E-04    0.15E-04    0.77E-08
   0      8     8.731    90.285    0.16E-03    0.90E-04    0.16E-06
   1      7     8.731     4.328    0.47E-04    0.36E-04    0.45E-07
   1      7     8.731    54.583    0.13E-03    0.39E-03    0.20E-06
 Optimization of the real space projectors (new method)

 maximal supplied QI-value         = 19.84
 optimisation between [QCUT,QGAM] = [  8.73, 17.66] = [ 21.34, 87.33] Ry 
 Optimized for a Real-space Cutoff    1.46 Angstroem

   l    n(q)    QCUT    max X(q) W(low)/X(q) W(high)/X(q)  e(spline) 
   0      8     8.731     8.708    0.16E-04    0.11E-04    0.68E-08
   0      8     8.731   106.241    0.24E-03    0.77E-04    0.13E-06
   1      7     8.731     5.901    0.34E-04    0.38E-04    0.36E-07
   1      7     8.731    73.241    0.12E-03    0.39E-03    0.15E-06

 ----------------------------------------------------------------------------- 
|                                                                             |
|  ADVICE TO THIS USER RUNNING 'VASP/VAMP'   (HEAR YOUR MASTER'S VOICE ...):  |
|                                                                             |
|      You enforced a specific xc-type in the INCAR file,                     |
|      a different type was found on the POTCAR file                          |
|          I HOPE YOU KNOW, WHAT YOU ARE  DOING                               |
|                                                                             |
 ----------------------------------------------------------------------------- 

  PAW_PBE P 17Jan2003                   :
 energy of atom  1       EATOM= -176.0430
 kinetic energy error for atom=    0.0040 (will be added to EATOM!!)
 PAW_PBE Si 05Jan2001                   :
 energy of atom  2       EATOM= -103.0669
 kinetic energy error for atom=    0.0021 (will be added to EATOM!!)
 
 
 POSCAR: Si12                                    
  positions in direct lattice
  No initial velocities read in
 exchange correlation table for  LEXCH =       42
   RHO(1)=    0.500       N(1)  =     2000
   RHO(2)=  100.500       N(2)  =     4000
 


--------------------------------------------------------------------------------------------------------


 ion  position               nearest neighbor table
   1  0.114  0.228  0.233-  15 2.28  21 2.29  21 2.29
   2  0.114  0.328  0.515-  16 2.28  22 2.29  22 2.29
   3  0.458  0.916  0.209-  21 2.28  13 2.30  13 2.30
   4  0.458  0.016  0.491-  22 2.28  14 2.30  14 2.30  20 3.03
   5  0.311  0.622  0.084-  17 2.28  23 2.30  23 2.30
   6  0.311  0.622  0.366-  18 2.28  24 2.56  24 2.79  16 3.03
   7  0.999  0.998  0.086-  19 2.29  19 2.29  13 2.32
   8  0.999  0.998  0.368-  14 1.98  20 2.29  20 2.29  24 2.83
   9  0.655  0.310  0.060-  19 2.28  17 2.29  17 2.29
  10  0.655  0.310  0.342-  20 2.28  18 2.29  18 2.29
  11  0.770  0.539  0.207-  15 2.29  15 2.29  23 2.32
  12  0.770  0.639  0.489-  16 2.29  16 2.29  24 2.32
  13  0.940  0.879  0.158-   3 2.30   3 2.30   7 2.32  23 2.35
  14  0.940  0.979  0.440-   8 1.98   4 2.30   4 2.30  24 2.35  20 2.60  20 2.83
  15  0.205  0.410  0.186-   1 2.28  11 2.29  11 2.29  17 2.37
  16  0.205  0.510  0.468-   2 2.28  12 2.29  12 2.29  18 2.62   6 3.03
  17  0.202  0.404  0.100-   5 2.28   9 2.29   9 2.29  15 2.37
  18  0.202  0.404  0.382-   6 2.28  10 2.29  10 2.29  16 2.62
  19  0.564  0.128  0.108-   9 2.28   7 2.29   7 2.29  21 2.37
  20  0.564  0.128  0.390-  10 2.28   8 2.29   8 2.29  14 2.60  22 2.62  14 2.83   4 3.03
  21  0.567  0.134  0.194-   3 2.28   1 2.29   1 2.29  19 2.37
  22  0.567  0.234  0.476-   4 2.28   2 2.29   2 2.29  20 2.62
  23  0.829  0.658  0.136-   5 2.30   5 2.30  11 2.32  13 2.35
  24  0.829  0.758  0.418-  12 2.32  14 2.35   6 2.56   6 2.79   8 2.83
 
  LATTYP: Found a base centered orthorhombic cell.
 ALAT       =     3.5404000000
 B/A-ratio  =     5.8153587165
 C/A-ratio  =     7.7678875268
  
  Lattice vectors:
  
 A1 = (   1.7702000000,  10.2943480000,   0.0000000000)
 A2 = (   1.7702000000, -10.2943480000,   0.0000000000)
 A3 = (   0.0000000000,   0.0000000000, -27.5014290000)


Analysis of symmetry for initial positions (statically):
=====================================================================
 Subroutine PRICEL returns:
 Original cell was already a primitive cell.
 

 Routine SETGRP: Setting up the symmetry group for a 
 base centered orthorhombic supercell.


 Subroutine GETGRP returns: Found  1 space group operations
 (whereof  1 operations were pure point group operations)
 out of a pool of  8 trial point group operations.


The static configuration has the point symmetry C_1 .


Analysis of symmetry for dynamics (positions and initial velocities):
=====================================================================
 Subroutine PRICEL returns:
 Original cell was already a primitive cell.
 

 Routine SETGRP: Setting up the symmetry group for a 
 base centered orthorhombic supercell.


 Subroutine GETGRP returns: Found  1 space group operations
 (whereof  1 operations were pure point group operations)
 out of a pool of  8 trial point group operations.


The dynamic configuration has the point symmetry C_1 .
 
 
 KPOINTS: pymatgen generated KPOINTS with grid den

Automatic generation of k-mesh.
Space group operators:
 irot       det(A)        alpha          n_x          n_y          n_z        tau_x        tau_y        tau_z
    1     1.000000     0.000000     1.000000     0.000000     0.000000     0.000000     0.000000     0.000000
 
 Subroutine IBZKPT returns following result:
 ===========================================
 
 Found     54 irreducible k-points:
 
 Following reciprocal coordinates:
            Coordinates               Weight
  0.000000  0.000000  0.000000      1.000000
  0.076923 -0.000000  0.000000      2.000000
  0.153846 -0.000000  0.000000      2.000000
  0.230769 -0.000000  0.000000      2.000000
  0.307692 -0.000000  0.000000      2.000000
  0.384615 -0.000000  0.000000      2.000000
  0.461538 -0.000000  0.000000      2.000000
  0.000000  0.250000  0.000000      2.000000
  0.076923  0.250000  0.000000      2.000000
  0.153846  0.250000  0.000000      2.000000
  0.230769  0.250000  0.000000      2.000000
  0.307692  0.250000  0.000000      2.000000
  0.384615  0.250000  0.000000      2.000000
  0.461538  0.250000  0.000000      2.000000
 -0.461538  0.250000  0.000000      2.000000
 -0.384615  0.250000  0.000000      2.000000
 -0.307692  0.250000  0.000000      2.000000
 -0.230769  0.250000  0.000000      2.000000
 -0.153846  0.250000  0.000000      2.000000
 -0.076923  0.250000  0.000000      2.000000
  0.000000  0.500000  0.000000      1.000000
  0.076923  0.500000  0.000000      2.000000
  0.153846  0.500000  0.000000      2.000000
  0.230769  0.500000  0.000000      2.000000
  0.307692  0.500000  0.000000      2.000000
  0.384615  0.500000  0.000000      2.000000
  0.461538  0.500000  0.000000      2.000000
  0.000000  0.000000  0.500000      1.000000
  0.076923 -0.000000  0.500000      2.000000
  0.153846 -0.000000  0.500000      2.000000
  0.230769 -0.000000  0.500000      2.000000
  0.307692 -0.000000  0.500000      2.000000
  0.384615 -0.000000  0.500000      2.000000
  0.461538 -0.000000  0.500000      2.000000
  0.000000  0.250000  0.500000      2.000000
  0.076923  0.250000  0.500000      2.000000
  0.153846  0.250000  0.500000      2.000000
  0.230769  0.250000  0.500000      2.000000
  0.307692  0.250000  0.500000      2.000000
  0.384615  0.250000  0.500000      2.000000
  0.461538  0.250000  0.500000      2.000000
 -0.461538  0.250000  0.500000      2.000000
 -0.384615  0.250000  0.500000      2.000000
 -0.307692  0.250000  0.500000      2.000000
 -0.230769  0.250000  0.500000      2.000000
 -0.153846  0.250000  0.500000      2.000000
 -0.076923  0.250000  0.500000      2.000000
  0.000000  0.500000  0.500000      1.000000
  0.076923  0.500000  0.500000      2.000000
  0.153846  0.500000  0.500000      2.000000
  0.230769  0.500000  0.500000      2.000000
  0.307692  0.500000  0.500000      2.000000
  0.384615  0.500000  0.500000      2.000000
  0.461538  0.500000  0.500000      2.000000
 
 Following cartesian coordinates:
            Coordinates               Weight
  0.000000  0.000000  0.000000      1.000000
  0.021727  0.003736  0.000000      2.000000
  0.043454  0.007472  0.000000      2.000000
  0.065182  0.011209  0.000000      2.000000
  0.086909  0.014945  0.000000      2.000000
  0.108636  0.018681  0.000000      2.000000
  0.130363  0.022417  0.000000      2.000000
  0.000000  0.024285  0.000000      2.000000
  0.021727  0.028021  0.000000      2.000000
  0.043454  0.031758  0.000000      2.000000
  0.065182  0.035494  0.000000      2.000000
  0.086909  0.039230  0.000000      2.000000
  0.108636  0.042966  0.000000      2.000000
  0.130363  0.046702  0.000000      2.000000
 -0.130363  0.001868  0.000000      2.000000
 -0.108636  0.005604  0.000000      2.000000
 -0.086909  0.009340  0.000000      2.000000
 -0.065182  0.013077  0.000000      2.000000
 -0.043454  0.016813  0.000000      2.000000
 -0.021727  0.020549  0.000000      2.000000
  0.000000  0.048570  0.000000      1.000000
  0.021727  0.052307  0.000000      2.000000
  0.043454  0.056043  0.000000      2.000000
  0.065182  0.059779  0.000000      2.000000
  0.086909  0.063515  0.000000      2.000000
  0.108636  0.067251  0.000000      2.000000
  0.130363  0.070987  0.000000      2.000000
  0.000000  0.000000  0.018181      1.000000
  0.021727  0.003736  0.018181      2.000000
  0.043454  0.007472  0.018181      2.000000
  0.065182  0.011209  0.018181      2.000000
  0.086909  0.014945  0.018181      2.000000
  0.108636  0.018681  0.018181      2.000000
  0.130363  0.022417  0.018181      2.000000
  0.000000  0.024285  0.018181      2.000000
  0.021727  0.028021  0.018181      2.000000
  0.043454  0.031758  0.018181      2.000000
  0.065182  0.035494  0.018181      2.000000
  0.086909  0.039230  0.018181      2.000000
  0.108636  0.042966  0.018181      2.000000
  0.130363  0.046702  0.018181      2.000000
 -0.130363  0.001868  0.018181      2.000000
 -0.108636  0.005604  0.018181      2.000000
 -0.086909  0.009340  0.018181      2.000000
 -0.065182  0.013077  0.018181      2.000000
 -0.043454  0.016813  0.018181      2.000000
 -0.021727  0.020549  0.018181      2.000000
  0.000000  0.048570  0.018181      1.000000
  0.021727  0.052307  0.018181      2.000000
  0.043454  0.056043  0.018181      2.000000
  0.065182  0.059779  0.018181      2.000000
  0.086909  0.063515  0.018181      2.000000
  0.108636  0.067251  0.018181      2.000000
  0.130363  0.070987  0.018181      2.000000
 


--------------------------------------------------------------------------------------------------------




 Dimension of arrays:
   k-points           NKPTS =     54   k-points in BZ     NKDIM =     54   number of bands    NBANDS=     68
   number of dos      NEDOS =    301   number of ions     NIONS =     24
   non local maximal  LDIM  =      4   non local SUM 2l+1 LMDIM =      8
   total plane-waves  NPLWV = 192000
   max r-space proj   IRMAX =   2772   max aug-charges    IRDMAX=   6603
   dimension x,y,z NGX =    20 NGY =   60 NGZ =  160
   dimension x,y,z NGXF=    40 NGYF=  120 NGZF=  320
   support grid    NGXF=    40 NGYF=  120 NGZF=  320
   ions per type =              12  12
 NGX,Y,Z   is equivalent  to a cutoff of   9.39,  9.55,  9.67 a.u.
 NGXF,Y,Z  is equivalent  to a cutoff of  18.78, 19.10, 19.34 a.u.


 I would recommend the setting:
   dimension x,y,z NGX =    20 NGY =   59 NGZ =  155
 SYSTEM =  unknown system                          
 POSCAR =  Si12                                    

 Startparameter for this run:
   NWRITE =      2    write-flag & timer
   PREC   = accura    normal or accurate (medium, high low for compatibility)
   ISTART =      0    job   : 0-new  1-cont  2-samecut
   ICHARG =      2    charge: 1-file 2-atom 10-const
   ISPIN  =      1    spin polarized calculation?
   LNONCOLLINEAR =      F non collinear calculations
   LSORBIT =      F    spin-orbit coupling
   INIWAV =      1    electr: 0-lowe 1-rand  2-diag
   LASPH  =      F    aspherical Exc in radial PAW
   METAGGA=      F    non-selfconsistent MetaGGA calc.

 Electronic Relaxation 1
   ENCUT  =  300.0 eV  22.05 Ry    4.70 a.u.   5.00 14.75 38.84*2*pi/ulx,y,z
   ENINI  =  300.0     initial cutoff
   ENAUG  =  342.9 eV  augmentation charge cutoff
   NELM   =     60;   NELMIN=  2; NELMDL= -5     # of ELM steps 
   EDIFF  = 0.1E-05   stopping-criterion for ELM
   LREAL  =      T    real-space projection
   NLSPLINE    = F    spline interpolate recip. space projectors
   LCOMPAT=      F    compatible to vasp.4.4
   GGA_COMPAT  = T    GGA compatible to vasp.4.4-vasp.4.6
   LMAXPAW     = -100 max onsite density
   LMAXMIX     =    2 max onsite mixed and CHGCAR
   VOSKOWN=      0    Vosko Wilk Nusair interpolation
   ROPT   =   -0.00025  -0.00025
 Ionic relaxation
   EDIFFG = 0.1E-04   stopping-criterion for IOM
   NSW    =      0    number of steps for IOM
   NBLOCK =      1;   KBLOCK =      1    inner block; outer block 
   IBRION =     -1    ionic relax: 0-MD 1-quasi-New 2-CG
   NFREE  =      1    steps in history (QN), initial steepest desc. (CG)
   ISIF   =      3    stress and relaxation
   IWAVPR =     10    prediction:  0-non 1-charg 2-wave 3-comb
   ISYM   =      2    0-nonsym 1-usesym 2-fastsym
   LCORR  =      T    Harris-Foulkes like correction to forces

   POTIM  = 0.5000    time-step for ionic-motion
   TEIN   =    0.0    initial temperature
   TEBEG  =    0.0;   TEEND  =   0.0 temperature during run
   SMASS  =  -3.00    Nose mass-parameter (am)
   estimated Nose-frequenzy (Omega)   =  0.10E-29 period in steps =****** mass=  -0.286E-27a.u.
   SCALEE = 1.0000    scale energy and forces
   NPACO  =    256;   APACO  = 16.0  distance and # of slots for P.C.
   PSTRESS=    0.0 pullay stress

  Mass of Ions in am
   POMASS =  30.97 28.09
  Ionic Valenz
   ZVAL   =   5.00  4.00
  Atomic Wigner-Seitz radii
   RWIGS  =  -1.00 -1.00
  virtual crystal weights 
   VCA    =   1.00  1.00
   NELECT =     108.0000    total number of electrons
   NUPDOWN=      -1.0000    fix difference up-down

 DOS related values:
   EMIN   =  10.00;   EMAX   =-10.00  energy-range for DOS
   EFERMI =   0.00
   ISMEAR =     0;   SIGMA  =   0.10  broadening in eV -4-tet -1-fermi 0-gaus

 Electronic relaxation 2 (details)
   IALGO  =     38    algorithm
   LDIAG  =      T    sub-space diagonalisation (order eigenvalues)
   LSUBROT=      F    optimize rotation matrix (better conditioning)
   TURBO    =      0    0=normal 1=particle mesh
   IRESTART =      0    0=no restart 2=restart with 2 vectors
   NREBOOT  =      0    no. of reboots
   NMIN     =      0    reboot dimension
   EREF     =   0.00    reference energy to select bands
   IMIX   =      4    mixing-type and parameters
     AMIX     =   0.40;   BMIX     =  1.00
     AMIX_MAG =   1.60;   BMIX_MAG =  1.00
     AMIN     =   0.10
     WC   =   100.;   INIMIX=   1;  MIXPRE=   1;  MAXMIX= -45

 Intra band minimization:
   WEIMIN = 0.0000     energy-eigenvalue tresh-hold
   EBREAK =  0.37E-08  absolut break condition
   DEPER  =   0.30     relativ break condition  

   TIME   =   0.40     timestep for ELM

  volume/ion in A,a.u.               =      41.76       281.83
  Fermi-wavevector in a.u.,A,eV,Ry     =   0.779018  1.472130  8.256946  0.606868
  Thomas-Fermi vector in A             =   1.882034
 
 Write flags
   LWAVE  =      F    write WAVECAR
   LCHARG =      F    write CHGCAR
   LVTOT  =      F    write LOCPOT, total local potential
   LVHAR  =      F    write LOCPOT, Hartree potential only
   LELF   =      F    write electronic localiz. function (ELF)
   LORBIT =      0    0 simple, 1 ext, 2 COOP (PROOUT)


 Dipole corrections
   LMONO  =      F    monopole corrections only (constant potential shift)
   LDIPOL =      F    correct potential (dipole corrections)
   IDIPOL =      0    1-x, 2-y, 3-z, 4-all directions 
   EPSILON=  1.0000000 bulk dielectric constant

 Exchange correlation treatment:
   GGA     =    BO    GGA type
   LEXCH   =    42    internal setting for exchange type
   VOSKOWN=      0    Vosko Wilk Nusair interpolation
   LHFCALC =     F    Hartree Fock is set to
   LHFONE  =     F    Hartree Fock one center treatment
   AEXX    =    0.0000 exact exchange contribution

 vdW DFT:
   LUSE_VDW   =     T    switch on vdW DFT
   Zab_VDW    =-.8491    correlation parameter
   PARAM1     =0.1833
   PARAM2     =0.2200
   PARAM3     =0.0000

 Linear response parameters
   LEPSILON=     F    determine dielectric tensor
   LRPA    =     F    only Hartree local field effects (RPA)
   LNABLA  =     F    use nabla operator in PAW spheres
   LVEL    =     F    velocity operator in full k-point grid
   LINTERFAST=   F  fast interpolation
   KINTER  =     0    interpolate to denser k-point grid
   CSHIFT  =0.1000    complex shift for real part using Kramers Kronig
   OMEGAMAX=  -1.0    maximum frequency
   DEG_THRESHOLD= 0.2000000E-02 threshold for treating states as degnerate
   RTIME   =    0.100 relaxation time in fs

 Orbital magnetization related:
   ORBITALMAG=     F  switch on orbital magnetization
   LCHIMAG   =     F  perturbation theory with respect to B field
   DQ        =  0.001000  dq finite difference perturbation B field



--------------------------------------------------------------------------------------------------------


 Static calculation
 charge density and potential will be updated during run
 non-spin polarized calculation
 Variant of blocked Davidson
 Davidson routine will perform the subspace rotation
 perform sub-space diagonalisation
    after iterative eigenvector-optimisation
 modified Broyden-mixing scheme, WC =      100.0
 initial mixing is a Kerker type mixing with AMIX =  0.4000 and BMIX =      1.0000
 Hartree-type preconditioning will be used
 using additional bands           14
 real space projection scheme for non local part
 use partial core corrections
 calculate Harris-corrections to forces 
   (improved forces if not selfconsistent)
 use gradient corrections 
 use of overlap-Matrix (Vanderbilt PP)
 Gauss-broadening in eV      SIGMA  =   0.10


--------------------------------------------------------------------------------------------------------


  energy-cutoff  :      300.00
  volume of cell :     1002.32
      direct lattice vectors                 reciprocal lattice vectors
     3.540400000  0.000000000  0.000000000     0.282453960  0.048570342  0.000000000
    -1.770200000 10.294348000  0.000000000     0.000000000  0.097140683  0.000000000
     0.000000000  0.000000000 27.501429000     0.000000000  0.000000000  0.036361747

  length of vectors
     3.540400000 10.445439617 27.501429000     0.286599577  0.097140683  0.036361747


 
 k-points in units of 2pi/SCALE and weight: pymatgen generated KPOINTS with grid den
   0.00000000  0.00000000  0.00000000       0.010
   0.02172723  0.00373618  0.00000000       0.019
   0.04345446  0.00747236  0.00000000       0.019
   0.06518168  0.01120854  0.00000000       0.019
   0.08690891  0.01494472  0.00000000       0.019
   0.10863614  0.01868090  0.00000000       0.019
   0.13036337  0.02241708  0.00000000       0.019
   0.00000000  0.02428517  0.00000000       0.019
   0.02172723  0.02802135  0.00000000       0.019
   0.04345446  0.03175753  0.00000000       0.019
   0.06518168  0.03549371  0.00000000       0.019
   0.08690891  0.03922989  0.00000000       0.019
   0.10863614  0.04296607  0.00000000       0.019
   0.13036337  0.04670225  0.00000000       0.019
  -0.13036337  0.00186809  0.00000000       0.019
  -0.10863614  0.00560427  0.00000000       0.019
  -0.08690891  0.00934045  0.00000000       0.019
  -0.06518168  0.01307663  0.00000000       0.019
  -0.04345446  0.01681281  0.00000000       0.019
  -0.02172723  0.02054899  0.00000000       0.019
   0.00000000  0.04857034  0.00000000       0.010
   0.02172723  0.05230652  0.00000000       0.019
   0.04345446  0.05604270  0.00000000       0.019
   0.06518168  0.05977888  0.00000000       0.019
   0.08690891  0.06351506  0.00000000       0.019
   0.10863614  0.06725124  0.00000000       0.019
   0.13036337  0.07098742  0.00000000       0.019
   0.00000000  0.00000000  0.01818087       0.010
   0.02172723  0.00373618  0.01818087       0.019
   0.04345446  0.00747236  0.01818087       0.019
   0.06518168  0.01120854  0.01818087       0.019
   0.08690891  0.01494472  0.01818087       0.019
   0.10863614  0.01868090  0.01818087       0.019
   0.13036337  0.02241708  0.01818087       0.019
   0.00000000  0.02428517  0.01818087       0.019
   0.02172723  0.02802135  0.01818087       0.019
   0.04345446  0.03175753  0.01818087       0.019
   0.06518168  0.03549371  0.01818087       0.019
   0.08690891  0.03922989  0.01818087       0.019
   0.10863614  0.04296607  0.01818087       0.019
   0.13036337  0.04670225  0.01818087       0.019
  -0.13036337  0.00186809  0.01818087       0.019
  -0.10863614  0.00560427  0.01818087       0.019
  -0.08690891  0.00934045  0.01818087       0.019
  -0.06518168  0.01307663  0.01818087       0.019
  -0.04345446  0.01681281  0.01818087       0.019
  -0.02172723  0.02054899  0.01818087       0.019
   0.00000000  0.04857034  0.01818087       0.010
   0.02172723  0.05230652  0.01818087       0.019
   0.04345446  0.05604270  0.01818087       0.019
   0.06518168  0.05977888  0.01818087       0.019
   0.08690891  0.06351506  0.01818087       0.019
   0.10863614  0.06725124  0.01818087       0.019
   0.13036337  0.07098742  0.01818087       0.019
 
 k-points in reciprocal lattice and weights: pymatgen generated KPOINTS with grid den
   0.00000000  0.00000000  0.00000000       0.010
   0.07692308 -0.00000000  0.00000000       0.019
   0.15384615 -0.00000000  0.00000000       0.019
   0.23076923 -0.00000000  0.00000000       0.019
   0.30769231 -0.00000000  0.00000000       0.019
   0.38461538 -0.00000000  0.00000000       0.019
   0.46153846 -0.00000000  0.00000000       0.019
   0.00000000  0.25000000  0.00000000       0.019
   0.07692308  0.25000000  0.00000000       0.019
   0.15384615  0.25000000  0.00000000       0.019
   0.23076923  0.25000000  0.00000000       0.019
   0.30769231  0.25000000  0.00000000       0.019
   0.38461538  0.25000000  0.00000000       0.019
   0.46153846  0.25000000  0.00000000       0.019
  -0.46153846  0.25000000  0.00000000       0.019
  -0.38461538  0.25000000  0.00000000       0.019
  -0.30769231  0.25000000  0.00000000       0.019
  -0.23076923  0.25000000  0.00000000       0.019
  -0.15384615  0.25000000  0.00000000       0.019
  -0.07692308  0.25000000  0.00000000       0.019
   0.00000000  0.50000000  0.00000000       0.010
   0.07692308  0.50000000  0.00000000       0.019
   0.15384615  0.50000000  0.00000000       0.019
   0.23076923  0.50000000  0.00000000       0.019
   0.30769231  0.50000000  0.00000000       0.019
   0.38461538  0.50000000  0.00000000       0.019
   0.46153846  0.50000000  0.00000000       0.019
   0.00000000  0.00000000  0.50000000       0.010
   0.07692308 -0.00000000  0.50000000       0.019
   0.15384615 -0.00000000  0.50000000       0.019
   0.23076923 -0.00000000  0.50000000       0.019
   0.30769231 -0.00000000  0.50000000       0.019
   0.38461538 -0.00000000  0.50000000       0.019
   0.46153846 -0.00000000  0.50000000       0.019
   0.00000000  0.25000000  0.50000000       0.019
   0.07692308  0.25000000  0.50000000       0.019
   0.15384615  0.25000000  0.50000000       0.019
   0.23076923  0.25000000  0.50000000       0.019
   0.30769231  0.25000000  0.50000000       0.019
   0.38461538  0.25000000  0.50000000       0.019
   0.46153846  0.25000000  0.50000000       0.019
  -0.46153846  0.25000000  0.50000000       0.019
  -0.38461538  0.25000000  0.50000000       0.019
  -0.30769231  0.25000000  0.50000000       0.019
  -0.23076923  0.25000000  0.50000000       0.019
  -0.15384615  0.25000000  0.50000000       0.019
  -0.07692308  0.25000000  0.50000000       0.019
   0.00000000  0.50000000  0.50000000       0.010
   0.07692308  0.50000000  0.50000000       0.019
   0.15384615  0.50000000  0.50000000       0.019
   0.23076923  0.50000000  0.50000000       0.019
   0.30769231  0.50000000  0.50000000       0.019
   0.38461538  0.50000000  0.50000000       0.019
   0.46153846  0.50000000  0.50000000       0.019
 
 position of ions in fractional coordinates (direct lattice) 
   0.11402300  0.22804500  0.23316207
   0.11402300  0.32804500  0.51499159
   0.45808900  0.91617900  0.20939482
   0.45808900  0.01617900  0.49122434
   0.31085400  0.62170900  0.08414979
   0.31085400  0.62170900  0.36597930
   0.99923000  0.99846000  0.08631254
   0.99923000  0.99846000  0.36814206
   0.65492700  0.30985400  0.06041748
   0.65492700  0.30985400  0.34224700
   0.76973800  0.53947500  0.20725292
   0.76973800  0.63947500  0.48908244
   0.93971600  0.87943300  0.15783749
   0.93971600  0.97943300  0.43966701
   0.20515200  0.41030300  0.18578822
   0.20515200  0.51030300  0.46761774
   0.20184900  0.40369900  0.09969156
   0.20184900  0.40369900  0.38152107
   0.56380500  0.12761000  0.10779021
   0.56380500  0.12761000  0.38961973
   0.56710600  0.13421200  0.19387616
   0.56710600  0.23421200  0.47570568
   0.82923400  0.65846800  0.13571444
   0.82923400  0.75846800  0.41754396
 
 position of ions in cartesian coordinates  (Angst):
   0.00000177  2.34757459  6.41229012
  -0.17701823  3.37700939 14.16300462
  -0.00000177  9.43146546  5.75865686
   1.59317823  0.16655226 13.50937136
  -0.00000177  6.40008880  2.31423934
  -0.00000177  6.40008880 10.06495384
   1.77020000 10.27849470  2.37371832
   1.77020000 10.27849470 10.12443282
   1.77020000  3.18974491  1.66156717
   1.77020000  3.18974491  9.41228167
   1.77020177  5.55354339  5.69975143
   1.59318177  6.58297819 13.45046593
   1.77019823  9.05318934  4.34075665
   1.59317823 10.08262414 12.09147115
   0.00000177  4.22380187  5.10944151
  -0.17701823  5.25323667 12.86015601
  -0.00000177  4.15581799  2.74166024
  -0.00000177  4.15581799 10.49237474
   1.77020000  1.31366175  2.96438477
   1.77020000  1.31366175 10.71509927
   1.77020000  1.38162503  5.33187152
   1.59318000  2.41105983 13.08258602
   1.77020000  6.77849874  3.73234107
   1.59318000  7.80793354 11.48305557
 


--------------------------------------------------------------------------------------------------------


 k-point  1 :   0.0000 0.0000 0.0000  plane waves:   11717
 k-point  2 :   0.0769-0.0000 0.0000  plane waves:   11762
 k-point  3 :   0.1538-0.0000 0.0000  plane waves:   11805
 k-point  4 :   0.2308-0.0000 0.0000  plane waves:   11824
 k-point  5 :   0.3077-0.0000 0.0000  plane waves:   11875
 k-point  6 :   0.3846-0.0000 0.0000  plane waves:   11864
 k-point  7 :   0.4615-0.0000 0.0000  plane waves:   11883
 k-point  8 :   0.0000 0.2500 0.0000  plane waves:   11683
 k-point  9 :   0.0769 0.2500 0.0000  plane waves:   11756
 k-point 10 :   0.1538 0.2500 0.0000  plane waves:   11807
 k-point 11 :   0.2308 0.2500 0.0000  plane waves:   11853
 k-point 12 :   0.3077 0.2500 0.0000  plane waves:   11866
 k-point 13 :   0.3846 0.2500 0.0000  plane waves:   11889
 k-point 14 :   0.4615 0.2500 0.0000  plane waves:   11885
 k-point 15 :  -0.4615 0.2500 0.0000  plane waves:   11886
 k-point 16 :  -0.3846 0.2500 0.0000  plane waves:   11867
 k-point 17 :  -0.3077 0.2500 0.0000  plane waves:   11849
 k-point 18 :  -0.2308 0.2500 0.0000  plane waves:   11827
 k-point 19 :  -0.1538 0.2500 0.0000  plane waves:   11801
 k-point 20 :  -0.0769 0.2500 0.0000  plane waves:   11757
 k-point 21 :   0.0000 0.5000 0.0000  plane waves:   11710
 k-point 22 :   0.0769 0.5000 0.0000  plane waves:   11762
 k-point 23 :   0.1538 0.5000 0.0000  plane waves:   11782
 k-point 24 :   0.2308 0.5000 0.0000  plane waves:   11841
 k-point 25 :   0.3077 0.5000 0.0000  plane waves:   11876
 k-point 26 :   0.3846 0.5000 0.0000  plane waves:   11889
 k-point 27 :   0.4615 0.5000 0.0000  plane waves:   11881
 k-point 28 :   0.0000 0.0000 0.5000  plane waves:   11698
 k-point 29 :   0.0769-0.0000 0.5000  plane waves:   11752
 k-point 30 :   0.1538-0.0000 0.5000  plane waves:   11800
 k-point 31 :   0.2308-0.0000 0.5000  plane waves:   11834
 k-point 32 :   0.3077-0.0000 0.5000  plane waves:   11850
 k-point 33 :   0.3846-0.0000 0.5000  plane waves:   11888
 k-point 34 :   0.4615-0.0000 0.5000  plane waves:   11896
 k-point 35 :   0.0000 0.2500 0.5000  plane waves:   11714
 k-point 36 :   0.0769 0.2500 0.5000  plane waves:   11754
 k-point 37 :   0.1538 0.2500 0.5000  plane waves:   11802
 k-point 38 :   0.2308 0.2500 0.5000  plane waves:   11840
 k-point 39 :   0.3077 0.2500 0.5000  plane waves:   11858
 k-point 40 :   0.3846 0.2500 0.5000  plane waves:   11896
 k-point 41 :   0.4615 0.2500 0.5000  plane waves:   11886
 k-point 42 :  -0.4615 0.2500 0.5000  plane waves:   11852
 k-point 43 :  -0.3846 0.2500 0.5000  plane waves:   11838
 k-point 44 :  -0.3077 0.2500 0.5000  plane waves:   11842
 k-point 45 :  -0.2308 0.2500 0.5000  plane waves:   11840
 k-point 46 :  -0.1538 0.2500 0.5000  plane waves:   11804
 k-point 47 :  -0.0769 0.2500 0.5000  plane waves:   11748
 k-point 48 :   0.0000 0.5000 0.5000  plane waves:   11724
 k-point 49 :   0.0769 0.5000 0.5000  plane waves:   11748
 k-point 50 :   0.1538 0.5000 0.5000  plane waves:   11814
 k-point 51 :   0.2308 0.5000 0.5000  plane waves:   11832
 k-point 52 :   0.3077 0.5000 0.5000  plane waves:   11868
 k-point 53 :   0.3846 0.5000 0.5000  plane waves:   11892
 k-point 54 :   0.4615 0.5000 0.5000  plane waves:   11878

 maximum and minimum number of plane-waves per node :      5964     5832

 maximum number of plane-waves:     11896
 maximum index in each direction: 
   IXMAX=    5   IYMAX=   14   IZMAX=   38
   IXMIN=   -5   IYMIN=  -15   IZMIN=  -39

 WARNING: aliasing errors must be expected set NGX to  22 to avoid them
 NGY is ok and might be reduce to  60
 NGZ is ok and might be reduce to 156
 aliasing errors are usually negligible using standard VASP settings
 and one can safely disregard these warnings

 real space projection operators:
  total allocation   :       3793.25 KBytes
  max/ min on nodes  :       1899.38       1893.88


 parallel 3D FFT for wavefunctions:
    minimum data exchange during FFTs selected (reduces bandwidth)
 parallel 3D FFT for charge:
    minimum data exchange during FFTs selected (reduces bandwidth)


 total amount of memory used by VASP on root node   146493. kBytes
========================================================================

   base      :      30000. kBytes
   nonlr-proj:       3452. kBytes
   fftplans  :       9347. kBytes
   grid      :      14649. kBytes
   one-center:         36. kBytes
   wavefun   :      89009. kBytes
 
     INWAV:  cpu time    0.00: real time    0.00
 Broyden mixing: mesh for mixing (old mesh)
   NGX =  9   NGY = 29   NGZ = 77
  (NGX  = 40   NGY  =120   NGZ  =320)
  gives a total of  20097 points

 initial charge density was supplied:
 charge density of overlapping atoms calculated
 number of electron     108.0000000 magnetization 
 keeping initial charge density in first step


--------------------------------------------------------------------------------------------------------


 Maximum index for non-local projection operator         1333
 Maximum index for augmentation-charges          822 (set IRDMAX)


--------------------------------------------------------------------------------------------------------


 First call to EWALD:  gamma=   0.177
 Maximum number of real-space cells 7x 3x 1
 Maximum number of reciprocal cells 1x 3x 7

 FEWALD executed in parallel
    FEWALD:  cpu time    0.00: real time    0.00


----------------------------------------- Iteration    1(   1)  ---------------------------------------


vdW kernel read from vdw_kernel.bindat
  0.0000  0.2424  0.5071  0.7962  1.1119  1.4567  1.8333  2.2446  2.6937  3.1842
  3.7199  4.3049  4.9438  5.6415  6.4036  7.2358  8.1446  9.1372 10.2212 11.4050
 12.6979 14.1099 15.6519 17.3360 19.1751 21.1837 23.3773 25.7729 28.3892 31.2465
 34.3669 37.7748 41.4965 45.5611 50.0000
 
    POTLOK:  cpu time   14.73: real time   14.74
    SETDIJ:  cpu time    0.01: real time    0.01
     EDDAV:  cpu time   69.95: real time   69.97
       DOS:  cpu time    0.01: real time    0.01
    --------------------------------------------
      LOOP:  cpu time   84.71: real time   84.74

 eigenvalue-minimisations  :  7360
 total energy-change (2. order) : 0.4845837E+03  (-0.2861109E+04)
 number of electron     108.0000000 magnetization 
 augmentation part      108.0000000 magnetization 

 Free energy of the ion-electron system (eV)
  ---------------------------------------------------
  alpha Z        PSCENC =        36.80884744
  Ewald energy   TEWEN  =     11893.57011234
  -Hartree energ DENC   =    -14950.86471608
  -exchange      EXHF   =         0.00000000
  -V(xc)+E(xc)   XCENC  =       -88.23316250
  PAW double counting   =      1056.43050070     -732.41190547
  entropy T*S    EENTRO =        -0.04040648
  eigenvalues    EBANDS =       -84.71681050
  atomic energy  EATOM  =      3354.04126044
  ---------------------------------------------------
  free energy    TOTEN  =       484.58371989 eV

  energy without entropy =      484.62412637  energy(sigma->0) =      484.60392313


--------------------------------------------------------------------------------------------------------




----------------------------------------- Iteration    1(   2)  ---------------------------------------


     EDDAV:  cpu time   82.57: real time   82.60
       DOS:  cpu time    0.01: real time    0.01
    --------------------------------------------
      LOOP:  cpu time   82.58: real time   82.61

 eigenvalue-minimisations  :  9788
 total energy-change (2. order) :-0.5550267E+03  (-0.5405913E+03)
 number of electron     108.0000000 magnetization 
 augmentation part      108.0000000 magnetization 

 Free energy of the ion-electron system (eV)
  ---------------------------------------------------
  alpha Z        PSCENC =        36.80884744
  Ewald energy   TEWEN  =     11893.57011234
  -Hartree energ DENC   =    -14950.86471608
  -exchange      EXHF   =         0.00000000
  -V(xc)+E(xc)   XCENC  =       -88.23316250
  PAW double counting   =      1056.43050070     -732.41190547
  entropy T*S    EENTRO =        -0.02030363
  eigenvalues    EBANDS =      -639.76361817
  atomic energy  EATOM  =      3354.04126044
  ---------------------------------------------------
  free energy    TOTEN  =       -70.44298493 eV

  energy without entropy =      -70.42268130  energy(sigma->0) =      -70.43283311


--------------------------------------------------------------------------------------------------------




----------------------------------------- Iteration    1(   3)  ---------------------------------------


     EDDAV:  cpu time   74.66: real time   74.71
       DOS:  cpu time    0.01: real time    0.01
    --------------------------------------------
      LOOP:  cpu time   74.68: real time   74.72

 eigenvalue-minimisations  :  8824
 total energy-change (2. order) :-0.5521806E+02  (-0.5442349E+02)
 number of electron     108.0000000 magnetization 
 augmentation part      108.0000000 magnetization 

 Free energy of the ion-electron system (eV)
  ---------------------------------------------------
  alpha Z        PSCENC =        36.80884744
  Ewald energy   TEWEN  =     11893.57011234
  -Hartree energ DENC   =    -14950.86471608
  -exchange      EXHF   =         0.00000000
  -V(xc)+E(xc)   XCENC  =       -88.23316250
  PAW double counting   =      1056.43050070     -732.41190547
  entropy T*S    EENTRO =        -0.01164345
  eigenvalues    EBANDS =      -694.99033581
  atomic energy  EATOM  =      3354.04126044
  ---------------------------------------------------
  free energy    TOTEN  =      -125.66104239 eV

  energy without entropy =     -125.64939893  energy(sigma->0) =     -125.65522066


--------------------------------------------------------------------------------------------------------




----------------------------------------- Iteration    1(   4)  ---------------------------------------


     EDDAV:  cpu time   87.61: real time   87.67
       DOS:  cpu time    0.01: real time    0.01
    --------------------------------------------
      LOOP:  cpu time   87.63: real time   87.69

 eigenvalue-minimisations  : 10928
 total energy-change (2. order) :-0.2459012E+01  (-0.2443856E+01)
 number of electron     108.0000000 magnetization 
 augmentation part      108.0000000 magnetization 

 Free energy of the ion-electron system (eV)
  ---------------------------------------------------
  alpha Z        PSCENC =        36.80884744
  Ewald energy   TEWEN  =     11893.57011234
  -Hartree energ DENC   =    -14950.86471608
  -exchange      EXHF   =         0.00000000
  -V(xc)+E(xc)   XCENC  =       -88.23316250
  PAW double counting   =      1056.43050070     -732.41190547
  entropy T*S    EENTRO =        -0.01227711
  eigenvalues    EBANDS =      -697.44871387
  atomic energy  EATOM  =      3354.04126044
  ---------------------------------------------------
  free energy    TOTEN  =      -128.12005411 eV

  energy without entropy =     -128.10777700  energy(sigma->0) =     -128.11391556


--------------------------------------------------------------------------------------------------------




----------------------------------------- Iteration    1(   5)  ---------------------------------------


     EDDAV:  cpu time   81.14: real time   81.18
       DOS:  cpu time    0.01: real time    0.01
    CHARGE:  cpu time    4.23: real time    4.23
    MIXING:  cpu time    0.01: real time    0.01
    --------------------------------------------
      LOOP:  cpu time   85.38: real time   85.43

 eigenvalue-minimisations  :  9992
 total energy-change (2. order) :-0.5909301E-01  (-0.5902758E-01)
 number of electron     107.9999995 magnetization 
 augmentation part       -9.5306887 magnetization 

 Broyden mixing:
  rms(total) = 0.99772E+00    rms(broyden)= 0.99751E+00
  rms(prec ) = 0.10551E+01
  weight for this iteration     100.00

 Free energy of the ion-electron system (eV)
  ---------------------------------------------------
  alpha Z        PSCENC =        36.80884744
  Ewald energy   TEWEN  =     11893.57011234
  -Hartree energ DENC   =    -14950.86471608
  -exchange      EXHF   =         0.00000000
  -V(xc)+E(xc)   XCENC  =       -88.23316250
  PAW double counting   =      1056.43050070     -732.41190547
  entropy T*S    EENTRO =        -0.01230986
  eigenvalues    EBANDS =      -697.50777414
  atomic energy  EATOM  =      3354.04126044
  ---------------------------------------------------
  free energy    TOTEN  =      -128.17914712 eV

  energy without entropy =     -128.16683727  energy(sigma->0) =     -128.17299219


--------------------------------------------------------------------------------------------------------




----------------------------------------- Iteration    1(   6)  ---------------------------------------


    POTLOK:  cpu time   12.60: real time   12.60
    SETDIJ:  cpu time    0.01: real time    0.01
     EDDAV:  cpu time   78.99: real time   79.00
       DOS:  cpu time    0.01: real time    0.01
    CHARGE:  cpu time    4.68: real time    4.68
    MIXING:  cpu time    0.01: real time    0.01
    --------------------------------------------
      LOOP:  cpu time   96.30: real time   96.32

 eigenvalue-minimisations  :  8736
 total energy-change (2. order) : 0.1838572E+01  (-0.3490738E+00)
 number of electron     107.9999995 magnetization 
 augmentation part       -9.3957586 magnetization 

 Broyden mixing:
  rms(total) = 0.56037E+00    rms(broyden)= 0.56036E+00
  rms(prec ) = 0.58834E+00
  weight for this iteration     100.00

 eigenvalues of (default mixing * dielectric matrix)
  average eigenvalue GAMMA=   2.0287
  2.0287

 Free energy of the ion-electron system (eV)
  ---------------------------------------------------
  alpha Z        PSCENC =        36.80884744
  Ewald energy   TEWEN  =     11893.57011234
  -Hartree energ DENC   =    -14982.49121122
  -exchange      EXHF   =         0.00000000
  -V(xc)+E(xc)   XCENC  =       -85.11949638
  PAW double counting   =      1114.63093771     -792.15666716
  entropy T*S    EENTRO =        -0.01514639
  eigenvalues    EBANDS =      -665.60921218
  atomic energy  EATOM  =      3354.04126044
  ---------------------------------------------------
  free energy    TOTEN  =      -126.34057540 eV

  energy without entropy =     -126.32542900  energy(sigma->0) =     -126.33300220


--------------------------------------------------------------------------------------------------------




----------------------------------------- Iteration    1(   7)  ---------------------------------------


    POTLOK:  cpu time   12.41: real time   12.41
    SETDIJ:  cpu time    0.01: real time    0.01
     EDDAV:  cpu time   72.85: real time   72.89
       DOS:  cpu time    0.01: real time    0.01
    CHARGE:  cpu time    4.17: real time    4.17
    MIXING:  cpu time    0.01: real time    0.01
    --------------------------------------------
      LOOP:  cpu time   89.46: real time   89.51

 eigenvalue-minimisations  :  8792
 total energy-change (2. order) : 0.2744095E+00  (-0.2784421E+00)
 number of electron     107.9999995 magnetization 
 augmentation part       -9.2615494 magnetization 

 Broyden mixing:
  rms(total) = 0.15152E+00    rms(broyden)= 0.15150E+00
  rms(prec ) = 0.16074E+00
  weight for this iteration     100.00

 eigenvalues of (default mixing * dielectric matrix)
  average eigenvalue GAMMA=   1.7677
  1.2438  2.2916

 Free energy of the ion-electron system (eV)
  ---------------------------------------------------
  alpha Z        PSCENC =        36.80884744
  Ewald energy   TEWEN  =     11893.57011234
  -Hartree energ DENC   =    -15019.91891676
  -exchange      EXHF   =         0.00000000
  -V(xc)+E(xc)   XCENC  =       -81.57502964
  PAW double counting   =      1163.50815561     -842.39390093
  entropy T*S    EENTRO =        -0.01911777
  eigenvalues    EBANDS =      -630.08757668
  atomic energy  EATOM  =      3354.04126044
  ---------------------------------------------------
  free energy    TOTEN  =      -126.06616593 eV

  energy without entropy =     -126.04704817  energy(sigma->0) =     -126.05660705


--------------------------------------------------------------------------------------------------------




----------------------------------------- Iteration    1(   8)  ---------------------------------------


    POTLOK:  cpu time   12.24: real time   12.25
    SETDIJ:  cpu time    0.01: real time    0.01
     EDDAV:  cpu time   78.75: real time   78.79
       DOS:  cpu time    0.01: real time    0.01
    CHARGE:  cpu time    4.51: real time    4.51
    MIXING:  cpu time    0.01: real time    0.01
    --------------------------------------------
      LOOP:  cpu time   95.53: real time   95.59

 eigenvalue-minimisations  :  9064
 total energy-change (2. order) : 0.1320649E-01  (-0.3840402E-01)
 number of electron     107.9999995 magnetization 
 augmentation part       -9.2775648 magnetization 

 Broyden mixing:
  rms(total) = 0.67808E-01    rms(broyden)= 0.67802E-01
  rms(prec ) = 0.72866E-01
  weight for this iteration     100.00

 eigenvalues of (default mixing * dielectric matrix)
  average eigenvalue GAMMA=   1.6551
  2.5160  0.8371  1.6122

 Free energy of the ion-electron system (eV)
  ---------------------------------------------------
  alpha Z        PSCENC =        36.80884744
  Ewald energy   TEWEN  =     11893.57011234
  -Hartree energ DENC   =    -15026.24253385
  -exchange      EXHF   =         0.00000000
  -V(xc)+E(xc)   XCENC  =       -80.98535454
  PAW double counting   =      1161.30367635     -840.14947354
  entropy T*S    EENTRO =        -0.02008407
  eigenvalues    EBANDS =      -624.37941002
  atomic energy  EATOM  =      3354.04126044
  ---------------------------------------------------
  free energy    TOTEN  =      -126.05295944 eV

  energy without entropy =     -126.03287537  energy(sigma->0) =     -126.04291741


--------------------------------------------------------------------------------------------------------




----------------------------------------- Iteration    1(   9)  ---------------------------------------


    POTLOK:  cpu time   13.14: real time   13.16
    SETDIJ:  cpu time    0.01: real time    0.01
     EDDAV:  cpu time   73.87: real time   73.91
       DOS:  cpu time    0.01: real time    0.01
    CHARGE:  cpu time    4.19: real time    4.19
    MIXING:  cpu time    0.01: real time    0.01
    --------------------------------------------
      LOOP:  cpu time   91.24: real time   91.29

 eigenvalue-minimisations  :  8984
 total energy-change (2. order) : 0.2079264E-01  (-0.7638492E-02)
 number of electron     107.9999995 magnetization 
 augmentation part       -9.2841102 magnetization 

 Broyden mixing:
  rms(total) = 0.23366E-01    rms(broyden)= 0.23363E-01
  rms(prec ) = 0.25174E-01
  weight for this iteration     100.00

 eigenvalues of (default mixing * dielectric matrix)
  average eigenvalue GAMMA=   1.5812
  2.6344  1.4963  1.4110  0.7830

 Free energy of the ion-electron system (eV)
  ---------------------------------------------------
  alpha Z        PSCENC =        36.80884744
  Ewald energy   TEWEN  =     11893.57011234
  -Hartree energ DENC   =    -15027.67628581
  -exchange      EXHF   =         0.00000000
  -V(xc)+E(xc)   XCENC  =       -80.74971388
  PAW double counting   =      1157.90661641     -836.66539455
  entropy T*S    EENTRO =        -0.01801048
  eigenvalues    EBANDS =      -623.24959871
  atomic energy  EATOM  =      3354.04126044
  ---------------------------------------------------
  free energy    TOTEN  =      -126.03216680 eV

  energy without entropy =     -126.01415632  energy(sigma->0) =     -126.02316156


--------------------------------------------------------------------------------------------------------




----------------------------------------- Iteration    1(  10)  ---------------------------------------


    POTLOK:  cpu time   12.86: real time   12.87
    SETDIJ:  cpu time    0.01: real time    0.01
     EDDAV:  cpu time   86.07: real time   86.12
       DOS:  cpu time    0.01: real time    0.01
    CHARGE:  cpu time    5.05: real time    5.06
    MIXING:  cpu time    0.01: real time    0.01
    --------------------------------------------
      LOOP:  cpu time  104.02: real time  104.08

 eigenvalue-minimisations  :  9136
 total energy-change (2. order) : 0.1174409E-01  (-0.1117063E-02)
 number of electron     107.9999995 magnetization 
 augmentation part       -9.2853558 magnetization 

 Broyden mixing:
  rms(total) = 0.96921E-02    rms(broyden)= 0.96903E-02
  rms(prec ) = 0.11442E-01
  weight for this iteration     100.00

 eigenvalues of (default mixing * dielectric matrix)
  average eigenvalue GAMMA=   1.5366
  2.6391  1.7984  1.4722  0.8868  0.8868

 Free energy of the ion-electron system (eV)
  ---------------------------------------------------
  alpha Z        PSCENC =        36.80884744
  Ewald energy   TEWEN  =     11893.57011234
  -Hartree energ DENC   =    -15029.30425337
  -exchange      EXHF   =         0.00000000
  -V(xc)+E(xc)   XCENC  =       -80.65567752
  PAW double counting   =      1156.90521530     -835.62915214
  entropy T*S    EENTRO =        -0.01796958
  eigenvalues    EBANDS =      -621.73880563
  atomic energy  EATOM  =      3354.04126044
  ---------------------------------------------------
  free energy    TOTEN  =      -126.02042271 eV

  energy without entropy =     -126.00245313  energy(sigma->0) =     -126.01143792


--------------------------------------------------------------------------------------------------------




----------------------------------------- Iteration    1(  11)  ---------------------------------------


    POTLOK:  cpu time   13.22: real time   13.23
    SETDIJ:  cpu time    0.01: real time    0.01
     EDDAV:  cpu time   79.36: real time   79.40
       DOS:  cpu time    0.01: real time    0.01
    CHARGE:  cpu time    4.44: real time    4.44
    MIXING:  cpu time    0.01: real time    0.01
    --------------------------------------------
      LOOP:  cpu time   97.05: real time   97.10

 eigenvalue-minimisations  :  9104
 total energy-change (2. order) : 0.6216888E-02  (-0.2409429E-03)
 number of electron     107.9999995 magnetization 
 augmentation part       -9.2845350 magnetization 

 Broyden mixing:
  rms(total) = 0.44390E-02    rms(broyden)= 0.44385E-02
  rms(prec ) = 0.57143E-02
  weight for this iteration     100.00

 eigenvalues of (default mixing * dielectric matrix)
  average eigenvalue GAMMA=   1.5387
  2.6749  2.1151  1.3202  1.3202  0.9008  0.9008

 Free energy of the ion-electron system (eV)
  ---------------------------------------------------
  alpha Z        PSCENC =        36.80884744
  Ewald energy   TEWEN  =     11893.57011234
  -Hartree energ DENC   =    -15030.70735679
  -exchange      EXHF   =         0.00000000
  -V(xc)+E(xc)   XCENC  =       -80.64544377
  PAW double counting   =      1156.01048912     -834.70877740
  entropy T*S    EENTRO =        -0.01799168
  eigenvalues    EBANDS =      -620.36534553
  atomic energy  EATOM  =      3354.04126044
  ---------------------------------------------------
  free energy    TOTEN  =      -126.01420582 eV

  energy without entropy =     -125.99621414  energy(sigma->0) =     -126.00520998


--------------------------------------------------------------------------------------------------------




----------------------------------------- Iteration    1(  12)  ---------------------------------------


    POTLOK:  cpu time   12.65: real time   12.65
    SETDIJ:  cpu time    0.01: real time    0.01
     EDDAV:  cpu time   73.91: real time   73.94
       DOS:  cpu time    0.01: real time    0.01
    CHARGE:  cpu time    4.36: real time    4.36
    MIXING:  cpu time    0.01: real time    0.01
    --------------------------------------------
      LOOP:  cpu time   90.96: real time   90.99

 eigenvalue-minimisations  :  8832
 total energy-change (2. order) : 0.3412321E-02  (-0.5677904E-04)
 number of electron     107.9999995 magnetization 
 augmentation part       -9.2841994 magnetization 

 Broyden mixing:
  rms(total) = 0.20929E-02    rms(broyden)= 0.20926E-02
  rms(prec ) = 0.32528E-02
  weight for this iteration     100.00

 eigenvalues of (default mixing * dielectric matrix)
  average eigenvalue GAMMA=   1.5370
  2.7295  2.2466  1.4126  1.4126  1.0451  0.9564  0.9564

 Free energy of the ion-electron system (eV)
  ---------------------------------------------------
  alpha Z        PSCENC =        36.80884744
  Ewald energy   TEWEN  =     11893.57011234
  -Hartree energ DENC   =    -15031.53020452
  -exchange      EXHF   =         0.00000000
  -V(xc)+E(xc)   XCENC  =       -80.63978183
  PAW double counting   =      1155.44283698     -834.12636569
  entropy T*S    EENTRO =        -0.01788619
  eigenvalues    EBANDS =      -619.55961249
  atomic energy  EATOM  =      3354.04126044
  ---------------------------------------------------
  free energy    TOTEN  =      -126.01079350 eV

  energy without entropy =     -125.99290731  energy(sigma->0) =     -126.00185041


--------------------------------------------------------------------------------------------------------




----------------------------------------- Iteration    1(  13)  ---------------------------------------


    POTLOK:  cpu time   13.13: real time   13.13
    SETDIJ:  cpu time    0.01: real time    0.02
     EDDAV:  cpu time   89.20: real time   89.25
       DOS:  cpu time    0.01: real time    0.01
    CHARGE:  cpu time    5.33: real time    5.33
    MIXING:  cpu time    0.01: real time    0.01
    --------------------------------------------
      LOOP:  cpu time  107.69: real time  107.75

 eigenvalue-minimisations  :  9640
 total energy-change (2. order) : 0.1603284E-02  (-0.1455618E-04)
 number of electron     107.9999995 magnetization 
 augmentation part       -9.2839692 magnetization 

 Broyden mixing:
  rms(total) = 0.12165E-02    rms(broyden)= 0.12164E-02
  rms(prec ) = 0.21279E-02
  weight for this iteration     100.00

 eigenvalues of (default mixing * dielectric matrix)
  average eigenvalue GAMMA=   1.5732
  2.8631  2.4873  1.8379  1.3750  1.3750  0.8513  0.8981  0.8981

 Free energy of the ion-electron system (eV)
  ---------------------------------------------------
  alpha Z        PSCENC =        36.80884744
  Ewald energy   TEWEN  =     11893.57011234
  -Hartree energ DENC   =    -15032.36182297
  -exchange      EXHF   =         0.00000000
  -V(xc)+E(xc)   XCENC  =       -80.63366545
  PAW double counting   =      1155.19802489     -833.87551449
  entropy T*S    EENTRO =        -0.01787007
  eigenvalues    EBANDS =      -618.73856235
  atomic energy  EATOM  =      3354.04126044
  ---------------------------------------------------
  free energy    TOTEN  =      -126.00919022 eV

  energy without entropy =     -125.99132015  energy(sigma->0) =     -126.00025518


--------------------------------------------------------------------------------------------------------




----------------------------------------- Iteration    1(  14)  ---------------------------------------


    POTLOK:  cpu time   13.48: real time   13.48
    SETDIJ:  cpu time    0.01: real time    0.01
     EDDAV:  cpu time   73.42: real time   73.47
       DOS:  cpu time    0.01: real time    0.01
    CHARGE:  cpu time    4.43: real time    4.43
    MIXING:  cpu time    0.01: real time    0.01
    --------------------------------------------
      LOOP:  cpu time   91.36: real time   91.41

 eigenvalue-minimisations  :  8696
 total energy-change (2. order) : 0.7710825E-03  (-0.6123449E-05)
 number of electron     107.9999995 magnetization 
 augmentation part       -9.2838493 magnetization 

 Broyden mixing:
  rms(total) = 0.71097E-03    rms(broyden)= 0.71093E-03
  rms(prec ) = 0.13260E-02
  weight for this iteration     100.00

 eigenvalues of (default mixing * dielectric matrix)
  average eigenvalue GAMMA=   1.6058
  3.1526  2.6103  1.6699  1.6699  1.2627  1.2627  0.8999  0.9621  0.9621

 Free energy of the ion-electron system (eV)
  ---------------------------------------------------
  alpha Z        PSCENC =        36.80884744
  Ewald energy   TEWEN  =     11893.57011234
  -Hartree energ DENC   =    -15033.21123609
  -exchange      EXHF   =         0.00000000
  -V(xc)+E(xc)   XCENC  =       -80.62811824
  PAW double counting   =      1155.08817162     -833.76295127
  entropy T*S    EENTRO =        -0.01784391
  eigenvalues    EBANDS =      -617.89666148
  atomic energy  EATOM  =      3354.04126044
  ---------------------------------------------------
  free energy    TOTEN  =      -126.00841913 eV

  energy without entropy =     -125.99057523  energy(sigma->0) =     -125.99949718


--------------------------------------------------------------------------------------------------------




----------------------------------------- Iteration    1(  15)  ---------------------------------------


    POTLOK:  cpu time   13.24: real time   13.25
    SETDIJ:  cpu time    0.01: real time    0.01
     EDDAV:  cpu time   70.00: real time   70.04
       DOS:  cpu time    0.01: real time    0.01
    CHARGE:  cpu time    4.37: real time    4.37
    MIXING:  cpu time    0.01: real time    0.01
    --------------------------------------------
      LOOP:  cpu time   87.64: real time   87.70

 eigenvalue-minimisations  :  8224
 total energy-change (2. order) :-0.2911000E-04  (-0.3936873E-05)
 number of electron     107.9999995 magnetization 
 augmentation part       -9.2837480 magnetization 

 Broyden mixing:
  rms(total) = 0.48559E-03    rms(broyden)= 0.48558E-03
  rms(prec ) = 0.84980E-03
  weight for this iteration     100.00

 eigenvalues of (default mixing * dielectric matrix)
  average eigenvalue GAMMA=   1.7610
  4.2913  2.7453  2.3663  1.7089  1.3186  1.3186  1.0773  0.8890  0.9473  0.9473

 Free energy of the ion-electron system (eV)
  ---------------------------------------------------
  alpha Z        PSCENC =        36.80884744
  Ewald energy   TEWEN  =     11893.57011234
  -Hartree energ DENC   =    -15033.82402411
  -exchange      EXHF   =         0.00000000
  -V(xc)+E(xc)   XCENC  =       -80.62453730
  PAW double counting   =      1155.05141409     -833.72537237
  entropy T*S    EENTRO =        -0.01783858
  eigenvalues    EBANDS =      -617.28831021
  atomic energy  EATOM  =      3354.04126044
  ---------------------------------------------------
  free energy    TOTEN  =      -126.00844824 eV

  energy without entropy =     -125.99060967  energy(sigma->0) =     -125.99952896


--------------------------------------------------------------------------------------------------------




----------------------------------------- Iteration    1(  16)  ---------------------------------------


    POTLOK:  cpu time   13.19: real time   13.20
    SETDIJ:  cpu time    0.01: real time    0.01
     EDDAV:  cpu time   73.66: real time   73.67
       DOS:  cpu time    0.01: real time    0.01
    CHARGE:  cpu time    5.15: real time    5.15
    MIXING:  cpu time    0.01: real time    0.01
    --------------------------------------------
      LOOP:  cpu time   92.04: real time   92.06

 eigenvalue-minimisations  :  8216
 total energy-change (2. order) :-0.6496717E-03  (-0.2052058E-04)
 number of electron     107.9999995 magnetization 
 augmentation part       -9.2836735 magnetization 

 Broyden mixing:
  rms(total) = 0.23670E-03    rms(broyden)= 0.23668E-03
  rms(prec ) = 0.40886E-03
  weight for this iteration     100.00

 eigenvalues of (default mixing * dielectric matrix)
  average eigenvalue GAMMA=   1.8289
  5.2857  2.7937  2.4730  1.6350  1.6350  1.2937  1.2937  0.9109  0.9109  0.9431
  0.9431

 Free energy of the ion-electron system (eV)
  ---------------------------------------------------
  alpha Z        PSCENC =        36.80884744
  Ewald energy   TEWEN  =     11893.57011234
  -Hartree energ DENC   =    -15034.43774874
  -exchange      EXHF   =         0.00000000
  -V(xc)+E(xc)   XCENC  =       -80.62162192
  PAW double counting   =      1155.09340606     -833.76848437
  entropy T*S    EENTRO =        -0.01783371
  eigenvalues    EBANDS =      -616.67703545
  atomic energy  EATOM  =      3354.04126044
  ---------------------------------------------------
  free energy    TOTEN  =      -126.00909792 eV

  energy without entropy =     -125.99126420  energy(sigma->0) =     -126.00018106


--------------------------------------------------------------------------------------------------------




----------------------------------------- Iteration    1(  17)  ---------------------------------------


    POTLOK:  cpu time   13.43: real time   13.44
    SETDIJ:  cpu time    0.01: real time    0.01
     EDDAV:  cpu time   72.57: real time   72.62
       DOS:  cpu time    0.01: real time    0.01
    CHARGE:  cpu time    4.86: real time    4.87
    MIXING:  cpu time    0.01: real time    0.01
    --------------------------------------------
      LOOP:  cpu time   90.91: real time   90.97

 eigenvalue-minimisations  :  7608
 total energy-change (2. order) :-0.9521931E-04  (-0.4962634E-05)
 number of electron     107.9999995 magnetization 
 augmentation part       -9.2836526 magnetization 

 Broyden mixing:
  rms(total) = 0.15538E-03    rms(broyden)= 0.15537E-03
  rms(prec ) = 0.27673E-03
  weight for this iteration     100.00

 eigenvalues of (default mixing * dielectric matrix)
  average eigenvalue GAMMA=   1.9158
  6.0328  2.8918  2.6803  2.0405  1.7427  1.3790  1.3790  0.8782  0.9413  0.9413
  1.0412  1.0412

 Free energy of the ion-electron system (eV)
  ---------------------------------------------------
  alpha Z        PSCENC =        36.80884744
  Ewald energy   TEWEN  =     11893.57011234
  -Hartree energ DENC   =    -15034.63417917
  -exchange      EXHF   =         0.00000000
  -V(xc)+E(xc)   XCENC  =       -80.62082285
  PAW double counting   =      1155.09904664     -833.77417864
  entropy T*S    EENTRO =        -0.01783138
  eigenvalues    EBANDS =      -616.48144796
  atomic energy  EATOM  =      3354.04126044
  ---------------------------------------------------
  free energy    TOTEN  =      -126.00919314 eV

  energy without entropy =     -125.99136175  energy(sigma->0) =     -126.00027744


--------------------------------------------------------------------------------------------------------




----------------------------------------- Iteration    1(  18)  ---------------------------------------


    POTLOK:  cpu time   12.68: real time   12.70
    SETDIJ:  cpu time    0.01: real time    0.01
     EDDAV:  cpu time   58.30: real time   58.33
       DOS:  cpu time    0.01: real time    0.01
    CHARGE:  cpu time    4.63: real time    4.64
    MIXING:  cpu time    0.01: real time    0.01
    --------------------------------------------
      LOOP:  cpu time   75.65: real time   75.70

 eigenvalue-minimisations  :  6544
 total energy-change (2. order) :-0.3568233E-04  (-0.2542445E-05)
 number of electron     107.9999995 magnetization 
 augmentation part       -9.2836473 magnetization 

 Broyden mixing:
  rms(total) = 0.10494E-03    rms(broyden)= 0.10493E-03
  rms(prec ) = 0.17234E-03
  weight for this iteration     100.00

 eigenvalues of (default mixing * dielectric matrix)
  average eigenvalue GAMMA=   1.9009
  6.4098  3.0357  2.6313  2.1600  1.4850  1.4850  1.3868  1.3868  0.8823  0.9689
  0.9689  0.9557  0.9557

 Free energy of the ion-electron system (eV)
  ---------------------------------------------------
  alpha Z        PSCENC =        36.80884744
  Ewald energy   TEWEN  =     11893.57011234
  -Hartree energ DENC   =    -15034.78961270
  -exchange      EXHF   =         0.00000000
  -V(xc)+E(xc)   XCENC  =       -80.62034874
  PAW double counting   =      1155.09992108     -833.77497512
  entropy T*S    EENTRO =        -0.01783208
  eigenvalues    EBANDS =      -616.32660148
  atomic energy  EATOM  =      3354.04126044
  ---------------------------------------------------
  free energy    TOTEN  =      -126.00922882 eV

  energy without entropy =     -125.99139674  energy(sigma->0) =     -126.00031278


--------------------------------------------------------------------------------------------------------




----------------------------------------- Iteration    1(  19)  ---------------------------------------


    POTLOK:  cpu time   13.23: real time   13.24
    SETDIJ:  cpu time    0.01: real time    0.01
     EDDAV:  cpu time   62.34: real time   62.36
       DOS:  cpu time    0.01: real time    0.01
    CHARGE:  cpu time    5.01: real time    5.01
    MIXING:  cpu time    0.01: real time    0.01
    --------------------------------------------
      LOOP:  cpu time   80.62: real time   80.65

 eigenvalue-minimisations  :  6040
 total energy-change (2. order) :-0.2871595E-04  (-0.4044882E-06)
 number of electron     107.9999995 magnetization 
 augmentation part       -9.2836498 magnetization 

 Broyden mixing:
  rms(total) = 0.70223E-04    rms(broyden)= 0.70219E-04
  rms(prec ) = 0.12511E-03
  weight for this iteration     100.00

 eigenvalues of (default mixing * dielectric matrix)
  average eigenvalue GAMMA=   1.9571
  6.8953  3.4025  2.7821  2.3036  1.6836  1.4880  1.4880  1.2885  1.2885  1.0064
  1.0064  0.8713  0.9479  0.9479

 Free energy of the ion-electron system (eV)
  ---------------------------------------------------
  alpha Z        PSCENC =        36.80884744
  Ewald energy   TEWEN  =     11893.57011234
  -Hartree energ DENC   =    -15034.80797089
  -exchange      EXHF   =         0.00000000
  -V(xc)+E(xc)   XCENC  =       -80.62054975
  PAW double counting   =      1155.09799227     -833.77301268
  entropy T*S    EENTRO =        -0.01783069
  eigenvalues    EBANDS =      -616.30810601
  atomic energy  EATOM  =      3354.04126044
  ---------------------------------------------------
  free energy    TOTEN  =      -126.00925753 eV

  energy without entropy =     -125.99142685  energy(sigma->0) =     -126.00034219


--------------------------------------------------------------------------------------------------------




----------------------------------------- Iteration    1(  20)  ---------------------------------------


    POTLOK:  cpu time   13.68: real time   13.69
    SETDIJ:  cpu time    0.01: real time    0.01
     EDDAV:  cpu time   69.71: real time   69.76
       DOS:  cpu time    0.01: real time    0.01
    CHARGE:  cpu time    5.01: real time    5.01
    MIXING:  cpu time    0.01: real time    0.01
    --------------------------------------------
      LOOP:  cpu time   88.45: real time   88.50

 eigenvalue-minimisations  :  6880
 total energy-change (2. order) : 0.3712031E-04  (-0.2338155E-05)
 number of electron     107.9999995 magnetization 
 augmentation part       -9.2836476 magnetization 

 Broyden mixing:
  rms(total) = 0.48127E-04    rms(broyden)= 0.48125E-04
  rms(prec ) = 0.72156E-04
  weight for this iteration     100.00

 eigenvalues of (default mixing * dielectric matrix)
  average eigenvalue GAMMA=   2.0185
  7.0499  4.3680  2.8022  2.5854  1.9087  1.4657  1.4657  1.4943  1.2915  1.1240
  0.9795  0.9795  0.9457  0.9457  0.8716

 Free energy of the ion-electron system (eV)
  ---------------------------------------------------
  alpha Z        PSCENC =        36.80884744
  Ewald energy   TEWEN  =     11893.57011234
  -Hartree energ DENC   =    -15034.86600787
  -exchange      EXHF   =         0.00000000
  -V(xc)+E(xc)   XCENC  =       -80.62038218
  PAW double counting   =      1155.09556098     -833.77051357
  entropy T*S    EENTRO =        -0.01783102
  eigenvalues    EBANDS =      -616.25026698
  atomic energy  EATOM  =      3354.04126044
  ---------------------------------------------------
  free energy    TOTEN  =      -126.00922041 eV

  energy without entropy =     -125.99138940  energy(sigma->0) =     -126.00030490


--------------------------------------------------------------------------------------------------------




----------------------------------------- Iteration    1(  21)  ---------------------------------------


    POTLOK:  cpu time   13.63: real time   13.65
    SETDIJ:  cpu time    0.02: real time    0.02
     EDDAV:  cpu time   63.88: real time   63.89
       DOS:  cpu time    0.01: real time    0.01
    CHARGE:  cpu time    4.89: real time    4.89
    MIXING:  cpu time    0.01: real time    0.01
    --------------------------------------------
      LOOP:  cpu time   82.44: real time   82.47

 eigenvalue-minimisations  :  6240
 total energy-change (2. order) : 0.2551847E-04  (-0.1385059E-05)
 number of electron     107.9999995 magnetization 
 augmentation part       -9.2836508 magnetization 

 Broyden mixing:
  rms(total) = 0.25928E-04    rms(broyden)= 0.25926E-04
  rms(prec ) = 0.35575E-04
  weight for this iteration     100.00

 eigenvalues of (default mixing * dielectric matrix)
  average eigenvalue GAMMA=   2.1657
  7.9717  5.7456  2.9975  2.6186  2.1492  1.8791  1.4161  1.4161  1.3480  1.3480
  1.0114  1.0114  0.9409  0.9409  0.8741  0.9826

 Free energy of the ion-electron system (eV)
  ---------------------------------------------------
  alpha Z        PSCENC =        36.80884744
  Ewald energy   TEWEN  =     11893.57011234
  -Hartree energ DENC   =    -15034.86202809
  -exchange      EXHF   =         0.00000000
  -V(xc)+E(xc)   XCENC  =       -80.62055842
  PAW double counting   =      1155.09404488     -833.76896866
  entropy T*S    EENTRO =        -0.01783145
  eigenvalues    EBANDS =      -616.25407339
  atomic energy  EATOM  =      3354.04126044
  ---------------------------------------------------
  free energy    TOTEN  =      -126.00919490 eV

  energy without entropy =     -125.99136344  energy(sigma->0) =     -126.00027917


--------------------------------------------------------------------------------------------------------




----------------------------------------- Iteration    1(  22)  ---------------------------------------


    POTLOK:  cpu time   13.96: real time   13.98
    SETDIJ:  cpu time    0.01: real time    0.02
     EDDAV:  cpu time   64.65: real time   64.70
       DOS:  cpu time    0.01: real time    0.01
    CHARGE:  cpu time    4.74: real time    4.75
    MIXING:  cpu time    0.01: real time    0.01
    --------------------------------------------
      LOOP:  cpu time   83.40: real time   83.46

 eigenvalue-minimisations  :  6576
 total energy-change (2. order) : 0.6040970E-04  (-0.1008945E-05)
 number of electron     107.9999995 magnetization 
 augmentation part       -9.2836485 magnetization 

 Broyden mixing:
  rms(total) = 0.13514E-04    rms(broyden)= 0.13512E-04
  rms(prec ) = 0.16470E-04
  weight for this iteration     100.00

 eigenvalues of (default mixing * dielectric matrix)
  average eigenvalue GAMMA=   2.1929
  8.1842  6.4322  3.0469  2.6394  2.3852  1.7477  1.7477  1.4094  1.4094  1.3483
  1.0404  1.0404  0.9582  0.9582  1.0713  0.8718  0.9879

 Free energy of the ion-electron system (eV)
  ---------------------------------------------------
  alpha Z        PSCENC =        36.80884744
  Ewald energy   TEWEN  =     11893.57011234
  -Hartree energ DENC   =    -15034.87461616
  -exchange      EXHF   =         0.00000000
  -V(xc)+E(xc)   XCENC  =       -80.62055254
  PAW double counting   =      1155.09285490     -833.76776891
  entropy T*S    EENTRO =        -0.01783061
  eigenvalues    EBANDS =      -616.24144139
  atomic energy  EATOM  =      3354.04126044
  ---------------------------------------------------
  free energy    TOTEN  =      -126.00913449 eV

  energy without entropy =     -125.99130388  energy(sigma->0) =     -126.00021918


--------------------------------------------------------------------------------------------------------




----------------------------------------- Iteration    1(  23)  ---------------------------------------


    POTLOK:  cpu time   13.40: real time   13.41
    SETDIJ:  cpu time    0.01: real time    0.01
     EDDAV:  cpu time   61.39: real time   61.44
       DOS:  cpu time    0.01: real time    0.01
    CHARGE:  cpu time    4.69: real time    4.69
    MIXING:  cpu time    0.02: real time    0.02
    --------------------------------------------
      LOOP:  cpu time   79.53: real time   79.59

 eigenvalue-minimisations  :  6232
 total energy-change (2. order) : 0.2743415E-05  (-0.7563410E-06)
 number of electron     107.9999995 magnetization 
 augmentation part       -9.2836489 magnetization 

 Broyden mixing:
  rms(total) = 0.61529E-05    rms(broyden)= 0.61502E-05
  rms(prec ) = 0.76255E-05
  weight for this iteration     100.00

 eigenvalues of (default mixing * dielectric matrix)
  average eigenvalue GAMMA=   2.2338
  8.9865  6.7058  3.1843  2.7352  2.3920  1.9411  1.9411  1.3951  1.3951  1.3537
  1.3537  0.9998  0.9998  0.8738  0.9459  0.9459  1.0657  0.9942

 Free energy of the ion-electron system (eV)
  ---------------------------------------------------
  alpha Z        PSCENC =        36.80884744
  Ewald energy   TEWEN  =     11893.57011234
  -Hartree energ DENC   =    -15034.86963680
  -exchange      EXHF   =         0.00000000
  -V(xc)+E(xc)   XCENC  =       -80.62059129
  PAW double counting   =      1155.09362854     -833.76856473
  entropy T*S    EENTRO =        -0.01783105
  eigenvalues    EBANDS =      -616.24635664
  atomic energy  EATOM  =      3354.04126044
  ---------------------------------------------------
  free energy    TOTEN  =      -126.00913174 eV

  energy without entropy =     -125.99130070  energy(sigma->0) =     -126.00021622


[...]
     31      -4.0396      2.00000
     32      -3.9737      2.00000
     33      -3.8503      2.00000
     34      -3.7326      2.00000
     35      -3.3747      2.00000
     36      -3.2445      2.00000
     37      -3.1669      2.00000
     38      -3.0664      2.00000
     39      -2.9264      2.00000
     40      -2.6905      2.00000
     41      -2.6420      2.00000
     42      -2.5489      2.00000
     43      -2.4788      2.00000
     44      -2.4026      2.00000
     45      -2.0128      2.00000
     46      -1.9789      2.00000
     47      -1.8805      2.00000
     48      -1.7693      2.00000
     49      -1.4310      2.00000
     50      -1.3791      2.00000
     51      -1.0754      2.00000
     52      -0.9076      2.00000
     53      -0.6646      2.00000
     54      -0.1757      1.97296
     55       0.4421      0.00000
     56       0.8646      0.00000
     57       1.2359      0.00000
     58       1.4438      0.00000
     59       1.5687      0.00000
     60       1.8534      0.00000
     61       2.1830      0.00000
     62       2.2998      0.00000
     63       2.5856      0.00000
     64       2.6928      0.00000
     65       2.8463      0.00000
     66       2.9837      0.00000
     67       3.0719      0.00000
     68       3.2482      0.00000

 k-point    52 :       0.3077    0.5000    0.5000
  band No.  band energies     occupation 
      1     -13.6308      2.00000
      2     -12.5111      2.00000
      3     -12.1681      2.00000
      4     -12.0024      2.00000
      5     -11.6679      2.00000
      6     -11.5920      2.00000
      7     -11.2304      2.00000
      8     -11.0194      2.00000
      9     -10.8087      2.00000
     10     -10.7199      2.00000
     11     -10.3961      2.00000
     12     -10.0128      2.00000
     13      -8.9250      2.00000
     14      -8.7222      2.00000
     15      -7.7787      2.00000
     16      -7.7124      2.00000
     17      -7.2314      2.00000
     18      -7.0680      2.00000
     19      -6.9672      2.00000
     20      -6.6462      2.00000
     21      -6.4810      2.00000
     22      -6.2247      2.00000
     23      -6.1880      2.00000
     24      -5.9252      2.00000
     25      -5.3621      2.00000
     26      -5.2343      2.00000
     27      -4.8996      2.00000
     28      -4.6972      2.00000
     29      -4.5924      2.00000
     30      -4.4965      2.00000
     31      -4.4134      2.00000
     32      -4.3048      2.00000
     33      -4.0857      2.00000
     34      -3.9172      2.00000
     35      -3.3402      2.00000
     36      -3.2663      2.00000
     37      -3.1452      2.00000
     38      -3.0650      2.00000
     39      -3.0208      2.00000
     40      -2.9611      2.00000
     41      -2.8977      2.00000
     42      -2.6289      2.00000
     43      -2.5246      2.00000
     44      -2.4064      2.00000
     45      -2.2711      2.00000
     46      -2.2192      2.00000
     47      -1.9501      2.00000
     48      -1.8795      2.00000
     49      -1.7420      2.00000
     50      -1.4931      2.00000
     51      -1.3153      2.00000
     52      -1.1465      2.00000
     53      -0.7055      2.00000
     54      -0.2195      1.99537
     55       0.2190      0.00075
     56       0.5577      0.00000
     57       0.7829      0.00000
     58       1.2752      0.00000
     59       1.3384      0.00000
     60       1.4264      0.00000
     61       1.8844      0.00000
     62       2.1712      0.00000
     63       2.2531      0.00000
     64       2.4499      0.00000
     65       2.5210      0.00000
     66       2.6211      0.00000
     67       2.8612      0.00000
     68       2.9593      0.00000

 k-point    53 :       0.3846    0.5000    0.5000
  band No.  band energies     occupation 
      1     -13.2272      2.00000
      2     -12.0349      2.00000
      3     -11.6718      2.00000
      4     -11.6556      2.00000
      5     -11.2746      2.00000
      6     -11.2273      2.00000
      7     -11.0654      2.00000
      8     -10.7761      2.00000
      9     -10.6173      2.00000
     10     -10.5374      2.00000
     11     -10.4622      2.00000
     12     -10.0492      2.00000
     13      -8.9090      2.00000
     14      -8.6285      2.00000
     15      -8.2520      2.00000
     16      -7.9825      2.00000
     17      -7.6693      2.00000
     18      -7.6170      2.00000
     19      -7.3850      2.00000
     20      -7.0738      2.00000
     21      -7.0089      2.00000
     22      -6.7225      2.00000
     23      -6.6614      2.00000
     24      -6.5831      2.00000
     25      -5.3040      2.00000
     26      -5.2584      2.00000
     27      -4.7780      2.00000
     28      -4.6777      2.00000
     29      -4.5227      2.00000
     30      -4.4446      2.00000
     31      -4.2830      2.00000
     32      -4.1340      2.00000
     33      -4.0469      2.00000
     34      -4.0294      2.00000
     35      -3.5577      2.00000
     36      -3.5267      2.00000
     37      -3.3538      2.00000
     38      -3.1947      2.00000
     39      -3.1514      2.00000
     40      -3.1332      2.00000
     41      -2.9086      2.00000
     42      -2.8333      2.00000
     43      -2.6465      2.00000
     44      -2.4664      2.00000
     45      -2.3168      2.00000
     46      -2.2579      2.00000
     47      -2.1039      2.00000
     48      -2.0449      2.00000
     49      -1.8594      2.00000
     50      -1.6532      2.00000
     51      -1.4483      2.00000
     52      -1.2874      2.00000
     53      -0.7155      2.00000
     54      -0.3022      1.99994
     55       0.1303      0.03436
     56       0.4130      0.00000
     57       0.4795      0.00000
     58       1.1261      0.00000
     59       1.2701      0.00000
     60       1.5281      0.00000
     61       1.7278      0.00000
     62       1.8347      0.00000
     63       2.0759      0.00000
     64       2.1433      0.00000
     65       2.2845      0.00000
     66       2.3556      0.00000
     67       2.4942      0.00000
     68       2.6752      0.00000

 k-point    54 :       0.4615    0.5000    0.5000
  band No.  band energies     occupation 
      1     -12.8956      2.00000
      2     -11.5856      2.00000
      3     -11.4918      2.00000
      4     -11.1738      2.00000
      5     -10.9874      2.00000
      6     -10.9490      2.00000
      7     -10.8556      2.00000
      8     -10.8098      2.00000
      9     -10.7270      2.00000
     10     -10.6174      2.00000
     11     -10.4912      2.00000
     12     -10.1581      2.00000
     13      -8.6684      2.00000
     14      -8.5808      2.00000
     15      -8.4407      2.00000
     16      -8.1260      2.00000
     17      -8.0978      2.00000
     18      -7.7913      2.00000
     19      -7.5711      2.00000
     20      -7.5529      2.00000
     21      -7.3554      2.00000
     22      -7.2889      2.00000
     23      -7.1745      2.00000
     24      -6.7946      2.00000
     25      -5.1359      2.00000
     26      -4.9501      2.00000
     27      -4.7515      2.00000
     28      -4.4933      2.00000
     29      -4.4503      2.00000
     30      -4.2613      2.00000
     31      -4.1251      2.00000
     32      -4.0646      2.00000
     33      -3.9447      2.00000
     34      -3.9261      2.00000
     35      -3.7915      2.00000
     36      -3.7564      2.00000
     37      -3.5559      2.00000
     38      -3.4849      2.00000
     39      -3.3295      2.00000
     40      -3.2630      2.00000
     41      -3.0687      2.00000
     42      -3.0187      2.00000
     43      -2.6978      2.00000
     44      -2.5957      2.00000
     45      -2.3765      2.00000
     46      -2.2107      2.00000
     47      -2.1709      2.00000
     48      -2.0846      2.00000
     49      -1.7509      2.00000
     50      -1.6983      2.00000
     51      -1.5332      2.00000
     52      -1.2917      2.00000
     53      -0.6643      2.00000
     54      -0.4330      2.00000
     55       0.0813      0.15457
     56       0.2791      0.00002
     57       0.3382      0.00000
     58       1.2057      0.00000
     59       1.3569      0.00000
     60       1.5733      0.00000
     61       1.6244      0.00000
     62       1.6826      0.00000
     63       1.8679      0.00000
     64       2.0221      0.00000
     65       2.1306      0.00000
     66       2.2510      0.00000
     67       2.3580      0.00000
     68       2.4914      0.00000


--------------------------------------------------------------------------------------------------------


 soft charge-density along one line, spin component           1
         0         1         2         3         4         5         6         7         8         9
 total charge-density along one line
 
 pseudopotential strength for first ion, spin component:           1
 29.777   0.008  -0.000  -0.023  -0.000  -0.000  -0.001  -0.000
  0.008   0.009  -0.000  -0.000   0.000   0.000   0.000  -0.000
 -0.000  -0.000   6.548  -0.001  -0.000  -0.003   0.000   0.000
 -0.023  -0.000  -0.001   6.543  -0.000   0.000  -0.002   0.000
 -0.000   0.000  -0.000  -0.000   6.549   0.000   0.000  -0.003
 -0.000   0.000  -0.003   0.000   0.000   0.015  -0.000  -0.000
 -0.001   0.000   0.000  -0.002   0.000  -0.000   0.015   0.000
 -0.000  -0.000   0.000   0.000  -0.003  -0.000   0.000   0.015
 total augmentation occupancy for first ion, spin component:           1
  1.814  -0.358   0.008   0.255   0.000   0.006   0.112  -0.000
 -0.358   1.291   0.030   0.856   0.000   0.002  -0.432   0.000
  0.008   0.030   1.143   0.011  -0.000  -0.504   0.016   0.000
  0.255   0.856   0.011   1.293   0.000   0.016  -0.421  -0.000
  0.000   0.000  -0.000   0.000   1.144   0.000  -0.000  -0.527
  0.006   0.002  -0.504   0.016   0.000   0.292  -0.016  -0.000
  0.112  -0.432   0.016  -0.421  -0.000  -0.016   0.228   0.000
 -0.000   0.000   0.000  -0.000  -0.527  -0.000   0.000   0.326


------------------------ aborting loop because EDIFF is reached ----------------------------------------


    CHARGE:  cpu time    4.51: real time    4.51
    FORLOC:  cpu time    0.05: real time    0.05
    FORNL :  cpu time   23.63: real time   23.65
    STRESS:  cpu time   59.85: real time   59.87
    FORCOR:  cpu time   13.60: real time   13.60
    FORHAR:  cpu time    0.13: real time    0.13
    MIXING:  cpu time    0.02: real time    0.02
    OFIELD:  cpu time    0.00: real time    0.00

  FORCE on cell =-STRESS in cart. coord.  units (eV):
  Direction    XX          YY          ZZ          XY          YZ          ZX
  --------------------------------------------------------------------------------------
  Alpha Z    36.80885    36.80885    36.80885
  Ewald   14336.40815 13969.35700-16412.20236     3.18764   -16.99127    -4.20562
  Hartree 14867.57061 14591.50527-14424.20427     1.09649    -6.78876    -0.69988
  E(xc)    -356.51057  -356.13095  -354.78693    -0.04969     0.09563    -0.06597
  Local  -30744.50959-30116.90793 29248.32249    -4.77635    22.47773     3.59181
  n-local  1143.75853  1148.00381  1143.48070     0.82212     0.93303     0.35423
  augment  -199.74965  -201.86225  -204.37514    -0.04303     0.76133    -0.15543
  Kinetic   912.76165   930.23313   978.07270    -0.49833   -18.11824     0.28870
  Fock        0.00000     0.00000     0.00000     0.00000     0.00000     0.00000
  -------------------------------------------------------------------------------------
  Total      -3.46201     1.00692    11.11604    -0.26115   -17.63056    -0.89215
  in kB      -5.53392     1.60953    17.76864    -0.41744   -28.18189    -1.42608
  external pressure =        4.61 kB  Pullay stress =        0.00 kB


 VOLUME and BASIS-vectors are now :
 -----------------------------------------------------------------------------
  energy-cutoff  :      300.00
  volume of cell :     1002.32
      direct lattice vectors                 reciprocal lattice vectors
     3.540400000  0.000000000  0.000000000     0.282453960  0.048570342  0.000000000
    -1.770200000 10.294348000  0.000000000     0.000000000  0.097140683  0.000000000
     0.000000000  0.000000000 27.501429000     0.000000000  0.000000000  0.036361747

  length of vectors
     3.540400000 10.445439617 27.501429000     0.286599577  0.097140683  0.036361747


 FORCES acting on ions
    electron-ion (+dipol)            ewald-force                    non-local-force                 convergence-correction
 -----------------------------------------------------------------------------------------------
   0.567E-02 0.594E+01 0.272E+02   0.748E-03 -.582E+01 -.226E+02   -.595E-02 -.187E+00 -.464E+01   0.228E-08 0.192E-05 -.249E-05
   0.261E-01 -.885E+01 -.571E+03   -.420E-01 0.920E+01 0.575E+03   -.969E-01 -.946E+00 -.343E+01   -.466E-07 -.213E-05 -.209E-05
   0.255E-02 0.631E+02 0.504E+02   -.249E-02 -.646E+02 -.463E+02   -.736E-03 0.148E+01 -.409E+01   0.758E-08 -.357E-05 -.604E-05
   0.278E+00 0.589E+02 -.544E+03   -.187E+00 -.607E+02 0.549E+03   -.241E+00 0.102E+01 -.395E+01   0.368E-06 0.322E-05 0.209E-05
   -.283E-03 -.570E+02 0.526E+03   0.829E-04 0.586E+02 -.531E+03   -.360E-03 -.154E+01 0.429E+01   -.159E-07 0.145E-05 -.180E-05
   0.199E+01 -.479E+02 -.687E+02   -.293E+01 0.509E+02 0.607E+02   0.822E+00 -.555E+00 0.740E+01   -.908E-07 -.239E-05 0.725E-06
   0.608E-03 0.538E+02 0.526E+03   0.199E-04 -.557E+02 -.530E+03   -.791E-04 0.191E+01 0.418E+01   -.813E-08 -.184E-05 -.261E-05
   -.419E+01 0.659E+02 -.250E+02   0.409E+01 -.690E+02 0.255E+02   0.635E+00 0.468E+01 -.584E+01   0.132E-06 0.200E-05 0.360E-05
   0.213E-03 0.170E+01 0.572E+03   -.863E-04 -.190E+01 -.577E+03   0.119E-02 0.198E+00 0.478E+01   -.355E-07 0.872E-06 -.702E-05
   -.203E+00 -.204E+02 -.282E+02   0.133E-01 0.201E+02 0.235E+02   0.246E+00 0.119E+01 0.404E+01   -.415E-07 0.248E-05 0.853E-05
   -.103E-02 -.628E+02 0.580E+02   0.105E-02 0.648E+02 -.538E+02   -.177E-03 -.197E+01 -.411E+01   0.498E-08 0.221E-05 -.209E-05
   -.231E+00 -.481E+02 -.515E+03   0.345E+00 0.504E+02 0.518E+03   -.623E-01 -.297E+01 -.311E+01   0.266E-07 -.233E-05 -.167E-05
   0.818E-03 0.309E+02 0.209E+03   0.141E-03 -.331E+02 -.210E+03   0.209E-02 0.216E+01 0.397E+00   -.254E-08 -.158E-05 -.266E-05
   0.184E+01 0.400E+02 -.299E+03   -.149E+01 -.425E+02 0.297E+03   -.499E+00 0.171E+00 0.781E+01   -.742E-07 0.112E-05 0.312E-08
   0.873E-03 -.122E+02 0.138E+03   -.646E-04 0.125E+02 -.140E+03   -.237E-02 -.328E+00 0.257E+01   -.110E-08 0.419E-05 -.246E-05
   0.129E+01 -.174E+02 -.318E+03   -.117E+01 0.171E+02 0.319E+03   -.408E-01 -.297E+00 -.136E+01   -.324E-07 -.265E-05 -.291E-05
   -.365E-03 -.520E+01 0.346E+03   0.704E-04 0.566E+01 -.343E+03   0.426E-04 -.472E+00 -.253E+01   0.747E-08 0.397E-05 -.433E-06
   -.442E+00 -.205E+02 -.138E+03   0.461E+00 0.213E+02 0.138E+03   0.416E-02 0.152E+00 0.473E+00   -.143E-07 0.769E-06 0.291E-05
   -.763E-04 0.955E+01 0.335E+03   -.108E-04 -.977E+01 -.333E+03   -.214E-02 0.215E+00 -.254E+01   0.526E-08 -.350E-05 -.102E-05
   0.973E+00 0.321E+01 -.136E+03   -.110E+01 0.596E+00 0.136E+03   -.151E+00 -.980E+00 -.148E+00   -.224E-06 0.280E-05 0.260E-05
   0.379E-03 0.102E+02 0.127E+03   -.189E-03 -.106E+02 -.129E+03   0.113E-02 0.346E+00 0.250E+01   0.136E-08 -.212E-05 -.539E-05
   0.588E+00 -.897E+01 -.340E+03   -.528E+00 0.882E+01 0.339E+03   -.151E-01 -.368E+00 -.267E+00   0.392E-07 0.895E-06 -.158E-05
   0.505E-03 -.310E+02 0.254E+03   -.410E-04 0.331E+02 -.254E+03   0.128E-02 -.206E+01 -.397E+00   0.257E-08 0.431E-06 -.136E-05
   -.263E+01 0.137E+01 -.184E+03   0.254E+01 0.557E+00 0.188E+03   0.121E+00 -.497E+01 -.389E+01   -.397E-07 -.145E-05 -.123E-05
 -----------------------------------------------------------------------------------------------
   -.710E+00 0.412E+01 0.188E+01   -.142E-13 0.251E-13 0.853E-13   0.715E+00 -.412E+01 -.187E+01   -.301E-07 0.475E-05 -.244E-04
 
 
 POSITION                                       TOTAL-FORCE (eV/Angst)
 -----------------------------------------------------------------------------------
      0.00000      2.34757      6.41229         0.000255     -0.062983      0.019224
     -0.17702      3.37701     14.16300        -0.112971     -0.595741      0.359858
     -0.00000      9.43147      5.75866        -0.000907     -0.008947      0.079082
      1.59318      0.16655     13.50937        -0.150219     -0.797447      0.779286
     -0.00000      6.40009      2.31424        -0.000783     -0.002697      0.004046
     -0.00000      6.40009     10.06495        -0.120873      2.516930     -0.621069
      1.77020     10.27849      2.37372         0.000325     -0.008495      0.004604
      1.77020     10.27849     10.12443         0.529634      1.558328     -5.321962
      1.77020      3.18974      1.66157         0.001096     -0.002157      0.006550
      1.77020      3.18974      9.41228         0.055967      0.812446     -0.665503
      1.77020      5.55354      5.69975        -0.000381      0.011469      0.095930
      1.59318      6.58298     13.45047         0.051172     -0.714859      0.070063
      1.77020      9.05319      4.34076         0.002826     -0.009013      0.008880
      1.59318     10.08262     12.09147        -0.146686     -2.408391      5.626443
      0.00000      4.22380      5.10944        -0.001785      0.040392      0.068748
     -0.17702      5.25324     12.86016         0.077038     -0.540088     -0.434255
     -0.00000      4.15582      2.74166        -0.000475     -0.009348     -0.021185
     -0.00000      4.15582     10.49237         0.023578      0.979496      0.993232
      1.77020      1.31366      2.96438        -0.002453     -0.002805     -0.008879
      1.77020      1.31366     10.71510        -0.282787      2.827654     -0.462587
      1.77020      1.38163      5.33187         0.001097     -0.013781     -0.027195
      1.59318      2.41106     13.08259         0.044464     -0.513135     -0.551377
      1.77020      6.77850      3.73234         0.001519     -0.011041      0.003721
      1.59318      7.80793     11.48306         0.031350     -3.045787     -0.005656
 -----------------------------------------------------------------------------------
    total drift:                                0.005355      0.000667      0.002781


--------------------------------------------------------------------------------------------------------



  FREE ENERGIE OF THE ION-ELECTRON SYSTEM (eV)
  ---------------------------------------------------
  free  energy   TOTEN  =      -126.00911183 eV

  energy  without entropy=     -125.99128090  energy(sigma->0) =     -126.00019636
 


--------------------------------------------------------------------------------------------------------


    POTLOK:  cpu time   12.37: real time   12.38


--------------------------------------------------------------------------------------------------------


     LOOP+:  cpu time 2455.24: real time 2456.54
    4ORBIT:  cpu time    0.00: real time    0.00

 total amount of memory used by VASP on root node   146493. kBytes
========================================================================

   base      :      30000. kBytes
   nonlr-proj:       3452. kBytes
   fftplans  :       9347. kBytes
   grid      :      14649. kBytes
   one-center:         36. kBytes
   wavefun   :      89009. kBytes
 
  
  
 General timing and accounting informations for this job:
 ========================================================
  
                  Total CPU time used (sec):     2474.426
                            User time (sec):     2429.051
                          System time (sec):       45.375
                         Elapsed time (sec):     2476.976
  
                   Maximum memory used (kb):      334992.
                   Average memory used (kb):           0.
  
                          Minor page faults:      7808074
                          Major page faults:           14
                 Voluntary context switches:         1860
