<?xml version="1.0" encoding="ISO-8859-1"?>
<modeling>
 <generator>
  <i name="program" type="string">vasp </i>
  <i name="version" type="string">5.3.5  </i>
  <i name="subversion" type="string">31Mar14 (build Oct 29 2014 16:16:03) complex                          parallel </i>
  <i name="platform" type="string">Linux-UFHPC </i>
  <i name="date" type="string">2016 02 09 </i>
  <i name="time" type="string">18:53:31 </i>
 </generator>
 <incar>
  <i type="string" name="PREC">accurate</i>
  <i type="int" name="IBRION">     2</i>
  <i name="EDIFF">      0.00000100</i>
  <i type="int" name="NSW">     0</i>
  <i type="int" name="ISIF">     3</i>
  <i name="ENCUT">    300.00000000</i>
  <i type="string" name="LREAL"> Auto</i>
  <i type="int" name="ISMEAR">     0</i>
  <i name="SIGMA">      0.10000000</i>
  <i type="logical" name="LWAVE"> F  </i>
  <i type="logical" name="LCHARG"> F  </i>
  <i type="logical" name="LAECHG"> F  </i>
  <i type="string" name="GGA"> Bo</i>
  <i name="PARAM1">      0.18333333</i>
  <i name="PARAM2">      0.22000000</i>
  <i type="logical" name="LUSE_VDW"> T  </i>
  <i name="AGGAC">      0.00000000</i>
 </incar>
 <kpoints>
  <generation param="Gamma">
   <v type="int" name="divisions">      13        4        2 </v>
   <v name="usershift">      0.00000000       0.00000000       0.00000000 </v>
   <v name="genvec1">      0.07692308      -0.00000000       0.00000000 </v>
   <v name="genvec2">      0.00000000       0.25000000       0.00000000 </v>
   <v name="genvec3">      0.00000000       0.00000000       0.50000000 </v>
   <v name="shift">      0.00000000       0.00000000       0.00000000 </v>
  </generation>
  <varray name="kpointlist" >
   <v>       0.00000000       0.00000000       0.00000000 </v>
   <v>       0.07692308      -0.00000000       0.00000000 </v>
   <v>       0.15384615      -0.00000000       0.00000000 </v>
   <v>       0.23076923      -0.00000000       0.00000000 </v>
   <v>       0.30769231      -0.00000000       0.00000000 </v>
   <v>       0.38461538      -0.00000000       0.00000000 </v>
   <v>       0.46153846      -0.00000000       0.00000000 </v>
   <v>       0.00000000       0.25000000       0.00000000 </v>
   <v>       0.07692308       0.25000000       0.00000000 </v>
   <v>       0.15384615       0.25000000       0.00000000 </v>
   <v>       0.23076923       0.25000000       0.00000000 </v>
   <v>       0.30769231       0.25000000       0.00000000 </v>
   <v>       0.38461538       0.25000000       0.00000000 </v>
   <v>       0.46153846       0.25000000       0.00000000 </v>
   <v>      -0.46153846       0.25000000       0.00000000 </v>
   <v>      -0.38461538       0.25000000       0.00000000 </v>
   <v>      -0.30769231       0.25000000       0.00000000 </v>
   <v>      -0.23076923       0.25000000       0.00000000 </v>
   <v>      -0.15384615       0.25000000       0.00000000 </v>
   <v>      -0.07692308       0.25000000       0.00000000 </v>
   <v>       0.00000000       0.50000000       0.00000000 </v>
   <v>       0.07692308       0.50000000       0.00000000 </v>
   <v>       0.15384615       0.50000000       0.00000000 </v>
   <v>       0.23076923       0.50000000       0.00000000 </v>
   <v>       0.30769231       0.50000000       0.00000000 </v>
   <v>       0.38461538       0.50000000       0.00000000 </v>
   <v>       0.46153846       0.50000000       0.00000000 </v>
   <v>       0.00000000       0.00000000       0.50000000 </v>
   <v>       0.07692308      -0.00000000       0.50000000 </v>
   <v>       0.15384615      -0.00000000       0.50000000 </v>
   <v>       0.23076923      -0.00000000       0.50000000 </v>
   <v>       0.30769231      -0.00000000       0.50000000 </v>
   <v>       0.38461538      -0.00000000       0.50000000 </v>
   <v>       0.46153846      -0.00000000       0.50000000 </v>
   <v>       0.00000000       0.25000000       0.50000000 </v>
   <v>       0.07692308       0.25000000       0.50000000 </v>
   <v>       0.15384615       0.25000000       0.50000000 </v>
   <v>       0.23076923       0.25000000       0.50000000 </v>
   <v>       0.30769231       0.25000000       0.50000000 </v>
   <v>       0.38461538       0.25000000       0.50000000 </v>
   <v>       0.46153846       0.25000000       0.50000000 </v>
   <v>      -0.46153846       0.25000000       0.50000000 </v>
   <v>      -0.38461538       0.25000000       0.50000000 </v>
   <v>      -0.30769231       0.25000000       0.50000000 </v>
   <v>      -0.23076923       0.25000000       0.50000000 </v>
   <v>      -0.15384615       0.25000000       0.50000000 </v>
   <v>      -0.07692308       0.25000000       0.50000000 </v>
   <v>       0.00000000       0.50000000       0.50000000 </v>
   <v>       0.07692308       0.50000000       0.50000000 </v>
   <v>       0.15384615       0.50000000       0.50000000 </v>
   <v>       0.23076923       0.50000000       0.50000000 </v>
   <v>       0.30769231       0.50000000       0.50000000 </v>
   <v>       0.38461538       0.50000000       0.50000000 </v>
   <v>       0.46153846       0.50000000       0.50000000 </v>
  </varray>
  <varray name="weights" >
   <v>       0.00961538 </v>
   <v>       0.01923077 </v>
   <v>       0.01923077 </v>
   <v>       0.01923077 </v>
   <v>       0.01923077 </v>
   <v>       0.01923077 </v>
   <v>       0.01923077 </v>
   <v>       0.01923077 </v>
   <v>       0.01923077 </v>
   <v>       0.01923077 </v>
   <v>       0.01923077 </v>
   <v>       0.01923077 </v>
   <v>       0.01923077 </v>
   <v>       0.01923077 </v>
   <v>       0.01923077 </v>
   <v>       0.01923077 </v>
   <v>       0.01923077 </v>
   <v>       0.01923077 </v>
   <v>       0.01923077 </v>
   <v>       0.01923077 </v>
   <v>       0.00961538 </v>
   <v>       0.01923077 </v>
   <v>       0.01923077 </v>
   <v>       0.01923077 </v>
   <v>       0.01923077 </v>
   <v>       0.01923077 </v>
   <v>       0.01923077 </v>
   <v>       0.00961538 </v>
   <v>       0.01923077 </v>
   <v>       0.01923077 </v>
   <v>       0.01923077 </v>
   <v>       0.01923077 </v>
   <v>       0.01923077 </v>
   <v>       0.01923077 </v>
   <v>       0.01923077 </v>
   <v>       0.01923077 </v>
   <v>       0.01923077 </v>
   <v>       0.01923077 </v>
   <v>       0.01923077 </v>
   <v>       0.01923077 </v>
   <v>       0.01923077 </v>
   <v>       0.01923077 </v>
   <v>       0.01923077 </v>
   <v>       0.01923077 </v>
   <v>       0.01923077 </v>
   <v>       0.01923077 </v>
   <v>       0.01923077 </v>
   <v>       0.00961538 </v>
   <v>       0.01923077 </v>
   <v>       0.01923077 </v>
   <v>       0.01923077 </v>
   <v>       0.01923077 </v>
   <v>       0.01923077 </v>
   <v>       0.01923077 </v>
  </varray>
 </kpoints>
 <parameters>
  <separator name="general" >
   <i type="string" name="SYSTEM">unknown system</i>
   <i type="logical" name="LCOMPAT"> F  </i>
  </separator>
  <separator name="electronic" >
   <i type="string" name="PREC">accura</i>
   <i name="ENMAX">    300.00000000</i>
   <i name="ENAUG">    342.92400000</i>
   <i name="EDIFF">      0.00000100</i>
   <i type="int" name="IALGO">    38</i>
   <i type="int" name="IWAVPR">    10</i>
   <i type="int" name="NBANDS">    68</i>
   <i name="NELECT">    108.00000000</i>
   <i type="int" name="TURBO">     0</i>
   <i type="int" name="IRESTART">     0</i>
   <i type="int" name="NREBOOT">     0</i>
   <i type="int" name="NMIN">     0</i>
   <i name="EREF">      0.00000000</i>
   <separator name="electronic smearing" >
    <i type="int" name="ISMEAR">     0</i>
    <i name="SIGMA">      0.10000000</i>
    <i name="KSPACING">      0.50000000</i>
    <i type="logical" name="KGAMMA"> T  </i>
   </separator>
   <separator name="electronic projectors" >
    <i type="logical" name="LREAL"> T  </i>
    <v name="ROPT">     -0.00025000     -0.00025000</v>
    <i type="int" name="LMAXPAW">  -100</i>
    <i type="int" name="LMAXMIX">     2</i>
    <i type="logical" name="NLSPLINE"> F  </i>
   </separator>
   <separator name="electronic startup" >
    <i type="int" name="ISTART">     0</i>
    <i type="int" name="ICHARG">     2</i>
    <i type="int" name="INIWAV">     1</i>
   </separator>
   <separator name="electronic spin" >
    <i type="int" name="ISPIN">     1</i>
    <i type="logical" name="LNONCOLLINEAR"> F  </i>
    <v name="MAGMOM">      1.00000000      1.00000000      1.00000000      1.00000000      1.00000000      1.00000000      1.00000000      1.00000000      1.00000000      1.00000000      1.00000000      1.00000000      1.00000000      1.00000000      1.00000000      1.00000000      1.00000000      1.00000000      1.00000000      1.00000000
      1.00000000      1.00000000      1.00000000      1.00000000</v>
    <i name="NUPDOWN">     -1.00000000</i>
    <i type="logical" name="LSORBIT"> F  </i>
    <v name="SAXIS">      0.00000000      0.00000000      1.00000000</v>
    <i type="logical" name="LSPIRAL"> F  </i>
    <v name="QSPIRAL">      0.00000000      0.00000000      0.00000000</v>
    <i type="logical" name="LZEROZ"> F  </i>
   </separator>
   <separator name="electronic exchange-correlation" >
    <i type="logical" name="LASPH"> F  </i>
    <i type="logical" name="LMETAGGA"> F  </i>
   </separator>
   <separator name="electronic convergence" >
    <i type="int" name="NELM">    60</i>
    <i type="int" name="NELMDL">    -5</i>
    <i type="int" name="NELMIN">     2</i>
    <i name="ENINI">    300.00000000</i>
    <separator name="electronic convergence detail" >
     <i type="logical" name="LDIAG"> T  </i>
     <i type="logical" name="LSUBROT"> F  </i>
     <i name="WEIMIN">      0.00000000</i>
     <i name="EBREAK">      0.00000000</i>
     <i name="DEPER">      0.30000000</i>
     <i type="int" name="NRMM">     4</i>
     <i name="TIME">      0.40000000</i>
    </separator>
   </separator>
   <separator name="electronic mixer" >
    <i name="AMIX">      0.40000000</i>
    <i name="BMIX">      1.00000000</i>
    <i name="AMIN">      0.10000000</i>
    <i name="AMIX_MAG">      1.60000000</i>
    <i name="BMIX_MAG">      1.00000000</i>
    <separator name="electronic mixer details" >
     <i type="int" name="IMIX">     4</i>
     <i type="int" name="MAXMIX">   -45</i>
     <i name="WC">    100.00000000</i>
     <i type="int" name="INIMIX">     1</i>
     <i type="int" name="MIXPRE">     1</i>
     <i type="int" name="MREMOVE">     5</i>
    </separator>
   </separator>
   <separator name="electronic dipolcorrection" >
    <i type="logical" name="LDIPOL"> F  </i>
    <i type="logical" name="LMONO"> F  </i>
    <i type="int" name="IDIPOL">     0</i>
    <i name="EPSILON">      1.00000000</i>
    <v name="DIPOL">   -100.00000000   -100.00000000   -100.00000000</v>
    <i name="EFIELD">      0.00000000</i>
   </separator>
  </separator>
  <separator name="grids" >
   <i type="int" name="NGX">    20</i>
   <i type="int" name="NGY">    60</i>
   <i type="int" name="NGZ">   160</i>
   <i type="int" name="NGXF">    40</i>
   <i type="int" name="NGYF">   120</i>
   <i type="int" name="NGZF">   320</i>
   <i type="logical" name="ADDGRID"> F  </i>
  </separator>
  <separator name="ionic" >
   <i type="int" name="NSW">     0</i>
   <i type="int" name="IBRION">    -1</i>
   <i type="int" name="ISIF">     3</i>
   <i name="PSTRESS">      0.00000000</i>
   <i name="EDIFFG">      0.00001000</i>
   <i type="int" name="NFREE">     1</i>
   <i name="POTIM">      0.50000000</i>
   <i name="SMASS">     -3.00000000</i>
   <i name="SCALEE">      1.00000000</i>
  </separator>
  <separator name="ionic md" >
   <i name="TEBEG">      0.00010000</i>
   <i name="TEEND">      0.00010000</i>
   <i type="int" name="NBLOCK">     1</i>
   <i type="int" name="KBLOCK">     1</i>
   <i type="int" name="NPACO">   256</i>
   <i name="APACO">     16.00000000</i>
  </separator>
  <separator name="symmetry" >
   <i type="int" name="ISYM">     2</i>
   <i name="SYMPREC">      0.00001000</i>
  </separator>
  <separator name="dos" >
   <i type="logical" name="LORBIT"> F  </i>
   <v name="RWIGS">     -1.00000000     -1.00000000</v>
   <i type="int" name="NEDOS">   301</i>
   <i name="EMIN">     10.00000000</i>
   <i name="EMAX">    -10.00000000</i>
   <i name="EFERMI">      0.00000000</i>
  </separator>
  <separator name="writing" >
   <i type="int" name="NWRITE">     2</i>
   <i type="logical" name="LWAVE"> F  </i>
   <i type="logical" name="LCHARG"> F  </i>
   <i type="logical" name="LPARD"> F  </i>
   <i type="logical" name="LVTOT"> F  </i>
   <i type="logical" name="LVHAR"> F  </i>
   <i type="logical" name="LELF"> F  </i>
   <i type="logical" name="LOPTICS"> F  </i>
   <v name="STM">      0.00000000      0.00000000      0.00000000      0.00000000      0.00000000      0.00000000      0.00000000</v>
  </separator>
  <separator name="performance" >
   <i type="int" name="NPAR">     4</i>
   <i type="int" name="NSIM">     4</i>
   <i type="int" name="NBLK">    -1</i>
   <i type="logical" name="LPLANE"> T  </i>
   <i type="logical" name="LSCALAPACK"> T  </i>
   <i type="logical" name="LSCAAWARE"> F  </i>
   <i type="logical" name="LSCALU"> F  </i>
   <i type="logical" name="LASYNC"> F  </i>
   <i type="logical" name="LORBITALREAL"> F  </i>
  </separator>
  <separator name="miscellaneous" >
   <i type="int" name="IDIOT">     3</i>
   <i type="logical" name="LMUSIC"> F  </i>
   <v name="POMASS">     30.97400000     28.08500000</v>
   <v name="DARWINR">      0.00000000      0.00000000</v>
   <v name="DARWINV">      1.00000000      1.00000000</v>
   <i type="logical" name="LCORR"> T  </i>
  </separator>
  <i type="logical" name="GGA_COMPAT"> T  </i>
  <i type="logical" name="LBERRY"> F  </i>
  <i type="int" name="ICORELEVEL">     0</i>
  <i type="logical" name="LDAU"> F  </i>
  <i type="int" name="I_CONSTRAINED_M">     0</i>
  <separator name="electronic exchange-correlation" >
   <i type="string" name="GGA">BO</i>
   <i type="int" name="VOSKOWN">     0</i>
   <i type="logical" name="LHFCALC"> F  </i>
   <i type="string" name="PRECFOCK"></i>
   <i type="logical" name="LSYMGRAD"> F  </i>
   <i type="logical" name="LHFONE"> F  </i>
   <i type="logical" name="LRHFCALC"> F  </i>
   <i type="logical" name="LTHOMAS"> F  </i>
   <i type="logical" name="LMODELHF"> F  </i>
   <i name="ENCUT4O">     -1.00000000</i>
   <i type="int" name="EXXOEP">     0</i>
   <i type="int" name="FOURORBIT">     0</i>
   <i name="AEXX">      0.00000000</i>
   <i name="HFALPHA">      0.00000000</i>
   <i name="MCALPHA">      0.00000000</i>
   <i name="ALDAX">      1.00000000</i>
   <i name="AGGAX">      1.00000000</i>
   <i name="ALDAC">      1.00000000</i>
   <i name="AGGAC">      0.00000000</i>
   <i type="int" name="NKREDX">     1</i>
   <i type="int" name="NKREDY">     1</i>
   <i type="int" name="NKREDZ">     1</i>
   <i type="logical" name="SHIFTRED"> F  </i>
   <i type="logical" name="ODDONLY"> F  </i>
   <i type="logical" name="EVENONLY"> F  </i>
   <i type="int" name="LMAXFOCK">     0</i>
   <i type="int" name="NMAXFOCKAE">     0</i>
   <i type="logical" name="LFOCKAEDFT"> F  </i>
   <i name="HFSCREEN">      0.00000000</i>
   <i name="HFSCREENC">      0.00000000</i>
   <i type="int" name="NBANDSGWLOW">     0</i>
  </separator>
  <separator name="vdW DFT" >
   <i type="logical" name="LUSE_VDW"> T  </i>
   <i name="Zab_VDW">     -0.84910000</i>
   <i name="PARAM1">      0.18333333</i>
   <i name="PARAM2">      0.22000000</i>
   <i name="PARAM3">      0.00000000</i>
  </separator>
  <separator name="model GW" >
   <i type="int" name="MODEL_GW">     0</i>
   <i name="MODEL_EPS0">     25.05800243</i>
   <i name="MODEL_ALPHA">      1.00000000</i>
  </separator>
  <separator name="linear response parameters" >
   <i type="logical" name="LEPSILON"> F  </i>
   <i type="logical" name="LRPA"> F  </i>
   <i type="logical" name="LNABLA"> F  </i>
   <i type="logical" name="LVEL"> F  </i>
   <i type="int" name="KINTER">     0</i>
   <i name="CSHIFT">      0.10000000</i>
   <i name="OMEGAMAX">     -1.00000000</i>
   <i name="DEG_THRESHOLD">      0.00200000</i>
  </separator>
  <separator name="orbital magnetization" >
   <i type="logical" name="NUCIND"> F  </i>
   <v name="MAGPOS">      0.00000000      0.00000000      0.00000000</v>
   <i type="logical" name="LNICSALL"> T  </i>
   <i type="logical" name="ORBITALMAG"> F  </i>
   <i type="logical" name="LMAGBLOCH"> F  </i>
   <i type="logical" name="LCHIMAG"> F  </i>
   <i type="logical" name="LGAUGE"> T  </i>
   <i type="int" name="MAGATOM">     0</i>
   <v name="MAGDIPOL">      0.00000000      0.00000000      0.00000000</v>
   <v name="AVECCONST">      0.00000000      0.00000000      0.00000000</v>
  </separator>
  <separator name="response functions" >
   <i type="logical" name="LADDER"> F  </i>
   <i type="logical" name="LFXC"> F  </i>
   <i type="logical" name="LHARTREE"> T  </i>
   <i type="int" name="IBSE">     0</i>
   <i type="logical" name="LTCTE"> F  </i>
   <i type="logical" name="LTETE"> F  </i>
   <i type="logical" name="LTRIPLET"> F  </i>
   <i type="logical" name="LFXCEPS"> F  </i>
   <i type="logical" name="LFXHEG"> F  </i>
   <i type="logical" name="L2ORDER"> F  </i>
   <i type="logical" name="LUSEW"> F  </i>
   <i name="ENCUTGW">     -2.00000000</i>
   <i name="ENCUTGWSOFT">     -2.00000000</i>
   <i name="ENCUTLF">     -1.00000000</i>
   <i type="int" name="LMAXMP2">    -1</i>
   <i name="SCISSOR">      0.00000000</i>
   <i type="int" name="NOMEGA">     0</i>
   <i type="int" name="NOMEGAR">     0</i>
   <i type="int" name="NBANDSGW">    -1</i>
   <i type="int" name="NBANDSO">    -1</i>
   <i type="int" name="NBANDSV">    -1</i>
   <i type="int" name="NELM">     1</i>
   <i type="int" name="DIM">     3</i>
   <i type="int" name="ANTIRES">     0</i>
   <i name="OMEGAMAX">    -30.00000000</i>
   <i name="OMEGAMIN">    -30.00000000</i>
   <i name="OMEGATL">   -200.00000000</i>
   <i type="int" name="OMEGAGRID">     0</i>
   <i name="CSHIFT">     -0.10000000</i>
   <i type="logical" name="SELFENERGY"> F  </i>
   <i type="logical" name="LSPECTRAL"> F  </i>
   <i type="logical" name="ODDONLYGW"> F  </i>
   <i type="logical" name="EVENONLYGW"> F  </i>
   <i type="int" name="NKREDLFX">     1</i>
   <i type="int" name="NKREDLFY">     1</i>
   <i type="int" name="NKREDLFZ">     1</i>
   <i type="int" name="MAXMEM">  1800</i>
   <i type="int" name="TELESCOPE">     0</i>
   <i type="int" name="TAUPAR">     1</i>
  </separator>
  <separator name="External order field" >
   <i name="OFIELD_KAPPA">      0.00000000</i>
   <v name="OFIELD_K">      0.00000000      0.00000000      0.00000000</v>
   <i name="OFIELD_Q6_NEAR">      0.00000000</i>
   <i name="OFIELD_Q6_FAR">      0.00000000</i>
   <i name="OFIELD_A">      0.00000000</i>
  </separator>
 </parameters>
 <atominfo>
  <atoms>      24 </atoms>
  <types>       2 </types>
  <array name="atoms" >
   <dimension dim="1">ion</dimension>
   <field type="string">element</field>
   <field type="int">atomtype</field>
   <set>
    <rc><c>P </c><c>   1</c></rc>
    <rc><c>P </c><c>   1</c></rc>
    <rc><c>P </c><c>   1</c></rc>
    <rc><c>P </c><c>   1</c></rc>
    <rc><c>P </c><c>   1</c></rc>
    <rc><c>P </c><c>   1</c></rc>
    <rc><c>P </c><c>   1</c></rc>
    <rc><c>P </c><c>   1</c></rc>
    <rc><c>P </c><c>   1</c></rc>
    <rc><c>P </c><c>   1</c></rc>
    <rc><c>P </c><c>   1</c></rc>
    <rc><c>P </c><c>   1</c></rc>
    <rc><c>Si</c><c>   2</c></rc>
    <rc><c>Si</c><c>   2</c></rc>
    <rc><c>Si</c><c>   2</c></rc>
    <rc><c>Si</c><c>   2</c></rc>
    <rc><c>Si</c><c>   2</c></rc>
    <rc><c>Si</c><c>   2</c></rc>
    <rc><c>Si</c><c>   2</c></rc>
    <rc><c>Si</c><c>   2</c></rc>
    <rc><c>Si</c><c>   2</c></rc>
    <rc><c>Si</c><c>   2</c></rc>
    <rc><c>Si</c><c>   2</c></rc>
    <rc><c>Si</c><c>   2</c></rc>
   </set>
  </array>
  <array name="atomtypes" >
   <dimension dim="1">type</dimension>
   <field type="int">atomspertype</field>
   <field type="string">element</field>
   <field>mass</field>
   <field>valence</field>
   <field type="string">pseudopotential</field>
   <set>
    <rc><c>  12</c><c>P </c><c>     30.97400000</c><c>      5.00000000</c><c>  PAW_PBE P 17Jan2003                   </c></rc>
    <rc><c>  12</c><c>Si</c><c>     28.08500000</c><c>      4.00000000</c><c> PAW_PBE Si 05Jan2001                   </c></rc>
   </set>
  </array>
 </atominfo>
 <structure name="initialpos" >
  <crystal>
   <varray name="basis" >
    <v>       3.54040000       0.00000000       0.00000000 </v>
    <v>      -1.77020000      10.29434800       0.00000000 </v>
    <v>       0.00000000       0.00000000      27.50142900 </v>
   </varray>
   <i name="volume">   1002.32009712 </i>
   <varray name="rec_basis" >
    <v>       0.28245396       0.04857034       0.00000000 </v>
    <v>       0.00000000       0.09714068       0.00000000 </v>
    <v>       0.00000000       0.00000000       0.03636175 </v>
   </varray>
  </crystal>
  <varray name="positions" >
   <v>       0.11402300       0.22804500       0.23316207 </v>
   <v>       0.01402300       0.92804500       0.51499159 </v>
   <v>       0.45808900       0.91617900       0.20939482 </v>
   <v>       0.35808900       0.61617900       0.49122434 </v>
   <v>       0.31085400       0.62170900       0.08414979 </v>
   <v>       0.31085400       0.62170900       0.36597930 </v>
   <v>       0.99923000       0.99846000       0.08631254 </v>
   <v>       0.99923000       0.99846000       0.36814206 </v>
   <v>       0.65492700       0.30985400       0.06041748 </v>
   <v>       0.65492700       0.30985400       0.34224700 </v>
   <v>       0.76973800       0.53947500       0.20725292 </v>
   <v>       0.66973800       0.23947500       0.48908244 </v>
   <v>       0.93971600       0.87943300       0.15783749 </v>
   <v>       0.83971600       0.57943300       0.43966701 </v>
   <v>       0.20515200       0.41030300       0.18578822 </v>
   <v>       0.10515200       0.11030300       0.46761774 </v>
   <v>       0.20184900       0.40369900       0.09969156 </v>
   <v>       0.20184900       0.40369900       0.38152107 </v>
   <v>       0.56380500       0.12761000       0.10779021 </v>
   <v>       0.56380500       0.12761000       0.38961973 </v>
   <v>       0.56710600       0.13421200       0.19387616 </v>
   <v>       0.46710600       0.83421200       0.47570568 </v>
   <v>       0.82923400       0.65846800       0.13571444 </v>
   <v>       0.72923400       0.35846800       0.41754396 </v>
  </varray>
 </structure>
 <calculation>
  <scstep>
   <time name="dav">   87.06   87.08</time>
   <time name="total">  104.94  104.97</time>
   <energy>
    <i name="alphaZ">     36.80884744 </i>
    <i name="ewald">  11986.75010126 </i>
    <i name="hartreedc"> -15031.26415968 </i>
    <i name="XCdc">    -87.36624772 </i>
    <i name="pawpsdc">   1056.43050070 </i>
    <i name="pawaedc">   -732.41190547 </i>
    <i name="eentropy">     -0.04133331 </i>
    <i name="bandstr">    -89.84456977 </i>
    <i name="atom">   3354.04126044 </i>
    <i name="e_fr_energy">    493.10249389 </i>
    <i name="e_wo_entrp">    493.14382720 </i>
    <i name="e_0_energy">    493.12316055 </i>
   </energy>
  </scstep>
  <scstep>
   <time name="dav">  105.47  105.50</time>
   <time name="total">  105.48  105.51</time>
   <energy>
    <i name="e_fr_energy">    -67.11454909 </i>
    <i name="e_wo_entrp">    -67.08673771 </i>
    <i name="e_0_energy">    -67.10064340 </i>
   </energy>
  </scstep>
  <scstep>
   <time name="dav">   99.97   99.99</time>
   <time name="total">   99.98  100.00</time>
   <energy>
    <i name="e_fr_energy">   -122.90288560 </i>
    <i name="e_wo_entrp">   -122.87928501 </i>
    <i name="e_0_energy">   -122.89108530 </i>
   </energy>
  </scstep>
  <scstep>
   <time name="dav">  111.38  111.40</time>
   <time name="total">  111.39  111.41</time>
   <energy>
    <i name="e_fr_energy">   -125.43616163 </i>
    <i name="e_wo_entrp">   -125.41195528 </i>
    <i name="e_0_energy">   -125.42405846 </i>
   </energy>
  </scstep>
  <scstep>
   <time name="dav">  103.46  103.48</time>
   <time name="total">  108.89  108.91</time>
   <energy>
    <i name="e_fr_energy">   -125.49630217 </i>
    <i name="e_wo_entrp">   -125.47206551 </i>
    <i name="e_0_energy">   -125.48418384 </i>
   </energy>
  </scstep>
  <scstep>
   <time name="dav">  106.92  106.95</time>
   <time name="total">  128.28  128.31</time>
   <energy>
    <i name="e_fr_energy">   -123.19471817 </i>
    <i name="e_wo_entrp">   -123.15654895 </i>
    <i name="e_0_energy">   -123.17563356 </i>
   </energy>
  </scstep>
  <scstep>
   <time name="dav">  105.88  105.90</time>
   <time name="total">  127.77  127.81</time>
   <energy>
    <i name="e_fr_energy">   -123.00577174 </i>
    <i name="e_wo_entrp">   -122.97046196 </i>
    <i name="e_0_energy">   -122.98811685 </i>
   </energy>
  </scstep>
  <scstep>
   <time name="dav">  106.77  106.79</time>
   <time name="total">  128.55  128.58</time>
   <energy>
    <i name="e_fr_energy">   -122.93034511 </i>
    <i name="e_wo_entrp">   -122.89252551 </i>
    <i name="e_0_energy">   -122.91143531 </i>
   </energy>
  </scstep>
  <scstep>
   <time name="dav">  101.36  101.38</time>
   <time name="total">  122.89  122.92</time>
   <energy>
    <i name="e_fr_energy">   -122.92502739 </i>
    <i name="e_wo_entrp">   -122.88621375 </i>
    <i name="e_0_energy">   -122.90562057 </i>
   </energy>
  </scstep>
  <scstep>
   <time name="dav">  105.16  105.18</time>
   <time name="total">  126.75  126.78</time>
   <energy>
    <i name="e_fr_energy">   -122.90080063 </i>
    <i name="e_wo_entrp">   -122.86290120 </i>
    <i name="e_0_energy">   -122.88185091 </i>
   </energy>
  </scstep>
  <scstep>
   <time name="dav">  104.62  104.64</time>
   <time name="total">  125.98  126.01</time>
   <energy>
    <i name="e_fr_energy">   -122.89216001 </i>
    <i name="e_wo_entrp">   -122.85355643 </i>
    <i name="e_0_energy">   -122.87285822 </i>
   </energy>
  </scstep>
  <scstep>
   <time name="dav">  102.61  102.63</time>
   <time name="total">  124.09  124.12</time>
   <energy>
    <i name="e_fr_energy">   -122.88771370 </i>
    <i name="e_wo_entrp">   -122.84938173 </i>
    <i name="e_0_energy">   -122.86854772 </i>
   </energy>
  </scstep>
  <scstep>
   <time name="dav">  106.77  106.79</time>
   <time name="total">  128.17  128.20</time>
   <energy>
    <i name="e_fr_energy">   -122.88297557 </i>
    <i name="e_wo_entrp">   -122.84465015 </i>
    <i name="e_0_energy">   -122.86381286 </i>
   </energy>
  </scstep>
  <scstep>
   <time name="dav">  103.71  103.73</time>
   <time name="total">  124.36  124.39</time>
   <energy>
    <i name="e_fr_energy">   -122.88056483 </i>
    <i name="e_wo_entrp">   -122.84217944 </i>
    <i name="e_0_energy">   -122.86137214 </i>
   </energy>
  </scstep>
  <scstep>
   <time name="dav">   92.85   92.87</time>
   <time name="total">  112.52  112.55</time>
   <energy>
    <i name="e_fr_energy">   -122.88008912 </i>
    <i name="e_wo_entrp">   -122.84174339 </i>
    <i name="e_0_energy">   -122.86091626 </i>
   </energy>
  </scstep>
  <scstep>
   <time name="dav">   85.86   85.87</time>
   <time name="total">  105.68  105.71</time>
   <energy>
    <i name="e_fr_energy">   -122.88039401 </i>
    <i name="e_wo_entrp">   -122.84202987 </i>
    <i name="e_0_energy">   -122.86121194 </i>
   </energy>
  </scstep>
  <scstep>
   <time name="dav">   87.38   87.40</time>
   <time name="total">  107.00  107.02</time>
   <energy>
    <i name="e_fr_energy">   -122.88083776 </i>
    <i name="e_wo_entrp">   -122.84248412 </i>
    <i name="e_0_energy">   -122.86166094 </i>
   </energy>
  </scstep>
  <scstep>
   <time name="dav">   82.20   82.21</time>
   <time name="total">  101.80  101.82</time>
   <energy>
    <i name="e_fr_energy">   -122.88106357 </i>
    <i name="e_wo_entrp">   -122.84270574 </i>
    <i name="e_0_energy">   -122.86188466 </i>
   </energy>
  </scstep>
  <scstep>
   <time name="dav">   77.37   77.38</time>
   <time name="total">   96.78   96.80</time>
   <energy>
    <i name="e_fr_energy">   -122.88107884 </i>
    <i name="e_wo_entrp">   -122.84272241 </i>
    <i name="e_0_energy">   -122.86190063 </i>
   </energy>
  </scstep>
  <scstep>
   <time name="dav">   74.75   74.77</time>
   <time name="total">   94.13   94.15</time>
   <energy>
    <i name="e_fr_energy">   -122.88105550 </i>
    <i name="e_wo_entrp">   -122.84270048 </i>
    <i name="e_0_energy">   -122.86187799 </i>
   </energy>
  </scstep>
  <scstep>
   <time name="dav">   71.90   71.92</time>
   <time name="total">   91.44   91.46</time>
   <energy>
    <i name="e_fr_energy">   -122.88104702 </i>
    <i name="e_wo_entrp">   -122.84269089 </i>
    <i name="e_0_energy">   -122.86186896 </i>
   </energy>
  </scstep>
  <scstep>
   <time name="dav">   69.39   69.40</time>
   <time name="total">   88.83   88.85</time>
   <energy>
    <i name="e_fr_energy">   -122.88102921 </i>
    <i name="e_wo_entrp">   -122.84267268 </i>
    <i name="e_0_energy">   -122.86185094 </i>
   </energy>
  </scstep>
  <scstep>
   <time name="dav">   71.27   71.29</time>
   <time name="total">   90.77   90.79</time>
   <energy>
    <i name="e_fr_energy">   -122.88100145 </i>
    <i name="e_wo_entrp">   -122.84264493 </i>
    <i name="e_0_energy">   -122.86182319 </i>
   </energy>
  </scstep>
  <scstep>
   <time name="dav">   73.32   73.33</time>
   <time name="total">   92.91   92.93</time>
   <energy>
    <i name="e_fr_energy">   -122.88096926 </i>
    <i name="e_wo_entrp">   -122.84261260 </i>
    <i name="e_0_energy">   -122.86179093 </i>
   </energy>
  </scstep>
  <scstep>
   <time name="dav">   71.60   71.61</time>
   <time name="total">   91.10   91.11</time>
   <energy>
    <i name="e_fr_energy">   -122.88094907 </i>
    <i name="e_wo_entrp">   -122.84259244 </i>
    <i name="e_0_energy">   -122.86177076 </i>
   </energy>
  </scstep>
  <scstep>
   <time name="dav">   70.34   70.35</time>
   <time name="total">   90.34   90.36</time>
   <energy>
    <i name="e_fr_energy">   -122.88093820 </i>
    <i name="e_wo_entrp">   -122.84258154 </i>
    <i name="e_0_energy">   -122.86175987 </i>
   </energy>
  </scstep>
  <scstep>
   <time name="dav">   71.46   71.48</time>
   <time name="total">   91.50   91.51</time>
   <energy>
    <i name="e_fr_energy">   -122.88094152 </i>
    <i name="e_wo_entrp">   -122.84258486 </i>
    <i name="e_0_energy">   -122.86176319 </i>
   </energy>
  </scstep>
  <scstep>
   <time name="dav">   71.16   71.17</time>
   <time name="total">   91.16   91.18</time>
   <energy>
    <i name="e_fr_energy">   -122.88094408 </i>
    <i name="e_wo_entrp">   -122.84258740 </i>
    <i name="e_0_energy">   -122.86176574 </i>
   </energy>
  </scstep>
  <scstep>
   <time name="dav">   69.76   69.77</time>
   <time name="total">   85.42   85.43</time>
   <energy>
    <i name="alphaZ">     36.80884744 </i>
    <i name="ewald">  11986.75010126 </i>
    <i name="hartreedc"> -15124.14798216 </i>
    <i name="XCdc">    -80.02869695 </i>
    <i name="pawpsdc">   1157.23458626 </i>
    <i name="pawaedc">   -836.08968126 </i>
    <i name="eentropy">     -0.03835668 </i>
    <i name="bandstr">   -617.41102301 </i>
    <i name="atom">   3354.04126044 </i>
    <i name="e_fr_energy">   -122.88094464 </i>
    <i name="e_wo_entrp">   -122.84258797 </i>
    <i name="e_0_energy">   -122.86176631 </i>
   </energy>
  </scstep>
  <structure>
   <crystal>
    <varray name="basis" >
     <v>       3.54040000       0.00000000       0.00000000 </v>
     <v>      -1.77020000      10.29434800       0.00000000 </v>
     <v>       0.00000000       0.00000000      27.50142900 </v>
    </varray>
    <i name="volume">   1002.32009712 </i>
    <varray name="rec_basis" >
     <v>       0.28245396       0.04857034       0.00000000 </v>
     <v>       0.00000000       0.09714068       0.00000000 </v>
     <v>       0.00000000       0.00000000       0.03636175 </v>
    </varray>
   </crystal>
   <varray name="positions" >
    <v>       0.11402300       0.22804500       0.23316207 </v>
    <v>       0.01402300       0.92804500       0.51499159 </v>
    <v>       0.45808900       0.91617900       0.20939482 </v>
    <v>       0.35808900       0.61617900       0.49122434 </v>
    <v>       0.31085400       0.62170900       0.08414979 </v>
    <v>       0.31085400       0.62170900       0.36597930 </v>
    <v>       0.99923000       0.99846000       0.08631254 </v>
    <v>       0.99923000       0.99846000       0.36814206 </v>
    <v>       0.65492700       0.30985400       0.06041748 </v>
    <v>       0.65492700       0.30985400       0.34224700 </v>
    <v>       0.76973800       0.53947500       0.20725292 </v>
    <v>       0.66973800       0.23947500       0.48908244 </v>
    <v>       0.93971600       0.87943300       0.15783749 </v>
    <v>       0.83971600       0.57943300       0.43966701 </v>
    <v>       0.20515200       0.41030300       0.18578822 </v>
    <v>       0.10515200       0.11030300       0.46761774 </v>
    <v>       0.20184900       0.40369900       0.09969156 </v>
    <v>       0.20184900       0.40369900       0.38152107 </v>
    <v>       0.56380500       0.12761000       0.10779021 </v>
    <v>       0.56380500       0.12761000       0.38961973 </v>
    <v>       0.56710600       0.13421200       0.19387616 </v>
    <v>       0.46710600       0.83421200       0.47570568 </v>
    <v>       0.82923400       0.65846800       0.13571444 </v>
    <v>       0.72923400       0.35846800       0.41754396 </v>
   </varray>
  </structure>
  <varray name="forces" >
   <v>       0.00451542      -0.01499513       0.00962948 </v>
   <v>       0.03179785       0.06084653       0.02548256 </v>
   <v>      -0.00116391      -0.00913072       0.10412724 </v>
   <v>       0.26298255       0.10279032       0.80667475 </v>
   <v>       0.00015418      -0.00090577       0.00186314 </v>
   <v>      -0.47804602      -0.67426739       0.74001552 </v>
   <v>      -0.00057351       0.01181037       0.01351866 </v>
   <v>      -0.50254456       0.71539415       0.90954367 </v>
   <v>       0.00084049      -0.00523305      -0.00138396 </v>
   <v>      -0.73454789      -0.78854547      -2.89788215 </v>
   <v>      -0.00019488       0.00585277       0.11420511 </v>
   <v>       0.34541262       0.32553827       0.07200243 </v>
   <v>       0.00252385      -0.00591233       0.01020131 </v>
   <v>       0.06431621       0.69695561      -1.64928145 </v>
   <v>      -0.00011064       0.06974572       0.00579020 </v>
   <v>       0.26419180      -0.85373681       0.07843233 </v>
   <v>      -0.00251921      -0.01256900      -0.01157932 </v>
   <v>       5.26728281       4.13002915      -4.99976992 </v>
   <v>      -0.00145523       0.02113885      -0.04306437 </v>
   <v>      -0.40259114      -2.47689271      -1.48068766 </v>
   <v>       0.00143832      -0.06607170       0.04395448 </v>
   <v>      -0.00765291       0.22165211      -0.08059491 </v>
   <v>       0.00086579      -0.01677037       0.00201614 </v>
   <v>      -4.11492202      -1.43672342       8.22678671 </v>
  </varray>
  <varray name="stress" >
   <v>      24.40397131       5.68744104      -0.57978565 </v>
   <v>       5.68744085       6.63529826       0.25512508 </v>
   <v>      -0.57978593       0.25512535      13.12692602 </v>
  </varray>
  <energy>
   <i name="e_fr_energy">   -122.88094464 </i>
   <i name="e_wo_entrp">   -122.86176631 </i>
   <i name="e_0_energy">     -0.03835668 </i>
  </energy>
  <time name="totalsc"> 3231.71 3232.43</time>
  <eigenvalues>
   <array>
    <dimension dim="1">band</dimension>
    <dimension dim="2">kpoint</dimension>
    <dimension dim="3">spin</dimension>
    <field>eigene</field>
    <field>occ</field>
    <set>
     <set comment="spin 1">
      <set comment="kpoint 1">
       <r>  -14.9806    1.0000 </r>
       <r>  -13.7048    1.0000 </r>
       <r>  -12.9611    1.0000 </r>
       <r>  -12.8893    1.0000 </r>
       <r>  -12.6531    1.0000 </r>
       <r>  -12.3621    1.0000 </r>
       <r>  -12.2515    1.0000 </r>
       <r>  -11.5998    1.0000 </r>
       <r>  -11.5721    1.0000 </r>
       <r>  -11.2346    1.0000 </r>
       <r>  -11.1524    1.0000 </r>
       <r>  -10.1499    1.0000 </r>
       <r>   -8.7133    1.0000 </r>
       <r>   -8.1906    1.0000 </r>
       <r>   -7.9922    1.0000 </r>
       <r>   -7.1872    1.0000 </r>
       <r>   -6.9894    1.0000 </r>
       <r>   -6.8739    1.0000 </r>
       <r>   -6.6569    1.0000 </r>
       <r>   -6.2515    1.0000 </r>
       <r>   -5.9732    1.0000 </r>
       <r>   -5.0693    1.0000 </r>
       <r>   -4.8955    1.0000 </r>
       <r>   -4.8296    1.0000 </r>
       <r>   -4.5303    1.0000 </r>
       <r>   -4.0280    1.0000 </r>
       <r>   -3.8688    1.0000 </r>
       <r>   -3.7972    1.0000 </r>
       <r>   -3.2665    1.0000 </r>
       <r>   -3.2467    1.0000 </r>
       <r>   -3.2245    1.0000 </r>
       <r>   -3.0018    1.0000 </r>
       <r>   -2.8459    1.0000 </r>
       <r>   -2.7647    1.0000 </r>
       <r>   -2.6006    1.0000 </r>
       <r>   -2.5628    1.0000 </r>
       <r>   -2.2190    1.0000 </r>
       <r>   -2.1690    1.0000 </r>
       <r>   -2.1234    1.0000 </r>
       <r>   -2.0346    1.0000 </r>
       <r>   -1.9431    1.0000 </r>
       <r>   -1.8922    1.0000 </r>
       <r>   -1.8047    1.0000 </r>
       <r>   -1.7334    1.0000 </r>
       <r>   -1.6756    1.0000 </r>
       <r>   -1.5940    1.0000 </r>
       <r>   -1.4145    1.0000 </r>
       <r>   -1.4023    1.0000 </r>
       <r>   -1.2813    1.0000 </r>
       <r>   -1.0602    1.0000 </r>
       <r>   -0.9908    1.0000 </r>
       <r>   -0.6160    1.0000 </r>
       <r>    0.3227    0.9046 </r>
       <r>    0.4034    0.5660 </r>
       <r>    0.6828    0.0001 </r>
       <r>    0.9475    0.0000 </r>
       <r>    1.0145    0.0000 </r>
       <r>    1.1474    0.0000 </r>
       <r>    1.1828    0.0000 </r>
       <r>    1.3609    0.0000 </r>
       <r>    1.5295    0.0000 </r>
       <r>    1.6374    0.0000 </r>
       <r>    1.7159    0.0000 </r>
       <r>    1.8582    0.0000 </r>
       <r>    2.0220    0.0000 </r>
       <r>    2.2675    0.0000 </r>
       <r>    2.3703    0.0000 </r>
       <r>    2.5111    0.0000 </r>
      </set>
      <set comment="kpoint 2">
       <r>  -14.9260    1.0000 </r>
       <r>  -13.6435    1.0000 </r>
       <r>  -12.9089    1.0000 </r>
       <r>  -12.8320    1.0000 </r>
       <r>  -12.5976    1.0000 </r>
       <r>  -12.3039    1.0000 </r>
       <r>  -12.1891    1.0000 </r>
       <r>  -11.5499    1.0000 </r>
       <r>  -11.5213    1.0000 </r>
       <r>  -11.1797    1.0000 </r>
       <r>  -11.1040    1.0000 </r>
       <r>  -10.1166    1.0000 </r>
       <r>   -8.6734    1.0000 </r>
       <r>   -8.2280    1.0000 </r>
       <r>   -7.9548    1.0000 </r>
       <r>   -7.1679    1.0000 </r>
       <r>   -6.9584    1.0000 </r>
       <r>   -6.8572    1.0000 </r>
       <r>   -6.6512    1.0000 </r>
       <r>   -6.2764    1.0000 </r>
       <r>   -5.9433    1.0000 </r>
       <r>   -5.3204    1.0000 </r>
       <r>   -5.0321    1.0000 </r>
       <r>   -4.8718    1.0000 </r>
       <r>   -4.4787    1.0000 </r>
       <r>   -4.0099    1.0000 </r>
       <r>   -3.9124    1.0000 </r>
       <r>   -3.8168    1.0000 </r>
       <r>   -3.6064    1.0000 </r>
       <r>   -3.4206    1.0000 </r>
       <r>   -3.3296    1.0000 </r>
       <r>   -3.3148    1.0000 </r>
       <r>   -3.1738    1.0000 </r>
       <r>   -2.9361    1.0000 </r>
       <r>   -2.8195    1.0000 </r>
       <r>   -2.6344    1.0000 </r>
       <r>   -2.4678    1.0000 </r>
       <r>   -2.3578    1.0000 </r>
       <r>   -2.2384    1.0000 </r>
       <r>   -2.1818    1.0000 </r>
       <r>   -2.1217    1.0000 </r>
       <r>   -2.0932    1.0000 </r>
       <r>   -1.9914    1.0000 </r>
       <r>   -1.9234    1.0000 </r>
       <r>   -1.8618    1.0000 </r>
       <r>   -1.7005    1.0000 </r>
       <r>   -1.6653    1.0000 </r>
       <r>   -1.3337    1.0000 </r>
       <r>   -1.1890    1.0000 </r>
       <r>   -1.0211    1.0000 </r>
       <r>   -0.8327    1.0000 </r>
       <r>   -0.5966    1.0000 </r>
       <r>    0.0855    1.0000 </r>
       <r>    0.4788    0.1843 </r>
       <r>    0.6579    0.0003 </r>
       <r>    0.9242    0.0000 </r>
       <r>    1.0677    0.0000 </r>
       <r>    1.3764    0.0000 </r>
       <r>    1.6030    0.0000 </r>
       <r>    1.6873    0.0000 </r>
       <r>    1.9233    0.0000 </r>
       <r>    1.9997    0.0000 </r>
       <r>    2.0621    0.0000 </r>
       <r>    2.1283    0.0000 </r>
       <r>    2.2082    0.0000 </r>
       <r>    2.4518    0.0000 </r>
       <r>    2.6002    0.0000 </r>
       <r>    2.6334    0.0000 </r>
      </set>
      <set comment="kpoint 3">
       <r>  -14.7648    1.0000 </r>
       <r>  -13.4605    1.0000 </r>
       <r>  -12.7531    1.0000 </r>
       <r>  -12.6616    1.0000 </r>
       <r>  -12.4331    1.0000 </r>
       <r>  -12.1320    1.0000 </r>
       <r>  -12.0065    1.0000 </r>
       <r>  -11.4052    1.0000 </r>
       <r>  -11.3718    1.0000 </r>
       <r>  -11.0188    1.0000 </r>
       <r>  -10.9652    1.0000 </r>
       <r>  -10.0290    1.0000 </r>
       <r>   -8.5643    1.0000 </r>
       <r>   -8.3237    1.0000 </r>
       <r>   -7.9130    1.0000 </r>
       <r>   -7.1453    1.0000 </r>
       <r>   -6.8993    1.0000 </r>
       <r>   -6.8392    1.0000 </r>
       <r>   -6.6635    1.0000 </r>
       <r>   -6.5954    1.0000 </r>
       <r>   -5.9007    1.0000 </r>
       <r>   -5.8197    1.0000 </r>
       <r>   -5.0773    1.0000 </r>
       <r>   -4.9890    1.0000 </r>
       <r>   -4.4396    1.0000 </r>
       <r>   -4.3550    1.0000 </r>
       <r>   -4.2661    1.0000 </r>
       <r>   -4.2419    1.0000 </r>
       <r>   -4.1179    1.0000 </r>
       <r>   -3.9058    1.0000 </r>
       <r>   -3.7757    1.0000 </r>
       <r>   -3.6843    1.0000 </r>
       <r>   -3.4815    1.0000 </r>
       <r>   -3.2805    1.0000 </r>
       <r>   -3.1245    1.0000 </r>
       <r>   -3.0482    1.0000 </r>
       <r>   -2.9892    1.0000 </r>
       <r>   -2.9101    1.0000 </r>
       <r>   -2.6865    1.0000 </r>
       <r>   -2.5415    1.0000 </r>
       <r>   -2.4971    1.0000 </r>
       <r>   -2.3070    1.0000 </r>
       <r>   -2.1495    1.0000 </r>
       <r>   -2.0668    1.0000 </r>
       <r>   -1.9214    1.0000 </r>
       <r>   -1.8156    1.0000 </r>
       <r>   -1.7884    1.0000 </r>
       <r>   -1.3816    1.0000 </r>
       <r>   -1.2753    1.0000 </r>
       <r>   -1.1245    1.0000 </r>
       <r>   -0.9899    1.0000 </r>
       <r>   -0.6401    1.0000 </r>
       <r>   -0.0191    1.0000 </r>
       <r>    0.4913    0.1410 </r>
       <r>    0.7832    0.0000 </r>
       <r>    0.8759    0.0000 </r>
       <r>    1.1512    0.0000 </r>
       <r>    1.7692    0.0000 </r>
       <r>    2.0838    0.0000 </r>
       <r>    2.2003    0.0000 </r>
       <r>    2.2775    0.0000 </r>
       <r>    2.3907    0.0000 </r>
       <r>    2.4674    0.0000 </r>
       <r>    2.5646    0.0000 </r>
       <r>    2.6119    0.0000 </r>
       <r>    2.7858    0.0000 </r>
       <r>    2.9055    0.0000 </r>
       <r>    2.9629    0.0000 </r>
      </set>
      <set comment="kpoint 4">
       <r>  -14.5072    1.0000 </r>
       <r>  -13.1595    1.0000 </r>
       <r>  -12.4967    1.0000 </r>
       <r>  -12.3834    1.0000 </r>
       <r>  -12.1667    1.0000 </r>
       <r>  -11.8568    1.0000 </r>
       <r>  -11.7183    1.0000 </r>
       <r>  -11.1853    1.0000 </r>
       <r>  -11.1344    1.0000 </r>
       <r>  -10.7665    1.0000 </r>
       <r>  -10.7618    1.0000 </r>
       <r>   -9.9351    1.0000 </r>
       <r>   -8.5289    1.0000 </r>
       <r>   -8.4136    1.0000 </r>
       <r>   -7.9879    1.0000 </r>
       <r>   -7.5220    1.0000 </r>
       <r>   -7.1080    1.0000 </r>
       <r>   -6.8804    1.0000 </r>
       <r>   -6.8194    1.0000 </r>
       <r>   -6.7941    1.0000 </r>
       <r>   -6.0558    1.0000 </r>
       <r>   -5.8920    1.0000 </r>
       <r>   -5.5015    1.0000 </r>
       <r>   -5.3259    1.0000 </r>
       <r>   -4.9746    1.0000 </r>
       <r>   -4.9304    1.0000 </r>
       <r>   -4.7805    1.0000 </r>
       <r>   -4.6691    1.0000 </r>
       <r>   -4.4627    1.0000 </r>
       <r>   -4.3402    1.0000 </r>
       <r>   -4.1488    1.0000 </r>
       <r>   -3.9086    1.0000 </r>
       <r>   -3.8503    1.0000 </r>
       <r>   -3.6305    1.0000 </r>
       <r>   -3.4932    1.0000 </r>
       <r>   -3.2598    1.0000 </r>
       <r>   -3.1671    1.0000 </r>
       <r>   -3.1272    1.0000 </r>
       <r>   -2.8224    1.0000 </r>
       <r>   -2.7464    1.0000 </r>
       <r>   -2.6594    1.0000 </r>
       <r>   -2.5885    1.0000 </r>
       <r>   -2.3213    1.0000 </r>
       <r>   -2.0720    1.0000 </r>
       <r>   -2.0229    1.0000 </r>
       <r>   -1.9783    1.0000 </r>
       <r>   -1.8887    1.0000 </r>
       <r>   -1.7450    1.0000 </r>
       <r>   -1.6157    1.0000 </r>
       <r>   -1.2825    1.0000 </r>
       <r>   -1.1363    1.0000 </r>
       <r>   -0.8979    1.0000 </r>
       <r>   -0.1831    1.0000 </r>
       <r>    0.3927    0.6245 </r>
       <r>    0.8283    0.0000 </r>
       <r>    1.0752    0.0000 </r>
       <r>    1.2734    0.0000 </r>
       <r>    1.7157    0.0000 </r>
       <r>    1.8809    0.0000 </r>
       <r>    1.9968    0.0000 </r>
       <r>    2.1330    0.0000 </r>
       <r>    2.2336    0.0000 </r>
       <r>    2.4685    0.0000 </r>
       <r>    2.5370    0.0000 </r>
       <r>    2.5885    0.0000 </r>
       <r>    2.7227    0.0000 </r>
       <r>    2.8153    0.0000 </r>
       <r>    2.8978    0.0000 </r>
      </set>
      <set comment="kpoint 5">
       <r>  -14.1768    1.0000 </r>
       <r>  -12.7478    1.0000 </r>
       <r>  -12.1481    1.0000 </r>
       <r>  -12.0096    1.0000 </r>
       <r>  -11.8156    1.0000 </r>
       <r>  -11.5046    1.0000 </r>
       <r>  -11.3597    1.0000 </r>
       <r>  -10.9387    1.0000 </r>
       <r>  -10.8424    1.0000 </r>
       <r>  -10.5761    1.0000 </r>
       <r>  -10.4621    1.0000 </r>
       <r>   -9.9425    1.0000 </r>
       <r>   -8.8181    1.0000 </r>
       <r>   -8.4081    1.0000 </r>
       <r>   -8.2483    1.0000 </r>
       <r>   -8.0996    1.0000 </r>
       <r>   -7.3929    1.0000 </r>
       <r>   -7.1624    1.0000 </r>
       <r>   -7.0726    1.0000 </r>
       <r>   -6.9761    1.0000 </r>
       <r>   -6.4623    1.0000 </r>
       <r>   -6.3152    1.0000 </r>
       <r>   -6.1321    1.0000 </r>
       <r>   -5.8811    1.0000 </r>
       <r>   -5.3731    1.0000 </r>
       <r>   -5.2267    1.0000 </r>
       <r>   -4.9682    1.0000 </r>
       <r>   -4.8623    1.0000 </r>
       <r>   -4.7719    1.0000 </r>
       <r>   -4.4757    1.0000 </r>
       <r>   -4.3744    1.0000 </r>
       <r>   -4.1162    1.0000 </r>
       <r>   -3.9199    1.0000 </r>
       <r>   -3.6073    1.0000 </r>
       <r>   -3.5435    1.0000 </r>
       <r>   -3.3796    1.0000 </r>
       <r>   -3.2430    1.0000 </r>
       <r>   -3.1409    1.0000 </r>
       <r>   -3.0855    1.0000 </r>
       <r>   -2.9050    1.0000 </r>
       <r>   -2.7763    1.0000 </r>
       <r>   -2.6821    1.0000 </r>
       <r>   -2.4815    1.0000 </r>
       <r>   -2.2495    1.0000 </r>
       <r>   -2.2045    1.0000 </r>
       <r>   -2.0697    1.0000 </r>
       <r>   -2.0374    1.0000 </r>
       <r>   -1.9926    1.0000 </r>
       <r>   -1.8650    1.0000 </r>
       <r>   -1.6284    1.0000 </r>
       <r>   -1.4148    1.0000 </r>
       <r>   -0.8923    1.0000 </r>
       <r>   -0.1872    1.0000 </r>
       <r>    0.1289    1.0000 </r>
       <r>    0.6615    0.0002 </r>
       <r>    0.9207    0.0000 </r>
       <r>    1.2436    0.0000 </r>
       <r>    1.5118    0.0000 </r>
       <r>    1.6507    0.0000 </r>
       <r>    1.8260    0.0000 </r>
       <r>    1.8977    0.0000 </r>
       <r>    2.0458    0.0000 </r>
       <r>    2.1409    0.0000 </r>
       <r>    2.2122    0.0000 </r>
       <r>    2.3248    0.0000 </r>
       <r>    2.5191    0.0000 </r>
       <r>    2.6565    0.0000 </r>
       <r>    2.7423    0.0000 </r>
      </set>
      <set comment="kpoint 6">
       <r>  -13.8268    1.0000 </r>
       <r>  -12.2396    1.0000 </r>
       <r>  -11.7287    1.0000 </r>
       <r>  -11.5685    1.0000 </r>
       <r>  -11.4191    1.0000 </r>
       <r>  -11.1520    1.0000 </r>
       <r>  -11.0164    1.0000 </r>
       <r>  -10.7829    1.0000 </r>
       <r>  -10.6169    1.0000 </r>
       <r>  -10.6120    1.0000 </r>
       <r>  -10.2890    1.0000 </r>
       <r>   -9.9840    1.0000 </r>
       <r>   -8.9937    1.0000 </r>
       <r>   -8.6290    1.0000 </r>
       <r>   -8.5419    1.0000 </r>
       <r>   -8.3627    1.0000 </r>
       <r>   -7.6839    1.0000 </r>
       <r>   -7.6214    1.0000 </r>
       <r>   -7.5825    1.0000 </r>
       <r>   -7.3010    1.0000 </r>
       <r>   -6.9202    1.0000 </r>
       <r>   -6.8368    1.0000 </r>
       <r>   -6.8020    1.0000 </r>
       <r>   -6.5061    1.0000 </r>
       <r>   -5.3741    1.0000 </r>
       <r>   -5.2490    1.0000 </r>
       <r>   -4.8644    1.0000 </r>
       <r>   -4.7682    1.0000 </r>
       <r>   -4.6849    1.0000 </r>
       <r>   -4.4034    1.0000 </r>
       <r>   -4.2339    1.0000 </r>
       <r>   -4.1394    1.0000 </r>
       <r>   -3.9375    1.0000 </r>
       <r>   -3.8193    1.0000 </r>
       <r>   -3.6502    1.0000 </r>
       <r>   -3.5110    1.0000 </r>
       <r>   -3.4278    1.0000 </r>
       <r>   -3.3134    1.0000 </r>
       <r>   -3.0289    1.0000 </r>
       <r>   -2.9811    1.0000 </r>
       <r>   -2.8392    1.0000 </r>
       <r>   -2.6880    1.0000 </r>
       <r>   -2.6252    1.0000 </r>
       <r>   -2.4482    1.0000 </r>
       <r>   -2.3540    1.0000 </r>
       <r>   -2.2692    1.0000 </r>
       <r>   -2.2443    1.0000 </r>
       <r>   -2.1638    1.0000 </r>
       <r>   -2.0126    1.0000 </r>
       <r>   -1.8367    1.0000 </r>
       <r>   -1.5576    1.0000 </r>
       <r>   -0.8357    1.0000 </r>
       <r>   -0.3124    1.0000 </r>
       <r>    0.0882    1.0000 </r>
       <r>    0.4142    0.5054 </r>
       <r>    0.7742    0.0000 </r>
       <r>    1.1721    0.0000 </r>
       <r>    1.3602    0.0000 </r>
       <r>    1.4360    0.0000 </r>
       <r>    1.5289    0.0000 </r>
       <r>    1.6664    0.0000 </r>
       <r>    1.9031    0.0000 </r>
       <r>    1.9592    0.0000 </r>
       <r>    2.1154    0.0000 </r>
       <r>    2.1567    0.0000 </r>
       <r>    2.2165    0.0000 </r>
       <r>    2.3922    0.0000 </r>
       <r>    2.5817    0.0000 </r>
      </set>
      <set comment="kpoint 7">
       <r>  -13.5731    1.0000 </r>
       <r>  -11.6668    1.0000 </r>
       <r>  -11.3069    1.0000 </r>
       <r>  -11.1439    1.0000 </r>
       <r>  -11.1245    1.0000 </r>
       <r>  -11.0047    1.0000 </r>
       <r>  -10.9921    1.0000 </r>
       <r>  -10.8906    1.0000 </r>
       <r>  -10.7924    1.0000 </r>
       <r>  -10.6752    1.0000 </r>
       <r>  -10.2743    1.0000 </r>
       <r>   -9.7807    1.0000 </r>
       <r>   -8.9048    1.0000 </r>
       <r>   -8.8482    1.0000 </r>
       <r>   -8.6067    1.0000 </r>
       <r>   -8.4343    1.0000 </r>
       <r>   -8.2414    1.0000 </r>
       <r>   -7.8406    1.0000 </r>
       <r>   -7.7419    1.0000 </r>
       <r>   -7.5822    1.0000 </r>
       <r>   -7.4527    1.0000 </r>
       <r>   -7.3379    1.0000 </r>
       <r>   -7.1961    1.0000 </r>
       <r>   -6.6450    1.0000 </r>
       <r>   -5.2413    1.0000 </r>
       <r>   -5.0811    1.0000 </r>
       <r>   -4.8409    1.0000 </r>
       <r>   -4.6662    1.0000 </r>
       <r>   -4.4620    1.0000 </r>
       <r>   -4.3111    1.0000 </r>
       <r>   -4.2203    1.0000 </r>
       <r>   -4.0947    1.0000 </r>
       <r>   -3.9885    1.0000 </r>
       <r>   -3.7909    1.0000 </r>
       <r>   -3.7450    1.0000 </r>
       <r>   -3.5492    1.0000 </r>
       <r>   -3.4238    1.0000 </r>
       <r>   -3.3605    1.0000 </r>
       <r>   -3.1833    1.0000 </r>
       <r>   -3.1472    1.0000 </r>
       <r>   -3.0498    1.0000 </r>
       <r>   -2.8609    1.0000 </r>
       <r>   -2.7631    1.0000 </r>
       <r>   -2.5310    1.0000 </r>
       <r>   -2.4800    1.0000 </r>
       <r>   -2.3722    1.0000 </r>
       <r>   -2.2985    1.0000 </r>
       <r>   -2.2268    1.0000 </r>
       <r>   -1.9213    1.0000 </r>
       <r>   -1.8402    1.0000 </r>
       <r>   -1.6659    1.0000 </r>
       <r>   -0.8063    1.0000 </r>
       <r>   -0.3455    1.0000 </r>
       <r>    0.0163    1.0000 </r>
       <r>    0.3433    0.8452 </r>
       <r>    0.6736    0.0001 </r>
       <r>    1.1296    0.0000 </r>
       <r>    1.1467    0.0000 </r>
       <r>    1.2660    0.0000 </r>
       <r>    1.4125    0.0000 </r>
       <r>    1.5970    0.0000 </r>
       <r>    1.7225    0.0000 </r>
       <r>    1.8348    0.0000 </r>
       <r>    1.9506    0.0000 </r>
       <r>    2.0639    0.0000 </r>
       <r>    2.2333    0.0000 </r>
       <r>    2.3335    0.0000 </r>
       <r>    2.4449    0.0000 </r>
      </set>
      <set comment="kpoint 8">
       <r>  -14.9794    1.0000 </r>
       <r>  -13.6500    1.0000 </r>
       <r>  -13.1344    1.0000 </r>
       <r>  -12.9117    1.0000 </r>
       <r>  -12.6536    1.0000 </r>
       <r>  -12.3361    1.0000 </r>
       <r>  -12.0372    1.0000 </r>
       <r>  -11.6401    1.0000 </r>
       <r>  -11.5829    1.0000 </r>
       <r>  -11.2279    1.0000 </r>
       <r>  -11.1616    1.0000 </r>
       <r>  -10.1136    1.0000 </r>
       <r>   -8.7965    1.0000 </r>
       <r>   -8.6669    1.0000 </r>
       <r>   -7.5575    1.0000 </r>
       <r>   -7.2114    1.0000 </r>
       <r>   -6.9357    1.0000 </r>
       <r>   -6.8341    1.0000 </r>
       <r>   -6.7520    1.0000 </r>
       <r>   -6.0494    1.0000 </r>
       <r>   -5.8963    1.0000 </r>
       <r>   -5.1846    1.0000 </r>
       <r>   -4.8185    1.0000 </r>
       <r>   -4.7961    1.0000 </r>
       <r>   -4.4148    1.0000 </r>
       <r>   -4.1661    1.0000 </r>
       <r>   -3.9334    1.0000 </r>
       <r>   -3.6724    1.0000 </r>
       <r>   -3.4701    1.0000 </r>
       <r>   -3.3684    1.0000 </r>
       <r>   -3.2939    1.0000 </r>
       <r>   -2.8699    1.0000 </r>
       <r>   -2.8490    1.0000 </r>
       <r>   -2.7596    1.0000 </r>
       <r>   -2.5639    1.0000 </r>
       <r>   -2.5198    1.0000 </r>
       <r>   -2.4162    1.0000 </r>
       <r>   -2.2525    1.0000 </r>
       <r>   -2.1758    1.0000 </r>
       <r>   -2.1077    1.0000 </r>
       <r>   -2.0470    1.0000 </r>
       <r>   -1.7991    1.0000 </r>
       <r>   -1.7876    1.0000 </r>
       <r>   -1.6441    1.0000 </r>
       <r>   -1.5819    1.0000 </r>
       <r>   -1.5246    1.0000 </r>
       <r>   -1.4849    1.0000 </r>
       <r>   -1.3495    1.0000 </r>
       <r>   -1.2994    1.0000 </r>
       <r>   -1.1097    1.0000 </r>
       <r>   -0.9443    1.0000 </r>
       <r>   -0.6438    1.0000 </r>
       <r>    0.2219    0.9969 </r>
       <r>    0.4260    0.4390 </r>
       <r>    0.6840    0.0001 </r>
       <r>    0.9599    0.0000 </r>
       <r>    1.0494    0.0000 </r>
       <r>    1.1845    0.0000 </r>
       <r>    1.2367    0.0000 </r>
       <r>    1.4348    0.0000 </r>
       <r>    1.5336    0.0000 </r>
       <r>    1.5874    0.0000 </r>
       <r>    1.7403    0.0000 </r>
       <r>    1.8210    0.0000 </r>
       <r>    2.0989    0.0000 </r>
       <r>    2.4303    0.0000 </r>
       <r>    2.4811    0.0000 </r>
       <r>    2.5445    0.0000 </r>
      </set>
      <set comment="kpoint 9">
       <r>  -14.9246    1.0000 </r>
       <r>  -13.5734    1.0000 </r>
       <r>  -13.1151    1.0000 </r>
       <r>  -12.8584    1.0000 </r>
       <r>  -12.5968    1.0000 </r>
       <r>  -12.2743    1.0000 </r>
       <r>  -11.9368    1.0000 </r>
       <r>  -11.5983    1.0000 </r>
       <r>  -11.5300    1.0000 </r>
       <r>  -11.1736    1.0000 </r>
       <r>  -11.1173    1.0000 </r>
       <r>  -10.0740    1.0000 </r>
       <r>   -8.7834    1.0000 </r>
       <r>   -8.7123    1.0000 </r>
       <r>   -7.5105    1.0000 </r>
       <r>   -7.1979    1.0000 </r>
       <r>   -6.9331    1.0000 </r>
       <r>   -6.8425    1.0000 </r>
       <r>   -6.6833    1.0000 </r>
       <r>   -6.0198    1.0000 </r>
       <r>   -5.8522    1.0000 </r>
       <r>   -5.3182    1.0000 </r>
       <r>   -5.1452    1.0000 </r>
       <r>   -4.8407    1.0000 </r>
       <r>   -4.3883    1.0000 </r>
       <r>   -4.1978    1.0000 </r>
       <r>   -3.9069    1.0000 </r>
       <r>   -3.7923    1.0000 </r>
       <r>   -3.5959    1.0000 </r>
       <r>   -3.5213    1.0000 </r>
       <r>   -3.4129    1.0000 </r>
       <r>   -3.2359    1.0000 </r>
       <r>   -3.1795    1.0000 </r>
       <r>   -2.8921    1.0000 </r>
       <r>   -2.7854    1.0000 </r>
       <r>   -2.6567    1.0000 </r>
       <r>   -2.5926    1.0000 </r>
       <r>   -2.4493    1.0000 </r>
       <r>   -2.3440    1.0000 </r>
       <r>   -2.2542    1.0000 </r>
       <r>   -2.1573    1.0000 </r>
       <r>   -2.1196    1.0000 </r>
       <r>   -1.9966    1.0000 </r>
       <r>   -1.9063    1.0000 </r>
       <r>   -1.8179    1.0000 </r>
       <r>   -1.6087    1.0000 </r>
       <r>   -1.5036    1.0000 </r>
       <r>   -1.3188    1.0000 </r>
       <r>   -1.2378    1.0000 </r>
       <r>   -1.0594    1.0000 </r>
       <r>   -0.8232    1.0000 </r>
       <r>   -0.6019    1.0000 </r>
       <r>    0.0609    1.0000 </r>
       <r>    0.3676    0.7497 </r>
       <r>    0.6642    0.0002 </r>
       <r>    0.9624    0.0000 </r>
       <r>    1.1789    0.0000 </r>
       <r>    1.4173    0.0000 </r>
       <r>    1.5988    0.0000 </r>
       <r>    1.7553    0.0000 </r>
       <r>    1.7874    0.0000 </r>
       <r>    1.9360    0.0000 </r>
       <r>    2.0980    0.0000 </r>
       <r>    2.1339    0.0000 </r>
       <r>    2.3743    0.0000 </r>
       <r>    2.4982    0.0000 </r>
       <r>    2.8060    0.0000 </r>
       <r>    2.8401    0.0000 </r>
      </set>
      <set comment="kpoint 10">
       <r>  -14.7633    1.0000 </r>
       <r>  -13.3771    1.0000 </r>
       <r>  -12.9783    1.0000 </r>
       <r>  -12.6885    1.0000 </r>
       <r>  -12.4308    1.0000 </r>
       <r>  -12.1047    1.0000 </r>
       <r>  -11.7382    1.0000 </r>
       <r>  -11.4581    1.0000 </r>
       <r>  -11.3688    1.0000 </r>
       <r>  -11.0218    1.0000 </r>
       <r>  -10.9759    1.0000 </r>
       <r>   -9.9816    1.0000 </r>
       <r>   -8.8078    1.0000 </r>
       <r>   -8.6486    1.0000 </r>
       <r>   -7.4793    1.0000 </r>
       <r>   -7.1969    1.0000 </r>
       <r>   -6.9743    1.0000 </r>
       <r>   -6.8203    1.0000 </r>
       <r>   -6.6537    1.0000 </r>
       <r>   -6.3131    1.0000 </r>
       <r>   -5.8218    1.0000 </r>
       <r>   -5.7828    1.0000 </r>
       <r>   -5.2190    1.0000 </r>
       <r>   -4.9915    1.0000 </r>
       <r>   -4.5485    1.0000 </r>
       <r>   -4.4795    1.0000 </r>
       <r>   -4.3083    1.0000 </r>
       <r>   -4.2095    1.0000 </r>
       <r>   -4.0968    1.0000 </r>
       <r>   -3.8999    1.0000 </r>
       <r>   -3.7671    1.0000 </r>
       <r>   -3.5751    1.0000 </r>
       <r>   -3.3740    1.0000 </r>
       <r>   -3.1930    1.0000 </r>
       <r>   -3.1177    1.0000 </r>
       <r>   -3.0962    1.0000 </r>
       <r>   -2.9321    1.0000 </r>
       <r>   -2.8357    1.0000 </r>
       <r>   -2.7601    1.0000 </r>
       <r>   -2.6868    1.0000 </r>
       <r>   -2.5142    1.0000 </r>
       <r>   -2.4483    1.0000 </r>
       <r>   -2.2197    1.0000 </r>
       <r>   -2.0736    1.0000 </r>
       <r>   -2.0310    1.0000 </r>
       <r>   -1.8020    1.0000 </r>
       <r>   -1.6474    1.0000 </r>
       <r>   -1.3391    1.0000 </r>
       <r>   -1.2913    1.0000 </r>
       <r>   -1.0670    1.0000 </r>
       <r>   -1.0074    1.0000 </r>
       <r>   -0.6572    1.0000 </r>
       <r>    0.0116    1.0000 </r>
       <r>    0.4320    0.4061 </r>
       <r>    0.6941    0.0000 </r>
       <r>    0.8531    0.0000 </r>
       <r>    1.2503    0.0000 </r>
       <r>    1.5211    0.0000 </r>
       <r>    1.9379    0.0000 </r>
       <r>    2.0861    0.0000 </r>
       <r>    2.2049    0.0000 </r>
       <r>    2.3353    0.0000 </r>
       <r>    2.5824    0.0000 </r>
       <r>    2.6304    0.0000 </r>
       <r>    2.7373    0.0000 </r>
       <r>    2.9072    0.0000 </r>
       <r>    2.9493    0.0000 </r>
       <r>    3.0146    0.0000 </r>
      </set>
      <set comment="kpoint 11">
       <r>  -14.5059    1.0000 </r>
       <r>  -13.0661    1.0000 </r>
       <r>  -12.7264    1.0000 </r>
       <r>  -12.4069    1.0000 </r>
       <r>  -12.1634    1.0000 </r>
       <r>  -11.8385    1.0000 </r>
       <r>  -11.4610    1.0000 </r>
       <r>  -11.2354    1.0000 </r>
       <r>  -11.1082    1.0000 </r>
       <r>  -10.7936    1.0000 </r>
       <r>  -10.7582    1.0000 </r>
       <r>   -9.8816    1.0000 </r>
       <r>   -8.9350    1.0000 </r>
       <r>   -8.5045    1.0000 </r>
       <r>   -7.6216    1.0000 </r>
       <r>   -7.5609    1.0000 </r>
       <r>   -7.0404    1.0000 </r>
       <r>   -6.8617    1.0000 </r>
       <r>   -6.8075    1.0000 </r>
       <r>   -6.7316    1.0000 </r>
       <r>   -6.0562    1.0000 </r>
       <r>   -5.9733    1.0000 </r>
       <r>   -5.4313    1.0000 </r>
       <r>   -5.3635    1.0000 </r>
       <r>   -5.1857    1.0000 </r>
       <r>   -4.9177    1.0000 </r>
       <r>   -4.8271    1.0000 </r>
       <r>   -4.7236    1.0000 </r>
       <r>   -4.4384    1.0000 </r>
       <r>   -4.2734    1.0000 </r>
       <r>   -4.1206    1.0000 </r>
       <r>   -3.8771    1.0000 </r>
       <r>   -3.7148    1.0000 </r>
       <r>   -3.4727    1.0000 </r>
       <r>   -3.3663    1.0000 </r>
       <r>   -3.2828    1.0000 </r>
       <r>   -3.2533    1.0000 </r>
       <r>   -3.0274    1.0000 </r>
       <r>   -2.8219    1.0000 </r>
       <r>   -2.7407    1.0000 </r>
       <r>   -2.6955    1.0000 </r>
       <r>   -2.6678    1.0000 </r>
       <r>   -2.2057    1.0000 </r>
       <r>   -2.1771    1.0000 </r>
       <r>   -2.1029    1.0000 </r>
       <r>   -2.0102    1.0000 </r>
       <r>   -1.9300    1.0000 </r>
       <r>   -1.8792    1.0000 </r>
       <r>   -1.5467    1.0000 </r>
       <r>   -1.2270    1.0000 </r>
       <r>   -1.1205    1.0000 </r>
       <r>   -0.9160    1.0000 </r>
       <r>   -0.1416    1.0000 </r>
       <r>    0.3370    0.8657 </r>
       <r>    0.7412    0.0000 </r>
       <r>    1.0632    0.0000 </r>
       <r>    1.1586    0.0000 </r>
       <r>    1.3395    0.0000 </r>
       <r>    1.4911    0.0000 </r>
       <r>    1.8945    0.0000 </r>
       <r>    2.0942    0.0000 </r>
       <r>    2.2414    0.0000 </r>
       <r>    2.4142    0.0000 </r>
       <r>    2.5537    0.0000 </r>
       <r>    2.6104    0.0000 </r>
       <r>    2.8376    0.0000 </r>
       <r>    2.8892    0.0000 </r>
       <r>    3.1061    0.0000 </r>
      </set>
      <set comment="kpoint 12">
       <r>  -14.1758    1.0000 </r>
       <r>  -12.6498    1.0000 </r>
       <r>  -12.3667    1.0000 </r>
       <r>  -12.0252    1.0000 </r>
       <r>  -11.8124    1.0000 </r>
       <r>  -11.5006    1.0000 </r>
       <r>  -11.1469    1.0000 </r>
       <r>  -10.9708    1.0000 </r>
       <r>  -10.7905    1.0000 </r>
       <r>  -10.5541    1.0000 </r>
       <r>  -10.5300    1.0000 </r>
       <r>   -9.8747    1.0000 </r>
       <r>   -9.1338    1.0000 </r>
       <r>   -8.4579    1.0000 </r>
       <r>   -8.1403    1.0000 </r>
       <r>   -7.8743    1.0000 </r>
       <r>   -7.3317    1.0000 </r>
       <r>   -7.2742    1.0000 </r>
       <r>   -7.1292    1.0000 </r>
       <r>   -6.9404    1.0000 </r>
       <r>   -6.5620    1.0000 </r>
       <r>   -6.3415    1.0000 </r>
       <r>   -6.0860    1.0000 </r>
       <r>   -5.8406    1.0000 </r>
       <r>   -5.5405    1.0000 </r>
       <r>   -5.2719    1.0000 </r>
       <r>   -5.1014    1.0000 </r>
       <r>   -4.8584    1.0000 </r>
       <r>   -4.5908    1.0000 </r>
       <r>   -4.5043    1.0000 </r>
       <r>   -4.1784    1.0000 </r>
       <r>   -4.1096    1.0000 </r>
       <r>   -3.8225    1.0000 </r>
       <r>   -3.5404    1.0000 </r>
       <r>   -3.4912    1.0000 </r>
       <r>   -3.4070    1.0000 </r>
       <r>   -3.1705    1.0000 </r>
       <r>   -3.0655    1.0000 </r>
       <r>   -3.0233    1.0000 </r>
       <r>   -2.9110    1.0000 </r>
       <r>   -2.6551    1.0000 </r>
       <r>   -2.5762    1.0000 </r>
       <r>   -2.5056    1.0000 </r>
       <r>   -2.4247    1.0000 </r>
       <r>   -2.3075    1.0000 </r>
       <r>   -2.1371    1.0000 </r>
       <r>   -2.0841    1.0000 </r>
       <r>   -2.0170    1.0000 </r>
       <r>   -1.8961    1.0000 </r>
       <r>   -1.6356    1.0000 </r>
       <r>   -1.4556    1.0000 </r>
       <r>   -0.8811    1.0000 </r>
       <r>   -0.1699    1.0000 </r>
       <r>    0.1139    1.0000 </r>
       <r>    0.4937    0.1335 </r>
       <r>    0.9313    0.0000 </r>
       <r>    1.0543    0.0000 </r>
       <r>    1.1080    0.0000 </r>
       <r>    1.3974    0.0000 </r>
       <r>    1.7124    0.0000 </r>
       <r>    1.9920    0.0000 </r>
       <r>    2.0162    0.0000 </r>
       <r>    2.1462    0.0000 </r>
       <r>    2.2424    0.0000 </r>
       <r>    2.2919    0.0000 </r>
       <r>    2.4511    0.0000 </r>
       <r>    2.4937    0.0000 </r>
       <r>    2.8191    0.0000 </r>
      </set>
      <set comment="kpoint 13">
       <r>  -13.8263    1.0000 </r>
       <r>  -12.1470    1.0000 </r>
       <r>  -11.9160    1.0000 </r>
       <r>  -11.5716    1.0000 </r>
       <r>  -11.4181    1.0000 </r>
       <r>  -11.1543    1.0000 </r>
       <r>  -10.8889    1.0000 </r>
       <r>  -10.7594    1.0000 </r>
       <r>  -10.6462    1.0000 </r>
       <r>  -10.6276    1.0000 </r>
       <r>  -10.2387    1.0000 </r>
       <r>   -9.9829    1.0000 </r>
       <r>   -9.1239    1.0000 </r>
       <r>   -8.6236    1.0000 </r>
       <r>   -8.3616    1.0000 </r>
       <r>   -8.2766    1.0000 </r>
       <r>   -7.9413    1.0000 </r>
       <r>   -7.7020    1.0000 </r>
       <r>   -7.5278    1.0000 </r>
       <r>   -7.2606    1.0000 </r>
       <r>   -6.9359    1.0000 </r>
       <r>   -6.8596    1.0000 </r>
       <r>   -6.8140    1.0000 </r>
       <r>   -6.4372    1.0000 </r>
       <r>   -5.5045    1.0000 </r>
       <r>   -5.2460    1.0000 </r>
       <r>   -4.9877    1.0000 </r>
       <r>   -4.9231    1.0000 </r>
       <r>   -4.6286    1.0000 </r>
       <r>   -4.2768    1.0000 </r>
       <r>   -4.0706    1.0000 </r>
       <r>   -4.0240    1.0000 </r>
       <r>   -3.9190    1.0000 </r>
       <r>   -3.6743    1.0000 </r>
       <r>   -3.5128    1.0000 </r>
       <r>   -3.4469    1.0000 </r>
       <r>   -3.3672    1.0000 </r>
       <r>   -3.2786    1.0000 </r>
       <r>   -3.1037    1.0000 </r>
       <r>   -3.0249    1.0000 </r>
       <r>   -2.8661    1.0000 </r>
       <r>   -2.7230    1.0000 </r>
       <r>   -2.6353    1.0000 </r>
       <r>   -2.4650    1.0000 </r>
       <r>   -2.3214    1.0000 </r>
       <r>   -2.3011    1.0000 </r>
       <r>   -2.2536    1.0000 </r>
       <r>   -2.1950    1.0000 </r>
       <r>   -2.0419    1.0000 </r>
       <r>   -1.9324    1.0000 </r>
       <r>   -1.6218    1.0000 </r>
       <r>   -0.8180    1.0000 </r>
       <r>   -0.2704    1.0000 </r>
       <r>   -0.0181    1.0000 </r>
       <r>    0.3698    0.7394 </r>
       <r>    0.8285    0.0000 </r>
       <r>    1.0444    0.0000 </r>
       <r>    1.1488    0.0000 </r>
       <r>    1.3215    0.0000 </r>
       <r>    1.4343    0.0000 </r>
       <r>    1.6724    0.0000 </r>
       <r>    1.7515    0.0000 </r>
       <r>    1.9055    0.0000 </r>
       <r>    1.9817    0.0000 </r>
       <r>    2.0478    0.0000 </r>
       <r>    2.1973    0.0000 </r>
       <r>    2.4656    0.0000 </r>
       <r>    2.5399    0.0000 </r>
      </set>
      <set comment="kpoint 14">
       <r>  -13.5730    1.0000 </r>
       <r>  -11.5988    1.0000 </r>
       <r>  -11.4208    1.0000 </r>
       <r>  -11.1367    1.0000 </r>
       <r>  -11.1333    1.0000 </r>
       <r>  -11.0244    1.0000 </r>
       <r>  -10.9790    1.0000 </r>
       <r>  -10.8605    1.0000 </r>
       <r>  -10.7444    1.0000 </r>
       <r>  -10.7376    1.0000 </r>
       <r>  -10.2114    1.0000 </r>
       <r>   -9.8036    1.0000 </r>
       <r>   -8.8888    1.0000 </r>
       <r>   -8.7152    1.0000 </r>
       <r>   -8.5645    1.0000 </r>
       <r>   -8.4938    1.0000 </r>
       <r>   -8.4310    1.0000 </r>
       <r>   -7.7875    1.0000 </r>
       <r>   -7.6902    1.0000 </r>
       <r>   -7.6516    1.0000 </r>
       <r>   -7.4809    1.0000 </r>
       <r>   -7.2966    1.0000 </r>
       <r>   -7.2236    1.0000 </r>
       <r>   -6.6194    1.0000 </r>
       <r>   -5.2270    1.0000 </r>
       <r>   -5.1816    1.0000 </r>
       <r>   -4.8943    1.0000 </r>
       <r>   -4.6269    1.0000 </r>
       <r>   -4.4521    1.0000 </r>
       <r>   -4.2962    1.0000 </r>
       <r>   -4.2316    1.0000 </r>
       <r>   -4.0930    1.0000 </r>
       <r>   -3.8842    1.0000 </r>
       <r>   -3.8170    1.0000 </r>
       <r>   -3.6681    1.0000 </r>
       <r>   -3.5050    1.0000 </r>
       <r>   -3.4198    1.0000 </r>
       <r>   -3.2444    1.0000 </r>
       <r>   -3.1649    1.0000 </r>
       <r>   -3.1480    1.0000 </r>
       <r>   -3.0312    1.0000 </r>
       <r>   -2.8691    1.0000 </r>
       <r>   -2.7761    1.0000 </r>
       <r>   -2.7454    1.0000 </r>
       <r>   -2.5274    1.0000 </r>
       <r>   -2.3117    1.0000 </r>
       <r>   -2.2491    1.0000 </r>
       <r>   -2.1917    1.0000 </r>
       <r>   -1.9983    1.0000 </r>
       <r>   -1.8425    1.0000 </r>
       <r>   -1.6992    1.0000 </r>
       <r>   -0.8305    1.0000 </r>
       <r>   -0.3132    1.0000 </r>
       <r>   -0.0141    1.0000 </r>
       <r>    0.3453    0.8386 </r>
       <r>    0.7008    0.0000 </r>
       <r>    1.1292    0.0000 </r>
       <r>    1.2190    0.0000 </r>
       <r>    1.3067    0.0000 </r>
       <r>    1.3473    0.0000 </r>
       <r>    1.4047    0.0000 </r>
       <r>    1.7108    0.0000 </r>
       <r>    1.8117    0.0000 </r>
       <r>    1.8710    0.0000 </r>
       <r>    2.0214    0.0000 </r>
       <r>    2.2063    0.0000 </r>
       <r>    2.3185    0.0000 </r>
       <r>    2.3648    0.0000 </r>
      </set>
      <set comment="kpoint 15">
       <r>  -13.5733    1.0000 </r>
       <r>  -11.6999    1.0000 </r>
       <r>  -11.2310    1.0000 </r>
       <r>  -11.1548    1.0000 </r>
       <r>  -11.1125    1.0000 </r>
       <r>  -10.9812    1.0000 </r>
       <r>  -10.9655    1.0000 </r>
       <r>  -10.9198    1.0000 </r>
       <r>  -10.8576    1.0000 </r>
       <r>  -10.6526    1.0000 </r>
       <r>  -10.3111    1.0000 </r>
       <r>   -9.7755    1.0000 </r>
       <r>   -8.9231    1.0000 </r>
       <r>   -8.9047    1.0000 </r>
       <r>   -8.6003    1.0000 </r>
       <r>   -8.4150    1.0000 </r>
       <r>   -8.1066    1.0000 </r>
       <r>   -7.8560    1.0000 </r>
       <r>   -7.7741    1.0000 </r>
       <r>   -7.5715    1.0000 </r>
       <r>   -7.4437    1.0000 </r>
       <r>   -7.3812    1.0000 </r>
       <r>   -7.2130    1.0000 </r>
       <r>   -6.6257    1.0000 </r>
       <r>   -5.2326    1.0000 </r>
       <r>   -4.9249    1.0000 </r>
       <r>   -4.7731    1.0000 </r>
       <r>   -4.7236    1.0000 </r>
       <r>   -4.5414    1.0000 </r>
       <r>   -4.3799    1.0000 </r>
       <r>   -4.1553    1.0000 </r>
       <r>   -4.1490    1.0000 </r>
       <r>   -4.0461    1.0000 </r>
       <r>   -3.8576    1.0000 </r>
       <r>   -3.8103    1.0000 </r>
       <r>   -3.5627    1.0000 </r>
       <r>   -3.5172    1.0000 </r>
       <r>   -3.3591    1.0000 </r>
       <r>   -3.1320    1.0000 </r>
       <r>   -3.1088    1.0000 </r>
       <r>   -2.9668    1.0000 </r>
       <r>   -2.8339    1.0000 </r>
       <r>   -2.7410    1.0000 </r>
       <r>   -2.5895    1.0000 </r>
       <r>   -2.4902    1.0000 </r>
       <r>   -2.3231    1.0000 </r>
       <r>   -2.2624    1.0000 </r>
       <r>   -2.2208    1.0000 </r>
       <r>   -1.9444    1.0000 </r>
       <r>   -1.8449    1.0000 </r>
       <r>   -1.6475    1.0000 </r>
       <r>   -0.8433    1.0000 </r>
       <r>   -0.3368    1.0000 </r>
       <r>    0.1091    1.0000 </r>
       <r>    0.2857    0.9664 </r>
       <r>    0.6928    0.0000 </r>
       <r>    1.1243    0.0000 </r>
       <r>    1.1842    0.0000 </r>
       <r>    1.2873    0.0000 </r>
       <r>    1.5436    0.0000 </r>
       <r>    1.5941    0.0000 </r>
       <r>    1.7417    0.0000 </r>
       <r>    1.9542    0.0000 </r>
       <r>    2.0251    0.0000 </r>
       <r>    2.1718    0.0000 </r>
       <r>    2.2309    0.0000 </r>
       <r>    2.2600    0.0000 </r>
       <r>    2.4057    0.0000 </r>
      </set>
      <set comment="kpoint 16">
       <r>  -13.8271    1.0000 </r>
       <r>  -12.2659    1.0000 </r>
       <r>  -11.6438    1.0000 </r>
       <r>  -11.5654    1.0000 </r>
       <r>  -11.4165    1.0000 </r>
       <r>  -11.1363    1.0000 </r>
       <r>  -11.0978    1.0000 </r>
       <r>  -10.7857    1.0000 </r>
       <r>  -10.6750    1.0000 </r>
       <r>  -10.6110    1.0000 </r>
       <r>  -10.1972    1.0000 </r>
       <r>  -10.0366    1.0000 </r>
       <r>   -8.9050    1.0000 </r>
       <r>   -8.6605    1.0000 </r>
       <r>   -8.6224    1.0000 </r>
       <r>   -8.3756    1.0000 </r>
       <r>   -7.6863    1.0000 </r>
       <r>   -7.6073    1.0000 </r>
       <r>   -7.4920    1.0000 </r>
       <r>   -7.2717    1.0000 </r>
       <r>   -6.9653    1.0000 </r>
       <r>   -6.8419    1.0000 </r>
       <r>   -6.7982    1.0000 </r>
       <r>   -6.5227    1.0000 </r>
       <r>   -5.2444    1.0000 </r>
       <r>   -5.2174    1.0000 </r>
       <r>   -5.0117    1.0000 </r>
       <r>   -4.7071    1.0000 </r>
       <r>   -4.5719    1.0000 </r>
       <r>   -4.4361    1.0000 </r>
       <r>   -4.2666    1.0000 </r>
       <r>   -4.2451    1.0000 </r>
       <r>   -3.9956    1.0000 </r>
       <r>   -3.8839    1.0000 </r>
       <r>   -3.6207    1.0000 </r>
       <r>   -3.5619    1.0000 </r>
       <r>   -3.4394    1.0000 </r>
       <r>   -3.3307    1.0000 </r>
       <r>   -3.1452    1.0000 </r>
       <r>   -2.9478    1.0000 </r>
       <r>   -2.8416    1.0000 </r>
       <r>   -2.6768    1.0000 </r>
       <r>   -2.6249    1.0000 </r>
       <r>   -2.4128    1.0000 </r>
       <r>   -2.3453    1.0000 </r>
       <r>   -2.2487    1.0000 </r>
       <r>   -2.2361    1.0000 </r>
       <r>   -2.0941    1.0000 </r>
       <r>   -1.9859    1.0000 </r>
       <r>   -1.8069    1.0000 </r>
       <r>   -1.5349    1.0000 </r>
       <r>   -0.8655    1.0000 </r>
       <r>   -0.2936    1.0000 </r>
       <r>    0.0900    1.0000 </r>
       <r>    0.4270    0.4339 </r>
       <r>    0.8039    0.0000 </r>
       <r>    1.1133    0.0000 </r>
       <r>    1.4450    0.0000 </r>
       <r>    1.4899    0.0000 </r>
       <r>    1.6073    0.0000 </r>
       <r>    1.7498    0.0000 </r>
       <r>    1.9771    0.0000 </r>
       <r>    2.0569    0.0000 </r>
       <r>    2.1173    0.0000 </r>
       <r>    2.1888    0.0000 </r>
       <r>    2.2750    0.0000 </r>
       <r>    2.4378    0.0000 </r>
       <r>    2.5723    0.0000 </r>
      </set>
      <set comment="kpoint 17">
       <r>  -14.1770    1.0000 </r>
       <r>  -12.7600    1.0000 </r>
       <r>  -12.1066    1.0000 </r>
       <r>  -12.0052    1.0000 </r>
       <r>  -11.8146    1.0000 </r>
       <r>  -11.5012    1.0000 </r>
       <r>  -11.4068    1.0000 </r>
       <r>  -10.9307    1.0000 </r>
       <r>  -10.8753    1.0000 </r>
       <r>  -10.5821    1.0000 </r>
       <r>  -10.4335    1.0000 </r>
       <r>   -9.9445    1.0000 </r>
       <r>   -8.7198    1.0000 </r>
       <r>   -8.3960    1.0000 </r>
       <r>   -8.3516    1.0000 </r>
       <r>   -8.1294    1.0000 </r>
       <r>   -7.3690    1.0000 </r>
       <r>   -7.1672    1.0000 </r>
       <r>   -7.0514    1.0000 </r>
       <r>   -6.9617    1.0000 </r>
       <r>   -6.4570    1.0000 </r>
       <r>   -6.3094    1.0000 </r>
       <r>   -6.1411    1.0000 </r>
       <r>   -5.9098    1.0000 </r>
       <r>   -5.3127    1.0000 </r>
       <r>   -5.2039    1.0000 </r>
       <r>   -5.0560    1.0000 </r>
       <r>   -4.8090    1.0000 </r>
       <r>   -4.7421    1.0000 </r>
       <r>   -4.4688    1.0000 </r>
       <r>   -4.3981    1.0000 </r>
       <r>   -4.1690    1.0000 </r>
       <r>   -3.9396    1.0000 </r>
       <r>   -3.6167    1.0000 </r>
       <r>   -3.5605    1.0000 </r>
       <r>   -3.3950    1.0000 </r>
       <r>   -3.2433    1.0000 </r>
       <r>   -3.1818    1.0000 </r>
       <r>   -3.0883    1.0000 </r>
       <r>   -2.9114    1.0000 </r>
       <r>   -2.7789    1.0000 </r>
       <r>   -2.6472    1.0000 </r>
       <r>   -2.5176    1.0000 </r>
       <r>   -2.2415    1.0000 </r>
       <r>   -2.1739    1.0000 </r>
       <r>   -2.0355    1.0000 </r>
       <r>   -2.0175    1.0000 </r>
       <r>   -1.9890    1.0000 </r>
       <r>   -1.8580    1.0000 </r>
       <r>   -1.6126    1.0000 </r>
       <r>   -1.3947    1.0000 </r>
       <r>   -0.9208    1.0000 </r>
       <r>   -0.1884    1.0000 </r>
       <r>    0.1421    0.9999 </r>
       <r>    0.6258    0.0014 </r>
       <r>    0.9551    0.0000 </r>
       <r>    1.2567    0.0000 </r>
       <r>    1.5676    0.0000 </r>
       <r>    1.7612    0.0000 </r>
       <r>    1.8368    0.0000 </r>
       <r>    1.8887    0.0000 </r>
       <r>    2.0631    0.0000 </r>
       <r>    2.1485    0.0000 </r>
       <r>    2.2305    0.0000 </r>
       <r>    2.2994    0.0000 </r>
       <r>    2.5029    0.0000 </r>
       <r>    2.6037    0.0000 </r>
       <r>    2.9002    0.0000 </r>
      </set>
      <set comment="kpoint 18">
       <r>  -14.5072    1.0000 </r>
       <r>  -13.1553    1.0000 </r>
       <r>  -12.5113    1.0000 </r>
       <r>  -12.3840    1.0000 </r>
       <r>  -12.1669    1.0000 </r>
       <r>  -11.8542    1.0000 </r>
       <r>  -11.7009    1.0000 </r>
       <r>  -11.1892    1.0000 </r>
       <r>  -11.1421    1.0000 </r>
       <r>  -10.7648    1.0000 </r>
       <r>  -10.7603    1.0000 </r>
       <r>   -9.9229    1.0000 </r>
       <r>   -8.5678    1.0000 </r>
       <r>   -8.4225    1.0000 </r>
       <r>   -7.9473    1.0000 </r>
       <r>   -7.5728    1.0000 </r>
       <r>   -7.0138    1.0000 </r>
       <r>   -6.9043    1.0000 </r>
       <r>   -6.8266    1.0000 </r>
       <r>   -6.7958    1.0000 </r>
       <r>   -6.0640    1.0000 </r>
       <r>   -5.8935    1.0000 </r>
       <r>   -5.4972    1.0000 </r>
       <r>   -5.3497    1.0000 </r>
       <r>   -4.9947    1.0000 </r>
       <r>   -4.9111    1.0000 </r>
       <r>   -4.7742    1.0000 </r>
       <r>   -4.6730    1.0000 </r>
       <r>   -4.4444    1.0000 </r>
       <r>   -4.3276    1.0000 </r>
       <r>   -4.1863    1.0000 </r>
       <r>   -3.9233    1.0000 </r>
       <r>   -3.8341    1.0000 </r>
       <r>   -3.6111    1.0000 </r>
       <r>   -3.4840    1.0000 </r>
       <r>   -3.2608    1.0000 </r>
       <r>   -3.1674    1.0000 </r>
       <r>   -3.1221    1.0000 </r>
       <r>   -2.8123    1.0000 </r>
       <r>   -2.7423    1.0000 </r>
       <r>   -2.6388    1.0000 </r>
       <r>   -2.5691    1.0000 </r>
       <r>   -2.4305    1.0000 </r>
       <r>   -2.0578    1.0000 </r>
       <r>   -2.0030    1.0000 </r>
       <r>   -1.9748    1.0000 </r>
       <r>   -1.8990    1.0000 </r>
       <r>   -1.7425    1.0000 </r>
       <r>   -1.6081    1.0000 </r>
       <r>   -1.2745    1.0000 </r>
       <r>   -1.0979    1.0000 </r>
[...]
       <r>    2.5582    0.0000 </r>
      </set>
      <set comment="kpoint 54">
       <r>  -13.5732    1.0000 </r>
       <r>  -11.6557    1.0000 </r>
       <r>  -11.3288    1.0000 </r>
       <r>  -11.1474    1.0000 </r>
       <r>  -11.1263    1.0000 </r>
       <r>  -11.0080    1.0000 </r>
       <r>  -10.9633    1.0000 </r>
       <r>  -10.8834    1.0000 </r>
       <r>  -10.7793    1.0000 </r>
       <r>  -10.7273    1.0000 </r>
       <r>  -10.2439    1.0000 </r>
       <r>   -9.7960    1.0000 </r>
       <r>   -8.8949    1.0000 </r>
       <r>   -8.8257    1.0000 </r>
       <r>   -8.6071    1.0000 </r>
       <r>   -8.4146    1.0000 </r>
       <r>   -8.2815    1.0000 </r>
       <r>   -7.7989    1.0000 </r>
       <r>   -7.7314    1.0000 </r>
       <r>   -7.6463    1.0000 </r>
       <r>   -7.4567    1.0000 </r>
       <r>   -7.3282    1.0000 </r>
       <r>   -7.2396    1.0000 </r>
       <r>   -6.5951    1.0000 </r>
       <r>   -5.2473    1.0000 </r>
       <r>   -5.1097    1.0000 </r>
       <r>   -4.7834    1.0000 </r>
       <r>   -4.6269    1.0000 </r>
       <r>   -4.5276    1.0000 </r>
       <r>   -4.3619    1.0000 </r>
       <r>   -4.2332    1.0000 </r>
       <r>   -4.1008    1.0000 </r>
       <r>   -3.9271    1.0000 </r>
       <r>   -3.8115    1.0000 </r>
       <r>   -3.7278    1.0000 </r>
       <r>   -3.5068    1.0000 </r>
       <r>   -3.4292    1.0000 </r>
       <r>   -3.3901    1.0000 </r>
       <r>   -3.1971    1.0000 </r>
       <r>   -3.1438    1.0000 </r>
       <r>   -3.0175    1.0000 </r>
       <r>   -2.8604    1.0000 </r>
       <r>   -2.7419    1.0000 </r>
       <r>   -2.5689    1.0000 </r>
       <r>   -2.5049    1.0000 </r>
       <r>   -2.3369    1.0000 </r>
       <r>   -2.2419    1.0000 </r>
       <r>   -2.1437    1.0000 </r>
       <r>   -2.0440    1.0000 </r>
       <r>   -1.8621    1.0000 </r>
       <r>   -1.6757    1.0000 </r>
       <r>   -0.8575    1.0000 </r>
       <r>   -0.3041    1.0000 </r>
       <r>    0.0703    1.0000 </r>
       <r>    0.2858    0.9663 </r>
       <r>    0.7050    0.0000 </r>
       <r>    1.1364    0.0000 </r>
       <r>    1.1698    0.0000 </r>
       <r>    1.2884    0.0000 </r>
       <r>    1.4260    0.0000 </r>
       <r>    1.6138    0.0000 </r>
       <r>    1.8045    0.0000 </r>
       <r>    1.8412    0.0000 </r>
       <r>    1.8950    0.0000 </r>
       <r>    2.0049    0.0000 </r>
       <r>    2.1410    0.0000 </r>
       <r>    2.2448    0.0000 </r>
       <r>    2.4163    0.0000 </r>
      </set>
     </set>
    </set>
   </array>
  </eigenvalues>
  <separator name="orbital magnetization" >
   <v name="MAGDIPOLOUT">      0.00000000      0.00000000      0.00000000</v>
  </separator>
  <dos>
   <i name="efermi">      0.41518622 </i>
   <total>
    <array>
     <dimension dim="1">gridpoints</dimension>
     <dimension dim="2">spin</dimension>
     <field>energy</field>
     <field>total</field>
     <field>integrated</field>
     <set>
      <set comment="spin 1">
       <r>   -15.9806     0.0000     0.0000 </r>
       <r>   -15.9137     0.0000     0.0000 </r>
       <r>   -15.8467     0.0000     0.0000 </r>
       <r>   -15.7797     0.0000     0.0000 </r>
       <r>   -15.7128     0.0000     0.0000 </r>
       <r>   -15.6458     0.0000     0.0000 </r>
       <r>   -15.5789     0.0000     0.0000 </r>
       <r>   -15.5119     0.0000     0.0000 </r>
       <r>   -15.4450     0.0000     0.0000 </r>
       <r>   -15.3780     0.0000     0.0000 </r>
       <r>   -15.3110     0.0000     0.0000 </r>
       <r>   -15.2441     0.0002     0.0000 </r>
       <r>   -15.1771     0.0066     0.0005 </r>
       <r>   -15.1102     0.0875     0.0063 </r>
       <r>   -15.0432     0.5441     0.0427 </r>
       <r>   -14.9763     1.6315     0.1520 </r>
       <r>   -14.9093     2.4475     0.3159 </r>
       <r>   -14.8424     2.1696     0.4611 </r>
       <r>   -14.7754     1.9223     0.5898 </r>
       <r>   -14.7084     1.6883     0.7029 </r>
       <r>   -14.6415     0.9283     0.7650 </r>
       <r>   -14.5745     0.8187     0.8199 </r>
       <r>   -14.5076     1.5148     0.9213 </r>
       <r>   -14.4406     1.5183     1.0230 </r>
       <r>   -14.3737     0.6799     1.0685 </r>
       <r>   -14.3067     0.2656     1.0863 </r>
       <r>   -14.2397     0.7115     1.1339 </r>
       <r>   -14.1728     1.5409     1.2371 </r>
       <r>   -14.1058     1.4727     1.3357 </r>
       <r>   -14.0389     0.6181     1.3771 </r>
       <r>   -13.9719     0.1959     1.3902 </r>
       <r>   -13.9050     0.5350     1.4260 </r>
       <r>   -13.8380     1.4140     1.5207 </r>
       <r>   -13.7710     1.7899     1.6405 </r>
       <r>   -13.7041     1.6424     1.7505 </r>
       <r>   -13.6371     2.4008     1.9112 </r>
       <r>   -13.5702     3.5624     2.1498 </r>
       <r>   -13.5032     3.4471     2.3806 </r>
       <r>   -13.4363     2.4749     2.5463 </r>
       <r>   -13.3693     1.8383     2.6694 </r>
       <r>   -13.3023     1.5393     2.7724 </r>
       <r>   -13.2354     1.4569     2.8700 </r>
       <r>   -13.1684     1.9270     2.9990 </r>
       <r>   -13.1015     2.7502     3.1832 </r>
       <r>   -13.0345     3.0949     3.3904 </r>
       <r>   -12.9676     3.0090     3.5919 </r>
       <r>   -12.9006     3.3503     3.8162 </r>
       <r>   -12.8337     3.9526     4.0808 </r>
       <r>   -12.7667     4.4455     4.3785 </r>
       <r>   -12.6997     5.2999     4.7333 </r>
       <r>   -12.6328     5.6965     5.1148 </r>
       <r>   -12.5658     4.6551     5.4265 </r>
       <r>   -12.4989     3.6170     5.6686 </r>
       <r>   -12.4319     4.2365     5.9523 </r>
       <r>   -12.3650     5.3731     6.3121 </r>
       <r>   -12.2980     5.6698     6.6917 </r>
       <r>   -12.2310     5.7678     7.0779 </r>
       <r>   -12.1641     6.2621     7.4972 </r>
       <r>   -12.0971     6.3920     7.9252 </r>
       <r>   -12.0302     5.6457     8.3032 </r>
       <r>   -11.9632     4.7325     8.6201 </r>
       <r>   -11.8963     4.4960     8.9211 </r>
       <r>   -11.8293     5.3811     9.2814 </r>
       <r>   -11.7623     5.8688     9.6743 </r>
       <r>   -11.6954     6.0443    10.0791 </r>
       <r>   -11.6284     7.3985    10.5744 </r>
       <r>   -11.5615     9.1635    11.1880 </r>
       <r>   -11.4945     9.8272    11.8460 </r>
       <r>   -11.4276     9.4666    12.4798 </r>
       <r>   -11.3606     8.1442    13.0251 </r>
       <r>   -11.2936     6.3659    13.4514 </r>
       <r>   -11.2267     7.7151    13.9680 </r>
       <r>   -11.1597    12.4466    14.8013 </r>
       <r>   -11.0928    14.3821    15.7643 </r>
       <r>   -11.0258    12.5580    16.6052 </r>
       <r>   -10.9589    11.5022    17.3753 </r>
       <r>   -10.8919    10.3475    18.0681 </r>
       <r>   -10.8250     9.6083    18.7115 </r>
       <r>   -10.7580    10.1712    19.3925 </r>
       <r>   -10.6910     9.2577    20.0124 </r>
       <r>   -10.6241     7.3226    20.5027 </r>
       <r>   -10.5571     5.7864    20.8901 </r>
       <r>   -10.4902     3.9798    21.1566 </r>
       <r>   -10.4232     2.3284    21.3125 </r>
       <r>   -10.3563     1.5986    21.4195 </r>
       <r>   -10.2893     2.1020    21.5603 </r>
       <r>   -10.2223     3.0184    21.7624 </r>
       <r>   -10.1554     3.6002    22.0034 </r>
       <r>   -10.0884     4.4511    22.3014 </r>
       <r>   -10.0215     5.5104    22.6704 </r>
       <r>    -9.9545     5.9257    23.0672 </r>
       <r>    -9.8876     5.3541    23.4257 </r>
       <r>    -9.8206     4.1596    23.7042 </r>
       <r>    -9.7536     2.7592    23.8889 </r>
       <r>    -9.6867     1.2870    23.9751 </r>
       <r>    -9.6197     0.3295    23.9972 </r>
       <r>    -9.5528     0.0401    23.9999 </r>
       <r>    -9.4858     0.0022    24.0000 </r>
       <r>    -9.4189     0.0001    24.0000 </r>
       <r>    -9.3519     0.0020    24.0001 </r>
       <r>    -9.2849     0.0339    24.0024 </r>
       <r>    -9.2180     0.2613    24.0199 </r>
       <r>    -9.1510     0.9420    24.0830 </r>
       <r>    -9.0841     1.7528    24.2003 </r>
       <r>    -9.0171     2.3609    24.3584 </r>
       <r>    -8.9502     3.8244    24.6145 </r>
       <r>    -8.8832     5.8451    25.0059 </r>
       <r>    -8.8163     6.3764    25.4328 </r>
       <r>    -8.7493     6.0047    25.8349 </r>
       <r>    -8.6823     6.6452    26.2798 </r>
       <r>    -8.6154     8.0368    26.8179 </r>
       <r>    -8.5484     8.3091    27.3743 </r>
       <r>    -8.4815     7.7364    27.8923 </r>
       <r>    -8.4145     7.8111    28.4153 </r>
       <r>    -8.3476     7.2361    28.8998 </r>
       <r>    -8.2806     5.3336    29.2569 </r>
       <r>    -8.2136     3.8779    29.5165 </r>
       <r>    -8.1467     3.2392    29.7334 </r>
       <r>    -8.0797     2.7349    29.9165 </r>
       <r>    -8.0128     2.4734    30.0822 </r>
       <r>    -7.9458     3.1002    30.2897 </r>
       <r>    -7.8789     3.7173    30.5386 </r>
       <r>    -7.8119     4.0678    30.8110 </r>
       <r>    -7.7449     5.0530    31.1493 </r>
       <r>    -7.6780     6.5437    31.5875 </r>
       <r>    -7.6110     7.7961    32.1095 </r>
       <r>    -7.5441     8.2839    32.6641 </r>
       <r>    -7.4771     7.7202    33.1811 </r>
       <r>    -7.4102     6.6813    33.6284 </r>
       <r>    -7.3432     6.3143    34.0512 </r>
       <r>    -7.2763     7.4974    34.5532 </r>
       <r>    -7.2093     9.3603    35.1799 </r>
       <r>    -7.1423     9.2088    35.7965 </r>
       <r>    -7.0754     7.2508    36.2820 </r>
       <r>    -7.0084     7.7149    36.7986 </r>
       <r>    -6.9415    11.2511    37.5519 </r>
       <r>    -6.8745    14.0872    38.4951 </r>
       <r>    -6.8076    14.1316    39.4413 </r>
       <r>    -6.7406    10.9931    40.1774 </r>
       <r>    -6.6736     7.4788    40.6782 </r>
       <r>    -6.6067     6.0302    41.0819 </r>
       <r>    -6.5397     5.3529    41.4403 </r>
       <r>    -6.4728     4.8408    41.7645 </r>
       <r>    -6.4058     4.3303    42.0544 </r>
       <r>    -6.3389     3.7066    42.3026 </r>
       <r>    -6.2719     3.2306    42.5189 </r>
       <r>    -6.2049     2.6989    42.6996 </r>
       <r>    -6.1380     3.1197    42.9085 </r>
       <r>    -6.0710     4.5088    43.2104 </r>
       <r>    -6.0041     5.2154    43.5596 </r>
       <r>    -5.9371     5.7443    43.9442 </r>
       <r>    -5.8702     6.9637    44.4105 </r>
       <r>    -5.8032     6.9045    44.8728 </r>
       <r>    -5.7362     4.7566    45.1913 </r>
       <r>    -5.6693     2.2587    45.3425 </r>
       <r>    -5.6023     1.2325    45.4250 </r>
       <r>    -5.5354     2.2059    45.5727 </r>
       <r>    -5.4684     3.9607    45.8379 </r>
       <r>    -5.4015     5.2542    46.1897 </r>
       <r>    -5.3345     6.7461    46.6414 </r>
       <r>    -5.2676     8.8046    47.2309 </r>
       <r>    -5.2006    10.0159    47.9016 </r>
       <r>    -5.1336     9.0373    48.5067 </r>
       <r>    -5.0667     8.1224    49.0505 </r>
       <r>    -4.9997     8.4622    49.6171 </r>
       <r>    -4.9328     9.1758    50.2315 </r>
       <r>    -4.8658    10.4452    50.9309 </r>
       <r>    -4.7989    11.2610    51.6849 </r>
       <r>    -4.7319    10.1728    52.3660 </r>
       <r>    -4.6649     8.3207    52.9231 </r>
       <r>    -4.5980     7.1835    53.4041 </r>
       <r>    -4.5310     7.6746    53.9180 </r>
       <r>    -4.4641     9.9925    54.5871 </r>
       <r>    -4.3971    11.6891    55.3697 </r>
       <r>    -4.3302    11.7129    56.1540 </r>
       <r>    -4.2632    12.1281    56.9660 </r>
       <r>    -4.1962    13.1631    57.8474 </r>
       <r>    -4.1293    13.4062    58.7450 </r>
       <r>    -4.0623    11.7665    59.5329 </r>
       <r>    -3.9954    10.0866    60.2082 </r>
       <r>    -3.9284    11.5754    60.9833 </r>
       <r>    -3.8615    13.5622    61.8914 </r>
       <r>    -3.7945    12.7310    62.7438 </r>
       <r>    -3.7275    10.6358    63.4559 </r>
       <r>    -3.6606     9.8799    64.1175 </r>
       <r>    -3.5936    11.2777    64.8726 </r>
       <r>    -3.5267    13.7946    65.7962 </r>
       <r>    -3.4597    15.8047    66.8544 </r>
       <r>    -3.3928    16.4104    67.9532 </r>
       <r>    -3.3258    16.0413    69.0273 </r>
       <r>    -3.2589    15.9564    70.0957 </r>
       <r>    -3.1919    16.8225    71.2221 </r>
       <r>    -3.1249    17.3116    72.3812 </r>
       <r>    -3.0580    16.0765    73.4576 </r>
       <r>    -2.9910    13.6230    74.3698 </r>
       <r>    -2.9241    12.6955    75.2198 </r>
       <r>    -2.8571    14.5795    76.1960 </r>
       <r>    -2.7902    16.8271    77.3227 </r>
       <r>    -2.7232    18.0304    78.5299 </r>
       <r>    -2.6562    18.1408    79.7446 </r>
       <r>    -2.5893    17.5945    80.9227 </r>
       <r>    -2.5223    16.6023    82.0343 </r>
       <r>    -2.4554    14.6896    83.0179 </r>
       <r>    -2.3884    13.2480    83.9049 </r>
       <r>    -2.3215    14.8921    84.9020 </r>
       <r>    -2.2545    18.4596    86.1380 </r>
       <r>    -2.1875    20.2244    87.4922 </r>
       <r>    -2.1206    19.7987    88.8178 </r>
       <r>    -2.0536    19.9928    90.1565 </r>
       <r>    -1.9867    20.1933    91.5085 </r>
       <r>    -1.9197    18.8158    92.7684 </r>
       <r>    -1.8528    16.6048    93.8802 </r>
       <r>    -1.7858    13.3716    94.7755 </r>
       <r>    -1.7189    10.3231    95.4667 </r>
       <r>    -1.6519    10.1602    96.1470 </r>
       <r>    -1.5849    10.8377    96.8727 </r>
       <r>    -1.5180     9.1731    97.4868 </r>
       <r>    -1.4510     7.1094    97.9629 </r>
       <r>    -1.3841     6.7927    98.4177 </r>
       <r>    -1.3171     7.7804    98.9386 </r>
       <r>    -1.2502     8.2234    99.4892 </r>
       <r>    -1.1832     7.2196    99.9726 </r>
       <r>    -1.1162     6.8962   100.4344 </r>
       <r>    -1.0493     7.7032   100.9502 </r>
       <r>    -0.9823     7.7590   101.4697 </r>
       <r>    -0.9154     7.8447   101.9949 </r>
       <r>    -0.8484     8.3015   102.5508 </r>
       <r>    -0.7815     6.6696   102.9974 </r>
       <r>    -0.7145     3.8710   103.2565 </r>
       <r>    -0.6475     3.4612   103.4883 </r>
       <r>    -0.5806     4.0139   103.7571 </r>
       <r>    -0.5136     2.6776   103.9363 </r>
       <r>    -0.4467     1.0983   104.0099 </r>
       <r>    -0.3797     1.3602   104.1010 </r>
       <r>    -0.3128     2.9905   104.3012 </r>
       <r>    -0.2458     4.2035   104.5826 </r>
       <r>    -0.1788     4.4629   104.8815 </r>
       <r>    -0.1119     3.9041   105.1429 </r>
       <r>    -0.0449     3.6448   105.3869 </r>
       <r>     0.0220     5.2677   105.7396 </r>
       <r>     0.0890     6.8679   106.1995 </r>
       <r>     0.1559     6.0019   106.6013 </r>
       <r>     0.2229     3.9346   106.8648 </r>
       <r>     0.2898     3.9811   107.1314 </r>
       <r>     0.3568     6.2337   107.5487 </r>
       <r>     0.4238     7.7120   108.0651 </r>
       <r>     0.4907     6.3808   108.4923 </r>
       <r>     0.5577     3.9845   108.7591 </r>
       <r>     0.6246     4.2181   109.0416 </r>
       <r>     0.6916     6.9086   109.5041 </r>
       <r>     0.7585     7.9119   110.0339 </r>
       <r>     0.8255     7.1131   110.5102 </r>
       <r>     0.8925     6.6259   110.9538 </r>
       <r>     0.9594     6.7815   111.4079 </r>
       <r>     1.0264     7.7132   111.9243 </r>
       <r>     1.0933    10.0754   112.5990 </r>
       <r>     1.1603    12.4477   113.4324 </r>
       <r>     1.2272    12.3424   114.2588 </r>
       <r>     1.2942    10.7998   114.9819 </r>
       <r>     1.3612    10.0570   115.6553 </r>
       <r>     1.4281    10.2536   116.3419 </r>
       <r>     1.4951    10.2603   117.0289 </r>
       <r>     1.5620     9.9828   117.6973 </r>
       <r>     1.6290    10.0184   118.3681 </r>
       <r>     1.6959    10.7296   119.0865 </r>
       <r>     1.7629    11.9893   119.8893 </r>
       <r>     1.8299    12.7928   120.7458 </r>
       <r>     1.8968    13.5427   121.6526 </r>
       <r>     1.9638    14.6272   122.6320 </r>
       <r>     2.0307    15.8126   123.6907 </r>
       <r>     2.0977    17.1086   124.8363 </r>
       <r>     2.1646    18.0250   126.0432 </r>
       <r>     2.2316    17.6353   127.2240 </r>
       <r>     2.2985    15.3863   128.2542 </r>
       <r>     2.3655    12.9875   129.1238 </r>
       <r>     2.4325    12.2360   129.9431 </r>
       <r>     2.4994    12.8086   130.8007 </r>
       <r>     2.5664    13.9791   131.7367 </r>
       <r>     2.6333    13.5098   132.6412 </r>
       <r>     2.7003    10.4325   133.3398 </r>
       <r>     2.7672     8.1087   133.8827 </r>
       <r>     2.8342     7.9338   134.4139 </r>
       <r>     2.9012     8.0005   134.9496 </r>
       <r>     2.9681     6.9429   135.4145 </r>
       <r>     3.0351     4.7056   135.7296 </r>
       <r>     3.1020     2.4887   135.8962 </r>
       <r>     3.1690     1.1200   135.9712 </r>
       <r>     3.2359     0.3626   135.9955 </r>
       <r>     3.3029     0.0626   135.9997 </r>
       <r>     3.3699     0.0050   136.0000 </r>
       <r>     3.4368     0.0002   136.0000 </r>
       <r>     3.5038     0.0000   136.0000 </r>
       <r>     3.5707     0.0000   136.0000 </r>
       <r>     3.6377     0.0000   136.0000 </r>
       <r>     3.7046     0.0000   136.0000 </r>
       <r>     3.7716     0.0000   136.0000 </r>
       <r>     3.8386     0.0000   136.0000 </r>
       <r>     3.9055     0.0000   136.0000 </r>
       <r>     3.9725     0.0000   136.0000 </r>
       <r>     4.0394     0.0000   136.0000 </r>
       <r>     4.1064     0.0000   136.0000 </r>
      </set>
     </set>
    </array>
   </total>
  </dos>
 </calculation>
 <structure name="finalpos" >
  <crystal>
   <varray name="basis" >
    <v>       3.54040000       0.00000000       0.00000000 </v>
    <v>      -1.77020000      10.29434800       0.00000000 </v>
    <v>       0.00000000       0.00000000      27.50142900 </v>
   </varray>
   <i name="volume">   1002.32009712 </i>
   <varray name="rec_basis" >
    <v>       0.28245396       0.04857034       0.00000000 </v>
    <v>       0.00000000       0.09714068       0.00000000 </v>
    <v>       0.00000000       0.00000000       0.03636175 </v>
   </varray>
  </crystal>
  <varray name="positions" >
   <v>       0.11402300       0.22804500       0.23316207 </v>
   <v>       0.01402300       0.92804500       0.51499159 </v>
   <v>       0.45808900       0.91617900       0.20939482 </v>
   <v>       0.35808900       0.61617900       0.49122434 </v>
   <v>       0.31085400       0.62170900       0.08414979 </v>
   <v>       0.31085400       0.62170900       0.36597930 </v>
   <v>       0.99923000       0.99846000       0.08631254 </v>
   <v>       0.99923000       0.99846000       0.36814206 </v>
   <v>       0.65492700       0.30985400       0.06041748 </v>
   <v>       0.65492700       0.30985400       0.34224700 </v>
   <v>       0.76973800       0.53947500       0.20725292 </v>
   <v>       0.66973800       0.23947500       0.48908244 </v>
   <v>       0.93971600       0.87943300       0.15783749 </v>
   <v>       0.83971600       0.57943300       0.43966701 </v>
   <v>       0.20515200       0.41030300       0.18578822 </v>
   <v>       0.10515200       0.11030300       0.46761774 </v>
   <v>       0.20184900       0.40369900       0.09969156 </v>
   <v>       0.20184900       0.40369900       0.38152107 </v>
   <v>       0.56380500       0.12761000       0.10779021 </v>
   <v>       0.56380500       0.12761000       0.38961973 </v>
   <v>       0.56710600       0.13421200       0.19387616 </v>
   <v>       0.46710600       0.83421200       0.47570568 </v>
   <v>       0.82923400       0.65846800       0.13571444 </v>
   <v>       0.72923400       0.35846800       0.41754396 </v>
  </varray>
 </structure>
</modeling>
