  24  24   0   0
  0.4176334E+02  0.3540400E-09  0.1044544E-08  0.2750143E-08  0.5000000E-15
  1.000000000000000E-004
  CAR 
 unknown system                          
      4.19332870    -16.19745056  301      0.10128879      1.00000000
    -16.197  0.0000E+00  0.0000E+00
    -16.129  0.0000E+00  0.0000E+00
    -16.062  0.0000E+00  0.0000E+00
    -15.994  0.0000E+00  0.0000E+00
    -15.926  0.0000E+00  0.0000E+00
    -15.858  0.0000E+00  0.0000E+00
    -15.790  0.0000E+00  0.0000E+00
    -15.722  0.1188E-12  0.8077E-14
    -15.654  0.1089E-09  0.7407E-11
    -15.586  0.4053E-07  0.2762E-08
    -15.518  0.6190E-05  0.4235E-06
    -15.450  0.3938E-03  0.2719E-04
    -15.382  0.1069E-01  0.7538E-03
    -15.314  0.1281E+00  0.9463E-02
    -15.246  0.7065E+00  0.5748E-01
    -15.178  0.1858E+01  0.1838E+00
    -15.110  0.2434E+01  0.3492E+00
    -15.042  0.2003E+01  0.4853E+00
    -14.974  0.1866E+01  0.6122E+00
    -14.906  0.1556E+01  0.7179E+00
    -14.838  0.7699E+00  0.7703E+00
    -14.770  0.7980E+00  0.8245E+00
    -14.702  0.1544E+01  0.9294E+00
    -14.634  0.1466E+01  0.1029E+01
    -14.566  0.6005E+00  0.1070E+01
    -14.498  0.1892E+00  0.1083E+01
    -14.430  0.5479E+00  0.1120E+01
    -14.362  0.1415E+01  0.1216E+01
    -14.294  0.1573E+01  0.1323E+01
    -14.226  0.7437E+00  0.1374E+01
    -14.158  0.1615E+00  0.1385E+01
    -14.090  0.1651E+00  0.1396E+01
    -14.022  0.7553E+00  0.1447E+01
    -13.954  0.1580E+01  0.1555E+01
    -13.886  0.1408E+01  0.1650E+01
    -13.819  0.5805E+00  0.1690E+01
    -13.751  0.4639E+00  0.1721E+01
    -13.683  0.1223E+01  0.1804E+01
    -13.615  0.1667E+01  0.1918E+01
    -13.547  0.1053E+01  0.1989E+01
    -13.479  0.7047E+00  0.2037E+01
    -13.411  0.1279E+01  0.2124E+01
    -13.343  0.1921E+01  0.2255E+01
    -13.275  0.2026E+01  0.2392E+01
    -13.207  0.2091E+01  0.2535E+01
    -13.139  0.2593E+01  0.2711E+01
    -13.071  0.3359E+01  0.2939E+01
    -13.003  0.3673E+01  0.3189E+01
    -12.935  0.3798E+01  0.3447E+01
    -12.867  0.4422E+01  0.3747E+01
    -12.799  0.4511E+01  0.4054E+01
    -12.731  0.3500E+01  0.4292E+01
    -12.663  0.2859E+01  0.4486E+01
    -12.595  0.3643E+01  0.4734E+01
    -12.527  0.5081E+01  0.5079E+01
    -12.459  0.5945E+01  0.5483E+01
    -12.391  0.6102E+01  0.5898E+01
    -12.323  0.5953E+01  0.6303E+01
    -12.255  0.5801E+01  0.6697E+01
    -12.187  0.6259E+01  0.7122E+01
    -12.119  0.6487E+01  0.7563E+01
    -12.051  0.6027E+01  0.7973E+01
    -11.983  0.6332E+01  0.8403E+01
    -11.915  0.7591E+01  0.8919E+01
    -11.847  0.8137E+01  0.9472E+01
    -11.779  0.7541E+01  0.9985E+01
    -11.711  0.7065E+01  0.1046E+02
    -11.644  0.7195E+01  0.1095E+02
    -11.576  0.8052E+01  0.1150E+02
    -11.508  0.9104E+01  0.1212E+02
    -11.440  0.9633E+01  0.1277E+02
    -11.372  0.9800E+01  0.1344E+02
    -11.304  0.8403E+01  0.1401E+02
    -11.236  0.7638E+01  0.1453E+02
    -11.168  0.9280E+01  0.1516E+02
    -11.100  0.9101E+01  0.1578E+02
    -11.032  0.7104E+01  0.1626E+02
    -10.964  0.7638E+01  0.1678E+02
    -10.896  0.1019E+02  0.1748E+02
    -10.828  0.1121E+02  0.1824E+02
    -10.760  0.1100E+02  0.1898E+02
    -10.692  0.1059E+02  0.1970E+02
    -10.624  0.8566E+01  0.2029E+02
    -10.556  0.6795E+01  0.2075E+02
    -10.488  0.6267E+01  0.2117E+02
    -10.420  0.5654E+01  0.2156E+02
    -10.352  0.5484E+01  0.2193E+02
    -10.284  0.5096E+01  0.2228E+02
    -10.216  0.4001E+01  0.2255E+02
    -10.148  0.2938E+01  0.2275E+02
    -10.080  0.1833E+01  0.2287E+02
    -10.012  0.1030E+01  0.2294E+02
     -9.944  0.1932E+01  0.2308E+02
     -9.876  0.4301E+01  0.2337E+02
     -9.808  0.5134E+01  0.2372E+02
     -9.740  0.3379E+01  0.2395E+02
     -9.672  0.2036E+01  0.2408E+02
     -9.604  0.1972E+01  0.2422E+02
     -9.536  0.2020E+01  0.2436E+02
     -9.468  0.2890E+01  0.2455E+02
     -9.401  0.4168E+01  0.2484E+02
     -9.333  0.4579E+01  0.2515E+02
     -9.265  0.4524E+01  0.2545E+02
     -9.197  0.4080E+01  0.2573E+02
     -9.129  0.2659E+01  0.2591E+02
     -9.061  0.1054E+01  0.2598E+02
     -8.993  0.3623E+00  0.2601E+02
     -8.925  0.6962E+00  0.2606E+02
     -8.857  0.1523E+01  0.2616E+02
     -8.789  0.2024E+01  0.2630E+02
     -8.721  0.2597E+01  0.2647E+02
     -8.653  0.3825E+01  0.2673E+02
     -8.585  0.4800E+01  0.2706E+02
     -8.517  0.4930E+01  0.2740E+02
     -8.449  0.4494E+01  0.2770E+02
     -8.381  0.4753E+01  0.2802E+02
     -8.313  0.5842E+01  0.2842E+02
     -8.245  0.5191E+01  0.2877E+02
     -8.177  0.2997E+01  0.2898E+02
     -8.109  0.2251E+01  0.2913E+02
     -8.041  0.3579E+01  0.2937E+02
     -7.973  0.5251E+01  0.2973E+02
     -7.905  0.4956E+01  0.3007E+02
     -7.837  0.3907E+01  0.3033E+02
     -7.769  0.4870E+01  0.3066E+02
     -7.701  0.7573E+01  0.3118E+02
     -7.633  0.9074E+01  0.3180E+02
     -7.565  0.7638E+01  0.3231E+02
     -7.497  0.5692E+01  0.3270E+02
     -7.429  0.5149E+01  0.3305E+02
     -7.361  0.5727E+01  0.3344E+02
     -7.293  0.7596E+01  0.3396E+02
     -7.226  0.9218E+01  0.3458E+02
     -7.158  0.8779E+01  0.3518E+02
     -7.090  0.6774E+01  0.3564E+02
     -7.022  0.5822E+01  0.3604E+02
     -6.954  0.7571E+01  0.3655E+02
     -6.886  0.9024E+01  0.3716E+02
     -6.818  0.7412E+01  0.3767E+02
     -6.750  0.5913E+01  0.3807E+02
     -6.682  0.7160E+01  0.3856E+02
     -6.614  0.1013E+02  0.3925E+02
     -6.546  0.1133E+02  0.4002E+02
     -6.478  0.8983E+01  0.4063E+02
     -6.410  0.6402E+01  0.4106E+02
     -6.342  0.5237E+01  0.4142E+02
     -6.274  0.5258E+01  0.4177E+02
     -6.206  0.5936E+01  0.4218E+02
     -6.138  0.6536E+01  0.4262E+02
     -6.070  0.7155E+01  0.4311E+02
     -6.002  0.6348E+01  0.4354E+02
     -5.934  0.4228E+01  0.4383E+02
     -5.866  0.3236E+01  0.4405E+02
     -5.798  0.3433E+01  0.4428E+02
     -5.730  0.4348E+01  0.4458E+02
     -5.662  0.5947E+01  0.4498E+02
     -5.594  0.7087E+01  0.4546E+02
     -5.526  0.7720E+01  0.4599E+02
     -5.458  0.7254E+01  0.4648E+02
     -5.390  0.5963E+01  0.4689E+02
     -5.322  0.5809E+01  0.4728E+02
     -5.254  0.6233E+01  0.4770E+02
     -5.186  0.5792E+01  0.4810E+02
     -5.118  0.5146E+01  0.4845E+02
     -5.050  0.4845E+01  0.4878E+02
     -4.983  0.5808E+01  0.4917E+02
     -4.915  0.8552E+01  0.4975E+02
     -4.847  0.1104E+02  0.5050E+02
     -4.779  0.1154E+02  0.5129E+02
     -4.711  0.1026E+02  0.5199E+02
     -4.643  0.9006E+01  0.5260E+02
     -4.575  0.9380E+01  0.5323E+02
     -4.507  0.1032E+02  0.5394E+02
     -4.439  0.1042E+02  0.5464E+02
     -4.371  0.1049E+02  0.5536E+02
     -4.303  0.1094E+02  0.5610E+02
     -4.235  0.1184E+02  0.5691E+02
     -4.167  0.1256E+02  0.5776E+02
     -4.099  0.1253E+02  0.5861E+02
     -4.031  0.1303E+02  0.5950E+02
     -3.963  0.1434E+02  0.6047E+02
     -3.895  0.1457E+02  0.6146E+02
     -3.827  0.1287E+02  0.6234E+02
     -3.759  0.1099E+02  0.6308E+02
     -3.691  0.1066E+02  0.6381E+02
     -3.623  0.1139E+02  0.6458E+02
     -3.555  0.1125E+02  0.6535E+02
     -3.487  0.1043E+02  0.6606E+02
     -3.419  0.1148E+02  0.6684E+02
     -3.351  0.1392E+02  0.6778E+02
     -3.283  0.1525E+02  0.6882E+02
     -3.215  0.1505E+02  0.6984E+02
     -3.147  0.1463E+02  0.7084E+02
     -3.079  0.1569E+02  0.7190E+02
     -3.011  0.1736E+02  0.7308E+02
     -2.943  0.1849E+02  0.7434E+02
     -2.875  0.1848E+02  0.7559E+02
     -2.808  0.1654E+02  0.7672E+02
     -2.740  0.1480E+02  0.7772E+02
     -2.672  0.1535E+02  0.7877E+02
     -2.604  0.1720E+02  0.7994E+02
     -2.536  0.1751E+02  0.8113E+02
     -2.468  0.1639E+02  0.8224E+02
     -2.400  0.1542E+02  0.8329E+02
     -2.332  0.1449E+02  0.8427E+02
     -2.264  0.1437E+02  0.8525E+02
     -2.196  0.1471E+02  0.8625E+02
     -2.128  0.1562E+02  0.8731E+02
     -2.060  0.1672E+02  0.8845E+02
     -1.992  0.1655E+02  0.8957E+02
     -1.924  0.1584E+02  0.9065E+02
     -1.856  0.1674E+02  0.9179E+02
     -1.788  0.1847E+02  0.9304E+02
     -1.720  0.1823E+02  0.9428E+02
     -1.652  0.1638E+02  0.9540E+02
     -1.584  0.1409E+02  0.9635E+02
     -1.516  0.1207E+02  0.9717E+02
     -1.448  0.1230E+02  0.9801E+02
     -1.380  0.1341E+02  0.9892E+02
     -1.312  0.1257E+02  0.9978E+02
     -1.244  0.9263E+01  0.1004E+03
     -1.176  0.6313E+01  0.1008E+03
     -1.108  0.5913E+01  0.1012E+03
     -1.040  0.7013E+01  0.1017E+03
     -0.972  0.7455E+01  0.1022E+03
     -0.904  0.7492E+01  0.1027E+03
     -0.836  0.7710E+01  0.1033E+03
     -0.768  0.6718E+01  0.1037E+03
     -0.700  0.5157E+01  0.1041E+03
     -0.632  0.4614E+01  0.1044E+03
     -0.565  0.5372E+01  0.1047E+03
     -0.497  0.5879E+01  0.1051E+03
     -0.429  0.5276E+01  0.1055E+03
     -0.361  0.4921E+01  0.1058E+03
     -0.293  0.5113E+01  0.1062E+03
     -0.225  0.4781E+01  0.1065E+03
     -0.157  0.4078E+01  0.1068E+03
     -0.089  0.3905E+01  0.1070E+03
     -0.021  0.4248E+01  0.1073E+03
      0.047  0.5043E+01  0.1077E+03
      0.115  0.5992E+01  0.1081E+03
      0.183  0.5658E+01  0.1085E+03
      0.251  0.4639E+01  0.1088E+03
      0.319  0.4853E+01  0.1091E+03
      0.387  0.5449E+01  0.1095E+03
      0.455  0.4768E+01  0.1098E+03
      0.523  0.3593E+01  0.1101E+03
      0.591  0.3264E+01  0.1103E+03
      0.659  0.3435E+01  0.1105E+03
      0.727  0.3776E+01  0.1108E+03
      0.795  0.4037E+01  0.1110E+03
      0.863  0.4480E+01  0.1113E+03
      0.931  0.4774E+01  0.1117E+03
      0.999  0.5431E+01  0.1120E+03
      1.067  0.6438E+01  0.1125E+03
      1.135  0.6455E+01  0.1129E+03
      1.203  0.5970E+01  0.1133E+03
      1.271  0.6709E+01  0.1138E+03
      1.339  0.9177E+01  0.1144E+03
      1.407  0.1107E+02  0.1152E+03
      1.475  0.1032E+02  0.1159E+03
      1.543  0.8262E+01  0.1164E+03
      1.610  0.8160E+01  0.1170E+03
      1.678  0.1019E+02  0.1177E+03
      1.746  0.1175E+02  0.1185E+03
      1.814  0.1231E+02  0.1193E+03
      1.882  0.1296E+02  0.1202E+03
      1.950  0.1304E+02  0.1211E+03
      2.018  0.1174E+02  0.1219E+03
      2.086  0.1058E+02  0.1226E+03
      2.154  0.1111E+02  0.1233E+03
      2.222  0.1309E+02  0.1242E+03
      2.290  0.1590E+02  0.1253E+03
      2.358  0.1715E+02  0.1265E+03
      2.426  0.1592E+02  0.1276E+03
      2.494  0.1511E+02  0.1286E+03
      2.562  0.1510E+02  0.1296E+03
      2.630  0.1362E+02  0.1305E+03
      2.698  0.1268E+02  0.1314E+03
      2.766  0.1328E+02  0.1323E+03
      2.834  0.1306E+02  0.1332E+03
      2.902  0.1148E+02  0.1340E+03
      2.970  0.9422E+01  0.1346E+03
      3.038  0.7786E+01  0.1351E+03
      3.106  0.6044E+01  0.1355E+03
      3.174  0.3975E+01  0.1358E+03
      3.242  0.1975E+01  0.1360E+03
      3.310  0.6020E+00  0.1360E+03
      3.378  0.9506E-01  0.1360E+03
      3.446  0.7115E-02  0.1360E+03
      3.514  0.2405E-03  0.1360E+03
      3.582  0.3548E-05  0.1360E+03
      3.650  0.2226E-07  0.1360E+03
      3.718  0.5819E-10  0.1360E+03
      3.786  0.6257E-13  0.1360E+03
      3.853  0.0000E+00  0.1360E+03
      3.921  0.0000E+00  0.1360E+03
      3.989  0.0000E+00  0.1360E+03
      4.057  0.0000E+00  0.1360E+03
      4.125  0.0000E+00  0.1360E+03
      4.193  0.0000E+00  0.1360E+03
