       N       E                     dE             d eps       ncg     rms          rms(c)
DAV:   1     0.506426639229E+03    0.50643E+03   -0.28733E+04  7352   0.790E+02
DAV:   2    -0.596308538519E+02   -0.56606E+03   -0.55138E+03  9756   0.191E+02
DAV:   3    -0.117091902815E+03   -0.57461E+02   -0.56681E+02  8724   0.629E+01
DAV:   4    -0.119805302804E+03   -0.27134E+01   -0.26964E+01 11064   0.147E+01
DAV:   5    -0.119867929735E+03   -0.62627E-01   -0.62556E-01  9912   0.219E+00    0.121E+01
DAV:   6    -0.115292266168E+03    0.45757E+01   -0.17550E+01  8848   0.110E+01    0.639E+00
DAV:   7    -0.115272359067E+03    0.19907E-01   -0.12372E+01  8912   0.760E+00    0.340E+00
DAV:   8    -0.115178600910E+03    0.93758E-01   -0.25714E+00  9536   0.354E+00    0.172E+00
DAV:   9    -0.115149529361E+03    0.29072E-01   -0.41182E-01  9048   0.195E+00    0.872E-01
DAV:  10    -0.115154167206E+03   -0.46378E-02   -0.11730E-01  8712   0.968E-01    0.284E-01
DAV:  11    -0.115146821127E+03    0.73461E-02   -0.16241E-02  9056   0.429E-01    0.117E-01
DAV:  12    -0.115138282509E+03    0.85386E-02   -0.50124E-03  8832   0.205E-01    0.548E-02
DAV:  13    -0.115133603983E+03    0.46785E-02   -0.50155E-04  9320   0.732E-02    0.259E-02
DAV:  14    -0.115131317301E+03    0.22867E-02   -0.18499E-04  9216   0.396E-02    0.141E-02
DAV:  15    -0.115130314633E+03    0.10027E-02   -0.66076E-05  9352   0.229E-02    0.882E-03
DAV:  16    -0.115130253889E+03    0.60744E-04   -0.64879E-05  8072   0.207E-02    0.531E-03
DAV:  17    -0.115130886911E+03   -0.63302E-03   -0.14880E-04  8288   0.244E-02    0.308E-03
DAV:  18    -0.115131061529E+03   -0.17462E-03   -0.83972E-05  7720   0.157E-02    0.170E-03
DAV:  19    -0.115131116332E+03   -0.54803E-04   -0.19824E-05  7224   0.989E-03    0.113E-03
DAV:  20    -0.115131156075E+03   -0.39744E-04   -0.11822E-05  6656   0.731E-03    0.769E-04
DAV:  21    -0.115131147148E+03    0.89279E-05   -0.23737E-05  7240   0.930E-03    0.542E-04
DAV:  22    -0.115131112859E+03    0.34288E-04   -0.16752E-05  6936   0.100E-02    0.312E-04
DAV:  23    -0.115131040375E+03    0.72484E-04   -0.19387E-05  7272   0.867E-03    0.164E-04
DAV:  24    -0.115131032947E+03    0.74284E-05   -0.13800E-05  6928   0.954E-03    0.762E-05
DAV:  25    -0.115131012003E+03    0.20944E-04   -0.45161E-06  6560   0.654E-03    0.446E-05
DAV:  26    -0.115131009833E+03    0.21694E-05   -0.42550E-06  5780   0.609E-03    0.251E-05
DAV:  27    -0.115131007088E+03    0.27458E-05   -0.23077E-06  5972   0.501E-03    0.144E-05
DAV:  28    -0.115131005318E+03    0.17697E-05   -0.13498E-06  5368   0.463E-03    0.940E-06
DAV:  29    -0.115131005008E+03    0.31027E-06   -0.13222E-06  5812   0.419E-03
   1 F= -.11513101E+03 E0= -.11511561E+03  d E =-.307902E-01
