<?xml version="1.0" encoding="ISO-8859-1"?>
<modeling>
 <generator>
  <i name="program" type="string">vasp </i>
  <i name="version" type="string">5.4.1  </i>
  <i name="subversion" type="string">24Jun15 (build May 10 2016 14:18:23) complex                          parallel </i>
  <i name="platform" type="string">IFC91_ompi </i>
  <i name="date" type="string">2016 12 09 </i>
  <i name="time" type="string">15:00:40 </i>
 </generator>
 <incar>
  <i type="string" name="PREC">accurate</i>
  <i type="string" name="ALGO"> Fast</i>
  <i type="int" name="ISPIN">     2</i>
  <i type="int" name="IBRION">     2</i>
  <i name="EDIFF">      0.00010000</i>
  <i type="int" name="NSW">     0</i>
  <i type="int" name="ISIF">     3</i>
  <i name="ENCUT">    500.00000000</i>
  <v name="MAGMOM">      6.00000000      0.50000000      0.50000000      6.00000000      0.50000000      0.50000000</v>
  <i type="string" name="LREAL"> Auto</i>
  <i type="int" name="ISMEAR">     1</i>
  <i name="SIGMA">      0.10000000</i>
  <i type="logical" name="LWAVE"> F  </i>
  <i type="logical" name="LCHARG"> F  </i>
  <i type="logical" name="LVTOT"> T  </i>
  <i type="logical" name="LVHAR"> T  </i>
  <i type="logical" name="LAECHG"> F  </i>
  <v type="int" name="KPOINT_BSE">    -1     0     0     0</v>
  <i type="string" name="GGA"> Bo</i>
  <i name="PARAM1">      0.18333333</i>
  <i name="PARAM2">      0.22000000</i>
  <i type="logical" name="LUSE_VDW"> T  </i>
  <i name="AGGAC">      0.00000000</i>
 </incar>
 <kpoints>
  <generation param="Gamma">
   <v type="int" name="divisions">      13       13        1 </v>
   <v name="usershift">      0.00000000       0.00000000       0.00000000 </v>
   <v name="genvec1">      0.07692308       0.00000000       0.00000000 </v>
   <v name="genvec2">      0.00000000       0.07692308       0.00000000 </v>
   <v name="genvec3">      0.00000000       0.00000000       1.00000000 </v>
   <v name="shift">      0.00000000       0.00000000       0.00000000 </v>
  </generation>
  <varray name="kpointlist" >
   <v>       0.00000000       0.00000000       0.00000000 </v>
   <v>       0.07692308      -0.00000000       0.00000000 </v>
   <v>       0.15384615       0.00000000       0.00000000 </v>
   <v>       0.23076923       0.00000000       0.00000000 </v>
   <v>       0.30769231      -0.00000000       0.00000000 </v>
   <v>       0.38461538       0.00000000       0.00000000 </v>
   <v>       0.46153846       0.00000000       0.00000000 </v>
   <v>       0.00000000       0.07692308       0.00000000 </v>
   <v>       0.07692308       0.07692308       0.00000000 </v>
   <v>       0.15384615       0.07692308       0.00000000 </v>
   <v>       0.23076923       0.07692308       0.00000000 </v>
   <v>       0.30769231       0.07692308       0.00000000 </v>
   <v>       0.38461538       0.07692308       0.00000000 </v>
   <v>       0.46153846       0.07692308       0.00000000 </v>
   <v>      -0.46153846       0.07692308       0.00000000 </v>
   <v>      -0.38461538       0.07692308       0.00000000 </v>
   <v>      -0.30769231       0.07692308       0.00000000 </v>
   <v>      -0.23076923       0.07692308       0.00000000 </v>
   <v>      -0.15384615       0.07692308       0.00000000 </v>
   <v>      -0.07692308       0.07692308       0.00000000 </v>
   <v>       0.00000000       0.15384615       0.00000000 </v>
   <v>       0.07692308       0.15384615       0.00000000 </v>
   <v>       0.15384615       0.15384615       0.00000000 </v>
   <v>       0.23076923       0.15384615       0.00000000 </v>
   <v>       0.30769231       0.15384615       0.00000000 </v>
   <v>       0.38461538       0.15384615       0.00000000 </v>
   <v>       0.46153846       0.15384615       0.00000000 </v>
   <v>      -0.46153846       0.15384615       0.00000000 </v>
   <v>      -0.38461538       0.15384615       0.00000000 </v>
   <v>      -0.30769231       0.15384615       0.00000000 </v>
   <v>      -0.23076923       0.15384615       0.00000000 </v>
   <v>      -0.15384615       0.15384615       0.00000000 </v>
   <v>      -0.07692308       0.15384615       0.00000000 </v>
   <v>       0.00000000       0.23076923       0.00000000 </v>
   <v>       0.07692308       0.23076923       0.00000000 </v>
   <v>       0.15384615       0.23076923       0.00000000 </v>
   <v>       0.23076923       0.23076923       0.00000000 </v>
   <v>       0.30769231       0.23076923       0.00000000 </v>
   <v>       0.38461538       0.23076923       0.00000000 </v>
   <v>       0.46153846       0.23076923       0.00000000 </v>
   <v>      -0.46153846       0.23076923       0.00000000 </v>
   <v>      -0.38461538       0.23076923       0.00000000 </v>
   <v>      -0.30769231       0.23076923       0.00000000 </v>
   <v>      -0.23076923       0.23076923       0.00000000 </v>
   <v>      -0.15384615       0.23076923       0.00000000 </v>
   <v>      -0.07692308       0.23076923       0.00000000 </v>
   <v>       0.00000000       0.30769231       0.00000000 </v>
   <v>       0.07692308       0.30769231       0.00000000 </v>
   <v>       0.15384615       0.30769231       0.00000000 </v>
   <v>       0.23076923       0.30769231       0.00000000 </v>
   <v>       0.30769231       0.30769231       0.00000000 </v>
   <v>       0.38461538       0.30769231       0.00000000 </v>
   <v>       0.46153846       0.30769231       0.00000000 </v>
   <v>      -0.46153846       0.30769231       0.00000000 </v>
   <v>      -0.38461538       0.30769231       0.00000000 </v>
   <v>      -0.30769231       0.30769231       0.00000000 </v>
   <v>      -0.23076923       0.30769231       0.00000000 </v>
   <v>      -0.15384615       0.30769231       0.00000000 </v>
   <v>      -0.07692308       0.30769231       0.00000000 </v>
   <v>       0.00000000       0.38461538       0.00000000 </v>
   <v>       0.07692308       0.38461538       0.00000000 </v>
   <v>       0.15384615       0.38461538       0.00000000 </v>
   <v>       0.23076923       0.38461538       0.00000000 </v>
   <v>       0.30769231       0.38461538       0.00000000 </v>
   <v>       0.38461538       0.38461538       0.00000000 </v>
   <v>       0.46153846       0.38461538       0.00000000 </v>
   <v>      -0.46153846       0.38461538       0.00000000 </v>
   <v>      -0.38461538       0.38461538       0.00000000 </v>
   <v>      -0.30769231       0.38461538       0.00000000 </v>
   <v>      -0.23076923       0.38461538       0.00000000 </v>
   <v>      -0.15384615       0.38461538       0.00000000 </v>
   <v>      -0.07692308       0.38461538       0.00000000 </v>
   <v>       0.00000000       0.46153846       0.00000000 </v>
   <v>       0.07692308       0.46153846       0.00000000 </v>
   <v>       0.15384615       0.46153846       0.00000000 </v>
   <v>       0.23076923       0.46153846       0.00000000 </v>
   <v>       0.30769231       0.46153846       0.00000000 </v>
   <v>       0.38461538       0.46153846       0.00000000 </v>
   <v>       0.46153846       0.46153846       0.00000000 </v>
   <v>      -0.46153846       0.46153846       0.00000000 </v>
   <v>      -0.38461538       0.46153846       0.00000000 </v>
   <v>      -0.30769231       0.46153846       0.00000000 </v>
   <v>      -0.23076923       0.46153846       0.00000000 </v>
   <v>      -0.15384615       0.46153846       0.00000000 </v>
   <v>      -0.07692308       0.46153846       0.00000000 </v>
  </varray>
  <varray name="weights" >
   <v>       0.00591716 </v>
   <v>       0.01183432 </v>
   <v>       0.01183432 </v>
   <v>       0.01183432 </v>
   <v>       0.01183432 </v>
   <v>       0.01183432 </v>
   <v>       0.01183432 </v>
   <v>       0.01183432 </v>
   <v>       0.01183432 </v>
   <v>       0.01183432 </v>
   <v>       0.01183432 </v>
   <v>       0.01183432 </v>
   <v>       0.01183432 </v>
   <v>       0.01183432 </v>
   <v>       0.01183432 </v>
   <v>       0.01183432 </v>
   <v>       0.01183432 </v>
   <v>       0.01183432 </v>
   <v>       0.01183432 </v>
   <v>       0.01183432 </v>
   <v>       0.01183432 </v>
   <v>       0.01183432 </v>
   <v>       0.01183432 </v>
   <v>       0.01183432 </v>
   <v>       0.01183432 </v>
   <v>       0.01183432 </v>
   <v>       0.01183432 </v>
   <v>       0.01183432 </v>
   <v>       0.01183432 </v>
   <v>       0.01183432 </v>
   <v>       0.01183432 </v>
   <v>       0.01183432 </v>
   <v>       0.01183432 </v>
   <v>       0.01183432 </v>
   <v>       0.01183432 </v>
   <v>       0.01183432 </v>
   <v>       0.01183432 </v>
   <v>       0.01183432 </v>
   <v>       0.01183432 </v>
   <v>       0.01183432 </v>
   <v>       0.01183432 </v>
   <v>       0.01183432 </v>
   <v>       0.01183432 </v>
   <v>       0.01183432 </v>
   <v>       0.01183432 </v>
   <v>       0.01183432 </v>
   <v>       0.01183432 </v>
   <v>       0.01183432 </v>
   <v>       0.01183432 </v>
   <v>       0.01183432 </v>
   <v>       0.01183432 </v>
   <v>       0.01183432 </v>
   <v>       0.01183432 </v>
   <v>       0.01183432 </v>
   <v>       0.01183432 </v>
   <v>       0.01183432 </v>
   <v>       0.01183432 </v>
   <v>       0.01183432 </v>
   <v>       0.01183432 </v>
   <v>       0.01183432 </v>
   <v>       0.01183432 </v>
   <v>       0.01183432 </v>
   <v>       0.01183432 </v>
   <v>       0.01183432 </v>
   <v>       0.01183432 </v>
   <v>       0.01183432 </v>
   <v>       0.01183432 </v>
   <v>       0.01183432 </v>
   <v>       0.01183432 </v>
   <v>       0.01183432 </v>
   <v>       0.01183432 </v>
   <v>       0.01183432 </v>
   <v>       0.01183432 </v>
   <v>       0.01183432 </v>
   <v>       0.01183432 </v>
   <v>       0.01183432 </v>
   <v>       0.01183432 </v>
   <v>       0.01183432 </v>
   <v>       0.01183432 </v>
   <v>       0.01183432 </v>
   <v>       0.01183432 </v>
   <v>       0.01183432 </v>
   <v>       0.01183432 </v>
   <v>       0.01183432 </v>
   <v>       0.01183432 </v>
  </varray>
 </kpoints>
 <parameters>
  <separator name="general" >
   <i type="string" name="SYSTEM">unknown system</i>
   <i type="logical" name="LCOMPAT"> F  </i>
  </separator>
  <separator name="electronic" >
   <i type="string" name="PREC">accura</i>
   <i name="ENMAX">    500.00000000</i>
   <i name="ENAUG">    392.42700000</i>
   <i name="EDIFF">      0.00010000</i>
   <i type="int" name="IALGO">    68</i>
   <i type="int" name="IWAVPR">    10</i>
   <i type="int" name="NBANDS">    36</i>
   <i name="NELECT">     48.00000000</i>
   <i type="int" name="TURBO">     0</i>
   <i type="int" name="IRESTART">     0</i>
   <i type="int" name="NREBOOT">     0</i>
   <i type="int" name="NMIN">     0</i>
   <i name="EREF">      0.00000000</i>
   <separator name="electronic smearing" >
    <i type="int" name="ISMEAR">     1</i>
    <i name="SIGMA">      0.10000000</i>
    <i name="KSPACING">      0.50000000</i>
    <i type="logical" name="KGAMMA"> T  </i>
   </separator>
   <separator name="electronic projectors" >
    <i type="logical" name="LREAL"> T  </i>
    <v name="ROPT">     -0.00025000     -0.00025000     -0.00025000     -0.00025000</v>
    <i type="int" name="LMAXPAW">  -100</i>
    <i type="int" name="LMAXMIX">     2</i>
    <i type="logical" name="NLSPLINE"> F  </i>
   </separator>
   <separator name="electronic startup" >
    <i type="int" name="ISTART">     0</i>
    <i type="int" name="ICHARG">     2</i>
    <i type="int" name="INIWAV">     1</i>
   </separator>
   <separator name="electronic spin" >
    <i type="int" name="ISPIN">     2</i>
    <i type="logical" name="LNONCOLLINEAR"> F  </i>
    <v name="MAGMOM">      6.00000000      0.50000000      0.50000000      6.00000000      0.50000000      0.50000000</v>
    <i name="NUPDOWN">     -1.00000000</i>
    <i type="logical" name="LSORBIT"> F  </i>
    <v name="SAXIS">      0.00000000      0.00000000      1.00000000</v>
    <i type="logical" name="LSPIRAL"> F  </i>
    <v name="QSPIRAL">      0.00000000      0.00000000      0.00000000</v>
    <i type="logical" name="LZEROZ"> F  </i>
   </separator>
   <separator name="electronic exchange-correlation" >
    <i type="logical" name="LASPH"> F  </i>
    <i type="logical" name="LMETAGGA"> F  </i>
   </separator>
   <separator name="electronic convergence" >
    <i type="int" name="NELM">    60</i>
    <i type="int" name="NELMDL">     0</i>
    <i type="int" name="NELMIN">     2</i>
    <i name="ENINI">    500.00000000</i>
    <separator name="electronic convergence detail" >
     <i type="logical" name="LDIAG"> T  </i>
     <i type="logical" name="LSUBROT"> F  </i>
     <i name="WEIMIN">      0.00000000</i>
     <i name="EBREAK">      0.00000069</i>
     <i name="DEPER">      0.30000000</i>
     <i type="int" name="NRMM">     4</i>
     <i name="TIME">      0.40000000</i>
    </separator>
   </separator>
   <separator name="electronic mixer" >
    <i name="AMIX">      0.40000000</i>
    <i name="BMIX">      1.00000000</i>
    <i name="AMIN">      0.10000000</i>
    <i name="AMIX_MAG">      1.60000000</i>
    <i name="BMIX_MAG">      1.00000000</i>
    <separator name="electronic mixer details" >
     <i type="int" name="IMIX">     4</i>
     <i type="logical" name="MIXFIRST"> F  </i>
     <i type="int" name="MAXMIX">   -45</i>
     <i name="WC">    100.00000000</i>
     <i type="int" name="INIMIX">     1</i>
     <i type="int" name="MIXPRE">     1</i>
     <i type="int" name="MREMOVE">     5</i>
    </separator>
   </separator>
   <separator name="electronic dipolcorrection" >
    <i type="logical" name="LDIPOL"> F  </i>
    <i type="logical" name="LMONO"> F  </i>
    <i type="int" name="IDIPOL">     0</i>
    <i name="EPSILON">      1.00000000</i>
    <v name="DIPOL">   -100.00000000   -100.00000000   -100.00000000</v>
    <i name="EFIELD">      0.00000000</i>
   </separator>
  </separator>
  <separator name="grids" >
   <i type="int" name="NGX">    24</i>
   <i type="int" name="NGY">    24</i>
   <i type="int" name="NGZ">   180</i>
   <i type="int" name="NGXF">    48</i>
   <i type="int" name="NGYF">    48</i>
   <i type="int" name="NGZF">   360</i>
   <i type="logical" name="ADDGRID"> F  </i>
  </separator>
  <separator name="ionic" >
   <i type="int" name="NSW">     0</i>
   <i type="int" name="IBRION">    -1</i>
   <i type="int" name="ISIF">     3</i>
   <i name="PSTRESS">      0.00000000</i>
   <i name="EDIFFG">      0.00100000</i>
   <i type="int" name="NFREE">     1</i>
   <i name="POTIM">      0.50000000</i>
   <i name="SMASS">     -3.00000000</i>
   <i name="SCALEE">      1.00000000</i>
  </separator>
  <separator name="ionic md" >
   <i name="TEBEG">      0.00010000</i>
   <i name="TEEND">      0.00010000</i>
   <i type="int" name="NBLOCK">     1</i>
   <i type="int" name="KBLOCK">     1</i>
   <i type="int" name="NPACO">   256</i>
   <i name="APACO">     16.00000000</i>
  </separator>
  <separator name="symmetry" >
   <i type="int" name="ISYM">     2</i>
   <i name="SYMPREC">      0.00001000</i>
  </separator>
  <separator name="dos" >
   <i type="logical" name="LORBIT"> F  </i>
   <v name="RWIGS">     -1.00000000     -1.00000000     -1.00000000     -1.00000000</v>
   <i type="int" name="NEDOS">   301</i>
   <i name="EMIN">     10.00000000</i>
   <i name="EMAX">    -10.00000000</i>
   <i name="EFERMI">      0.00000000</i>
  </separator>
  <separator name="writing" >
   <i type="int" name="NWRITE">     2</i>
   <i type="logical" name="LWAVE"> F  </i>
   <i type="logical" name="LCHARG"> F  </i>
   <i type="logical" name="LPARD"> F  </i>
   <i type="logical" name="LVTOT"> F  </i>
   <i type="logical" name="LVHAR"> T  </i>
   <i type="logical" name="LELF"> F  </i>
   <i type="logical" name="LOPTICS"> F  </i>
   <v name="STM">      0.00000000      0.00000000      0.00000000      0.00000000      0.00000000      0.00000000      0.00000000</v>
  </separator>
  <separator name="performance" >
   <i type="int" name="NPAR">     4</i>
   <i type="int" name="NSIM">     4</i>
   <i type="int" name="NBLK">    -1</i>
   <i type="logical" name="LPLANE"> T  </i>
   <i type="logical" name="LSCALAPACK"> T  </i>
   <i type="logical" name="LSCAAWARE"> F  </i>
   <i type="logical" name="LSCALU"> F  </i>
   <i type="logical" name="LASYNC"> F  </i>
   <i type="logical" name="LORBITALREAL"> F  </i>
  </separator>
  <separator name="miscellaneous" >
   <i type="int" name="IDIOT">     3</i>
   <i type="logical" name="LMUSIC"> F  </i>
   <v name="POMASS">     95.94000000     32.06600000     95.94000000     32.06600000</v>
   <v name="DARWINR">      0.00000000      0.00000000      0.00000000      0.00000000</v>
   <v name="DARWINV">      1.00000000      1.00000000      1.00000000      1.00000000</v>
   <i type="logical" name="LCORR"> T  </i>
  </separator>
  <i type="logical" name="GGA_COMPAT"> T  </i>
  <i type="logical" name="LBERRY"> F  </i>
  <i type="int" name="ICORELEVEL">     0</i>
  <i type="logical" name="LDAU"> F  </i>
  <i type="int" name="I_CONSTRAINED_M">     0</i>
  <separator name="electronic exchange-correlation" >
   <i type="string" name="GGA">BO</i>
   <i type="int" name="VOSKOWN">     0</i>
   <i type="logical" name="LHFCALC"> F  </i>
   <i type="string" name="PRECFOCK"></i>
   <i type="logical" name="LSYMGRAD"> F  </i>
   <i type="logical" name="LHFONE"> F  </i>
   <i type="logical" name="LRHFCALC"> F  </i>
   <i type="logical" name="LTHOMAS"> F  </i>
   <i type="logical" name="LMODELHF"> F  </i>
   <i name="ENCUT4O">     -1.00000000</i>
   <i type="int" name="EXXOEP">     0</i>
   <i type="int" name="FOURORBIT">     0</i>
   <i name="AEXX">      0.00000000</i>
   <i name="HFALPHA">      0.00000000</i>
   <i name="MCALPHA">      0.00000000</i>
   <i name="ALDAX">      1.00000000</i>
   <i name="AGGAX">      1.00000000</i>
   <i name="ALDAC">      1.00000000</i>
   <i name="AGGAC">      0.00000000</i>
   <i type="int" name="NKREDX">     1</i>
   <i type="int" name="NKREDY">     1</i>
   <i type="int" name="NKREDZ">     1</i>
   <i type="logical" name="SHIFTRED"> F  </i>
   <i type="logical" name="ODDONLY"> F  </i>
   <i type="logical" name="EVENONLY"> F  </i>
   <i type="int" name="LMAXFOCK">     0</i>
   <i type="int" name="NMAXFOCKAE">     0</i>
   <i type="logical" name="LFOCKAEDFT"> F  </i>
   <i name="HFSCREEN">      0.00000000</i>
   <i name="HFSCREENC">      0.00000000</i>
   <i type="int" name="NBANDSGWLOW">     0</i>
  </separator>
  <separator name="vdW DFT" >
   <i type="logical" name="LUSE_VDW"> T  </i>
   <i name="Zab_VDW">     -0.84910000</i>
   <i name="PARAM1">      0.18333333</i>
   <i name="PARAM2">      0.22000000</i>
   <i name="PARAM3">      0.00000000</i>
  </separator>
  <separator name="model GW" >
   <i type="int" name="MODEL_GW">     0</i>
   <i name="MODEL_EPS0">     20.39722663</i>
   <i name="MODEL_ALPHA">      1.00000000</i>
  </separator>
  <separator name="linear response parameters" >
   <i type="logical" name="LEPSILON"> F  </i>
   <i type="logical" name="LRPA"> F  </i>
   <i type="logical" name="LNABLA"> F  </i>
   <i type="logical" name="LVEL"> F  </i>
   <i type="int" name="KINTER">     0</i>
   <i name="CSHIFT">      0.10000000</i>
   <i name="OMEGAMAX">     -1.00000000</i>
   <i name="DEG_THRESHOLD">      0.00200000</i>
  </separator>
  <separator name="orbital magnetization" >
   <i type="logical" name="NUCIND"> F  </i>
   <v name="MAGPOS">      0.00000000      0.00000000      0.00000000</v>
   <i type="logical" name="LNICSALL"> T  </i>
   <i type="logical" name="ORBITALMAG"> F  </i>
   <i type="logical" name="LMAGBLOCH"> F  </i>
   <i type="logical" name="LCHIMAG"> F  </i>
   <i type="logical" name="LGAUGE"> T  </i>
   <i type="int" name="MAGATOM">     0</i>
   <v name="MAGDIPOL">      0.00000000      0.00000000      0.00000000</v>
   <v name="AVECCONST">      0.00000000      0.00000000      0.00000000</v>
  </separator>
  <separator name="response functions" >
   <i type="logical" name="LADDER"> F  </i>
   <i type="logical" name="LFXC"> F  </i>
   <i type="logical" name="LHARTREE"> T  </i>
   <i type="int" name="IBSE">     0</i>
   <v type="int" name="KPOINT">    -1     0     0     0</v>
   <i type="logical" name="LTCTE"> F  </i>
   <i type="logical" name="LTETE"> F  </i>
   <i type="logical" name="LTRIPLET"> F  </i>
   <i type="logical" name="LFXCEPS"> F  </i>
   <i type="logical" name="LFXHEG"> F  </i>
   <i type="int" name="NATURALO">     0</i>
   <i type="logical" name="L2ORDER"> F  </i>
   <i type="logical" name="LUSEW"> F  </i>
   <i name="ENCUTGW">     -2.00000000</i>
   <i name="ENCUTGWSOFT">     -2.00000000</i>
   <i name="ENCUTLF">     -1.00000000</i>
   <i type="int" name="LMAXMP2">    -1</i>
   <i name="SCISSOR">      0.00000000</i>
   <i type="int" name="NOMEGA">     0</i>
   <i type="int" name="NOMEGAR">     0</i>
   <i type="int" name="NBANDSGW">    -1</i>
   <i type="int" name="NBANDSO">    -1</i>
   <i type="int" name="NBANDSV">    -1</i>
   <i type="int" name="NELM">     1</i>
   <i type="int" name="NELMHF">     1</i>
   <i type="int" name="DIM">     3</i>
   <i type="int" name="ANTIRES">     0</i>
   <i name="OMEGAMAX">    -30.00000000</i>
   <i name="OMEGAMIN">    -30.00000000</i>
   <i name="OMEGATL">   -200.00000000</i>
   <i type="int" name="OMEGAGRID">     0</i>
   <i name="CSHIFT">     -0.10000000</i>
   <i type="logical" name="SELFENERGY"> F  </i>
   <i type="logical" name="LSPECTRAL"> F  </i>
   <i type="logical" name="LSPECTRALGW"> F  </i>
   <i type="logical" name="LSINGLES"> F  </i>
   <i type="logical" name="LFERMIGW"> F  </i>
   <i type="logical" name="ODDONLYGW"> F  </i>
   <i type="logical" name="EVENONLYGW"> F  </i>
   <i type="int" name="NKREDLFX">     1</i>
   <i type="int" name="NKREDLFY">     1</i>
   <i type="int" name="NKREDLFZ">     1</i>
   <i type="int" name="MAXMEM">  1800</i>
   <i type="int" name="TELESCOPE">     0</i>
   <i type="int" name="TAUPAR">     1</i>
   <i type="int" name="OMEGAPAR">    -1</i>
   <i name="LAMBDA">      1.00000000</i>
  </separator>
  <separator name="External order field" >
   <i name="OFIELD_KAPPA">      0.00000000</i>
   <v name="OFIELD_K">      0.00000000      0.00000000      0.00000000</v>
   <i name="OFIELD_Q6_NEAR">      0.00000000</i>
   <i name="OFIELD_Q6_FAR">      0.00000000</i>
   <i name="OFIELD_A">      0.00000000</i>
  </separator>
 </parameters>
 <atominfo>
  <atoms>       6 </atoms>
  <types>       4 </types>
  <array name="atoms" >
   <dimension dim="1">ion</dimension>
   <field type="string">element</field>
   <field type="int">atomtype</field>
   <set>
    <rc><c>Mo</c><c>   1</c></rc>
    <rc><c>S </c><c>   2</c></rc>
    <rc><c>S </c><c>   2</c></rc>
    <rc><c>Mo</c><c>   3</c></rc>
    <rc><c>S </c><c>   4</c></rc>
    <rc><c>S </c><c>   4</c></rc>
   </set>
  </array>
  <array name="atomtypes" >
   <dimension dim="1">type</dimension>
   <field type="int">atomspertype</field>
   <field type="string">element</field>
   <field>mass</field>
   <field>valence</field>
   <field type="string">pseudopotential</field>
   <set>
    <rc><c>   1</c><c>Mo</c><c>     95.94000000</c><c>     12.00000000</c><c> PAW_PBE Mo_pv 08Apr2002                </c></rc>
    <rc><c>   2</c><c>S </c><c>     32.06600000</c><c>      6.00000000</c><c>  PAW_PBE S 17Jan2003                   </c></rc>
    <rc><c>   1</c><c>Mo</c><c>     95.94000000</c><c>     12.00000000</c><c> PAW_PBE Mo_pv 08Apr2002                </c></rc>
    <rc><c>   2</c><c>S </c><c>     32.06600000</c><c>      6.00000000</c><c>  PAW_PBE S 17Jan2003                   </c></rc>
   </set>
  </array>
 </atominfo>
 <structure name="initialpos" >
  <crystal>
   <varray name="basis" >
    <v>       3.19031700       0.00000000       0.00000000 </v>
    <v>      -1.59515800       2.76289700       0.00000000 </v>
    <v>       0.00000000       0.00000000      23.14049200 </v>
   </varray>
   <i name="volume">    203.97226633 </i>
   <varray name="rec_basis" >
    <v>       0.31344848       0.18096941       0.00000000 </v>
    <v>       0.00000000       0.36193894       0.00000000 </v>
    <v>       0.00000000       0.00000000       0.04321429 </v>
   </varray>
  </crystal>
  <varray name="positions" >
   <v>       0.66666700       0.33333300       0.06785900 </v>
   <v>       0.33333300       0.66666700       0.00000000 </v>
   <v>       0.33333300       0.66666700       0.13571500 </v>
   <v>       0.23809557       0.33333300       0.35482300 </v>
   <v>       0.90476157       0.66666700       0.28696500 </v>
   <v>       0.90476157       0.66666700       0.42267900 </v>
  </varray>
 </structure>
 <calculation>
  <scstep>
   <time name="dav">  108.54  108.63</time>
   <time name="total">  128.09  128.21</time>
   <energy>
    <i name="alphaZ">    104.15310261 </i>
    <i name="ewald">   7699.01324800 </i>
    <i name="hartreedc"> -11109.06844020 </i>
    <i name="XCdc">    128.46334710 </i>
    <i name="pawpsdc">   2252.92270536 </i>
    <i name="pawaedc">  -2205.68654582 </i>
    <i name="eentropy">     -0.00022854 </i>
    <i name="bandstr">   -159.63162943 </i>
    <i name="atom">   3688.31848598 </i>
    <i name="e_fr_energy">    398.48404507 </i>
    <i name="e_wo_entrp">    398.48427361 </i>
    <i name="e_0_energy">    398.48412125 </i>
   </energy>
  </scstep>
  <scstep>
   <time name="dav">  118.06  118.16</time>
   <time name="total">  118.07  118.18</time>
   <energy>
    <i name="e_fr_energy">     -1.64145349 </i>
    <i name="e_wo_entrp">     -1.64170059 </i>
    <i name="e_0_energy">     -1.64153586 </i>
   </energy>
  </scstep>
  <scstep>
   <time name="dav">  119.61  119.71</time>
   <time name="total">  119.62  119.75</time>
   <energy>
    <i name="e_fr_energy">    -32.96754177 </i>
    <i name="e_wo_entrp">    -32.96852007 </i>
    <i name="e_0_energy">    -32.96786787 </i>
   </energy>
  </scstep>
  <scstep>
   <time name="dav">  115.18  115.28</time>
   <time name="total">  115.19  115.29</time>
   <energy>
    <i name="e_fr_energy">    -33.84756210 </i>
    <i name="e_wo_entrp">    -33.84886608 </i>
    <i name="e_0_energy">    -33.84799676 </i>
   </energy>
  </scstep>
  <scstep>
   <time name="dav">  120.19  120.29</time>
   <time name="total">  129.35  129.50</time>
   <energy>
    <i name="e_fr_energy">    -33.87462198 </i>
    <i name="e_wo_entrp">    -33.87595330 </i>
    <i name="e_0_energy">    -33.87506575 </i>
   </energy>
  </scstep>
  <scstep>
   <time name="diag">   22.24   22.25</time>
   <time name="diis">   89.63   89.70</time>
   <time name="orth">    0.78    0.79</time>
   <time name="total">  140.91  141.03</time>
   <energy>
    <i name="e_fr_energy">    -30.17952757 </i>
    <i name="e_wo_entrp">    -30.17934265 </i>
    <i name="e_0_energy">    -30.17946593 </i>
   </energy>
  </scstep>
  <scstep>
   <time name="diag">   22.19   22.21</time>
   <time name="diis">   78.76   78.82</time>
   <time name="orth">    0.78    0.78</time>
   <time name="total">  129.95  130.06</time>
   <energy>
    <i name="e_fr_energy">    -32.91749667 </i>
    <i name="e_wo_entrp">    -32.91767291 </i>
    <i name="e_0_energy">    -32.91755542 </i>
   </energy>
  </scstep>
  <scstep>
   <time name="diag">   22.31   22.33</time>
   <time name="diis">   83.70   83.77</time>
   <time name="orth">    0.77    0.77</time>
   <time name="total">  134.82  134.94</time>
   <energy>
    <i name="e_fr_energy">    -34.42028412 </i>
    <i name="e_wo_entrp">    -34.42046249 </i>
    <i name="e_0_energy">    -34.42034358 </i>
   </energy>
  </scstep>
  <scstep>
   <time name="diag">   22.36   22.38</time>
   <time name="diis">   77.33   77.39</time>
   <time name="orth">    0.78    0.78</time>
   <time name="total">  128.79  128.89</time>
   <energy>
    <i name="e_fr_energy">    -36.61270311 </i>
    <i name="e_wo_entrp">    -36.61286824 </i>
    <i name="e_0_energy">    -36.61275815 </i>
   </energy>
  </scstep>
  <scstep>
   <time name="diag">   22.48   22.50</time>
   <time name="diis">   71.45   71.51</time>
   <time name="orth">    0.78    0.78</time>
   <time name="total">  122.81  122.94</time>
   <energy>
    <i name="e_fr_energy">    -38.77923385 </i>
    <i name="e_wo_entrp">    -38.77940138 </i>
    <i name="e_0_energy">    -38.77928969 </i>
   </energy>
  </scstep>
  <scstep>
   <time name="diag">   22.31   22.33</time>
   <time name="diis">   75.76   75.83</time>
   <time name="orth">    0.77    0.77</time>
   <time name="total">  126.98  127.10</time>
   <energy>
    <i name="e_fr_energy">    -39.35939496 </i>
    <i name="e_wo_entrp">    -39.35970679 </i>
    <i name="e_0_energy">    -39.35949890 </i>
   </energy>
  </scstep>
  <scstep>
   <time name="diag">   22.43   22.45</time>
   <time name="diis">   77.42   77.48</time>
   <time name="orth">    0.78    0.78</time>
   <time name="total">  128.95  129.05</time>
   <energy>
    <i name="e_fr_energy">    -39.40112298 </i>
    <i name="e_wo_entrp">    -39.40145656 </i>
    <i name="e_0_energy">    -39.40123417 </i>
   </energy>
  </scstep>
  <scstep>
   <time name="diag">   22.31   22.33</time>
   <time name="diis">   84.50   84.57</time>
   <time name="orth">    0.78    0.78</time>
   <time name="total">  135.94  136.05</time>
   <energy>
    <i name="e_fr_energy">    -39.42039981 </i>
    <i name="e_wo_entrp">    -39.42073361 </i>
    <i name="e_0_energy">    -39.42051107 </i>
   </energy>
  </scstep>
  <scstep>
   <time name="diag">   22.27   22.28</time>
   <time name="diis">   81.18   81.25</time>
   <time name="orth">    0.78    0.78</time>
   <time name="total">  132.53  132.64</time>
   <energy>
    <i name="e_fr_energy">    -39.42335274 </i>
    <i name="e_wo_entrp">    -39.42368703 </i>
    <i name="e_0_energy">    -39.42346417 </i>
   </energy>
  </scstep>
  <scstep>
   <time name="diag">   22.29   22.31</time>
   <time name="diis">   71.45   71.51</time>
   <time name="orth">    0.78    0.78</time>
   <time name="total">  122.76  123.06</time>
   <energy>
    <i name="e_fr_energy">    -39.42319648 </i>
    <i name="e_wo_entrp">    -39.42353072 </i>
    <i name="e_0_energy">    -39.42330789 </i>
   </energy>
  </scstep>
  <scstep>
   <time name="diag">   22.41   22.43</time>
   <time name="diis">   55.35   55.40</time>
   <time name="orth">    0.78    0.78</time>
   <time name="total">   97.16   97.24</time>
   <energy>
    <i name="alphaZ">    104.15310261 </i>
    <i name="ewald">   7699.01324800 </i>
    <i name="hartreedc"> -11093.43151762 </i>
    <i name="XCdc">    122.66449199 </i>
    <i name="pawpsdc">   2398.81117192 </i>
    <i name="pawaedc">  -2360.98380768 </i>
    <i name="eentropy">      0.00033431 </i>
    <i name="bandstr">   -597.96876050 </i>
    <i name="atom">   3688.31848598 </i>
    <i name="e_fr_energy">    -39.42325099 </i>
    <i name="e_wo_entrp">    -39.42358530 </i>
    <i name="e_0_energy">    -39.42336242 </i>
   </energy>
  </scstep>
  <structure>
   <crystal>
    <varray name="basis" >
     <v>       3.19031700       0.00000000       0.00000000 </v>
     <v>      -1.59515800       2.76289700       0.00000000 </v>
     <v>       0.00000000       0.00000000      23.14049200 </v>
    </varray>
    <i name="volume">    203.97226633 </i>
    <varray name="rec_basis" >
     <v>       0.31344848       0.18096941       0.00000000 </v>
     <v>       0.00000000       0.36193894       0.00000000 </v>
     <v>       0.00000000       0.00000000       0.04321429 </v>
    </varray>
   </crystal>
   <varray name="positions" >
    <v>       0.66666700       0.33333300       0.06785900 </v>
    <v>       0.33333300       0.66666700       0.00000000 </v>
    <v>       0.33333300       0.66666700       0.13571500 </v>
    <v>       0.23809557       0.33333300       0.35482300 </v>
    <v>       0.90476157       0.66666700       0.28696500 </v>
    <v>       0.90476157       0.66666700       0.42267900 </v>
   </varray>
  </structure>
  <varray name="forces" >
   <v>       0.00329727       0.00077265      -0.00188830 </v>
   <v>       0.00044121      -0.00137218      -0.06036817 </v>
   <v>       0.01597609       0.00066853       0.12100321 </v>
   <v>      -0.00083007       0.00041106       0.00197190 </v>
   <v>      -0.01763704       0.00068095      -0.12416300 </v>
   <v>      -0.00124746      -0.00116101       0.06344435 </v>
  </varray>
  <varray name="stress" >
   <v>       3.74495773      -0.00397519      -0.53733123 </v>
   <v>      -0.00397517       3.06600921      -0.00071475 </v>
   <v>      -0.53733117      -0.00071474      -0.31900929 </v>
  </varray>
  <energy>
   <i name="e_fr_energy">    -39.42325099 </i>
   <i name="e_wo_entrp">    -39.42336242 </i>
   <i name="e_0_energy">      0.00033431 </i>
  </energy>
  <time name="totalsc"> 2204.94 2207.15</time>
  <eigenvalues>
   <array>
    <dimension dim="1">band</dimension>
    <dimension dim="2">kpoint</dimension>
    <dimension dim="3">spin</dimension>
    <field>eigene</field>
    <field>occ</field>
    <set>
     <set comment="spin 1">
      <set comment="kpoint 1">
       <r>  -34.9765    1.0000 </r>
       <r>  -34.9739    1.0000 </r>
       <r>  -34.7860    1.0000 </r>
       <r>  -34.7859    1.0000 </r>
       <r>  -34.7832    1.0000 </r>
       <r>  -34.7831    1.0000 </r>
       <r>  -13.9596    1.0000 </r>
       <r>  -13.9045    1.0000 </r>
       <r>  -12.6934    1.0000 </r>
       <r>  -12.6010    1.0000 </r>
       <r>   -5.6703    1.0000 </r>
       <r>   -5.3837    1.0000 </r>
       <r>   -2.6075    1.0000 </r>
       <r>   -2.6064    1.0000 </r>
       <r>   -2.6037    1.0000 </r>
       <r>   -2.6024    1.0000 </r>
       <r>   -2.1598    1.0000 </r>
       <r>   -1.5159    1.0000 </r>
       <r>   -1.5132    1.0000 </r>
       <r>   -1.5092    1.0000 </r>
       <r>   -1.5067    1.0000 </r>
       <r>   -1.4607    1.0000 </r>
       <r>   -0.2065    1.0000 </r>
       <r>    0.2275    0.7954 </r>
       <r>    2.7012   -0.0000 </r>
       <r>    2.7131   -0.0000 </r>
       <r>    2.7270   -0.0000 </r>
       <r>    2.7356   -0.0000 </r>
       <r>    2.8822   -0.0000 </r>
       <r>    2.8939   -0.0000 </r>
       <r>    2.9121   -0.0000 </r>
       <r>    2.9272   -0.0000 </r>
       <r>    5.3718    0.0000 </r>
       <r>    5.6945    0.0000 </r>
       <r>    6.2577    0.0000 </r>
       <r>    6.5867    0.0000 </r>
      </set>
      <set comment="kpoint 2">
       <r>  -34.9724    1.0000 </r>
       <r>  -34.9698    1.0000 </r>
       <r>  -34.8072    1.0000 </r>
       <r>  -34.8044    1.0000 </r>
       <r>  -34.7907    1.0000 </r>
       <r>  -34.7881    1.0000 </r>
       <r>  -13.8728    1.0000 </r>
       <r>  -13.8180    1.0000 </r>
       <r>  -12.6567    1.0000 </r>
       <r>  -12.5668    1.0000 </r>
       <r>   -5.5709    1.0000 </r>
       <r>   -5.2851    1.0000 </r>
       <r>   -2.7942    1.0000 </r>
       <r>   -2.7895    1.0000 </r>
       <r>   -2.5153    1.0000 </r>
       <r>   -2.5133    1.0000 </r>
       <r>   -2.4465    1.0000 </r>
       <r>   -2.0582    1.0000 </r>
       <r>   -1.6496    1.0000 </r>
       <r>   -1.6477    1.0000 </r>
       <r>   -1.3393    1.0000 </r>
       <r>   -1.0613    1.0000 </r>
       <r>   -0.2269    1.0000 </r>
       <r>    0.1485    1.0349 </r>
       <r>    2.6100   -0.0000 </r>
       <r>    2.6166   -0.0000 </r>
       <r>    2.6633   -0.0000 </r>
       <r>    2.7082   -0.0000 </r>
       <r>    2.8078   -0.0000 </r>
       <r>    2.8131   -0.0000 </r>
       <r>    2.8668   -0.0000 </r>
       <r>    2.8701   -0.0000 </r>
       <r>    5.5037    0.0000 </r>
       <r>    5.8400    0.0000 </r>
       <r>    6.5728    0.0000 </r>
       <r>    6.9601    0.0000 </r>
      </set>
      <set comment="kpoint 3">
       <r>  -34.9610    1.0000 </r>
       <r>  -34.9584    1.0000 </r>
       <r>  -34.8657    1.0000 </r>
       <r>  -34.8629    1.0000 </r>
       <r>  -34.8041    1.0000 </r>
       <r>  -34.8015    1.0000 </r>
       <r>  -13.6240    1.0000 </r>
       <r>  -13.5705    1.0000 </r>
       <r>  -12.5513    1.0000 </r>
       <r>  -12.4689    1.0000 </r>
       <r>   -5.3101    1.0000 </r>
       <r>   -5.0316    1.0000 </r>
       <r>   -3.2443    1.0000 </r>
       <r>   -3.2374    1.0000 </r>
       <r>   -2.9462    1.0000 </r>
       <r>   -2.6743    1.0000 </r>
       <r>   -2.2597    1.0000 </r>
       <r>   -2.2576    1.0000 </r>
       <r>   -1.9850    1.0000 </r>
       <r>   -1.9825    1.0000 </r>
       <r>   -1.2437    1.0000 </r>
       <r>   -0.9393    1.0000 </r>
       <r>   -0.3545    1.0000 </r>
       <r>   -0.1382    1.0000 </r>
       <r>    2.2026   -0.0000 </r>
       <r>    2.3730   -0.0000 </r>
       <r>    2.5135   -0.0000 </r>
       <r>    2.5755   -0.0000 </r>
       <r>    2.5846   -0.0000 </r>
       <r>    2.6259   -0.0000 </r>
       <r>    3.2136    0.0000 </r>
       <r>    3.2195    0.0000 </r>
       <r>    5.8509    0.0000 </r>
       <r>    6.1900    0.0000 </r>
       <r>    6.9149    0.0000 </r>
       <r>    7.7510    0.0000 </r>
      </set>
      <set comment="kpoint 4">
       <r>  -34.9472    1.0000 </r>
       <r>  -34.9449    1.0000 </r>
       <r>  -34.9445    1.0000 </r>
       <r>  -34.9422    1.0000 </r>
       <r>  -34.8229    1.0000 </r>
       <r>  -34.8203    1.0000 </r>
       <r>  -13.2481    1.0000 </r>
       <r>  -13.1977    1.0000 </r>
       <r>  -12.3929    1.0000 </r>
       <r>  -12.3225    1.0000 </r>
       <r>   -5.0465    1.0000 </r>
       <r>   -4.8146    1.0000 </r>
       <r>   -3.7022    1.0000 </r>
       <r>   -3.6721    1.0000 </r>
       <r>   -3.4749    1.0000 </r>
       <r>   -3.2952    1.0000 </r>
       <r>   -2.3802    1.0000 </r>
       <r>   -2.3773    1.0000 </r>
       <r>   -1.8906    1.0000 </r>
       <r>   -1.8879    1.0000 </r>
       <r>   -1.4023    1.0000 </r>
       <r>   -1.1410    1.0000 </r>
       <r>   -0.6675    1.0000 </r>
       <r>   -0.5943    1.0000 </r>
       <r>    1.9676   -0.0000 </r>
       <r>    2.2495   -0.0000 </r>
       <r>    2.3261   -0.0000 </r>
       <r>    2.3349   -0.0000 </r>
       <r>    2.7122   -0.0000 </r>
       <r>    2.9080   -0.0000 </r>
       <r>    3.5955    0.0000 </r>
       <r>    3.6052    0.0000 </r>
       <r>    6.3942    0.0000 </r>
       <r>    6.6791    0.0000 </r>
       <r>    7.3868    0.0000 </r>
       <r>    8.1508    0.0000 </r>
      </set>
      <set comment="kpoint 5">
       <r>  -35.0325    1.0000 </r>
       <r>  -35.0297    1.0000 </r>
       <r>  -34.9278    1.0000 </r>
       <r>  -34.9252    1.0000 </r>
       <r>  -34.8429    1.0000 </r>
       <r>  -34.8402    1.0000 </r>
       <r>  -12.8064    1.0000 </r>
       <r>  -12.7625    1.0000 </r>
       <r>  -12.2092    1.0000 </r>
       <r>  -12.1548    1.0000 </r>
       <r>   -5.1011    1.0000 </r>
       <r>   -4.9853    1.0000 </r>
       <r>   -4.0379    1.0000 </r>
       <r>   -3.9242    1.0000 </r>
       <r>   -3.8326    1.0000 </r>
       <r>   -3.7522    1.0000 </r>
       <r>   -2.7356    1.0000 </r>
       <r>   -2.7324    1.0000 </r>
       <r>   -1.6617    1.0000 </r>
       <r>   -1.4979    1.0000 </r>
       <r>   -1.4907    1.0000 </r>
       <r>   -1.4519    1.0000 </r>
       <r>   -0.9594    1.0000 </r>
       <r>   -0.9156    1.0000 </r>
       <r>    2.0582   -0.0000 </r>
       <r>    2.1574   -0.0000 </r>
       <r>    2.1654   -0.0000 </r>
       <r>    2.3317   -0.0000 </r>
       <r>    3.1259    0.0000 </r>
       <r>    3.3489    0.0000 </r>
       <r>    3.8986    0.0000 </r>
       <r>    3.9127    0.0000 </r>
       <r>    7.0559    0.0000 </r>
       <r>    7.2334    0.0000 </r>
       <r>    7.8989    0.0000 </r>
       <r>    7.9723    0.0000 </r>
      </set>
      <set comment="kpoint 6">
       <r>  -35.1022    1.0000 </r>
       <r>  -35.0995    1.0000 </r>
       <r>  -34.9135    1.0000 </r>
       <r>  -34.9109    1.0000 </r>
       <r>  -34.8593    1.0000 </r>
       <r>  -34.8567    1.0000 </r>
       <r>  -12.3920    1.0000 </r>
       <r>  -12.3599    1.0000 </r>
       <r>  -12.0409    1.0000 </r>
       <r>  -12.0055    1.0000 </r>
       <r>   -5.4121    1.0000 </r>
       <r>   -5.3633    1.0000 </r>
       <r>   -4.4514    1.0000 </r>
       <r>   -4.3864    1.0000 </r>
       <r>   -3.9063    1.0000 </r>
       <r>   -3.8405    1.0000 </r>
       <r>   -2.9955    1.0000 </r>
       <r>   -2.9922    1.0000 </r>
       <r>   -1.8550    1.0000 </r>
       <r>   -1.7049    1.0000 </r>
       <r>   -1.1780    1.0000 </r>
       <r>   -1.1717    1.0000 </r>
       <r>   -0.9187    1.0000 </r>
       <r>   -0.8487    1.0000 </r>
       <r>    2.1128   -0.0000 </r>
       <r>    2.1181   -0.0000 </r>
       <r>    2.3221   -0.0000 </r>
       <r>    2.5055   -0.0000 </r>
       <r>    3.5374    0.0000 </r>
       <r>    3.7143    0.0000 </r>
       <r>    4.0875    0.0000 </r>
       <r>    4.1053    0.0000 </r>
       <r>    6.9305    0.0000 </r>
       <r>    7.1086    0.0000 </r>
       <r>    7.7925    0.0000 </r>
       <r>    7.9761    0.0000 </r>
      </set>
      <set comment="kpoint 7">
       <r>  -35.1413    1.0000 </r>
       <r>  -35.1385    1.0000 </r>
       <r>  -34.9055    1.0000 </r>
       <r>  -34.9029    1.0000 </r>
       <r>  -34.8686    1.0000 </r>
       <r>  -34.8659    1.0000 </r>
       <r>  -12.1282    1.0000 </r>
       <r>  -12.1118    1.0000 </r>
       <r>  -11.9358    1.0000 </r>
       <r>  -11.9189    1.0000 </r>
       <r>   -5.6438    1.0000 </r>
       <r>   -5.6240    1.0000 </r>
       <r>   -4.6926    1.0000 </r>
       <r>   -4.6626    1.0000 </r>
       <r>   -4.0048    1.0000 </r>
       <r>   -3.9561    1.0000 </r>
       <r>   -3.1315    1.0000 </r>
       <r>   -3.1281    1.0000 </r>
       <r>   -1.9403    1.0000 </r>
       <r>   -1.8365    1.0000 </r>
       <r>   -1.0113    1.0000 </r>
       <r>   -1.0034    1.0000 </r>
       <r>   -0.6889    1.0000 </r>
       <r>   -0.6322    1.0000 </r>
       <r>    2.1391   -0.0000 </r>
       <r>    2.1425   -0.0000 </r>
       <r>    2.5802   -0.0000 </r>
       <r>    2.6462   -0.0000 </r>
       <r>    3.7856    0.0000 </r>
       <r>    3.8783    0.0000 </r>
       <r>    4.1731    0.0000 </r>
       <r>    4.1931    0.0000 </r>
       <r>    6.1979    0.0000 </r>
       <r>    6.3677    0.0000 </r>
       <r>    7.9179    0.0000 </r>
       <r>    7.9847    0.0000 </r>
      </set>
      <set comment="kpoint 8">
       <r>  -34.9724    1.0000 </r>
       <r>  -34.9698    1.0000 </r>
       <r>  -34.8071    1.0000 </r>
       <r>  -34.8044    1.0000 </r>
       <r>  -34.7908    1.0000 </r>
       <r>  -34.7881    1.0000 </r>
       <r>  -13.8729    1.0000 </r>
       <r>  -13.8179    1.0000 </r>
       <r>  -12.6569    1.0000 </r>
       <r>  -12.5665    1.0000 </r>
       <r>   -5.5713    1.0000 </r>
       <r>   -5.2847    1.0000 </r>
       <r>   -2.7941    1.0000 </r>
       <r>   -2.7897    1.0000 </r>
       <r>   -2.5171    1.0000 </r>
       <r>   -2.5114    1.0000 </r>
       <r>   -2.4451    1.0000 </r>
       <r>   -2.0582    1.0000 </r>
       <r>   -1.6536    1.0000 </r>
       <r>   -1.6436    1.0000 </r>
       <r>   -1.3517    1.0000 </r>
       <r>   -1.0515    1.0000 </r>
       <r>   -0.2286    1.0000 </r>
       <r>    0.1567    1.0319 </r>
       <r>    2.5847   -0.0000 </r>
       <r>    2.6224   -0.0000 </r>
       <r>    2.6492   -0.0000 </r>
       <r>    2.7414   -0.0000 </r>
       <r>    2.7793   -0.0000 </r>
       <r>    2.8262   -0.0000 </r>
       <r>    2.8560   -0.0000 </r>
       <r>    2.8906   -0.0000 </r>
       <r>    5.5036    0.0000 </r>
       <r>    5.8403    0.0000 </r>
       <r>    6.5774    0.0000 </r>
       <r>    6.9588    0.0000 </r>
      </set>
      <set comment="kpoint 9">
       <r>  -34.9646    1.0000 </r>
       <r>  -34.9620    1.0000 </r>
       <r>  -34.8461    1.0000 </r>
       <r>  -34.8434    1.0000 </r>
       <r>  -34.8008    1.0000 </r>
       <r>  -34.7981    1.0000 </r>
       <r>  -13.7052    1.0000 </r>
       <r>  -13.6507    1.0000 </r>
       <r>  -12.5859    1.0000 </r>
       <r>  -12.5002    1.0000 </r>
       <r>   -5.3896    1.0000 </r>
       <r>   -5.1059    1.0000 </r>
       <r>   -3.1078    1.0000 </r>
       <r>   -3.1026    1.0000 </r>
       <r>   -2.7833    1.0000 </r>
       <r>   -2.4725    1.0000 </r>
       <r>   -2.3480    1.0000 </r>
       <r>   -2.3442    1.0000 </r>
       <r>   -1.9630    1.0000 </r>
       <r>   -1.9605    1.0000 </r>
       <r>   -1.1897    1.0000 </r>
       <r>   -0.8715    1.0000 </r>
       <r>   -0.3037    1.0000 </r>
       <r>   -0.0203    1.0002 </r>
       <r>    2.2990   -0.0000 </r>
       <r>    2.4335   -0.0000 </r>
       <r>    2.4687   -0.0000 </r>
       <r>    2.5609   -0.0000 </r>
       <r>    2.6448   -0.0000 </r>
       <r>    2.6496   -0.0000 </r>
       <r>    3.1418    0.0000 </r>
       <r>    3.1544    0.0000 </r>
       <r>    5.7438    0.0000 </r>
       <r>    6.0845    0.0000 </r>
       <r>    6.9325    0.0000 </r>
       <r>    7.6127    0.0000 </r>
      </set>
      <set comment="kpoint 10">
       <r>  -34.9509    1.0000 </r>
       <r>  -34.9483    1.0000 </r>
       <r>  -34.9137    1.0000 </r>
       <r>  -34.9109    1.0000 </r>
       <r>  -34.8193    1.0000 </r>
       <r>  -34.8166    1.0000 </r>
       <r>  -13.3925    1.0000 </r>
       <r>  -13.3398    1.0000 </r>
       <r>  -12.4537    1.0000 </r>
       <r>  -12.3772    1.0000 </r>
       <r>   -5.1099    1.0000 </r>
       <r>   -4.8477    1.0000 </r>
       <r>   -3.5505    1.0000 </r>
       <r>   -3.5333    1.0000 </r>
       <r>   -3.2183    1.0000 </r>
       <r>   -2.9938    1.0000 </r>
       <r>   -2.4534    1.0000 </r>
       <r>   -2.4292    1.0000 </r>
       <r>   -2.0630    1.0000 </r>
       <r>   -2.0606    1.0000 </r>
       <r>   -1.1583    1.0000 </r>
       <r>   -0.8857    1.0000 </r>
       <r>   -0.5321    1.0000 </r>
       <r>   -0.4021    1.0000 </r>
       <r>    1.9691   -0.0000 </r>
       <r>    2.1963   -0.0000 </r>
       <r>    2.4067   -0.0000 </r>
       <r>    2.4387   -0.0000 </r>
       <r>    2.4731   -0.0000 </r>
       <r>    2.6415   -0.0000 </r>
       <r>    3.5507    0.0000 </r>
       <r>    3.5663    0.0000 </r>
       <r>    6.1882    0.0000 </r>
       <r>    6.5069    0.0000 </r>
       <r>    7.2372    0.0000 </r>
       <r>    8.2514    0.0000 </r>
      </set>
      <set comment="kpoint 11">
       <r>  -34.9941    1.0000 </r>
       <r>  -34.9913    1.0000 </r>
       <r>  -34.9343    1.0000 </r>
       <r>  -34.9317    1.0000 </r>
       <r>  -34.8416    1.0000 </r>
       <r>  -34.8390    1.0000 </r>
       <r>  -12.9818    1.0000 </r>
       <r>  -12.9336    1.0000 </r>
       <r>  -12.2810    1.0000 </r>
       <r>  -12.2179    1.0000 </r>
       <r>   -4.9865    1.0000 </r>
       <r>   -4.8175    1.0000 </r>
       <r>   -3.8534    1.0000 </r>
       <r>   -3.7677    1.0000 </r>
       <r>   -3.7023    1.0000 </r>
       <r>   -3.5865    1.0000 </r>
       <r>   -2.8494    1.0000 </r>
       <r>   -2.7918    1.0000 </r>
       <r>   -1.7820    1.0000 </r>
       <r>   -1.7756    1.0000 </r>
       <r>   -1.3539    1.0000 </r>
       <r>   -1.1473    1.0000 </r>
       <r>   -0.8319    1.0000 </r>
       <r>   -0.7895    1.0000 </r>
       <r>    1.8607   -0.0000 </r>
       <r>    2.0781   -0.0000 </r>
       <r>    2.2914   -0.0000 </r>
       <r>    2.3859   -0.0000 </r>
       <r>    2.7507   -0.0000 </r>
       <r>    2.9709   -0.0000 </r>
       <r>    3.8994    0.0000 </r>
       <r>    3.9317    0.0000 </r>
       <r>    6.8129    0.0000 </r>
       <r>    7.0514    0.0000 </r>
       <r>    7.8273    0.0000 </r>
       <r>    8.4684    0.0000 </r>
      </set>
      <set comment="kpoint 12">
       <r>  -35.0687    1.0000 </r>
       <r>  -35.0659    1.0000 </r>
       <r>  -34.9186    1.0000 </r>
       <r>  -34.9160    1.0000 </r>
       <r>  -34.8627    1.0000 </r>
       <r>  -34.8600    1.0000 </r>
       <r>  -12.5490    1.0000 </r>
       <r>  -12.5093    1.0000 </r>
       <r>  -12.1015    1.0000 </r>
       <r>  -12.0554    1.0000 </r>
       <r>   -5.2060    1.0000 </r>
       <r>   -5.1303    1.0000 </r>
       <r>   -4.2747    1.0000 </r>
       <r>   -4.2027    1.0000 </r>
       <r>   -3.8339    1.0000 </r>
       <r>   -3.7488    1.0000 </r>
       <r>   -3.0633    1.0000 </r>
       <r>   -3.0065    1.0000 </r>
       <r>   -1.6803    1.0000 </r>
       <r>   -1.6118    1.0000 </r>
       <r>   -1.5884    1.0000 </r>
       <r>   -1.4675    1.0000 </r>
       <r>   -0.8531    1.0000 </r>
       <r>   -0.8255    1.0000 </r>
       <r>    1.9655   -0.0000 </r>
       <r>    2.1092   -0.0000 </r>
       <r>    2.3345   -0.0000 </r>
       <r>    2.4483   -0.0000 </r>
       <r>    3.1736    0.0000 </r>
       <r>    3.3988    0.0000 </r>
       <r>    4.1037    0.0000 </r>
       <r>    4.1403    0.0000 </r>
       <r>    7.3984    0.0000 </r>
       <r>    7.5378    0.0000 </r>
       <r>    7.6916    0.0000 </r>
       <r>    8.0783    0.0000 </r>
      </set>
      <set comment="kpoint 13">
       <r>  -35.1211    1.0000 </r>
       <r>  -35.1183    1.0000 </r>
       <r>  -34.9074    1.0000 </r>
       <r>  -34.9048    1.0000 </r>
       <r>  -34.8775    1.0000 </r>
       <r>  -34.8749    1.0000 </r>
       <r>  -12.2022    1.0000 </r>
       <r>  -12.1764    1.0000 </r>
       <r>  -11.9603    1.0000 </r>
       <r>  -11.9333    1.0000 </r>
       <r>   -5.4799    1.0000 </r>
       <r>   -5.4463    1.0000 </r>
       <r>   -4.6529    1.0000 </r>
       <r>   -4.6162    1.0000 </r>
       <r>   -3.9258    1.0000 </r>
       <r>   -3.8696    1.0000 </r>
       <r>   -3.1478    1.0000 </r>
       <r>   -3.1158    1.0000 </r>
       <r>   -1.8620    1.0000 </r>
       <r>   -1.7443    1.0000 </r>
       <r>   -1.4980    1.0000 </r>
       <r>   -1.4302    1.0000 </r>
       <r>   -0.6339    1.0000 </r>
       <r>   -0.6057    1.0000 </r>
       <r>    2.1172   -0.0000 </r>
       <r>    2.1692   -0.0000 </r>
       <r>    2.5105   -0.0000 </r>
       <r>    2.6027   -0.0000 </r>
       <r>    3.5760    0.0000 </r>
       <r>    3.7628    0.0000 </r>
       <r>    4.1160    0.0000 </r>
       <r>    4.1602    0.0000 </r>
       <r>    6.5924    0.0000 </r>
       <r>    6.7928    0.0000 </r>
       <r>    8.1099    0.0000 </r>
       <r>    8.2083    0.0000 </r>
      </set>
      <set comment="kpoint 14">
       <r>  -35.1399    1.0000 </r>
       <r>  -35.1371    1.0000 </r>
       <r>  -34.9034    1.0000 </r>
       <r>  -34.9008    1.0000 </r>
       <r>  -34.8829    1.0000 </r>
       <r>  -34.8802    1.0000 </r>
       <r>  -12.0628    1.0000 </r>
       <r>  -12.0505    1.0000 </r>
       <r>  -11.9034    1.0000 </r>
       <r>  -11.8907    1.0000 </r>
       <r>   -5.5903    1.0000 </r>
       <r>   -5.5754    1.0000 </r>
       <r>   -4.7892    1.0000 </r>
       <r>   -4.7693    1.0000 </r>
       <r>   -3.9937    1.0000 </r>
       <r>   -3.9458    1.0000 </r>
       <r>   -3.1628    1.0000 </r>
       <r>   -3.1516    1.0000 </r>
       <r>   -1.9344    1.0000 </r>
       <r>   -1.8390    1.0000 </r>
       <r>   -1.4275    1.0000 </r>
       <r>   -1.3727    1.0000 </r>
       <r>   -0.4990    1.0000 </r>
       <r>   -0.4662    1.0000 </r>
       <r>    2.1574   -0.0000 </r>
       <r>    2.1676   -0.0000 </r>
       <r>    2.6767   -0.0000 </r>
       <r>    2.6950   -0.0000 </r>
       <r>    3.8706    0.0000 </r>
       <r>    3.9061    0.0000 </r>
       <r>    4.0143    0.0000 </r>
       <r>    4.0724    0.0000 </r>
       <r>    6.1952    0.0000 </r>
       <r>    6.3560    0.0000 </r>
       <r>    8.3732    0.0000 </r>
       <r>    8.5474    0.0000 </r>
      </set>
      <set comment="kpoint 15">
       <r>  -35.1211    1.0000 </r>
       <r>  -35.1183    1.0000 </r>
       <r>  -34.9074    1.0000 </r>
       <r>  -34.9048    1.0000 </r>
       <r>  -34.8775    1.0000 </r>
       <r>  -34.8749    1.0000 </r>
       <r>  -12.2003    1.0000 </r>
       <r>  -12.1778    1.0000 </r>
       <r>  -11.9587    1.0000 </r>
       <r>  -11.9353    1.0000 </r>
       <r>   -5.4796    1.0000 </r>
       <r>   -5.4469    1.0000 </r>
       <r>   -4.6500    1.0000 </r>
       <r>   -4.6189    1.0000 </r>
       <r>   -3.9246    1.0000 </r>
       <r>   -3.8714    1.0000 </r>
       <r>   -3.1493    1.0000 </r>
       <r>   -3.1131    1.0000 </r>
       <r>   -1.8456    1.0000 </r>
       <r>   -1.7525    1.0000 </r>
       <r>   -1.4835    1.0000 </r>
       <r>   -1.4566    1.0000 </r>
       <r>   -0.6388    1.0000 </r>
       <r>   -0.6004    1.0000 </r>
       <r>    2.1119   -0.0000 </r>
       <r>    2.1764   -0.0000 </r>
       <r>    2.5136   -0.0000 </r>
       <r>    2.5994   -0.0000 </r>
       <r>    3.6086    0.0000 </r>
       <r>    3.7312    0.0000 </r>
       <r>    4.0995    0.0000 </r>
       <r>    4.1729    0.0000 </r>
       <r>    6.5909    0.0000 </r>
       <r>    6.7942    0.0000 </r>
       <r>    8.1175    0.0000 </r>
       <r>    8.2988    0.0000 </r>
      </set>
      <set comment="kpoint 16">
       <r>  -35.0687    1.0000 </r>
       <r>  -35.0660    1.0000 </r>
       <r>  -34.9186    1.0000 </r>
       <r>  -34.9160    1.0000 </r>
       <r>  -34.8627    1.0000 </r>
       <r>  -34.8600    1.0000 </r>
       <r>  -12.5475    1.0000 </r>
       <r>  -12.5106    1.0000 </r>
       <r>  -12.0999    1.0000 </r>
       <r>  -12.0573    1.0000 </r>
       <r>   -5.2060    1.0000 </r>
       <r>   -5.1307    1.0000 </r>
       <r>   -4.2715    1.0000 </r>
       <r>   -4.2050    1.0000 </r>
       <r>   -3.8289    1.0000 </r>
       <r>   -3.7552    1.0000 </r>
       <r>   -3.0619    1.0000 </r>
       <r>   -3.0054    1.0000 </r>
       <r>   -1.6388    1.0000 </r>
       <r>   -1.6162    1.0000 </r>
       <r>   -1.5977    1.0000 </r>
       <r>   -1.5007    1.0000 </r>
       <r>   -0.8515    1.0000 </r>
       <r>   -0.8277    1.0000 </r>
       <r>    1.9686   -0.0000 </r>
       <r>    2.1098   -0.0000 </r>
       <r>    2.3360   -0.0000 </r>
       <r>    2.4448   -0.0000 </r>
       <r>    3.2002    0.0000 </r>
       <r>    3.3695    0.0000 </r>
       <r>    4.1057    0.0000 </r>
       <r>    4.1401    0.0000 </r>
       <r>    7.3993    0.0000 </r>
       <r>    7.5204    0.0000 </r>
       <r>    7.6684    0.0000 </r>
       <r>    8.1010    0.0000 </r>
      </set>
      <set comment="kpoint 17">
       <r>  -34.9941    1.0000 </r>
       <r>  -34.9913    1.0000 </r>
       <r>  -34.9343    1.0000 </r>
       <r>  -34.9317    1.0000 </r>
       <r>  -34.8416    1.0000 </r>
       <r>  -34.8390    1.0000 </r>
       <r>  -12.9807    1.0000 </r>
       <r>  -12.9345    1.0000 </r>
       <r>  -12.2796    1.0000 </r>
       <r>  -12.2194    1.0000 </r>
       <r>   -4.9865    1.0000 </r>
       <r>   -4.8174    1.0000 </r>
       <r>   -3.8457    1.0000 </r>
       <r>   -3.7746    1.0000 </r>
       <r>   -3.7011    1.0000 </r>
       <r>   -3.5894    1.0000 </r>
       <r>   -2.8455    1.0000 </r>
       <r>   -2.7935    1.0000 </r>
       <r>   -1.7827    1.0000 </r>
       <r>   -1.7729    1.0000 </r>
       <r>   -1.3365    1.0000 </r>
       <r>   -1.1676    1.0000 </r>
       <r>   -0.8276    1.0000 </r>
       <r>   -0.8005    1.0000 </r>
       <r>    1.8680   -0.0000 </r>
       <r>    2.0733   -0.0000 </r>
       <r>    2.2931   -0.0000 </r>
       <r>    2.3824   -0.0000 </r>
       <r>    2.7695   -0.0000 </r>
       <r>    2.9531   -0.0000 </r>
       <r>    3.9002    0.0000 </r>
       <r>    3.9341    0.0000 </r>
       <r>    6.8083    0.0000 </r>
       <r>    7.0517    0.0000 </r>
       <r>    7.7862    0.0000 </r>
       <r>    8.4185    0.0000 </r>
      </set>
      <set comment="kpoint 18">
       <r>  -34.9509    1.0000 </r>
       <r>  -34.9483    1.0000 </r>
       <r>  -34.9137    1.0000 </r>
       <r>  -34.9110    1.0000 </r>
       <r>  -34.8193    1.0000 </r>
       <r>  -34.8166    1.0000 </r>
       <r>  -13.3918    1.0000 </r>
       <r>  -13.3404    1.0000 </r>
       <r>  -12.4527    1.0000 </r>
       <r>  -12.3782    1.0000 </r>
       <r>   -5.1088    1.0000 </r>
       <r>   -4.8484    1.0000 </r>
       <r>   -3.5478    1.0000 </r>
       <r>   -3.5358    1.0000 </r>
       <r>   -3.2202    1.0000 </r>
       <r>   -2.9921    1.0000 </r>
       <r>   -2.4493    1.0000 </r>
       <r>   -2.4326    1.0000 </r>
       <r>   -2.0636    1.0000 </r>
       <r>   -2.0599    1.0000 </r>
       <r>   -1.1385    1.0000 </r>
       <r>   -0.9017    1.0000 </r>
       <r>   -0.5250    1.0000 </r>
       <r>   -0.4238    1.0000 </r>
       <r>    1.9784   -0.0000 </r>
       <r>    2.1983   -0.0000 </r>
       <r>    2.4065   -0.0000 </r>
       <r>    2.4294   -0.0000 </r>
       <r>    2.4879   -0.0000 </r>
       <r>    2.6334   -0.0000 </r>
       <r>    3.5440    0.0000 </r>
       <r>    3.5750    0.0000 </r>
       <r>    6.1898    0.0000 </r>
       <r>    6.5063    0.0000 </r>
       <r>    7.2290    0.0000 </r>
       <r>    8.2170    0.0000 </r>
      </set>
      <set comment="kpoint 19">
       <r>  -34.9646    1.0000 </r>
       <r>  -34.9620    1.0000 </r>
       <r>  -34.8461    1.0000 </r>
       <r>  -34.8434    1.0000 </r>
       <r>  -34.8008    1.0000 </r>
       <r>  -34.7981    1.0000 </r>
       <r>  -13.7048    1.0000 </r>
       <r>  -13.6511    1.0000 </r>
       <r>  -12.5853    1.0000 </r>
       <r>  -12.5008    1.0000 </r>
       <r>   -5.3885    1.0000 </r>
       <r>   -5.1068    1.0000 </r>
       <r>   -3.1096    1.0000 </r>
       <r>   -3.1006    1.0000 </r>
       <r>   -2.7857    1.0000 </r>
       <r>   -2.4704    1.0000 </r>
       <r>   -2.3473    1.0000 </r>
       <r>   -2.3449    1.0000 </r>
       <r>   -1.9637    1.0000 </r>
       <r>   -1.9593    1.0000 </r>
       <r>   -1.1717    1.0000 </r>
       <r>   -0.8862    1.0000 </r>
       <r>   -0.2987    1.0000 </r>
       <r>   -0.0408    1.0001 </r>
       <r>    2.3258   -0.0000 </r>
       <r>    2.4353   -0.0000 </r>
       <r>    2.4799   -0.0000 </r>
       <r>    2.5426   -0.0000 </r>
       <r>    2.6346   -0.0000 </r>
       <r>    2.6514   -0.0000 </r>
       <r>    3.1374    0.0000 </r>
       <r>    3.1588    0.0000 </r>
       <r>    5.7441    0.0000 </r>
       <r>    6.0839    0.0000 </r>
       <r>    6.9377    0.0000 </r>
       <r>    7.6022    0.0000 </r>
      </set>
      <set comment="kpoint 20">
       <r>  -34.9724    1.0000 </r>
       <r>  -34.9698    1.0000 </r>
       <r>  -34.8071    1.0000 </r>
       <r>  -34.8045    1.0000 </r>
       <r>  -34.7908    1.0000 </r>
       <r>  -34.7880    1.0000 </r>
       <r>  -13.8728    1.0000 </r>
       <r>  -13.8180    1.0000 </r>
       <r>  -12.6567    1.0000 </r>
       <r>  -12.5668    1.0000 </r>
       <r>   -5.5709    1.0000 </r>
       <r>   -5.2851    1.0000 </r>
       <r>   -2.7942    1.0000 </r>
       <r>   -2.7894    1.0000 </r>
       <r>   -2.5152    1.0000 </r>
       <r>   -2.5134    1.0000 </r>
       <r>   -2.4464    1.0000 </r>
       <r>   -2.0582    1.0000 </r>
       <r>   -1.6497    1.0000 </r>
       <r>   -1.6477    1.0000 </r>
       <r>   -1.3393    1.0000 </r>
       <r>   -1.0613    1.0000 </r>
       <r>   -0.2269    1.0000 </r>
       <r>    0.1485    1.0349 </r>
       <r>    2.6100   -0.0000 </r>
       <r>    2.6165   -0.0000 </r>
       <r>    2.6633   -0.0000 </r>
       <r>    2.7082   -0.0000 </r>
       <r>    2.8077   -0.0000 </r>
       <r>    2.8132   -0.0000 </r>
       <r>    2.8668   -0.0000 </r>
       <r>    2.8701   -0.0000 </r>
       <r>    5.5037    0.0000 </r>
       <r>    5.8400    0.0000 </r>
       <r>    6.5789    0.0000 </r>
       <r>    6.9601    0.0000 </r>
      </set>
      <set comment="kpoint 21">
       <r>  -34.9610    1.0000 </r>
       <r>  -34.9584    1.0000 </r>
       <r>  -34.8656    1.0000 </r>
       <r>  -34.8629    1.0000 </r>
       <r>  -34.8042    1.0000 </r>
       <r>  -34.8015    1.0000 </r>
       <r>  -13.6246    1.0000 </r>
       <r>  -13.5700    1.0000 </r>
       <r>  -12.5522    1.0000 </r>
       <r>  -12.4679    1.0000 </r>
       <r>   -5.3115    1.0000 </r>
       <r>   -5.0304    1.0000 </r>
       <r>   -3.2489    1.0000 </r>
       <r>   -3.2331    1.0000 </r>
       <r>   -2.9450    1.0000 </r>
       <r>   -2.6737    1.0000 </r>
       <r>   -2.2624    1.0000 </r>
       <r>   -2.2549    1.0000 </r>
       <r>   -1.9891    1.0000 </r>
       <r>   -1.9782    1.0000 </r>
       <r>   -1.2763    1.0000 </r>
       <r>   -0.9140    1.0000 </r>
       <r>   -0.3623    1.0000 </r>
       <r>   -0.1076    1.0000 </r>
       <r>    2.1683   -0.0000 </r>
       <r>    2.3771   -0.0000 </r>
       <r>    2.5040   -0.0000 </r>
       <r>    2.5569   -0.0000 </r>
       <r>    2.6022   -0.0000 </r>
       <r>    2.6470   -0.0000 </r>
       <r>    3.1963    0.0000 </r>
       <r>    3.2378    0.0000 </r>
       <r>    5.8561    0.0000 </r>
       <r>    6.1919    0.0000 </r>
       <r>    7.0040    0.0000 </r>
       <r>    7.8547    0.0000 </r>
      </set>
      <set comment="kpoint 22">
       <r>  -34.9509    1.0000 </r>
       <r>  -34.9483    1.0000 </r>
       <r>  -34.9137    1.0000 </r>
       <r>  -34.9109    1.0000 </r>
       <r>  -34.8193    1.0000 </r>
       <r>  -34.8166    1.0000 </r>
       <r>  -13.3930    1.0000 </r>
       <r>  -13.3394    1.0000 </r>
       <r>  -12.4544    1.0000 </r>
       <r>  -12.3763    1.0000 </r>
       <r>   -5.1106    1.0000 </r>
       <r>   -4.8472    1.0000 </r>
       <r>   -3.5580    1.0000 </r>
       <r>   -3.5257    1.0000 </r>
       <r>   -3.2189    1.0000 </r>
       <r>   -2.9922    1.0000 </r>
       <r>   -2.4524    1.0000 </r>
       <r>   -2.4314    1.0000 </r>
       <r>   -2.0651    1.0000 </r>
       <r>   -2.0582    1.0000 </r>
       <r>   -1.1809    1.0000 </r>
       <r>   -0.8690    1.0000 </r>
       <r>   -0.5380    1.0000 </r>
       <r>   -0.3797    1.0000 </r>
       <r>    1.9567   -0.0000 </r>
       <r>    2.1959   -0.0000 </r>
       <r>    2.4109   -0.0000 </r>
       <r>    2.4216   -0.0000 </r>
       <r>    2.4816   -0.0000 </r>
       <r>    2.6459   -0.0000 </r>
       <r>    3.5568    0.0000 </r>
       <r>    3.5621    0.0000 </r>
       <r>    6.1889    0.0000 </r>
       <r>    6.5092    0.0000 </r>
       <r>    7.2273    0.0000 </r>
       <r>    8.2223    0.0000 </r>
      </set>
      <set comment="kpoint 23">
       <r>  -34.9758    1.0000 </r>
       <r>  -34.9731    1.0000 </r>
       <r>  -34.9366    1.0000 </r>
       <r>  -34.9340    1.0000 </r>
       <r>  -34.8456    1.0000 </r>
       <r>  -34.8430    1.0000 </r>
       <r>  -13.0441    1.0000 </r>
       <r>  -12.9934    1.0000 </r>
       <r>  -12.3065    1.0000 </r>
       <r>  -12.2388    1.0000 </r>
       <r>   -4.9376    1.0000 </r>
       <r>   -4.7420    1.0000 </r>
       <r>   -3.8035    1.0000 </r>
       <r>   -3.7181    1.0000 </r>
       <r>   -3.5107    1.0000 </r>
       <r>   -3.3869    1.0000 </r>
       <r>   -3.0845    1.0000 </r>
       <r>   -2.9828    1.0000 </r>
       <r>   -1.9330    1.0000 </r>
       <r>   -1.9276    1.0000 </r>
       <r>   -1.1437    1.0000 </r>
       <r>   -0.9166    1.0000 </r>
       <r>   -0.7710    1.0000 </r>
       <r>   -0.7102    1.0000 </r>
       <r>    1.7692   -0.0000 </r>
       <r>    1.9996   -0.0000 </r>
       <r>    2.3331   -0.0000 </r>
       <r>    2.4149   -0.0000 </r>
       <r>    2.5270   -0.0000 </r>
       <r>    2.7246   -0.0000 </r>
       <r>    3.9431    0.0000 </r>
       <r>    3.9900    0.0000 </r>
       <r>    6.7246    0.0000 </r>
       <r>    6.9999    0.0000 </r>
       <r>    7.7366    0.0000 </r>
       <r>    8.5741    0.0000 </r>
      </set>
      <set comment="kpoint 24">
       <r>  -35.0387    1.0000 </r>
       <r>  -35.0359    1.0000 </r>
       <r>  -34.9214    1.0000 </r>
       <r>  -34.9188    1.0000 </r>
       <r>  -34.8759    1.0000 </r>
       <r>  -34.8733    1.0000 </r>
       <r>  -12.6370    1.0000 </r>
       <r>  -12.5923    1.0000 </r>
       <r>  -12.1336    1.0000 </r>
       <r>  -12.0799    1.0000 </r>
       <r>   -5.0137    1.0000 </r>
       <r>   -4.9104    1.0000 </r>
       <r>   -4.0893    1.0000 </r>
       <r>   -4.0447    1.0000 </r>
       <r>   -3.7637    1.0000 </r>
       <r>   -3.6440    1.0000 </r>
       <r>   -3.3038    1.0000 </r>
       <r>   -3.1556    1.0000 </r>
       <r>   -2.0626    1.0000 </r>
       <r>   -2.0463    1.0000 </r>
       <r>   -1.3369    1.0000 </r>
       <r>   -1.1826    1.0000 </r>
       <r>   -0.8230    1.0000 </r>
       <r>   -0.8094    1.0000 </r>
       <r>    1.7954   -0.0000 </r>
       <r>    2.0532   -0.0000 </r>
       <r>    2.4036   -0.0000 </r>
       <r>    2.4605   -0.0000 </r>
       <r>    2.7781   -0.0000 </r>
       <r>    2.9920   -0.0000 </r>
       <r>    4.1994    0.0000 </r>
       <r>    4.2683    0.0000 </r>
       <r>    7.4019    0.0000 </r>
       <r>    7.5824    0.0000 </r>
       <r>    8.2596    0.0000 </r>
       <r>    8.4300    0.0000 </r>
      </set>
      <set comment="kpoint 25">
       <r>  -35.0893    1.0000 </r>
       <r>  -35.0865    1.0000 </r>
       <r>  -34.9089    1.0000 </r>
       <r>  -34.9062    1.0000 </r>
       <r>  -34.9019    1.0000 </r>
       <r>  -34.8993    1.0000 </r>
       <r>  -12.2601    1.0000 </r>
       <r>  -12.2260    1.0000 </r>
       <r>  -11.9739    1.0000 </r>
       <r>  -11.9370    1.0000 </r>
       <r>   -5.2100    1.0000 </r>
       <r>   -5.1533    1.0000 </r>
       <r>   -4.6249    1.0000 </r>
       <r>   -4.6010    1.0000 </r>
       <r>   -3.7641    1.0000 </r>
       <r>   -3.6893    1.0000 </r>
       <r>   -3.2720    1.0000 </r>
       <r>   -3.1584    1.0000 </r>
       <r>   -2.2200    1.0000 </r>
       <r>   -2.1479    1.0000 </r>
       <r>   -1.6506    1.0000 </r>
       <r>   -1.5427    1.0000 </r>
       <r>   -0.6487    1.0000 </r>
       <r>   -0.6354    1.0000 </r>
       <r>    2.0213   -0.0000 </r>
       <r>    2.2194   -0.0000 </r>
       <r>    2.5234   -0.0000 </r>
       <r>    2.5642   -0.0000 </r>
       <r>    3.1187    0.0000 </r>
       <r>    3.3221    0.0000 </r>
       <r>    4.2893    0.0000 </r>
       <r>    4.3526    0.0000 </r>
       <r>    7.2274    0.0000 </r>
       <r>    7.4102    0.0000 </r>
       <r>    8.2460    0.0000 </r>
       <r>    8.4812    0.0000 </r>
      </set>
      <set comment="kpoint 26">
       <r>  -35.1175    1.0000 </r>
       <r>  -35.1147    1.0000 </r>
       <r>  -34.9168    1.0000 </r>
       <r>  -34.9141    1.0000 </r>
       <r>  -34.9017    1.0000 </r>
       <r>  -34.8991    1.0000 </r>
       <r>  -12.0232    1.0000 </r>
       <r>  -12.0040    1.0000 </r>
       <r>  -11.8732    1.0000 </r>
       <r>  -11.8539    1.0000 </r>
       <r>   -5.3312    1.0000 </r>
       <r>   -5.3069    1.0000 </r>
       <r>   -4.9290    1.0000 </r>
       <r>   -4.9129    1.0000 </r>
       <r>   -3.8955    1.0000 </r>
       <r>   -3.8454    1.0000 </r>
       <r>   -3.1666    1.0000 </r>
       <r>   -3.1187    1.0000 </r>
       <r>   -2.2260    1.0000 </r>
       <r>   -2.1363    1.0000 </r>
       <r>   -1.8973    1.0000 </r>
       <r>   -1.8000    1.0000 </r>
       <r>   -0.4167    1.0000 </r>
       <r>   -0.3991    1.0000 </r>
       <r>    2.0769   -0.0000 </r>
       <r>    2.1163   -0.0000 </r>
       <r>    2.7867   -0.0000 </r>
       <r>    2.8480   -0.0000 </r>
       <r>    3.3845    0.0000 </r>
       <r>    3.5308    0.0000 </r>
       <r>    4.2592    0.0000 </r>
       <r>    4.3214    0.0000 </r>
       <r>    6.5465    0.0000 </r>
       <r>    6.7333    0.0000 </r>
       <r>    8.7719    0.0000 </r>
       <r>    8.8271    0.0000 </r>
      </set>
      <set comment="kpoint 27">
       <r>  -35.1175    1.0000 </r>
       <r>  -35.1147    1.0000 </r>
       <r>  -34.9168    1.0000 </r>
       <r>  -34.9141    1.0000 </r>
       <r>  -34.9017    1.0000 </r>
       <r>  -34.8991    1.0000 </r>
       <r>  -12.0199    1.0000 </r>
       <r>  -12.0066    1.0000 </r>
       <r>  -11.8706    1.0000 </r>
       <r>  -11.8571    1.0000 </r>
       <r>   -5.3306    1.0000 </r>
       <r>   -5.3080    1.0000 </r>
       <r>   -4.9271    1.0000 </r>
       <r>   -4.9145    1.0000 </r>
       <r>   -3.8951    1.0000 </r>
       <r>   -3.8456    1.0000 </r>
       <r>   -3.1685    1.0000 </r>
       <r>   -3.1155    1.0000 </r>
       <r>   -2.2081    1.0000 </r>
       <r>   -2.1459    1.0000 </r>
       <r>   -1.9036    1.0000 </r>
       <r>   -1.8054    1.0000 </r>
       <r>   -0.4167    1.0000 </r>
       <r>   -0.3984    1.0000 </r>
       <r>    2.0730   -0.0000 </r>
       <r>    2.1200   -0.0000 </r>
       <r>    2.7856   -0.0000 </r>
       <r>    2.8498   -0.0000 </r>
       <r>    3.4328    0.0000 </r>
       <r>    3.4792    0.0000 </r>
       <r>    4.2575    0.0000 </r>
       <r>    4.3230    0.0000 </r>
       <r>    6.5460    0.0000 </r>
       <r>    6.7365    0.0000 </r>
       <r>    8.8619    0.0000 </r>
       <r>    9.1534    0.0000 </r>
      </set>
      <set comment="kpoint 28">
       <r>  -35.0893    1.0000 </r>
       <r>  -35.0865    1.0000 </r>
       <r>  -34.9089    1.0000 </r>
       <r>  -34.9062    1.0000 </r>
       <r>  -34.9019    1.0000 </r>
       <r>  -34.8992    1.0000 </r>
       <r>  -12.2561    1.0000 </r>
       <r>  -12.2291    1.0000 </r>
       <r>  -11.9702    1.0000 </r>
       <r>  -11.9415    1.0000 </r>
       <r>   -5.2100    1.0000 </r>
       <r>   -5.1543    1.0000 </r>
       <r>   -4.6203    1.0000 </r>
       <r>   -4.6057    1.0000 </r>
       <r>   -3.7553    1.0000 </r>
       <r>   -3.6967    1.0000 </r>
       <r>   -3.2694    1.0000 </r>
       <r>   -3.1579    1.0000 </r>
       <r>   -2.1960    1.0000 </r>
       <r>   -2.1658    1.0000 </r>
       <r>   -1.6458    1.0000 </r>
       <r>   -1.5634    1.0000 </r>
       <r>   -0.6498    1.0000 </r>
       <r>   -0.6324    1.0000 </r>
       <r>    2.0163   -0.0000 </r>
       <r>    2.2277   -0.0000 </r>
       <r>    2.5282   -0.0000 </r>
       <r>    2.5571   -0.0000 </r>
       <r>    3.1645    0.0000 </r>
       <r>    3.2704    0.0000 </r>
       <r>    4.2946    0.0000 </r>
       <r>    4.3495    0.0000 </r>
       <r>    7.2113    0.0000 </r>
       <r>    7.4283    0.0000 </r>
       <r>    8.2442    0.0000 </r>
       <r>    8.4162    0.0000 </r>
      </set>
      <set comment="kpoint 29">
       <r>  -35.0387    1.0000 </r>
       <r>  -35.0359    1.0000 </r>
       <r>  -34.9214    1.0000 </r>
       <r>  -34.9189    1.0000 </r>
       <r>  -34.8759    1.0000 </r>
       <r>  -34.8733    1.0000 </r>
       <r>  -12.6340    1.0000 </r>
       <r>  -12.5947    1.0000 </r>
       <r>  -12.1303    1.0000 </r>
       <r>  -12.0838    1.0000 </r>
       <r>   -5.0148    1.0000 </r>
       <r>   -4.9100    1.0000 </r>
       <r>   -4.0857    1.0000 </r>
       <r>   -4.0516    1.0000 </r>
       <r>   -3.7388    1.0000 </r>
       <r>   -3.6629    1.0000 </r>
       <r>   -3.2990    1.0000 </r>
       <r>   -3.1591    1.0000 </r>
       <r>   -2.0661    1.0000 </r>
       <r>   -2.0412    1.0000 </r>
       <r>   -1.3066    1.0000 </r>
       <r>   -1.2244    1.0000 </r>
       <r>   -0.8314    1.0000 </r>
       <r>   -0.8019    1.0000 </r>
       <r>    1.7980   -0.0000 </r>
       <r>    2.0533   -0.0000 </r>
       <r>    2.4069   -0.0000 </r>
       <r>    2.4534   -0.0000 </r>
       <r>    2.8025   -0.0000 </r>
       <r>    2.9691   -0.0000 </r>
       <r>    4.2128    0.0000 </r>
       <r>    4.2578    0.0000 </r>
       <r>    7.4012    0.0000 </r>
       <r>    7.5825    0.0000 </r>
       <r>    8.1736    0.0000 </r>
       <r>    8.4857    0.0000 </r>
      </set>
      <set comment="kpoint 30">
       <r>  -34.9758    1.0000 </r>
       <r>  -34.9731    1.0000 </r>
       <r>  -34.9366    1.0000 </r>
       <r>  -34.9340    1.0000 </r>
       <r>  -34.8456    1.0000 </r>
       <r>  -34.8429    1.0000 </r>
       <r>  -13.0420    1.0000 </r>
       <r>  -12.9950    1.0000 </r>
       <r>  -12.3039    1.0000 </r>
       <r>  -12.2417    1.0000 </r>
       <r>   -4.9379    1.0000 </r>
       <r>   -4.7410    1.0000 </r>
       <r>   -3.7849    1.0000 </r>
       <r>   -3.7396    1.0000 </r>
       <r>   -3.5084    1.0000 </r>
       <r>   -3.3860    1.0000 </r>
       <r>   -3.0759    1.0000 </r>
       <r>   -2.9902    1.0000 </r>
       <r>   -1.9369    1.0000 </r>
       <r>   -1.9233    1.0000 </r>
       <r>   -1.0996    1.0000 </r>
       <r>   -0.9528    1.0000 </r>
       <r>   -0.7645    1.0000 </r>
       <r>   -0.7405    1.0000 </r>
       <r>    1.7767   -0.0000 </r>
       <r>    1.9982   -0.0000 </r>
       <r>    2.3369   -0.0000 </r>
       <r>    2.4100   -0.0000 </r>
       <r>    2.5388   -0.0000 </r>
       <r>    2.7188   -0.0000 </r>
       <r>    3.9448    0.0000 </r>
       <r>    3.9896    0.0000 </r>
       <r>    6.7264    0.0000 </r>
       <r>    6.9968    0.0000 </r>
       <r>    7.7560    0.0000 </r>
       <r>    8.8094    0.0000 </r>
      </set>
      <set comment="kpoint 31">
       <r>  -34.9509    1.0000 </r>
       <r>  -34.9483    1.0000 </r>
       <r>  -34.9137    1.0000 </r>
       <r>  -34.9110    1.0000 </r>
       <r>  -34.8193    1.0000 </r>
       <r>  -34.8166    1.0000 </r>
       <r>  -13.3918    1.0000 </r>
       <r>  -13.3404    1.0000 </r>
       <r>  -12.4527    1.0000 </r>
       <r>  -12.3782    1.0000 </r>
       <r>   -5.1088    1.0000 </r>
       <r>   -4.8484    1.0000 </r>
       <r>   -3.5477    1.0000 </r>
       <r>   -3.5358    1.0000 </r>
       <r>   -3.2202    1.0000 </r>
       <r>   -2.9920    1.0000 </r>
       <r>   -2.4493    1.0000 </r>
       <r>   -2.4325    1.0000 </r>
       <r>   -2.0636    1.0000 </r>
       <r>   -2.0600    1.0000 </r>
       <r>   -1.1385    1.0000 </r>
       <r>   -0.9017    1.0000 </r>
       <r>   -0.5250    1.0000 </r>
       <r>   -0.4238    1.0000 </r>
       <r>    1.9784   -0.0000 </r>
       <r>    2.1983   -0.0000 </r>
       <r>    2.4064   -0.0000 </r>
       <r>    2.4294   -0.0000 </r>
       <r>    2.4879   -0.0000 </r>
       <r>    2.6334   -0.0000 </r>
       <r>    3.5440    0.0000 </r>
       <r>    3.5750    0.0000 </r>
       <r>    6.1886    0.0000 </r>
       <r>    6.5063    0.0000 </r>
       <r>    7.2421    0.0000 </r>
       <r>    8.4592    0.0000 </r>
      </set>
      <set comment="kpoint 32">
       <r>  -34.9610    1.0000 </r>
       <r>  -34.9584    1.0000 </r>
       <r>  -34.8656    1.0000 </r>
       <r>  -34.8630    1.0000 </r>
       <r>  -34.8042    1.0000 </r>
       <r>  -34.8014    1.0000 </r>
       <r>  -13.6240    1.0000 </r>
       <r>  -13.5705    1.0000 </r>
       <r>  -12.5513    1.0000 </r>
       <r>  -12.4689    1.0000 </r>
       <r>   -5.3101    1.0000 </r>
       <r>   -5.0316    1.0000 </r>
       <r>   -3.2443    1.0000 </r>
       <r>   -3.2374    1.0000 </r>
       <r>   -2.9462    1.0000 </r>
       <r>   -2.6742    1.0000 </r>
       <r>   -2.2597    1.0000 </r>
       <r>   -2.2576    1.0000 </r>
       <r>   -1.9850    1.0000 </r>
       <r>   -1.9825    1.0000 </r>
       <r>   -1.2437    1.0000 </r>
       <r>   -0.9393    1.0000 </r>
       <r>   -0.3545    1.0000 </r>
       <r>   -0.1382    1.0000 </r>
       <r>    2.2026   -0.0000 </r>
       <r>    2.3730   -0.0000 </r>
       <r>    2.5135   -0.0000 </r>
       <r>    2.5755   -0.0000 </r>
       <r>    2.5845   -0.0000 </r>
       <r>    2.6259   -0.0000 </r>
       <r>    3.2136    0.0000 </r>
       <r>    3.2195    0.0000 </r>
       <r>    5.8518    0.0000 </r>
       <r>    6.1900    0.0000 </r>
       <r>    6.9119    0.0000 </r>
       <r>    7.7931    0.0000 </r>
      </set>
      <set comment="kpoint 33">
       <r>  -34.9646    1.0000 </r>
       <r>  -34.9620    1.0000 </r>
       <r>  -34.8461    1.0000 </r>
       <r>  -34.8434    1.0000 </r>
       <r>  -34.8009    1.0000 </r>
       <r>  -34.7981    1.0000 </r>
       <r>  -13.7052    1.0000 </r>
       <r>  -13.6507    1.0000 </r>
       <r>  -12.5859    1.0000 </r>
       <r>  -12.5002    1.0000 </r>
       <r>   -5.3896    1.0000 </r>
       <r>   -5.1059    1.0000 </r>
       <r>   -3.1078    1.0000 </r>
       <r>   -3.1026    1.0000 </r>
       <r>   -2.7833    1.0000 </r>
       <r>   -2.4725    1.0000 </r>
       <r>   -2.3479    1.0000 </r>
       <r>   -2.3443    1.0000 </r>
       <r>   -1.9632    1.0000 </r>
       <r>   -1.9604    1.0000 </r>
       <r>   -1.1897    1.0000 </r>
       <r>   -0.8715    1.0000 </r>
       <r>   -0.3037    1.0000 </r>
       <r>   -0.0203    1.0002 </r>
       <r>    2.2991   -0.0000 </r>
       <r>    2.4334   -0.0000 </r>
       <r>    2.4687   -0.0000 </r>
       <r>    2.5609   -0.0000 </r>
       <r>    2.6448   -0.0000 </r>
       <r>    2.6495   -0.0000 </r>
       <r>    3.1420    0.0000 </r>
       <r>    3.1544    0.0000 </r>
       <r>    5.7440    0.0000 </r>
       <r>    6.0845    0.0000 </r>
       <r>    6.9354    0.0000 </r>
       <r>    7.5997    0.0000 </r>
      </set>
      <set comment="kpoint 34">
       <r>  -34.9472    1.0000 </r>
       <r>  -34.9448    1.0000 </r>
       <r>  -34.9445    1.0000 </r>
       <r>  -34.9422    1.0000 </r>
       <r>  -34.8230    1.0000 </r>
       <r>  -34.8203    1.0000 </r>
       <r>  -13.2497    1.0000 </r>
       <r>  -13.1964    1.0000 </r>
       <r>  -12.3951    1.0000 </r>
       <r>  -12.3200    1.0000 </r>
       <r>   -5.0475    1.0000 </r>
       <r>   -4.8140    1.0000 </r>
       <r>   -3.7240    1.0000 </r>
       <r>   -3.6504    1.0000 </r>
       <r>   -3.4777    1.0000 </r>
       <r>   -3.2901    1.0000 </r>
       <r>   -2.3848    1.0000 </r>
       <r>   -2.3728    1.0000 </r>
       <r>   -1.8947    1.0000 </r>
       <r>   -1.8834    1.0000 </r>
       <r>   -1.4614    1.0000 </r>
       <r>   -1.0928    1.0000 </r>
       <r>   -0.6843    1.0000 </r>
       <r>   -0.5476    1.0000 </r>
       <r>    1.9442   -0.0000 </r>
       <r>    2.2510   -0.0000 </r>
       <r>    2.3090   -0.0000 </r>
       <r>    2.3515   -0.0000 </r>
       <r>    2.6995   -0.0000 </r>
       <r>    2.9207   -0.0000 </r>
       <r>    3.5744    0.0000 </r>
       <r>    3.6269    0.0000 </r>
       <r>    6.3916    0.0000 </r>
       <r>    6.6864    0.0000 </r>
       <r>    7.3840    0.0000 </r>
       <r>    8.2212    0.0000 </r>
      </set>
      <set comment="kpoint 35">
       <r>  -34.9940    1.0000 </r>
       <r>  -34.9913    1.0000 </r>
       <r>  -34.9343    1.0000 </r>
       <r>  -34.9317    1.0000 </r>
       <r>  -34.8417    1.0000 </r>
       <r>  -34.8390    1.0000 </r>
       <r>  -12.9837    1.0000 </r>
       <r>  -12.9321    1.0000 </r>
       <r>  -12.2833    1.0000 </r>
       <r>  -12.2153    1.0000 </r>
       <r>   -4.9858    1.0000 </r>
       <r>   -4.8176    1.0000 </r>
       <r>   -3.8751    1.0000 </r>
       <r>   -3.7378    1.0000 </r>
       <r>   -3.7168    1.0000 </r>
       <r>   -3.5814    1.0000 </r>
       <r>   -2.8480    1.0000 </r>
       <r>   -2.7930    1.0000 </r>
       <r>   -1.7838    1.0000 </r>
       <r>   -1.7721    1.0000 </r>
       <r>   -1.4038    1.0000 </r>
       <r>   -1.1067    1.0000 </r>
       <r>   -0.8423    1.0000 </r>
       <r>   -0.7579    1.0000 </r>
       <r>    1.8606   -0.0000 </r>
       <r>    2.0681   -0.0000 </r>
       <r>    2.2950   -0.0000 </r>
       <r>    2.3764   -0.0000 </r>
       <r>    2.7598   -0.0000 </r>
       <r>    2.9593   -0.0000 </r>
       <r>    3.9118    0.0000 </r>
       <r>    3.9250    0.0000 </r>
       <r>    6.8058    0.0000 </r>
       <r>    7.0616    0.0000 </r>
       <r>    7.7952    0.0000 </r>
       <r>    8.3838    0.0000 </r>
      </set>
      <set comment="kpoint 36">
       <r>  -35.0386    1.0000 </r>
       <r>  -35.0359    1.0000 </r>
       <r>  -34.9214    1.0000 </r>
       <r>  -34.9188    1.0000 </r>
       <r>  -34.8760    1.0000 </r>
       <r>  -34.8733    1.0000 </r>
[...]
       <r>    -2.1123     2.3015    18.6403 </r>
       <r>    -1.9499     3.8045    19.2582 </r>
       <r>    -1.7874     3.5210    19.8300 </r>
       <r>    -1.6250     3.2435    20.3568 </r>
       <r>    -1.4626     2.9750    20.8400 </r>
       <r>    -1.3002     2.6154    21.2648 </r>
       <r>    -1.1378     1.9654    21.5840 </r>
       <r>    -0.9754     1.5136    21.8298 </r>
       <r>    -0.8130     3.2930    22.3646 </r>
       <r>    -0.6505     2.9965    22.8513 </r>
       <r>    -0.4881     2.3768    23.2373 </r>
       <r>    -0.3257     2.5976    23.6592 </r>
       <r>    -0.1633     1.0775    23.8342 </r>
       <r>    -0.0009     0.7210    23.9513 </r>
       <r>     0.1615     0.1776    23.9802 </r>
       <r>     0.3239     0.1267    24.0007 </r>
       <r>     0.4864    -0.0045    24.0000 </r>
       <r>     0.6488    -0.0000    24.0000 </r>
       <r>     0.8112    -0.0000    24.0000 </r>
       <r>     0.9736    -0.0000    24.0000 </r>
       <r>     1.1360    -0.0000    24.0000 </r>
       <r>     1.2984    -0.0000    24.0000 </r>
       <r>     1.4608    -0.0009    23.9998 </r>
       <r>     1.6233    -0.0031    23.9993 </r>
       <r>     1.7857     0.7605    24.1229 </r>
       <r>     1.9481     1.8236    24.4190 </r>
       <r>     2.1105     4.5942    25.1652 </r>
       <r>     2.2729     4.3617    25.8736 </r>
       <r>     2.4353     4.2003    26.5558 </r>
       <r>     2.5977     5.2405    27.4069 </r>
       <r>     2.7602     3.8583    28.0336 </r>
       <r>     2.9226     3.1253    28.5412 </r>
       <r>     3.0850     2.5077    28.9484 </r>
       <r>     3.2474     3.0388    29.4420 </r>
       <r>     3.4098     1.7036    29.7187 </r>
       <r>     3.5722     1.9202    30.0305 </r>
       <r>     3.7346     1.3799    30.2546 </r>
       <r>     3.8971     1.3504    30.4740 </r>
       <r>     4.0595     2.0013    30.7990 </r>
       <r>     4.2219     3.0404    31.2928 </r>
       <r>     4.3843     2.0377    31.6238 </r>
       <r>     4.5467     1.1882    31.8168 </r>
       <r>     4.7091     0.8880    31.9610 </r>
       <r>     4.8715     0.2494    32.0015 </r>
       <r>     5.0340    -0.0090    32.0000 </r>
       <r>     5.1964    -0.0007    31.9999 </r>
       <r>     5.3588     0.0083    32.0013 </r>
       <r>     5.5212     0.1695    32.0288 </r>
       <r>     5.6836     0.1034    32.0456 </r>
       <r>     5.8460     0.4506    32.1187 </r>
       <r>     6.0084     0.3529    32.1761 </r>
       <r>     6.1709     0.5324    32.2625 </r>
       <r>     6.3333     0.9619    32.4188 </r>
       <r>     6.4957     0.7922    32.5474 </r>
       <r>     6.6581     1.2646    32.7528 </r>
       <r>     6.8205     1.3405    32.9705 </r>
       <r>     6.9829     1.6002    33.2304 </r>
       <r>     7.1453     1.7037    33.5071 </r>
       <r>     7.3078     1.5168    33.7535 </r>
       <r>     7.4702     1.5742    34.0092 </r>
       <r>     7.6326     1.6227    34.2727 </r>
       <r>     7.7950     1.2276    34.4721 </r>
       <r>     7.9574     1.2494    34.6750 </r>
       <r>     8.1198     1.3455    34.8935 </r>
       <r>     8.2822     2.3274    35.2715 </r>
       <r>     8.4447     1.7356    35.5534 </r>
       <r>     8.6071     1.1812    35.7453 </r>
       <r>     8.7695     0.7657    35.8696 </r>
       <r>     8.9319     0.5452    35.9582 </r>
       <r>     9.0943     0.1653    35.9850 </r>
       <r>     9.2567     0.0956    36.0006 </r>
       <r>     9.4191    -0.0034    36.0000 </r>
       <r>     9.5816    -0.0000    36.0000 </r>
       <r>     9.7440    -0.0000    36.0000 </r>
       <r>     9.9064    -0.0000    36.0000 </r>
       <r>    10.0688     0.0000    36.0000 </r>
       <r>    10.2312     0.0000    36.0000 </r>
       <r>    10.3936     0.0000    36.0000 </r>
       <r>    10.5560     0.0000    36.0000 </r>
       <r>    10.7185     0.0000    36.0000 </r>
       <r>    10.8809     0.0000    36.0000 </r>
       <r>    11.0433     0.0000    36.0000 </r>
       <r>    11.2057     0.0000    36.0000 </r>
       <r>    11.3681     0.0000    36.0000 </r>
      </set>
      <set comment="spin 2">
       <r>   -37.3562     0.0000     0.0000 </r>
       <r>   -37.1937     0.0000     0.0000 </r>
       <r>   -37.0313     0.0000     0.0000 </r>
       <r>   -36.8689     0.0000     0.0000 </r>
       <r>   -36.7065     0.0000     0.0000 </r>
       <r>   -36.5441     0.0000     0.0000 </r>
       <r>   -36.3817     0.0000     0.0000 </r>
       <r>   -36.2193     0.0000     0.0000 </r>
       <r>   -36.0568    -0.0000    -0.0000 </r>
       <r>   -35.8944    -0.0000    -0.0000 </r>
       <r>   -35.7320    -0.0000    -0.0000 </r>
       <r>   -35.5696    -0.0000    -0.0000 </r>
       <r>   -35.4072    -0.0009    -0.0001 </r>
       <r>   -35.2448    -0.1918    -0.0313 </r>
       <r>   -35.0824     4.2647     0.6614 </r>
       <r>   -34.9199    15.4663     3.1733 </r>
       <r>   -34.7575    17.4738     6.0113 </r>
       <r>   -34.5951    -0.0461     6.0038 </r>
       <r>   -34.4327    -0.0234     6.0000 </r>
       <r>   -34.2703    -0.0000     6.0000 </r>
       <r>   -34.1079    -0.0000     6.0000 </r>
       <r>   -33.9455     0.0000     6.0000 </r>
       <r>   -33.7830     0.0000     6.0000 </r>
       <r>   -33.6206     0.0000     6.0000 </r>
       <r>   -33.4582     0.0000     6.0000 </r>
       <r>   -33.2958     0.0000     6.0000 </r>
       <r>   -33.1334     0.0000     6.0000 </r>
       <r>   -32.9710     0.0000     6.0000 </r>
       <r>   -32.8086     0.0000     6.0000 </r>
       <r>   -32.6461     0.0000     6.0000 </r>
       <r>   -32.4837     0.0000     6.0000 </r>
       <r>   -32.3213     0.0000     6.0000 </r>
       <r>   -32.1589     0.0000     6.0000 </r>
       <r>   -31.9965     0.0000     6.0000 </r>
       <r>   -31.8341     0.0000     6.0000 </r>
       <r>   -31.6717     0.0000     6.0000 </r>
       <r>   -31.5092     0.0000     6.0000 </r>
       <r>   -31.3468     0.0000     6.0000 </r>
       <r>   -31.1844     0.0000     6.0000 </r>
       <r>   -31.0220     0.0000     6.0000 </r>
       <r>   -30.8596     0.0000     6.0000 </r>
       <r>   -30.6972     0.0000     6.0000 </r>
       <r>   -30.5348     0.0000     6.0000 </r>
       <r>   -30.3723     0.0000     6.0000 </r>
       <r>   -30.2099     0.0000     6.0000 </r>
       <r>   -30.0475     0.0000     6.0000 </r>
       <r>   -29.8851     0.0000     6.0000 </r>
       <r>   -29.7227     0.0000     6.0000 </r>
       <r>   -29.5603     0.0000     6.0000 </r>
       <r>   -29.3979     0.0000     6.0000 </r>
       <r>   -29.2354     0.0000     6.0000 </r>
       <r>   -29.0730     0.0000     6.0000 </r>
       <r>   -28.9106     0.0000     6.0000 </r>
       <r>   -28.7482     0.0000     6.0000 </r>
       <r>   -28.5858     0.0000     6.0000 </r>
       <r>   -28.4234     0.0000     6.0000 </r>
       <r>   -28.2610     0.0000     6.0000 </r>
       <r>   -28.0985     0.0000     6.0000 </r>
       <r>   -27.9361     0.0000     6.0000 </r>
       <r>   -27.7737     0.0000     6.0000 </r>
       <r>   -27.6113     0.0000     6.0000 </r>
       <r>   -27.4489     0.0000     6.0000 </r>
       <r>   -27.2865     0.0000     6.0000 </r>
       <r>   -27.1241     0.0000     6.0000 </r>
       <r>   -26.9616     0.0000     6.0000 </r>
       <r>   -26.7992     0.0000     6.0000 </r>
       <r>   -26.6368     0.0000     6.0000 </r>
       <r>   -26.4744     0.0000     6.0000 </r>
       <r>   -26.3120     0.0000     6.0000 </r>
       <r>   -26.1496     0.0000     6.0000 </r>
       <r>   -25.9872     0.0000     6.0000 </r>
       <r>   -25.8247     0.0000     6.0000 </r>
       <r>   -25.6623     0.0000     6.0000 </r>
       <r>   -25.4999     0.0000     6.0000 </r>
       <r>   -25.3375     0.0000     6.0000 </r>
       <r>   -25.1751     0.0000     6.0000 </r>
       <r>   -25.0127     0.0000     6.0000 </r>
       <r>   -24.8503     0.0000     6.0000 </r>
       <r>   -24.6878     0.0000     6.0000 </r>
       <r>   -24.5254     0.0000     6.0000 </r>
       <r>   -24.3630     0.0000     6.0000 </r>
       <r>   -24.2006     0.0000     6.0000 </r>
       <r>   -24.0382     0.0000     6.0000 </r>
       <r>   -23.8758     0.0000     6.0000 </r>
       <r>   -23.7134     0.0000     6.0000 </r>
       <r>   -23.5509     0.0000     6.0000 </r>
       <r>   -23.3885     0.0000     6.0000 </r>
       <r>   -23.2261     0.0000     6.0000 </r>
       <r>   -23.0637     0.0000     6.0000 </r>
       <r>   -22.9013     0.0000     6.0000 </r>
       <r>   -22.7389     0.0000     6.0000 </r>
       <r>   -22.5765     0.0000     6.0000 </r>
       <r>   -22.4140     0.0000     6.0000 </r>
       <r>   -22.2516     0.0000     6.0000 </r>
       <r>   -22.0892     0.0000     6.0000 </r>
       <r>   -21.9268     0.0000     6.0000 </r>
       <r>   -21.7644     0.0000     6.0000 </r>
       <r>   -21.6020     0.0000     6.0000 </r>
       <r>   -21.4396     0.0000     6.0000 </r>
       <r>   -21.2771     0.0000     6.0000 </r>
       <r>   -21.1147     0.0000     6.0000 </r>
       <r>   -20.9523     0.0000     6.0000 </r>
       <r>   -20.7899     0.0000     6.0000 </r>
       <r>   -20.6275     0.0000     6.0000 </r>
       <r>   -20.4651     0.0000     6.0000 </r>
       <r>   -20.3027     0.0000     6.0000 </r>
       <r>   -20.1402     0.0000     6.0000 </r>
       <r>   -19.9778     0.0000     6.0000 </r>
       <r>   -19.8154     0.0000     6.0000 </r>
       <r>   -19.6530     0.0000     6.0000 </r>
       <r>   -19.4906     0.0000     6.0000 </r>
       <r>   -19.3282     0.0000     6.0000 </r>
       <r>   -19.1658     0.0000     6.0000 </r>
       <r>   -19.0034     0.0000     6.0000 </r>
       <r>   -18.8409     0.0000     6.0000 </r>
       <r>   -18.6785     0.0000     6.0000 </r>
       <r>   -18.5161     0.0000     6.0000 </r>
       <r>   -18.3537     0.0000     6.0000 </r>
       <r>   -18.1913     0.0000     6.0000 </r>
       <r>   -18.0289     0.0000     6.0000 </r>
       <r>   -17.8665     0.0000     6.0000 </r>
       <r>   -17.7040     0.0000     6.0000 </r>
       <r>   -17.5416     0.0000     6.0000 </r>
       <r>   -17.3792     0.0000     6.0000 </r>
       <r>   -17.2168     0.0000     6.0000 </r>
       <r>   -17.0544     0.0000     6.0000 </r>
       <r>   -16.8920     0.0000     6.0000 </r>
       <r>   -16.7296     0.0000     6.0000 </r>
       <r>   -16.5671     0.0000     6.0000 </r>
       <r>   -16.4047     0.0000     6.0000 </r>
       <r>   -16.2423     0.0000     6.0000 </r>
       <r>   -16.0799     0.0000     6.0000 </r>
       <r>   -15.9175     0.0000     6.0000 </r>
       <r>   -15.7551     0.0000     6.0000 </r>
       <r>   -15.5927     0.0000     6.0000 </r>
       <r>   -15.4302     0.0000     6.0000 </r>
       <r>   -15.2678     0.0000     6.0000 </r>
       <r>   -15.1054     0.0000     6.0000 </r>
       <r>   -14.9430     0.0000     6.0000 </r>
       <r>   -14.7806    -0.0000     6.0000 </r>
       <r>   -14.6182    -0.0000     6.0000 </r>
       <r>   -14.4558    -0.0000     6.0000 </r>
       <r>   -14.2933    -0.0000     6.0000 </r>
       <r>   -14.1309    -0.0010     5.9998 </r>
       <r>   -13.9685     0.0084     6.0012 </r>
       <r>   -13.8061     0.3921     6.0649 </r>
       <r>   -13.6437     0.5218     6.1496 </r>
       <r>   -13.4813     0.4587     6.2241 </r>
       <r>   -13.3189     0.7274     6.3423 </r>
       <r>   -13.1564     0.5379     6.4296 </r>
       <r>   -12.9940     0.5597     6.5205 </r>
       <r>   -12.8316     0.8979     6.6664 </r>
       <r>   -12.6692     0.5355     6.7533 </r>
       <r>   -12.5068     2.3394     7.1333 </r>
       <r>   -12.3444     2.0096     7.4597 </r>
       <r>   -12.1820     3.5300     8.0330 </r>
       <r>   -12.0195     4.1729     8.7107 </r>
       <r>   -11.8571     5.7788     9.6493 </r>
       <r>   -11.6947     2.2219    10.0102 </r>
       <r>   -11.5323    -0.0613    10.0002 </r>
       <r>   -11.3699    -0.0013    10.0000 </r>
       <r>   -11.2075    -0.0000    10.0000 </r>
       <r>   -11.0451    -0.0000    10.0000 </r>
       <r>   -10.8826     0.0000    10.0000 </r>
       <r>   -10.7202     0.0000    10.0000 </r>
       <r>   -10.5578     0.0000    10.0000 </r>
       <r>   -10.3954     0.0000    10.0000 </r>
       <r>   -10.2330     0.0000    10.0000 </r>
       <r>   -10.0706     0.0000    10.0000 </r>
       <r>    -9.9082     0.0000    10.0000 </r>
       <r>    -9.7457     0.0000    10.0000 </r>
       <r>    -9.5833     0.0000    10.0000 </r>
       <r>    -9.4209     0.0000    10.0000 </r>
       <r>    -9.2585     0.0000    10.0000 </r>
       <r>    -9.0961     0.0000    10.0000 </r>
       <r>    -8.9337     0.0000    10.0000 </r>
       <r>    -8.7713     0.0000    10.0000 </r>
       <r>    -8.6088     0.0000    10.0000 </r>
       <r>    -8.4464     0.0000    10.0000 </r>
       <r>    -8.2840     0.0000    10.0000 </r>
       <r>    -8.1216     0.0000    10.0000 </r>
       <r>    -7.9592     0.0000    10.0000 </r>
       <r>    -7.7968     0.0000    10.0000 </r>
       <r>    -7.6344     0.0000    10.0000 </r>
       <r>    -7.4719     0.0000    10.0000 </r>
       <r>    -7.3095     0.0000    10.0000 </r>
       <r>    -7.1471     0.0000    10.0000 </r>
       <r>    -6.9847     0.0000    10.0000 </r>
       <r>    -6.8223     0.0000    10.0000 </r>
       <r>    -6.6599     0.0000    10.0000 </r>
       <r>    -6.4975    -0.0000    10.0000 </r>
       <r>    -6.3350    -0.0000    10.0000 </r>
       <r>    -6.1726    -0.0000    10.0000 </r>
       <r>    -6.0102    -0.0000    10.0000 </r>
       <r>    -5.8478    -0.0036     9.9994 </r>
       <r>    -5.6854     0.0594    10.0091 </r>
       <r>    -5.5230     1.0739    10.1835 </r>
       <r>    -5.3606     1.5488    10.4350 </r>
       <r>    -5.1981     2.4842    10.8385 </r>
       <r>    -5.0357     3.6270    11.4276 </r>
       <r>    -4.8733     4.4372    12.1483 </r>
       <r>    -4.7109     1.9053    12.4577 </r>
       <r>    -4.5485     2.7461    12.9037 </r>
       <r>    -4.3861     0.4146    12.9710 </r>
       <r>    -4.2237     0.6346    13.0741 </r>
       <r>    -4.0612     1.0130    13.2386 </r>
       <r>    -3.8988     2.5105    13.6464 </r>
       <r>    -3.7364     5.1416    14.4814 </r>
       <r>    -3.5740     3.7860    15.0963 </r>
       <r>    -3.4116     1.8398    15.3952 </r>
       <r>    -3.2492     1.6349    15.6607 </r>
       <r>    -3.0868     5.2786    16.5180 </r>
       <r>    -2.9243     4.2593    17.2098 </r>
       <r>    -2.7619     2.3218    17.5869 </r>
       <r>    -2.5995     1.0182    17.7522 </r>
       <r>    -2.4371     1.5960    18.0115 </r>
       <r>    -2.2747     1.5727    18.2669 </r>
       <r>    -2.1123     2.3076    18.6417 </r>
       <r>    -1.9499     3.8042    19.2595 </r>
       <r>    -1.7874     3.5208    19.8314 </r>
       <r>    -1.6250     3.2441    20.3582 </r>
       <r>    -1.4626     2.9759    20.8416 </r>
       <r>    -1.3002     2.6078    21.2651 </r>
       <r>    -1.1378     1.9710    21.5852 </r>
       <r>    -0.9754     1.5120    21.8308 </r>
       <r>    -0.8130     3.2952    22.3660 </r>
       <r>    -0.6505     2.9944    22.8523 </r>
       <r>    -0.4881     2.3739    23.2379 </r>
       <r>    -0.3257     2.5974    23.6597 </r>
       <r>    -0.1633     1.0762    23.8345 </r>
       <r>    -0.0009     0.7191    23.9513 </r>
       <r>     0.1615     0.1778    23.9802 </r>
       <r>     0.3239     0.1267    24.0007 </r>
       <r>     0.4864    -0.0045    24.0000 </r>
       <r>     0.6488    -0.0000    24.0000 </r>
       <r>     0.8112    -0.0000    24.0000 </r>
       <r>     0.9736    -0.0000    24.0000 </r>
       <r>     1.1360    -0.0000    24.0000 </r>
       <r>     1.2984    -0.0000    24.0000 </r>
       <r>     1.4608    -0.0009    23.9998 </r>
       <r>     1.6233    -0.0029    23.9994 </r>
       <r>     1.7857     0.7605    24.1229 </r>
       <r>     1.9481     1.8244    24.4192 </r>
       <r>     2.1105     4.6033    25.1669 </r>
       <r>     2.2729     4.3578    25.8746 </r>
       <r>     2.4353     4.2072    26.5579 </r>
       <r>     2.5977     5.2340    27.4080 </r>
       <r>     2.7602     3.8556    28.0342 </r>
       <r>     2.9226     3.1253    28.5418 </r>
       <r>     3.0850     2.5075    28.9491 </r>
       <r>     3.2474     3.0386    29.4426 </r>
       <r>     3.4098     1.7022    29.7190 </r>
       <r>     3.5722     1.9204    30.0309 </r>
       <r>     3.7346     1.3789    30.2549 </r>
       <r>     3.8971     1.3515    30.4744 </r>
       <r>     4.0595     2.0011    30.7994 </r>
       <r>     4.2219     3.0409    31.2933 </r>
       <r>     4.3843     2.0367    31.6241 </r>
       <r>     4.5467     1.1873    31.8169 </r>
       <r>     4.7091     0.8875    31.9611 </r>
       <r>     4.8715     0.2488    32.0015 </r>
       <r>     5.0340    -0.0090    32.0000 </r>
       <r>     5.1964    -0.0006    31.9999 </r>
       <r>     5.3588     0.0058    32.0009 </r>
       <r>     5.5212     0.1550    32.0261 </r>
       <r>     5.6836     0.1076    32.0435 </r>
       <r>     5.8460     0.3253    32.0964 </r>
       <r>     6.0084     0.4828    32.1748 </r>
       <r>     6.1709     0.3411    32.2302 </r>
       <r>     6.3333     1.1415    32.4156 </r>
       <r>     6.4957     0.8430    32.5525 </r>
       <r>     6.6581     1.1341    32.7367 </r>
       <r>     6.8205     1.6663    33.0073 </r>
       <r>     6.9829     1.3112    33.2203 </r>
       <r>     7.1453     1.7414    33.5031 </r>
       <r>     7.3078     1.5687    33.7579 </r>
       <r>     7.4702     1.4537    33.9940 </r>
       <r>     7.6326     1.6235    34.2576 </r>
       <r>     7.7950     1.8164    34.5527 </r>
       <r>     7.9574     0.7465    34.6739 </r>
       <r>     8.1198     1.2976    34.8846 </r>
       <r>     8.2822     2.4984    35.2904 </r>
       <r>     8.4447     2.2086    35.6491 </r>
       <r>     8.6071     0.6457    35.7540 </r>
       <r>     8.7695     0.4576    35.8283 </r>
       <r>     8.9319     0.5999    35.9257 </r>
       <r>     9.0943     0.3450    35.9818 </r>
       <r>     9.2567     0.1175    36.0009 </r>
       <r>     9.4191    -0.0053    36.0000 </r>
       <r>     9.5816    -0.0000    36.0000 </r>
       <r>     9.7440    -0.0000    36.0000 </r>
       <r>     9.9064    -0.0000    36.0000 </r>
       <r>    10.0688     0.0000    36.0000 </r>
       <r>    10.2312     0.0000    36.0000 </r>
       <r>    10.3936     0.0000    36.0000 </r>
       <r>    10.5560     0.0000    36.0000 </r>
       <r>    10.7185     0.0000    36.0000 </r>
       <r>    10.8809     0.0000    36.0000 </r>
       <r>    11.0433     0.0000    36.0000 </r>
       <r>    11.2057     0.0000    36.0000 </r>
       <r>    11.3681     0.0000    36.0000 </r>
      </set>
     </set>
    </array>
   </total>
  </dos>
 </calculation>
 <structure name="finalpos" >
  <crystal>
   <varray name="basis" >
    <v>       3.19031700       0.00000000       0.00000000 </v>
    <v>      -1.59515800       2.76289700       0.00000000 </v>
    <v>       0.00000000       0.00000000      23.14049200 </v>
   </varray>
   <i name="volume">    203.97226633 </i>
   <varray name="rec_basis" >
    <v>       0.31344848       0.18096941       0.00000000 </v>
    <v>       0.00000000       0.36193894       0.00000000 </v>
    <v>       0.00000000       0.00000000       0.04321429 </v>
   </varray>
  </crystal>
  <varray name="positions" >
   <v>       0.66666700       0.33333300       0.06785900 </v>
   <v>       0.33333300       0.66666700       0.00000000 </v>
   <v>       0.33333300       0.66666700       0.13571500 </v>
   <v>       0.23809557       0.33333300       0.35482300 </v>
   <v>       0.90476157       0.66666700       0.28696500 </v>
   <v>       0.90476157       0.66666700       0.42267900 </v>
  </varray>
 </structure>
</modeling>
