  24  24   0   0
  0.4176334E+02  0.3540400E-09  0.1044544E-08  0.2750143E-08  0.5000000E-15
  1.000000000000000E-004
  CAR 
 unknown system                          
      4.29965934    -16.26382566  301      0.10776832      1.00000000
    -16.264  0.0000E+00  0.0000E+00
    -16.195  0.0000E+00  0.0000E+00
    -16.127  0.0000E+00  0.0000E+00
    -16.058  0.0000E+00  0.0000E+00
    -15.990  0.0000E+00  0.0000E+00
    -15.921  0.0000E+00  0.0000E+00
    -15.853  0.1246E-15  0.8540E-17
    -15.784  0.1816E-12  0.1246E-13
    -15.715  0.1662E-09  0.1141E-10
    -15.647  0.6085E-07  0.4182E-08
    -15.578  0.8998E-05  0.6209E-06
    -15.510  0.5461E-03  0.3805E-04
    -15.441  0.1396E-01  0.9947E-03
    -15.373  0.1560E+00  0.1169E-01
    -15.304  0.7991E+00  0.6646E-01
    -15.236  0.1951E+01  0.2002E+00
    -15.167  0.2369E+01  0.3626E+00
    -15.099  0.1846E+01  0.4891E+00
    -15.030  0.1789E+01  0.6117E+00
    -14.961  0.1542E+01  0.7174E+00
    -14.893  0.7149E+00  0.7664E+00
    -14.824  0.6130E+00  0.8085E+00
    -14.756  0.1386E+01  0.9035E+00
    -14.687  0.1591E+01  0.1013E+01
    -14.619  0.7707E+00  0.1065E+01
    -14.550  0.1733E+00  0.1077E+01
    -14.482  0.2053E+00  0.1091E+01
    -14.413  0.8674E+00  0.1151E+01
    -14.345  0.1633E+01  0.1263E+01
    -14.276  0.1290E+01  0.1351E+01
    -14.207  0.4268E+00  0.1380E+01
    -14.139  0.6339E-01  0.1385E+01
    -14.070  0.7829E-01  0.1390E+01
    -14.002  0.4977E+00  0.1424E+01
    -13.933  0.1375E+01  0.1518E+01
    -13.865  0.1593E+01  0.1628E+01
    -13.796  0.7741E+00  0.1681E+01
    -13.728  0.1766E+00  0.1693E+01
    -13.659  0.2214E+00  0.1708E+01
    -13.591  0.9110E+00  0.1770E+01
    -13.522  0.1709E+01  0.1888E+01
    -13.453  0.1620E+01  0.1999E+01
    -13.385  0.1503E+01  0.2102E+01
    -13.316  0.1926E+01  0.2234E+01
    -13.248  0.2219E+01  0.2386E+01
    -13.179  0.2723E+01  0.2572E+01
    -13.111  0.3576E+01  0.2817E+01
    -13.042  0.3844E+01  0.3081E+01
    -12.974  0.3445E+01  0.3317E+01
    -12.905  0.3493E+01  0.3556E+01
    -12.837  0.3994E+01  0.3830E+01
    -12.768  0.3930E+01  0.4100E+01
    -12.699  0.3561E+01  0.4344E+01
    -12.631  0.3689E+01  0.4597E+01
    -12.562  0.4142E+01  0.4881E+01
    -12.494  0.4740E+01  0.5205E+01
    -12.425  0.5508E+01  0.5583E+01
    -12.357  0.6054E+01  0.5998E+01
    -12.288  0.6235E+01  0.6425E+01
    -12.220  0.6241E+01  0.6853E+01
    -12.151  0.6432E+01  0.7294E+01
    -12.083  0.6225E+01  0.7721E+01
    -12.014  0.5700E+01  0.8111E+01
    -11.945  0.6157E+01  0.8534E+01
    -11.877  0.7547E+01  0.9051E+01
    -11.808  0.8573E+01  0.9638E+01
    -11.740  0.8232E+01  0.1020E+02
    -11.671  0.7401E+01  0.1071E+02
    -11.603  0.7674E+01  0.1124E+02
    -11.534  0.8285E+01  0.1180E+02
    -11.466  0.8732E+01  0.1240E+02
    -11.397  0.9847E+01  0.1308E+02
    -11.329  0.1011E+02  0.1377E+02
    -11.260  0.9260E+01  0.1441E+02
    -11.191  0.9286E+01  0.1504E+02
    -11.123  0.9511E+01  0.1569E+02
    -11.054  0.8090E+01  0.1625E+02
    -10.986  0.7588E+01  0.1677E+02
    -10.917  0.9801E+01  0.1744E+02
    -10.849  0.1129E+02  0.1821E+02
    -10.780  0.9633E+01  0.1887E+02
    -10.712  0.8154E+01  0.1943E+02
    -10.643  0.8559E+01  0.2002E+02
    -10.575  0.8457E+01  0.2060E+02
    -10.506  0.8111E+01  0.2116E+02
    -10.438  0.8246E+01  0.2172E+02
    -10.369  0.7333E+01  0.2222E+02
    -10.300  0.5487E+01  0.2260E+02
    -10.232  0.3261E+01  0.2282E+02
    -10.163  0.1219E+01  0.2291E+02
    -10.095  0.3601E+00  0.2293E+02
    -10.026  0.8789E+00  0.2299E+02
     -9.958  0.2727E+01  0.2318E+02
     -9.889  0.4513E+01  0.2349E+02
     -9.821  0.4315E+01  0.2378E+02
     -9.752  0.2821E+01  0.2398E+02
     -9.684  0.2197E+01  0.2413E+02
     -9.615  0.2710E+01  0.2431E+02
     -9.546  0.3865E+01  0.2458E+02
     -9.478  0.5056E+01  0.2492E+02
     -9.409  0.4837E+01  0.2526E+02
     -9.341  0.3970E+01  0.2553E+02
     -9.272  0.3361E+01  0.2576E+02
     -9.204  0.2283E+01  0.2592E+02
     -9.135  0.9745E+00  0.2598E+02
     -9.067  0.2355E+00  0.2600E+02
     -8.998  0.6425E-01  0.2600E+02
     -8.930  0.2833E+00  0.2602E+02
     -8.861  0.1003E+01  0.2609E+02
     -8.792  0.1839E+01  0.2622E+02
     -8.724  0.2601E+01  0.2640E+02
     -8.655  0.4220E+01  0.2668E+02
     -8.587  0.5478E+01  0.2706E+02
     -8.518  0.4940E+01  0.2740E+02
     -8.450  0.4608E+01  0.2771E+02
     -8.381  0.5014E+01  0.2806E+02
     -8.313  0.5022E+01  0.2840E+02
     -8.244  0.4549E+01  0.2871E+02
     -8.176  0.3633E+01  0.2896E+02
     -8.107  0.3585E+01  0.2921E+02
     -8.038  0.4811E+01  0.2954E+02
     -7.970  0.5397E+01  0.2991E+02
     -7.901  0.4607E+01  0.3022E+02
     -7.833  0.4912E+01  0.3056E+02
     -7.764  0.7212E+01  0.3106E+02
     -7.696  0.9138E+01  0.3168E+02
     -7.627  0.7932E+01  0.3223E+02
     -7.559  0.4768E+01  0.3255E+02
     -7.490  0.3494E+01  0.3279E+02
     -7.422  0.4369E+01  0.3309E+02
     -7.353  0.6201E+01  0.3352E+02
     -7.284  0.8352E+01  0.3409E+02
     -7.216  0.9177E+01  0.3472E+02
     -7.147  0.8318E+01  0.3529E+02
     -7.079  0.7623E+01  0.3581E+02
     -7.010  0.8489E+01  0.3639E+02
     -6.942  0.8625E+01  0.3698E+02
     -6.873  0.7016E+01  0.3746E+02
     -6.805  0.5706E+01  0.3786E+02
     -6.736  0.5244E+01  0.3821E+02
     -6.668  0.6001E+01  0.3863E+02
     -6.599  0.8990E+01  0.3924E+02
     -6.530  0.1189E+02  0.4006E+02
     -6.462  0.1048E+02  0.4078E+02
     -6.393  0.6879E+01  0.4125E+02
     -6.325  0.5727E+01  0.4164E+02
     -6.256  0.6595E+01  0.4209E+02
     -6.188  0.6864E+01  0.4256E+02
     -6.119  0.7058E+01  0.4305E+02
     -6.051  0.6840E+01  0.4351E+02
     -5.982  0.4709E+01  0.4384E+02
     -5.914  0.2507E+01  0.4401E+02
     -5.845  0.2554E+01  0.4418E+02
     -5.776  0.4427E+01  0.4449E+02
     -5.708  0.6431E+01  0.4493E+02
     -5.639  0.7672E+01  0.4545E+02
     -5.571  0.7890E+01  0.4600E+02
     -5.502  0.6983E+01  0.4647E+02
     -5.434  0.5985E+01  0.4688E+02
     -5.365  0.5648E+01  0.4727E+02
     -5.297  0.5597E+01  0.4766E+02
     -5.228  0.6140E+01  0.4808E+02
     -5.160  0.5994E+01  0.4849E+02
     -5.091  0.5297E+01  0.4885E+02
     -5.022  0.5785E+01  0.4925E+02
     -4.954  0.6965E+01  0.4972E+02
     -4.885  0.8103E+01  0.5028E+02
     -4.817  0.8768E+01  0.5088E+02
     -4.748  0.9425E+01  0.5153E+02
     -4.680  0.9171E+01  0.5216E+02
     -4.611  0.8287E+01  0.5272E+02
     -4.543  0.8926E+01  0.5334E+02
     -4.474  0.1021E+02  0.5403E+02
     -4.406  0.1106E+02  0.5479E+02
     -4.337  0.1191E+02  0.5561E+02
     -4.268  0.1249E+02  0.5646E+02
     -4.200  0.1275E+02  0.5734E+02
     -4.131  0.1276E+02  0.5821E+02
     -4.063  0.1276E+02  0.5909E+02
     -3.994  0.1360E+02  0.6002E+02
     -3.926  0.1447E+02  0.6101E+02
     -3.857  0.1373E+02  0.6195E+02
     -3.789  0.1199E+02  0.6278E+02
     -3.720  0.1108E+02  0.6353E+02
     -3.652  0.1123E+02  0.6430E+02
     -3.583  0.1188E+02  0.6512E+02
     -3.514  0.1227E+02  0.6596E+02
     -3.446  0.1215E+02  0.6679E+02
     -3.377  0.1201E+02  0.6762E+02
     -3.309  0.1285E+02  0.6850E+02
     -3.240  0.1407E+02  0.6946E+02
     -3.172  0.1475E+02  0.7047E+02
     -3.103  0.1586E+02  0.7156E+02
     -3.035  0.1693E+02  0.7272E+02
     -2.966  0.1841E+02  0.7398E+02
     -2.898  0.1974E+02  0.7534E+02
     -2.829  0.1798E+02  0.7657E+02
     -2.760  0.1485E+02  0.7759E+02
     -2.692  0.1357E+02  0.7852E+02
     -2.623  0.1476E+02  0.7953E+02
     -2.555  0.1729E+02  0.8071E+02
     -2.486  0.1785E+02  0.8194E+02
     -2.418  0.1669E+02  0.8308E+02
     -2.349  0.1640E+02  0.8420E+02
     -2.281  0.1714E+02  0.8538E+02
     -2.212  0.1597E+02  0.8647E+02
     -2.144  0.1367E+02  0.8741E+02
     -2.075  0.1401E+02  0.8837E+02
     -2.006  0.1512E+02  0.8941E+02
     -1.938  0.1490E+02  0.9043E+02
     -1.869  0.1549E+02  0.9149E+02
     -1.801  0.1773E+02  0.9271E+02
     -1.732  0.1885E+02  0.9400E+02
     -1.664  0.1779E+02  0.9522E+02
     -1.595  0.1644E+02  0.9634E+02
     -1.527  0.1401E+02  0.9730E+02
     -1.458  0.1120E+02  0.9807E+02
     -1.390  0.1021E+02  0.9877E+02
     -1.321  0.1053E+02  0.9949E+02
     -1.252  0.9641E+01  0.1002E+03
     -1.184  0.7128E+01  0.1006E+03
     -1.115  0.5621E+01  0.1010E+03
     -1.047  0.6103E+01  0.1014E+03
     -0.978  0.6852E+01  0.1019E+03
     -0.910  0.7051E+01  0.1024E+03
     -0.841  0.7802E+01  0.1029E+03
     -0.773  0.7765E+01  0.1035E+03
     -0.704  0.5759E+01  0.1039E+03
     -0.636  0.4282E+01  0.1042E+03
     -0.567  0.4503E+01  0.1045E+03
     -0.498  0.4687E+01  0.1048E+03
     -0.430  0.4743E+01  0.1051E+03
     -0.361  0.5161E+01  0.1055E+03
     -0.293  0.5447E+01  0.1058E+03
     -0.224  0.5281E+01  0.1062E+03
     -0.156  0.4721E+01  0.1065E+03
     -0.087  0.4925E+01  0.1069E+03
     -0.019  0.5570E+01  0.1072E+03
      0.050  0.5660E+01  0.1076E+03
      0.118  0.6534E+01  0.1081E+03
      0.187  0.7775E+01  0.1086E+03
      0.256  0.7664E+01  0.1091E+03
      0.324  0.6247E+01  0.1096E+03
      0.393  0.4682E+01  0.1099E+03
      0.461  0.2977E+01  0.1101E+03
      0.530  0.1908E+01  0.1102E+03
      0.598  0.2659E+01  0.1104E+03
      0.667  0.3602E+01  0.1106E+03
      0.735  0.3902E+01  0.1109E+03
      0.804  0.4769E+01  0.1112E+03
      0.872  0.6081E+01  0.1117E+03
      0.941  0.6840E+01  0.1121E+03
      1.010  0.5774E+01  0.1125E+03
      1.078  0.4105E+01  0.1128E+03
      1.147  0.4627E+01  0.1131E+03
      1.215  0.7170E+01  0.1136E+03
      1.284  0.9033E+01  0.1142E+03
      1.352  0.8637E+01  0.1148E+03
      1.421  0.8319E+01  0.1154E+03
      1.489  0.9016E+01  0.1160E+03
      1.558  0.8559E+01  0.1166E+03
      1.626  0.8376E+01  0.1172E+03
      1.695  0.1108E+02  0.1179E+03
      1.763  0.1365E+02  0.1189E+03
      1.832  0.1357E+02  0.1198E+03
      1.901  0.1324E+02  0.1207E+03
      1.969  0.1333E+02  0.1216E+03
      2.038  0.1302E+02  0.1225E+03
      2.106  0.1335E+02  0.1234E+03
      2.175  0.1373E+02  0.1244E+03
      2.243  0.1398E+02  0.1253E+03
      2.312  0.1588E+02  0.1264E+03
      2.380  0.1752E+02  0.1276E+03
      2.449  0.1618E+02  0.1287E+03
      2.517  0.1393E+02  0.1297E+03
      2.586  0.1279E+02  0.1306E+03
      2.655  0.1187E+02  0.1314E+03
      2.723  0.1203E+02  0.1322E+03
      2.792  0.1283E+02  0.1331E+03
      2.860  0.1221E+02  0.1339E+03
      2.929  0.9898E+01  0.1346E+03
      2.997  0.7339E+01  0.1351E+03
      3.066  0.5078E+01  0.1354E+03
      3.134  0.3259E+01  0.1357E+03
      3.203  0.2280E+01  0.1358E+03
      3.271  0.1545E+01  0.1359E+03
      3.340  0.7626E+00  0.1360E+03
      3.409  0.2460E+00  0.1360E+03
      3.477  0.4506E-01  0.1360E+03
      3.546  0.4005E-02  0.1360E+03
      3.614  0.1571E-03  0.1360E+03
      3.683  0.2599E-05  0.1360E+03
      3.751  0.1767E-07  0.1360E+03
      3.820  0.4870E-10  0.1360E+03
      3.888  0.5382E-13  0.1360E+03
      3.957  0.0000E+00  0.1360E+03
      4.025  0.0000E+00  0.1360E+03
      4.094  0.0000E+00  0.1360E+03
      4.163  0.0000E+00  0.1360E+03
      4.231  0.0000E+00  0.1360E+03
      4.300  0.0000E+00  0.1360E+03
