       N       E                     dE             d eps       ncg     rms          rms(c)
DAV:   1     0.508475991760E+03    0.50848E+03   -0.28746E+04  7368   0.790E+02
DAV:   2    -0.566463397170E+02   -0.56512E+03   -0.54999E+03  9748   0.190E+02
DAV:   3    -0.114561597367E+03   -0.57915E+02   -0.57097E+02  8880   0.630E+01
DAV:   4    -0.117350233326E+03   -0.27886E+01   -0.27688E+01 11264   0.148E+01
DAV:   5    -0.117408281630E+03   -0.58048E-01   -0.57943E-01  9992   0.207E+00    0.128E+01
DAV:   6    -0.112628202680E+03    0.47801E+01   -0.29177E+01  8896   0.130E+01    0.662E+00
DAV:   7    -0.112492564397E+03    0.13564E+00   -0.17614E+01  8832   0.865E+00    0.422E+00
DAV:   8    -0.112287779405E+03    0.20478E+00   -0.39186E+00  9576   0.394E+00    0.210E+00
DAV:   9    -0.112257858570E+03    0.29921E-01   -0.72273E-01  8904   0.238E+00    0.989E-01
DAV:  10    -0.112269081650E+03   -0.11223E-01   -0.15463E-01  8608   0.108E+00    0.358E-01
DAV:  11    -0.112258729694E+03    0.10352E-01   -0.25012E-02  9056   0.496E-01    0.140E-01
DAV:  12    -0.112251469285E+03    0.72604E-02   -0.71930E-03  8712   0.264E-01    0.706E-02
DAV:  13    -0.112245519765E+03    0.59495E-02   -0.10011E-03  9368   0.914E-02    0.326E-02
DAV:  14    -0.112243043447E+03    0.24763E-02   -0.22355E-04  9080   0.443E-02    0.172E-02
DAV:  15    -0.112241610528E+03    0.14329E-02   -0.90321E-05  9392   0.253E-02    0.981E-03
DAV:  16    -0.112241209064E+03    0.40146E-03   -0.45213E-05  7984   0.179E-02    0.642E-03
DAV:  17    -0.112241727638E+03   -0.51857E-03   -0.10120E-04  8096   0.216E-02    0.354E-03
DAV:  18    -0.112242029231E+03   -0.30159E-03   -0.11076E-04  7752   0.184E-02    0.208E-03
DAV:  19    -0.112242142303E+03   -0.11307E-03   -0.53112E-05  7432   0.130E-02    0.125E-03
DAV:  20    -0.112242171474E+03   -0.29171E-04   -0.82543E-06  6264   0.653E-03    0.786E-04
DAV:  21    -0.112242173726E+03   -0.22520E-05   -0.21990E-05  6976   0.893E-03    0.590E-04
DAV:  22    -0.112242164016E+03    0.97098E-05   -0.12394E-05  6536   0.916E-03    0.353E-04
DAV:  23    -0.112242088969E+03    0.75047E-04   -0.23931E-05  7416   0.870E-03    0.178E-04
DAV:  24    -0.112242074395E+03    0.14574E-04   -0.12631E-05  6800   0.938E-03    0.107E-04
DAV:  25    -0.112242052956E+03    0.21439E-04   -0.48109E-06  6392   0.717E-03    0.517E-05
DAV:  26    -0.112242051699E+03    0.12566E-05   -0.51957E-06  6392   0.691E-03    0.266E-05
DAV:  27    -0.112242049918E+03    0.17811E-05   -0.25935E-06  5452   0.540E-03    0.147E-05
DAV:  28    -0.112242049622E+03    0.29640E-06   -0.26844E-06  6408   0.471E-03
   1 F= -.11224205E+03 E0= -.11222443E+03  d E =-.352382E-01
