 vasp.5.3.5 31Mar14 (build Oct 29 2014 16:16:03) complex                        
  
 executed on          Linux-UFHPC date 2016.02.09  18:17:47
 running on    8 total cores
 distrk:  each k-point on    8 cores,    1 groups
 distr:  one band on NCORES_PER_BAND=   2 cores,    4 groups


--------------------------------------------------------------------------------------------------------


 INCAR:
 POTCAR:    PAW_PBE P 17Jan2003                   
 POTCAR:   PAW_PBE Si 05Jan2001                   

 ----------------------------------------------------------------------------- 
|                                                                             |
|  ADVICE TO THIS USER RUNNING 'VASP/VAMP'   (HEAR YOUR MASTER'S VOICE ...):  |
|                                                                             |
|      You have switched on vdW-DFT.                                          |
|      This routine was written and supplied by Jiri Klimes.                  |
|      We recommed that you carefully read and cite the following             |
|      publication                                                            |
|      J. Klimes, D.R. Bowler, A. Michelides                                  |
|        J. Phys.: Cond Matt. 22 022201 (2010)                                |
|      J. Klimes, D.R. Bowler, A. Michelides                                  |
|        Phys. Rev. B. 83, 195131 (2011)                                      |
|      and references therein.                                                |
|                                                                             |
 ----------------------------------------------------------------------------- 

 POTCAR:    PAW_PBE P 17Jan2003                   
   VRHFIN =P : s2p3                                                             
   LEXCH  = PE                                                                  
   EATOM  =   176.0430 eV,   12.9388 Ry                                         
                                                                                
   TITEL  = PAW_PBE P 17Jan2003                                                 
   LULTRA =        F    use ultrasoft PP ?                                      
   IUNSCR =        1    unscreen: 0-lin 1-nonlin 2-no                           
   RPACOR =    1.500    partial core radius                                     
   POMASS =   30.974; ZVAL   =    5.000    mass and valenz                      
   RCORE  =    1.900    outmost cutoff radius                                   
   RWIGS  =    2.330; RWIGS  =    1.233    wigner-seitz radius (au A)           
   ENMAX  =  270.000; ENMIN  =  191.280 eV                                      
   ICORE  =        2    local potential                                         
   LCOR   =        T    correct aug charges                                     
   LPAW   =        T    paw PP                                                  
   EAUG   =  342.924                                                            
   DEXC   =    -.002                                                            
   RMAX   =    2.887    core radius for proj-oper                               
   RAUG   =    1.300    factor for augmentation sphere                          
   RDEP   =    1.931    radius for radial grids                                 
   QCUT   =   -4.330; QGAM   =    8.659    optimization parameters              
                                                                                
   Description                                                                  
     l     E      TYP  RCUT    TYP  RCUT                                        
     0   .000     23  1.900                                                     
     0   .000     23  1.900                                                     
     1   .000     23  1.900                                                     
     1   .000     23  1.900                                                     
     2   .000     23  1.900                                                     
  local pseudopotential read in
  partial core-charges read in
  atomic valenz-charges read in
  non local Contribution for L=           0  read in
    real space projection operators read in
  non local Contribution for L=           0  read in
    real space projection operators read in
  non local Contribution for L=           1  read in
    real space projection operators read in
  non local Contribution for L=           1  read in
    real space projection operators read in
    PAW grid and wavefunctions read in
 
   number of l-projection  operators is LMAX  =           4
   number of lm-projection operators is LMMAX =           8
 
 POTCAR:   PAW_PBE Si 05Jan2001                   
   VRHFIN =Si: s2p2                                                             
   LEXCH  = PE                                                                  
   EATOM  =   103.0669 eV,    7.5752 Ry                                         
                                                                                
   TITEL  = PAW_PBE Si 05Jan2001                                                
   LULTRA =        F    use ultrasoft PP ?                                      
   IUNSCR =        1    unscreen: 0-lin 1-nonlin 2-no                           
   RPACOR =    1.500    partial core radius                                     
   POMASS =   28.085; ZVAL   =    4.000    mass and valenz                      
   RCORE  =    1.900    outmost cutoff radius                                   
   RWIGS  =    2.480; RWIGS  =    1.312    wigner-seitz radius (au A)           
   ENMAX  =  245.345; ENMIN  =  184.009 eV                                      
   ICORE  =        2    local potential                                         
   LCOR   =        T    correct aug charges                                     
   LPAW   =        T    paw PP                                                  
   EAUG   =  322.069                                                            
   DEXC   =    -.007                                                            
   RMAX   =    2.944    core radius for proj-oper                               
   RAUG   =    1.300    factor for augmentation sphere                          
   RDEP   =    1.993    radius for radial grids                                 
   QCUT   =   -4.246; QGAM   =    8.493    optimization parameters              
                                                                                
   Description                                                                  
     l     E      TYP  RCUT    TYP  RCUT                                        
     0   .000     23  1.900                                                     
     0   .000     23  1.900                                                     
     1   .000     23  1.900                                                     
     1   .000     23  1.900                                                     
     2   .000      7  1.900                                                     
  local pseudopotential read in
  partial core-charges read in
  atomic valenz-charges read in
  non local Contribution for L=           0  read in
    real space projection operators read in
  non local Contribution for L=           0  read in
    real space projection operators read in
  non local Contribution for L=           1  read in
    real space projection operators read in
  non local Contribution for L=           1  read in
    real space projection operators read in
    PAW grid and wavefunctions read in
 
   number of l-projection  operators is LMAX  =           4
   number of lm-projection operators is LMMAX =           8
 
 Optimization of the real space projectors (new method)

 maximal supplied QI-value         = 19.84
 optimisation between [QCUT,QGAM] = [  8.73, 17.66] = [ 21.34, 87.33] Ry 
 Optimized for a Real-space Cutoff    1.50 Angstroem

   l    n(q)    QCUT    max X(q) W(low)/X(q) W(high)/X(q)  e(spline) 
   0      8     8.731     6.651    0.16E-04    0.15E-04    0.77E-08
   0      8     8.731    90.285    0.16E-03    0.90E-04    0.16E-06
   1      7     8.731     4.328    0.47E-04    0.36E-04    0.45E-07
   1      7     8.731    54.583    0.13E-03    0.39E-03    0.20E-06
 Optimization of the real space projectors (new method)

 maximal supplied QI-value         = 19.84
 optimisation between [QCUT,QGAM] = [  8.73, 17.66] = [ 21.34, 87.33] Ry 
 Optimized for a Real-space Cutoff    1.46 Angstroem

   l    n(q)    QCUT    max X(q) W(low)/X(q) W(high)/X(q)  e(spline) 
   0      8     8.731     8.708    0.16E-04    0.11E-04    0.68E-08
   0      8     8.731   106.241    0.24E-03    0.77E-04    0.13E-06
   1      7     8.731     5.901    0.34E-04    0.38E-04    0.36E-07
   1      7     8.731    73.241    0.12E-03    0.39E-03    0.15E-06

 ----------------------------------------------------------------------------- 
|                                                                             |
|  ADVICE TO THIS USER RUNNING 'VASP/VAMP'   (HEAR YOUR MASTER'S VOICE ...):  |
|                                                                             |
|      You enforced a specific xc-type in the INCAR file,                     |
|      a different type was found on the POTCAR file                          |
|          I HOPE YOU KNOW, WHAT YOU ARE  DOING                               |
|                                                                             |
 ----------------------------------------------------------------------------- 

  PAW_PBE P 17Jan2003                   :
 energy of atom  1       EATOM= -176.0430
 kinetic energy error for atom=    0.0040 (will be added to EATOM!!)
 PAW_PBE Si 05Jan2001                   :
 energy of atom  2       EATOM= -103.0669
 kinetic energy error for atom=    0.0021 (will be added to EATOM!!)
 
 
 POSCAR: Si12                                    
  positions in direct lattice
  No initial velocities read in
 exchange correlation table for  LEXCH =       42
   RHO(1)=    0.500       N(1)  =     2000
   RHO(2)=  100.500       N(2)  =     4000
 


--------------------------------------------------------------------------------------------------------


 ion  position               nearest neighbor table
   1  0.114  0.228  0.233-  15 2.28  21 2.29  21 2.29
   2  0.714  0.528  0.515-  16 2.28  22 2.29  22 2.29
   3  0.458  0.916  0.209-  21 2.28  13 2.30  13 2.30
   4  0.058  0.216  0.491-  22 2.28  14 2.30  14 2.30
   5  0.311  0.622  0.084-  17 2.28  23 2.30  23 2.30
   6  0.311  0.622  0.366-  18 2.28
   7  0.999  0.998  0.086-  19 2.29  19 2.29  13 2.32
   8  0.999  0.998  0.368-  24 2.13  20 2.29  20 2.29  24 2.41
   9  0.655  0.310  0.060-  19 2.28  17 2.29  17 2.29
  10  0.655  0.310  0.342-  20 2.28  18 2.29  18 2.29  14 3.00
  11  0.770  0.539  0.207-  15 2.29  15 2.29  23 2.32
  12  0.370  0.839  0.489-  16 2.29  16 2.29  24 2.32
  13  0.940  0.879  0.158-   3 2.30   3 2.30   7 2.32  23 2.35
  14  0.540  0.179  0.440-  20 1.49   4 2.30   4 2.30  24 2.35  10 3.00
  15  0.205  0.410  0.186-   1 2.28  11 2.29  11 2.29  17 2.37
  16  0.805  0.710  0.468-   2 2.28  12 2.29  12 2.29
  17  0.202  0.404  0.100-   5 2.28   9 2.29   9 2.29  15 2.37
  18  0.202  0.404  0.382-   6 2.28  10 2.29  10 2.29  22 2.62
  19  0.564  0.128  0.108-   9 2.28   7 2.29   7 2.29  21 2.37
  20  0.564  0.128  0.390-  14 1.49  24 1.91  10 2.28   8 2.29   8 2.29
  21  0.567  0.134  0.194-   3 2.28   1 2.29   1 2.29  19 2.37
  22  0.167  0.434  0.476-   4 2.28   2 2.29   2 2.29  18 2.62
  23  0.829  0.658  0.136-   5 2.30   5 2.30  11 2.32  13 2.35
  24  0.429  0.958  0.418-  20 1.91   8 2.13  12 2.32  14 2.35   8 2.41
 
  LATTYP: Found a base centered orthorhombic cell.
 ALAT       =     3.5404000000
 B/A-ratio  =     5.8153587165
 C/A-ratio  =     7.7678875268
  
  Lattice vectors:
  
 A1 = (   1.7702000000,  10.2943480000,   0.0000000000)
 A2 = (   1.7702000000, -10.2943480000,   0.0000000000)
 A3 = (   0.0000000000,   0.0000000000, -27.5014290000)


Analysis of symmetry for initial positions (statically):
=====================================================================
 Subroutine PRICEL returns:
 Original cell was already a primitive cell.
 

 Routine SETGRP: Setting up the symmetry group for a 
 base centered orthorhombic supercell.


 Subroutine GETGRP returns: Found  1 space group operations
 (whereof  1 operations were pure point group operations)
 out of a pool of  8 trial point group operations.


The static configuration has the point symmetry C_1 .


Analysis of symmetry for dynamics (positions and initial velocities):
=====================================================================
 Subroutine PRICEL returns:
 Original cell was already a primitive cell.
 

 Routine SETGRP: Setting up the symmetry group for a 
 base centered orthorhombic supercell.


 Subroutine GETGRP returns: Found  1 space group operations
 (whereof  1 operations were pure point group operations)
 out of a pool of  8 trial point group operations.


The dynamic configuration has the point symmetry C_1 .
 
 
 KPOINTS: pymatgen generated KPOINTS with grid den

Automatic generation of k-mesh.
Space group operators:
 irot       det(A)        alpha          n_x          n_y          n_z        tau_x        tau_y        tau_z
    1     1.000000     0.000000     1.000000     0.000000     0.000000     0.000000     0.000000     0.000000
 
 Subroutine IBZKPT returns following result:
 ===========================================
 
 Found     54 irreducible k-points:
 
 Following reciprocal coordinates:
            Coordinates               Weight
  0.000000  0.000000  0.000000      1.000000
  0.076923 -0.000000  0.000000      2.000000
  0.153846 -0.000000  0.000000      2.000000
  0.230769 -0.000000  0.000000      2.000000
  0.307692 -0.000000  0.000000      2.000000
  0.384615 -0.000000  0.000000      2.000000
  0.461538 -0.000000  0.000000      2.000000
  0.000000  0.250000  0.000000      2.000000
  0.076923  0.250000  0.000000      2.000000
  0.153846  0.250000  0.000000      2.000000
  0.230769  0.250000  0.000000      2.000000
  0.307692  0.250000  0.000000      2.000000
  0.384615  0.250000  0.000000      2.000000
  0.461538  0.250000  0.000000      2.000000
 -0.461538  0.250000  0.000000      2.000000
 -0.384615  0.250000  0.000000      2.000000
 -0.307692  0.250000  0.000000      2.000000
 -0.230769  0.250000  0.000000      2.000000
 -0.153846  0.250000  0.000000      2.000000
 -0.076923  0.250000  0.000000      2.000000
  0.000000  0.500000  0.000000      1.000000
  0.076923  0.500000  0.000000      2.000000
  0.153846  0.500000  0.000000      2.000000
  0.230769  0.500000  0.000000      2.000000
  0.307692  0.500000  0.000000      2.000000
  0.384615  0.500000  0.000000      2.000000
  0.461538  0.500000  0.000000      2.000000
  0.000000  0.000000  0.500000      1.000000
  0.076923 -0.000000  0.500000      2.000000
  0.153846 -0.000000  0.500000      2.000000
  0.230769 -0.000000  0.500000      2.000000
  0.307692 -0.000000  0.500000      2.000000
  0.384615 -0.000000  0.500000      2.000000
  0.461538 -0.000000  0.500000      2.000000
  0.000000  0.250000  0.500000      2.000000
  0.076923  0.250000  0.500000      2.000000
  0.153846  0.250000  0.500000      2.000000
  0.230769  0.250000  0.500000      2.000000
  0.307692  0.250000  0.500000      2.000000
  0.384615  0.250000  0.500000      2.000000
  0.461538  0.250000  0.500000      2.000000
 -0.461538  0.250000  0.500000      2.000000
 -0.384615  0.250000  0.500000      2.000000
 -0.307692  0.250000  0.500000      2.000000
 -0.230769  0.250000  0.500000      2.000000
 -0.153846  0.250000  0.500000      2.000000
 -0.076923  0.250000  0.500000      2.000000
  0.000000  0.500000  0.500000      1.000000
  0.076923  0.500000  0.500000      2.000000
  0.153846  0.500000  0.500000      2.000000
  0.230769  0.500000  0.500000      2.000000
  0.307692  0.500000  0.500000      2.000000
  0.384615  0.500000  0.500000      2.000000
  0.461538  0.500000  0.500000      2.000000
 
 Following cartesian coordinates:
            Coordinates               Weight
  0.000000  0.000000  0.000000      1.000000
  0.021727  0.003736  0.000000      2.000000
  0.043454  0.007472  0.000000      2.000000
  0.065182  0.011209  0.000000      2.000000
  0.086909  0.014945  0.000000      2.000000
  0.108636  0.018681  0.000000      2.000000
  0.130363  0.022417  0.000000      2.000000
  0.000000  0.024285  0.000000      2.000000
  0.021727  0.028021  0.000000      2.000000
  0.043454  0.031758  0.000000      2.000000
  0.065182  0.035494  0.000000      2.000000
  0.086909  0.039230  0.000000      2.000000
  0.108636  0.042966  0.000000      2.000000
  0.130363  0.046702  0.000000      2.000000
 -0.130363  0.001868  0.000000      2.000000
 -0.108636  0.005604  0.000000      2.000000
 -0.086909  0.009340  0.000000      2.000000
 -0.065182  0.013077  0.000000      2.000000
 -0.043454  0.016813  0.000000      2.000000
 -0.021727  0.020549  0.000000      2.000000
  0.000000  0.048570  0.000000      1.000000
  0.021727  0.052307  0.000000      2.000000
  0.043454  0.056043  0.000000      2.000000
  0.065182  0.059779  0.000000      2.000000
  0.086909  0.063515  0.000000      2.000000
  0.108636  0.067251  0.000000      2.000000
  0.130363  0.070987  0.000000      2.000000
  0.000000  0.000000  0.018181      1.000000
  0.021727  0.003736  0.018181      2.000000
  0.043454  0.007472  0.018181      2.000000
  0.065182  0.011209  0.018181      2.000000
  0.086909  0.014945  0.018181      2.000000
  0.108636  0.018681  0.018181      2.000000
  0.130363  0.022417  0.018181      2.000000
  0.000000  0.024285  0.018181      2.000000
  0.021727  0.028021  0.018181      2.000000
  0.043454  0.031758  0.018181      2.000000
  0.065182  0.035494  0.018181      2.000000
  0.086909  0.039230  0.018181      2.000000
  0.108636  0.042966  0.018181      2.000000
  0.130363  0.046702  0.018181      2.000000
 -0.130363  0.001868  0.018181      2.000000
 -0.108636  0.005604  0.018181      2.000000
 -0.086909  0.009340  0.018181      2.000000
 -0.065182  0.013077  0.018181      2.000000
 -0.043454  0.016813  0.018181      2.000000
 -0.021727  0.020549  0.018181      2.000000
  0.000000  0.048570  0.018181      1.000000
  0.021727  0.052307  0.018181      2.000000
  0.043454  0.056043  0.018181      2.000000
  0.065182  0.059779  0.018181      2.000000
  0.086909  0.063515  0.018181      2.000000
  0.108636  0.067251  0.018181      2.000000
  0.130363  0.070987  0.018181      2.000000
 


--------------------------------------------------------------------------------------------------------




 Dimension of arrays:
   k-points           NKPTS =     54   k-points in BZ     NKDIM =     54   number of bands    NBANDS=     68
   number of dos      NEDOS =    301   number of ions     NIONS =     24
   non local maximal  LDIM  =      4   non local SUM 2l+1 LMDIM =      8
   total plane-waves  NPLWV = 192000
   max r-space proj   IRMAX =   2772   max aug-charges    IRDMAX=   6603
   dimension x,y,z NGX =    20 NGY =   60 NGZ =  160
   dimension x,y,z NGXF=    40 NGYF=  120 NGZF=  320
   support grid    NGXF=    40 NGYF=  120 NGZF=  320
   ions per type =              12  12
 NGX,Y,Z   is equivalent  to a cutoff of   9.39,  9.55,  9.67 a.u.
 NGXF,Y,Z  is equivalent  to a cutoff of  18.78, 19.10, 19.34 a.u.


 I would recommend the setting:
   dimension x,y,z NGX =    20 NGY =   59 NGZ =  155
 SYSTEM =  unknown system                          
 POSCAR =  Si12                                    

 Startparameter for this run:
   NWRITE =      2    write-flag & timer
   PREC   = accura    normal or accurate (medium, high low for compatibility)
   ISTART =      0    job   : 0-new  1-cont  2-samecut
   ICHARG =      2    charge: 1-file 2-atom 10-const
   ISPIN  =      1    spin polarized calculation?
   LNONCOLLINEAR =      F non collinear calculations
   LSORBIT =      F    spin-orbit coupling
   INIWAV =      1    electr: 0-lowe 1-rand  2-diag
   LASPH  =      F    aspherical Exc in radial PAW
   METAGGA=      F    non-selfconsistent MetaGGA calc.

 Electronic Relaxation 1
   ENCUT  =  300.0 eV  22.05 Ry    4.70 a.u.   5.00 14.75 38.84*2*pi/ulx,y,z
   ENINI  =  300.0     initial cutoff
   ENAUG  =  342.9 eV  augmentation charge cutoff
   NELM   =     60;   NELMIN=  2; NELMDL= -5     # of ELM steps 
   EDIFF  = 0.1E-05   stopping-criterion for ELM
   LREAL  =      T    real-space projection
   NLSPLINE    = F    spline interpolate recip. space projectors
   LCOMPAT=      F    compatible to vasp.4.4
   GGA_COMPAT  = T    GGA compatible to vasp.4.4-vasp.4.6
   LMAXPAW     = -100 max onsite density
   LMAXMIX     =    2 max onsite mixed and CHGCAR
   VOSKOWN=      0    Vosko Wilk Nusair interpolation
   ROPT   =   -0.00025  -0.00025
 Ionic relaxation
   EDIFFG = 0.1E-04   stopping-criterion for IOM
   NSW    =      0    number of steps for IOM
   NBLOCK =      1;   KBLOCK =      1    inner block; outer block 
   IBRION =     -1    ionic relax: 0-MD 1-quasi-New 2-CG
   NFREE  =      1    steps in history (QN), initial steepest desc. (CG)
   ISIF   =      3    stress and relaxation
   IWAVPR =     10    prediction:  0-non 1-charg 2-wave 3-comb
   ISYM   =      2    0-nonsym 1-usesym 2-fastsym
   LCORR  =      T    Harris-Foulkes like correction to forces

   POTIM  = 0.5000    time-step for ionic-motion
   TEIN   =    0.0    initial temperature
   TEBEG  =    0.0;   TEEND  =   0.0 temperature during run
   SMASS  =  -3.00    Nose mass-parameter (am)
   estimated Nose-frequenzy (Omega)   =  0.10E-29 period in steps =****** mass=  -0.286E-27a.u.
   SCALEE = 1.0000    scale energy and forces
   NPACO  =    256;   APACO  = 16.0  distance and # of slots for P.C.
   PSTRESS=    0.0 pullay stress

  Mass of Ions in am
   POMASS =  30.97 28.09
  Ionic Valenz
   ZVAL   =   5.00  4.00
  Atomic Wigner-Seitz radii
   RWIGS  =  -1.00 -1.00
  virtual crystal weights 
   VCA    =   1.00  1.00
   NELECT =     108.0000    total number of electrons
   NUPDOWN=      -1.0000    fix difference up-down

 DOS related values:
   EMIN   =  10.00;   EMAX   =-10.00  energy-range for DOS
   EFERMI =   0.00
   ISMEAR =     0;   SIGMA  =   0.10  broadening in eV -4-tet -1-fermi 0-gaus

 Electronic relaxation 2 (details)
   IALGO  =     38    algorithm
   LDIAG  =      T    sub-space diagonalisation (order eigenvalues)
   LSUBROT=      F    optimize rotation matrix (better conditioning)
   TURBO    =      0    0=normal 1=particle mesh
   IRESTART =      0    0=no restart 2=restart with 2 vectors
   NREBOOT  =      0    no. of reboots
   NMIN     =      0    reboot dimension
   EREF     =   0.00    reference energy to select bands
   IMIX   =      4    mixing-type and parameters
     AMIX     =   0.40;   BMIX     =  1.00
     AMIX_MAG =   1.60;   BMIX_MAG =  1.00
     AMIN     =   0.10
     WC   =   100.;   INIMIX=   1;  MIXPRE=   1;  MAXMIX= -45

 Intra band minimization:
   WEIMIN = 0.0000     energy-eigenvalue tresh-hold
   EBREAK =  0.37E-08  absolut break condition
   DEPER  =   0.30     relativ break condition  

   TIME   =   0.40     timestep for ELM

  volume/ion in A,a.u.               =      41.76       281.83
  Fermi-wavevector in a.u.,A,eV,Ry     =   0.779018  1.472130  8.256946  0.606868
  Thomas-Fermi vector in A             =   1.882034
 
 Write flags
   LWAVE  =      F    write WAVECAR
   LCHARG =      F    write CHGCAR
   LVTOT  =      F    write LOCPOT, total local potential
   LVHAR  =      F    write LOCPOT, Hartree potential only
   LELF   =      F    write electronic localiz. function (ELF)
   LORBIT =      0    0 simple, 1 ext, 2 COOP (PROOUT)


 Dipole corrections
   LMONO  =      F    monopole corrections only (constant potential shift)
   LDIPOL =      F    correct potential (dipole corrections)
   IDIPOL =      0    1-x, 2-y, 3-z, 4-all directions 
   EPSILON=  1.0000000 bulk dielectric constant

 Exchange correlation treatment:
   GGA     =    BO    GGA type
   LEXCH   =    42    internal setting for exchange type
   VOSKOWN=      0    Vosko Wilk Nusair interpolation
   LHFCALC =     F    Hartree Fock is set to
   LHFONE  =     F    Hartree Fock one center treatment
   AEXX    =    0.0000 exact exchange contribution

 vdW DFT:
   LUSE_VDW   =     T    switch on vdW DFT
   Zab_VDW    =-.8491    correlation parameter
   PARAM1     =0.1833
   PARAM2     =0.2200
   PARAM3     =0.0000

 Linear response parameters
   LEPSILON=     F    determine dielectric tensor
   LRPA    =     F    only Hartree local field effects (RPA)
   LNABLA  =     F    use nabla operator in PAW spheres
   LVEL    =     F    velocity operator in full k-point grid
   LINTERFAST=   F  fast interpolation
   KINTER  =     0    interpolate to denser k-point grid
   CSHIFT  =0.1000    complex shift for real part using Kramers Kronig
   OMEGAMAX=  -1.0    maximum frequency
   DEG_THRESHOLD= 0.2000000E-02 threshold for treating states as degnerate
   RTIME   =    0.100 relaxation time in fs

 Orbital magnetization related:
   ORBITALMAG=     F  switch on orbital magnetization
   LCHIMAG   =     F  perturbation theory with respect to B field
   DQ        =  0.001000  dq finite difference perturbation B field



--------------------------------------------------------------------------------------------------------


 Static calculation
 charge density and potential will be updated during run
 non-spin polarized calculation
 Variant of blocked Davidson
 Davidson routine will perform the subspace rotation
 perform sub-space diagonalisation
    after iterative eigenvector-optimisation
 modified Broyden-mixing scheme, WC =      100.0
 initial mixing is a Kerker type mixing with AMIX =  0.4000 and BMIX =      1.0000
 Hartree-type preconditioning will be used
 using additional bands           14
 real space projection scheme for non local part
 use partial core corrections
 calculate Harris-corrections to forces 
   (improved forces if not selfconsistent)
 use gradient corrections 
 use of overlap-Matrix (Vanderbilt PP)
 Gauss-broadening in eV      SIGMA  =   0.10


--------------------------------------------------------------------------------------------------------


  energy-cutoff  :      300.00
  volume of cell :     1002.32
      direct lattice vectors                 reciprocal lattice vectors
     3.540400000  0.000000000  0.000000000     0.282453960  0.048570342  0.000000000
    -1.770200000 10.294348000  0.000000000     0.000000000  0.097140683  0.000000000
     0.000000000  0.000000000 27.501429000     0.000000000  0.000000000  0.036361747

  length of vectors
     3.540400000 10.445439617 27.501429000     0.286599577  0.097140683  0.036361747


 
 k-points in units of 2pi/SCALE and weight: pymatgen generated KPOINTS with grid den
   0.00000000  0.00000000  0.00000000       0.010
   0.02172723  0.00373618  0.00000000       0.019
   0.04345446  0.00747236  0.00000000       0.019
   0.06518168  0.01120854  0.00000000       0.019
   0.08690891  0.01494472  0.00000000       0.019
   0.10863614  0.01868090  0.00000000       0.019
   0.13036337  0.02241708  0.00000000       0.019
   0.00000000  0.02428517  0.00000000       0.019
   0.02172723  0.02802135  0.00000000       0.019
   0.04345446  0.03175753  0.00000000       0.019
   0.06518168  0.03549371  0.00000000       0.019
   0.08690891  0.03922989  0.00000000       0.019
   0.10863614  0.04296607  0.00000000       0.019
   0.13036337  0.04670225  0.00000000       0.019
  -0.13036337  0.00186809  0.00000000       0.019
  -0.10863614  0.00560427  0.00000000       0.019
  -0.08690891  0.00934045  0.00000000       0.019
  -0.06518168  0.01307663  0.00000000       0.019
  -0.04345446  0.01681281  0.00000000       0.019
  -0.02172723  0.02054899  0.00000000       0.019
   0.00000000  0.04857034  0.00000000       0.010
   0.02172723  0.05230652  0.00000000       0.019
   0.04345446  0.05604270  0.00000000       0.019
   0.06518168  0.05977888  0.00000000       0.019
   0.08690891  0.06351506  0.00000000       0.019
   0.10863614  0.06725124  0.00000000       0.019
   0.13036337  0.07098742  0.00000000       0.019
   0.00000000  0.00000000  0.01818087       0.010
   0.02172723  0.00373618  0.01818087       0.019
   0.04345446  0.00747236  0.01818087       0.019
   0.06518168  0.01120854  0.01818087       0.019
   0.08690891  0.01494472  0.01818087       0.019
   0.10863614  0.01868090  0.01818087       0.019
   0.13036337  0.02241708  0.01818087       0.019
   0.00000000  0.02428517  0.01818087       0.019
   0.02172723  0.02802135  0.01818087       0.019
   0.04345446  0.03175753  0.01818087       0.019
   0.06518168  0.03549371  0.01818087       0.019
   0.08690891  0.03922989  0.01818087       0.019
   0.10863614  0.04296607  0.01818087       0.019
   0.13036337  0.04670225  0.01818087       0.019
  -0.13036337  0.00186809  0.01818087       0.019
  -0.10863614  0.00560427  0.01818087       0.019
  -0.08690891  0.00934045  0.01818087       0.019
  -0.06518168  0.01307663  0.01818087       0.019
  -0.04345446  0.01681281  0.01818087       0.019
  -0.02172723  0.02054899  0.01818087       0.019
   0.00000000  0.04857034  0.01818087       0.010
   0.02172723  0.05230652  0.01818087       0.019
   0.04345446  0.05604270  0.01818087       0.019
   0.06518168  0.05977888  0.01818087       0.019
   0.08690891  0.06351506  0.01818087       0.019
   0.10863614  0.06725124  0.01818087       0.019
   0.13036337  0.07098742  0.01818087       0.019
 
 k-points in reciprocal lattice and weights: pymatgen generated KPOINTS with grid den
   0.00000000  0.00000000  0.00000000       0.010
   0.07692308 -0.00000000  0.00000000       0.019
   0.15384615 -0.00000000  0.00000000       0.019
   0.23076923 -0.00000000  0.00000000       0.019
   0.30769231 -0.00000000  0.00000000       0.019
   0.38461538 -0.00000000  0.00000000       0.019
   0.46153846 -0.00000000  0.00000000       0.019
   0.00000000  0.25000000  0.00000000       0.019
   0.07692308  0.25000000  0.00000000       0.019
   0.15384615  0.25000000  0.00000000       0.019
   0.23076923  0.25000000  0.00000000       0.019
   0.30769231  0.25000000  0.00000000       0.019
   0.38461538  0.25000000  0.00000000       0.019
   0.46153846  0.25000000  0.00000000       0.019
  -0.46153846  0.25000000  0.00000000       0.019
  -0.38461538  0.25000000  0.00000000       0.019
  -0.30769231  0.25000000  0.00000000       0.019
  -0.23076923  0.25000000  0.00000000       0.019
  -0.15384615  0.25000000  0.00000000       0.019
  -0.07692308  0.25000000  0.00000000       0.019
   0.00000000  0.50000000  0.00000000       0.010
   0.07692308  0.50000000  0.00000000       0.019
   0.15384615  0.50000000  0.00000000       0.019
   0.23076923  0.50000000  0.00000000       0.019
   0.30769231  0.50000000  0.00000000       0.019
   0.38461538  0.50000000  0.00000000       0.019
   0.46153846  0.50000000  0.00000000       0.019
   0.00000000  0.00000000  0.50000000       0.010
   0.07692308 -0.00000000  0.50000000       0.019
   0.15384615 -0.00000000  0.50000000       0.019
   0.23076923 -0.00000000  0.50000000       0.019
   0.30769231 -0.00000000  0.50000000       0.019
   0.38461538 -0.00000000  0.50000000       0.019
   0.46153846 -0.00000000  0.50000000       0.019
   0.00000000  0.25000000  0.50000000       0.019
   0.07692308  0.25000000  0.50000000       0.019
   0.15384615  0.25000000  0.50000000       0.019
   0.23076923  0.25000000  0.50000000       0.019
   0.30769231  0.25000000  0.50000000       0.019
   0.38461538  0.25000000  0.50000000       0.019
   0.46153846  0.25000000  0.50000000       0.019
  -0.46153846  0.25000000  0.50000000       0.019
  -0.38461538  0.25000000  0.50000000       0.019
  -0.30769231  0.25000000  0.50000000       0.019
  -0.23076923  0.25000000  0.50000000       0.019
  -0.15384615  0.25000000  0.50000000       0.019
  -0.07692308  0.25000000  0.50000000       0.019
   0.00000000  0.50000000  0.50000000       0.010
   0.07692308  0.50000000  0.50000000       0.019
   0.15384615  0.50000000  0.50000000       0.019
   0.23076923  0.50000000  0.50000000       0.019
   0.30769231  0.50000000  0.50000000       0.019
   0.38461538  0.50000000  0.50000000       0.019
   0.46153846  0.50000000  0.50000000       0.019
 
 position of ions in fractional coordinates (direct lattice) 
   0.11402300  0.22804500  0.23316207
   0.71402300  0.52804500  0.51499159
   0.45808900  0.91617900  0.20939482
   0.05808900  0.21617900  0.49122434
   0.31085400  0.62170900  0.08414979
   0.31085400  0.62170900  0.36597930
   0.99923000  0.99846000  0.08631254
   0.99923000  0.99846000  0.36814206
   0.65492700  0.30985400  0.06041748
   0.65492700  0.30985400  0.34224700
   0.76973800  0.53947500  0.20725292
   0.36973800  0.83947500  0.48908244
   0.93971600  0.87943300  0.15783749
   0.53971600  0.17943300  0.43966701
   0.20515200  0.41030300  0.18578822
   0.80515200  0.71030300  0.46761774
   0.20184900  0.40369900  0.09969156
   0.20184900  0.40369900  0.38152107
   0.56380500  0.12761000  0.10779021
   0.56380500  0.12761000  0.38961973
   0.56710600  0.13421200  0.19387616
   0.16710600  0.43421200  0.47570568
   0.82923400  0.65846800  0.13571444
   0.42923400  0.95846800  0.41754396
 
 position of ions in cartesian coordinates  (Angst):
   0.00000177  2.34757459  6.41229012
   1.59318177  5.43587899 14.16300462
  -0.00000177  9.43146546  5.75865686
  -0.17702177  2.22542186 13.50937136
  -0.00000177  6.40008880  2.31423934
  -0.00000177  6.40008880 10.06495384
   1.77020000 10.27849470  2.37371832
   1.77020000 10.27849470 10.12443282
   1.77020000  3.18974491  1.66156717
   1.77020000  3.18974491  9.41228167
   1.77020177  5.55354339  5.69975143
  -0.17701823  8.64184779 13.45046593
   1.77019823  9.05318934  4.34075665
   1.59317823  1.84714574 12.09147115
   0.00000177  4.22380187  5.10944151
   1.59318177  7.31210627 12.86015601
  -0.00000177  4.15581799  2.74166024
  -0.00000177  4.15581799 10.49237474
   1.77020000  1.31366175  2.96438477
   1.77020000  1.31366175 10.71509927
   1.77020000  1.38162503  5.33187152
  -0.17702000  4.46992943 13.08258602
   1.77020000  6.77849874  3.73234107
  -0.17702000  9.86680314 11.48305557
 


--------------------------------------------------------------------------------------------------------


 k-point  1 :   0.0000 0.0000 0.0000  plane waves:   11717
 k-point  2 :   0.0769-0.0000 0.0000  plane waves:   11762
 k-point  3 :   0.1538-0.0000 0.0000  plane waves:   11805
 k-point  4 :   0.2308-0.0000 0.0000  plane waves:   11824
 k-point  5 :   0.3077-0.0000 0.0000  plane waves:   11875
 k-point  6 :   0.3846-0.0000 0.0000  plane waves:   11864
 k-point  7 :   0.4615-0.0000 0.0000  plane waves:   11883
 k-point  8 :   0.0000 0.2500 0.0000  plane waves:   11683
 k-point  9 :   0.0769 0.2500 0.0000  plane waves:   11756
 k-point 10 :   0.1538 0.2500 0.0000  plane waves:   11807
 k-point 11 :   0.2308 0.2500 0.0000  plane waves:   11853
 k-point 12 :   0.3077 0.2500 0.0000  plane waves:   11866
 k-point 13 :   0.3846 0.2500 0.0000  plane waves:   11889
 k-point 14 :   0.4615 0.2500 0.0000  plane waves:   11885
 k-point 15 :  -0.4615 0.2500 0.0000  plane waves:   11886
 k-point 16 :  -0.3846 0.2500 0.0000  plane waves:   11867
 k-point 17 :  -0.3077 0.2500 0.0000  plane waves:   11849
 k-point 18 :  -0.2308 0.2500 0.0000  plane waves:   11827
 k-point 19 :  -0.1538 0.2500 0.0000  plane waves:   11801
 k-point 20 :  -0.0769 0.2500 0.0000  plane waves:   11757
 k-point 21 :   0.0000 0.5000 0.0000  plane waves:   11710
 k-point 22 :   0.0769 0.5000 0.0000  plane waves:   11762
 k-point 23 :   0.1538 0.5000 0.0000  plane waves:   11782
 k-point 24 :   0.2308 0.5000 0.0000  plane waves:   11841
 k-point 25 :   0.3077 0.5000 0.0000  plane waves:   11876
 k-point 26 :   0.3846 0.5000 0.0000  plane waves:   11889
 k-point 27 :   0.4615 0.5000 0.0000  plane waves:   11881
 k-point 28 :   0.0000 0.0000 0.5000  plane waves:   11698
 k-point 29 :   0.0769-0.0000 0.5000  plane waves:   11752
 k-point 30 :   0.1538-0.0000 0.5000  plane waves:   11800
 k-point 31 :   0.2308-0.0000 0.5000  plane waves:   11834
 k-point 32 :   0.3077-0.0000 0.5000  plane waves:   11850
 k-point 33 :   0.3846-0.0000 0.5000  plane waves:   11888
 k-point 34 :   0.4615-0.0000 0.5000  plane waves:   11896
 k-point 35 :   0.0000 0.2500 0.5000  plane waves:   11714
 k-point 36 :   0.0769 0.2500 0.5000  plane waves:   11754
 k-point 37 :   0.1538 0.2500 0.5000  plane waves:   11802
 k-point 38 :   0.2308 0.2500 0.5000  plane waves:   11840
 k-point 39 :   0.3077 0.2500 0.5000  plane waves:   11858
 k-point 40 :   0.3846 0.2500 0.5000  plane waves:   11896
 k-point 41 :   0.4615 0.2500 0.5000  plane waves:   11886
 k-point 42 :  -0.4615 0.2500 0.5000  plane waves:   11852
 k-point 43 :  -0.3846 0.2500 0.5000  plane waves:   11838
 k-point 44 :  -0.3077 0.2500 0.5000  plane waves:   11842
 k-point 45 :  -0.2308 0.2500 0.5000  plane waves:   11840
 k-point 46 :  -0.1538 0.2500 0.5000  plane waves:   11804
 k-point 47 :  -0.0769 0.2500 0.5000  plane waves:   11748
 k-point 48 :   0.0000 0.5000 0.5000  plane waves:   11724
 k-point 49 :   0.0769 0.5000 0.5000  plane waves:   11748
 k-point 50 :   0.1538 0.5000 0.5000  plane waves:   11814
 k-point 51 :   0.2308 0.5000 0.5000  plane waves:   11832
 k-point 52 :   0.3077 0.5000 0.5000  plane waves:   11868
 k-point 53 :   0.3846 0.5000 0.5000  plane waves:   11892
 k-point 54 :   0.4615 0.5000 0.5000  plane waves:   11878

 maximum and minimum number of plane-waves per node :      5964     5832

 maximum number of plane-waves:     11896
 maximum index in each direction: 
   IXMAX=    5   IYMAX=   14   IZMAX=   38
   IXMIN=   -5   IYMIN=  -15   IZMIN=  -39

 WARNING: aliasing errors must be expected set NGX to  22 to avoid them
 NGY is ok and might be reduce to  60
 NGZ is ok and might be reduce to 156
 aliasing errors are usually negligible using standard VASP settings
 and one can safely disregard these warnings

 real space projection operators:
  total allocation   :       3793.25 KBytes
  max/ min on nodes  :       1899.38       1893.88


 parallel 3D FFT for wavefunctions:
    minimum data exchange during FFTs selected (reduces bandwidth)
 parallel 3D FFT for charge:
    minimum data exchange during FFTs selected (reduces bandwidth)


 total amount of memory used by VASP on root node   146493. kBytes
========================================================================

   base      :      30000. kBytes
   nonlr-proj:       3452. kBytes
   fftplans  :       9347. kBytes
   grid      :      14649. kBytes
   one-center:         36. kBytes
   wavefun   :      89009. kBytes
 
     INWAV:  cpu time    0.00: real time    0.00
 Broyden mixing: mesh for mixing (old mesh)
   NGX =  9   NGY = 29   NGZ = 77
  (NGX  = 40   NGY  =120   NGZ  =320)
  gives a total of  20097 points

 initial charge density was supplied:
 charge density of overlapping atoms calculated
 number of electron     108.0000000 magnetization 
 keeping initial charge density in first step


--------------------------------------------------------------------------------------------------------


 Maximum index for non-local projection operator         1333
 Maximum index for augmentation-charges          822 (set IRDMAX)


--------------------------------------------------------------------------------------------------------


 First call to EWALD:  gamma=   0.177
 Maximum number of real-space cells 7x 3x 1
 Maximum number of reciprocal cells 1x 3x 7

 FEWALD executed in parallel
    FEWALD:  cpu time    0.00: real time    0.00


----------------------------------------- Iteration    1(   1)  ---------------------------------------


vdW kernel read from vdw_kernel.bindat
  0.0000  0.2424  0.5071  0.7962  1.1119  1.4567  1.8333  2.2446  2.6937  3.1842
  3.7199  4.3049  4.9438  5.6415  6.4036  7.2358  8.1446  9.1372 10.2212 11.4050
 12.6979 14.1099 15.6519 17.3360 19.1751 21.1837 23.3773 25.7729 28.3892 31.2465
 34.3669 37.7748 41.4965 45.5611 50.0000
 
    POTLOK:  cpu time   16.28: real time   16.34
    SETDIJ:  cpu time    0.01: real time    0.01
     EDDAV:  cpu time   73.44: real time   73.68
       DOS:  cpu time    0.01: real time    0.01
    --------------------------------------------
      LOOP:  cpu time   89.75: real time   90.04

 eigenvalue-minimisations  :  7368
 total energy-change (2. order) : 0.5084760E+03  (-0.2874590E+04)
 number of electron     108.0000000 magnetization 
 augmentation part      108.0000000 magnetization 

 Free energy of the ion-electron system (eV)
  ---------------------------------------------------
  alpha Z        PSCENC =        36.80884744
  Ewald energy   TEWEN  =     11988.55126983
  -Hartree energ DENC   =    -15011.82754556
  -exchange      EXHF   =         0.00000000
  -V(xc)+E(xc)   XCENC  =       -87.39515025
  PAW double counting   =      1056.43050070     -732.41190547
  entropy T*S    EENTRO =        -0.04723800
  eigenvalues    EBANDS =       -95.67404738
  atomic energy  EATOM  =      3354.04126044
  ---------------------------------------------------
  free energy    TOTEN  =       508.47599176 eV

  energy without entropy =      508.52322976  energy(sigma->0) =      508.49961076


--------------------------------------------------------------------------------------------------------




----------------------------------------- Iteration    1(   2)  ---------------------------------------


     EDDAV:  cpu time   87.90: real time   88.17
       DOS:  cpu time    0.01: real time    0.01
    --------------------------------------------
      LOOP:  cpu time   87.91: real time   88.18

 eigenvalue-minimisations  :  9748
 total energy-change (2. order) :-0.5651223E+03  (-0.5499939E+03)
 number of electron     108.0000000 magnetization 
 augmentation part      108.0000000 magnetization 

 Free energy of the ion-electron system (eV)
  ---------------------------------------------------
  alpha Z        PSCENC =        36.80884744
  Ewald energy   TEWEN  =     11988.55126983
  -Hartree energ DENC   =    -15011.82754556
  -exchange      EXHF   =         0.00000000
  -V(xc)+E(xc)   XCENC  =       -87.39515025
  PAW double counting   =      1056.43050070     -732.41190547
  entropy T*S    EENTRO =        -0.01547060
  eigenvalues    EBANDS =      -660.82814625
  atomic energy  EATOM  =      3354.04126044
  ---------------------------------------------------
  free energy    TOTEN  =       -56.64633972 eV

  energy without entropy =      -56.63086911  energy(sigma->0) =      -56.63860442


--------------------------------------------------------------------------------------------------------




----------------------------------------- Iteration    1(   3)  ---------------------------------------


     EDDAV:  cpu time   84.40: real time   84.67
       DOS:  cpu time    0.01: real time    0.01
    --------------------------------------------
      LOOP:  cpu time   84.41: real time   84.68

 eigenvalue-minimisations  :  8880
 total energy-change (2. order) :-0.5791526E+02  (-0.5709745E+02)
 number of electron     108.0000000 magnetization 
 augmentation part      108.0000000 magnetization 

 Free energy of the ion-electron system (eV)
  ---------------------------------------------------
  alpha Z        PSCENC =        36.80884744
  Ewald energy   TEWEN  =     11988.55126983
  -Hartree energ DENC   =    -15011.82754556
  -exchange      EXHF   =         0.00000000
  -V(xc)+E(xc)   XCENC  =       -87.39515025
  PAW double counting   =      1056.43050070     -732.41190547
  entropy T*S    EENTRO =        -0.02588956
  eigenvalues    EBANDS =      -718.73298494
  atomic energy  EATOM  =      3354.04126044
  ---------------------------------------------------
  free energy    TOTEN  =      -114.56159737 eV

  energy without entropy =     -114.53570780  energy(sigma->0) =     -114.54865259


--------------------------------------------------------------------------------------------------------




----------------------------------------- Iteration    1(   4)  ---------------------------------------


     EDDAV:  cpu time  112.09: real time  112.56
       DOS:  cpu time    0.01: real time    0.01
    --------------------------------------------
      LOOP:  cpu time  112.11: real time  112.57

 eigenvalue-minimisations  : 11264
 total energy-change (2. order) :-0.2788636E+01  (-0.2768788E+01)
 number of electron     108.0000000 magnetization 
 augmentation part      108.0000000 magnetization 

 Free energy of the ion-electron system (eV)
  ---------------------------------------------------
  alpha Z        PSCENC =        36.80884744
  Ewald energy   TEWEN  =     11988.55126983
  -Hartree energ DENC   =    -15011.82754556
  -exchange      EXHF   =         0.00000000
  -V(xc)+E(xc)   XCENC  =       -87.39515025
  PAW double counting   =      1056.43050070     -732.41190547
  entropy T*S    EENTRO =        -0.03171126
  eigenvalues    EBANDS =      -721.51579921
  atomic energy  EATOM  =      3354.04126044
  ---------------------------------------------------
  free energy    TOTEN  =      -117.35023333 eV

  energy without entropy =     -117.31852207  energy(sigma->0) =     -117.33437770


--------------------------------------------------------------------------------------------------------




----------------------------------------- Iteration    1(   5)  ---------------------------------------


     EDDAV:  cpu time   88.94: real time   89.28
       DOS:  cpu time    0.01: real time    0.01
    CHARGE:  cpu time    4.27: real time    4.27
    MIXING:  cpu time    0.01: real time    0.01
    --------------------------------------------
      LOOP:  cpu time   93.23: real time   93.58

 eigenvalue-minimisations  :  9992
 total energy-change (2. order) :-0.5804830E-01  (-0.5794307E-01)
 number of electron     107.9999996 magnetization 
 augmentation part       -9.6909831 magnetization 

 Broyden mixing:
  rms(total) = 0.12790E+01    rms(broyden)= 0.12787E+01
  rms(prec ) = 0.14091E+01
  weight for this iteration     100.00

 Free energy of the ion-electron system (eV)
  ---------------------------------------------------
  alpha Z        PSCENC =        36.80884744
  Ewald energy   TEWEN  =     11988.55126983
  -Hartree energ DENC   =    -15011.82754556
  -exchange      EXHF   =         0.00000000
  -V(xc)+E(xc)   XCENC  =       -87.39515025
  PAW double counting   =      1056.43050070     -732.41190547
  entropy T*S    EENTRO =        -0.03186903
  eigenvalues    EBANDS =      -721.57368974
  atomic energy  EATOM  =      3354.04126044
  ---------------------------------------------------
  free energy    TOTEN  =      -117.40828163 eV

  energy without entropy =     -117.37641260  energy(sigma->0) =     -117.39234712


--------------------------------------------------------------------------------------------------------




----------------------------------------- Iteration    1(   6)  ---------------------------------------


    POTLOK:  cpu time   15.15: real time   15.19
    SETDIJ:  cpu time    0.01: real time    0.01
     EDDAV:  cpu time   84.62: real time   84.94
       DOS:  cpu time    0.01: real time    0.01
    CHARGE:  cpu time    4.31: real time    4.31
    MIXING:  cpu time    0.01: real time    0.01
    --------------------------------------------
      LOOP:  cpu time  104.11: real time  104.48

 eigenvalue-minimisations  :  8896
 total energy-change (2. order) : 0.4780079E+01  (-0.2917722E+01)
 number of electron     107.9999994 magnetization 
 augmentation part       -9.5153337 magnetization 

 Broyden mixing:
  rms(total) = 0.66180E+00    rms(broyden)= 0.66173E+00
  rms(prec ) = 0.74147E+00
  weight for this iteration     100.00

 eigenvalues of (default mixing * dielectric matrix)
  average eigenvalue GAMMA=   1.2639
  1.2639

 Free energy of the ion-electron system (eV)
  ---------------------------------------------------
  alpha Z        PSCENC =        36.80884744
  Ewald energy   TEWEN  =     11988.55126983
  -Hartree energ DENC   =    -15068.36993534
  -exchange      EXHF   =         0.00000000
  -V(xc)+E(xc)   XCENC  =       -84.11483225
  PAW double counting   =      1125.45018242     -803.54276875
  entropy T*S    EENTRO =        -0.03072132
  eigenvalues    EBANDS =      -661.42150515
  atomic energy  EATOM  =      3354.04126044
  ---------------------------------------------------
  free energy    TOTEN  =      -112.62820268 eV

  energy without entropy =     -112.59748136  energy(sigma->0) =     -112.61284202


--------------------------------------------------------------------------------------------------------




----------------------------------------- Iteration    1(   7)  ---------------------------------------


    POTLOK:  cpu time   15.15: real time   15.21
    SETDIJ:  cpu time    0.01: real time    0.01
     EDDAV:  cpu time   80.74: real time   80.88
       DOS:  cpu time    0.01: real time    0.01
    CHARGE:  cpu time    4.92: real time    4.95
    MIXING:  cpu time    0.02: real time    0.02
    --------------------------------------------
      LOOP:  cpu time  100.85: real time  101.09

 eigenvalue-minimisations  :  8832
 total energy-change (2. order) : 0.1356383E+00  (-0.1761361E+01)
 number of electron     107.9999996 magnetization 
 augmentation part       -9.4733655 magnetization 

 Broyden mixing:
  rms(total) = 0.42164E+00    rms(broyden)= 0.42159E+00
  rms(prec ) = 0.47872E+00
  weight for this iteration     100.00

 eigenvalues of (default mixing * dielectric matrix)
  average eigenvalue GAMMA=   1.0761
  1.5738  0.5784

 Free energy of the ion-electron system (eV)
  ---------------------------------------------------
  alpha Z        PSCENC =        36.80884744
  Ewald energy   TEWEN  =     11988.55126983
  -Hartree energ DENC   =    -15082.28597288
  -exchange      EXHF   =         0.00000000
  -V(xc)+E(xc)   XCENC  =       -82.10336162
  PAW double counting   =      1160.65261120     -839.75223066
  entropy T*S    EENTRO =        -0.03064153
  eigenvalues    EBANDS =      -648.37434662
  atomic energy  EATOM  =      3354.04126044
  ---------------------------------------------------
  free energy    TOTEN  =      -112.49256440 eV

  energy without entropy =     -112.46192286  energy(sigma->0) =     -112.47724363


--------------------------------------------------------------------------------------------------------




----------------------------------------- Iteration    1(   8)  ---------------------------------------


    POTLOK:  cpu time   16.37: real time   16.42
    SETDIJ:  cpu time    0.01: real time    0.01
     EDDAV:  cpu time   97.90: real time   98.18
       DOS:  cpu time    0.01: real time    0.01
    CHARGE:  cpu time    5.39: real time    5.41
    MIXING:  cpu time    0.01: real time    0.02
    --------------------------------------------
      LOOP:  cpu time  119.70: real time  120.04

 eigenvalue-minimisations  :  9576
 total energy-change (2. order) : 0.2047850E+00  (-0.3918632E+00)
 number of electron     107.9999995 magnetization 
 augmentation part       -9.4291137 magnetization 

 Broyden mixing:
  rms(total) = 0.21024E+00    rms(broyden)= 0.21021E+00
  rms(prec ) = 0.23416E+00
  weight for this iteration     100.00

 eigenvalues of (default mixing * dielectric matrix)
  average eigenvalue GAMMA=   1.1762
  1.9069  1.0772  0.5444

 Free energy of the ion-electron system (eV)
  ---------------------------------------------------
  alpha Z        PSCENC =        36.80884744
  Ewald energy   TEWEN  =     11988.55126983
  -Hartree energ DENC   =    -15090.35288326
  -exchange      EXHF   =         0.00000000
  -V(xc)+E(xc)   XCENC  =       -80.83716923
  PAW double counting   =      1179.75156658     -859.42915733
  entropy T*S    EENTRO =        -0.02979745
  eigenvalues    EBANDS =      -640.79171643
  atomic energy  EATOM  =      3354.04126044
  ---------------------------------------------------
  free energy    TOTEN  =      -112.28777941 eV

  energy without entropy =     -112.25798196  energy(sigma->0) =     -112.27288068


--------------------------------------------------------------------------------------------------------




----------------------------------------- Iteration    1(   9)  ---------------------------------------


    POTLOK:  cpu time   15.77: real time   15.78
    SETDIJ:  cpu time    0.01: real time    0.01
     EDDAV:  cpu time   81.78: real time   81.97
       DOS:  cpu time    0.01: real time    0.01
    CHARGE:  cpu time    4.36: real time    4.36
    MIXING:  cpu time    0.01: real time    0.02
    --------------------------------------------
      LOOP:  cpu time  101.95: real time  102.15

 eigenvalue-minimisations  :  8904
 total energy-change (2. order) : 0.2992084E-01  (-0.7227283E-01)
 number of electron     107.9999995 magnetization 
 augmentation part       -9.4214698 magnetization 

 Broyden mixing:
  rms(total) = 0.98908E-01    rms(broyden)= 0.98898E-01
  rms(prec ) = 0.10653E+00
  weight for this iteration     100.00

 eigenvalues of (default mixing * dielectric matrix)
  average eigenvalue GAMMA=   1.2201
  2.3302  1.1975  0.8416  0.5113

 Free energy of the ion-electron system (eV)
  ---------------------------------------------------
  alpha Z        PSCENC =        36.80884744
  Ewald energy   TEWEN  =     11988.55126983
  -Hartree energ DENC   =    -15103.85191991
  -exchange      EXHF   =         0.00000000
  -V(xc)+E(xc)   XCENC  =       -80.00442047
  PAW double counting   =      1188.40657947     -868.34467987
  entropy T*S    EENTRO =        -0.03616180
  eigenvalues    EBANDS =      -627.82863371
  atomic energy  EATOM  =      3354.04126044
  ---------------------------------------------------
  free energy    TOTEN  =      -112.25785857 eV

  energy without entropy =     -112.22169677  energy(sigma->0) =     -112.23977767


--------------------------------------------------------------------------------------------------------




----------------------------------------- Iteration    1(  10)  ---------------------------------------


    POTLOK:  cpu time   15.80: real time   15.83
    SETDIJ:  cpu time    0.01: real time    0.01
     EDDAV:  cpu time   76.08: real time   76.30
       DOS:  cpu time    0.01: real time    0.01
    CHARGE:  cpu time    4.18: real time    4.20
    MIXING:  cpu time    0.01: real time    0.01
    --------------------------------------------
      LOOP:  cpu time   96.10: real time   96.38

 eigenvalue-minimisations  :  8608
 total energy-change (2. order) :-0.1122308E-01  (-0.1546315E-01)
 number of electron     107.9999995 magnetization 
 augmentation part       -9.4130639 magnetization 

 Broyden mixing:
  rms(total) = 0.35843E-01    rms(broyden)= 0.35839E-01
  rms(prec ) = 0.39135E-01
  weight for this iteration     100.00

 eigenvalues of (default mixing * dielectric matrix)
  average eigenvalue GAMMA=   1.2545
  2.4975  1.2336  1.2336  0.7923  0.5152

 Free energy of the ion-electron system (eV)
  ---------------------------------------------------
  alpha Z        PSCENC =        36.80884744
  Ewald energy   TEWEN  =     11988.55126983
  -Hartree energ DENC   =    -15108.16207030
  -exchange      EXHF   =         0.00000000
  -V(xc)+E(xc)   XCENC  =       -79.53066794
  PAW double counting   =      1190.69514919     -870.72195223
  entropy T*S    EENTRO =        -0.03723826
  eigenvalues    EBANDS =      -623.91367983
  atomic energy  EATOM  =      3354.04126044
  ---------------------------------------------------
  free energy    TOTEN  =      -112.26908165 eV

  energy without entropy =     -112.23184340  energy(sigma->0) =     -112.25046252


--------------------------------------------------------------------------------------------------------




----------------------------------------- Iteration    1(  11)  ---------------------------------------


    POTLOK:  cpu time   15.61: real time   15.72
    SETDIJ:  cpu time    0.01: real time    0.01
     EDDAV:  cpu time   87.32: real time   87.62
       DOS:  cpu time    0.01: real time    0.01
    CHARGE:  cpu time    4.46: real time    4.49
    MIXING:  cpu time    0.02: real time    0.02
    --------------------------------------------
      LOOP:  cpu time  107.44: real time  107.88

 eigenvalue-minimisations  :  9056
 total energy-change (2. order) : 0.1035196E-01  (-0.2501200E-02)
 number of electron     107.9999995 magnetization 
 augmentation part       -9.4152040 magnetization 

 Broyden mixing:
  rms(total) = 0.14017E-01    rms(broyden)= 0.14014E-01
  rms(prec ) = 0.16164E-01
  weight for this iteration     100.00

 eigenvalues of (default mixing * dielectric matrix)
  average eigenvalue GAMMA=   1.2531
  2.6257  0.5159  1.3371  1.1068  1.1068  0.8265

 Free energy of the ion-electron system (eV)
  ---------------------------------------------------
  alpha Z        PSCENC =        36.80884744
  Ewald energy   TEWEN  =     11988.55126983
  -Hartree energ DENC   =    -15109.39096239
  -exchange      EXHF   =         0.00000000
  -V(xc)+E(xc)   XCENC  =       -79.43766997
  PAW double counting   =      1188.97024163     -868.95863594
  entropy T*S    EENTRO =        -0.03449873
  eigenvalues    EBANDS =      -622.80858202
  atomic energy  EATOM  =      3354.04126044
  ---------------------------------------------------
  free energy    TOTEN  =      -112.25872969 eV

  energy without entropy =     -112.22423097  energy(sigma->0) =     -112.24148033


--------------------------------------------------------------------------------------------------------




----------------------------------------- Iteration    1(  12)  ---------------------------------------


    POTLOK:  cpu time   16.00: real time   16.02
    SETDIJ:  cpu time    0.01: real time    0.01
     EDDAV:  cpu time   83.07: real time   83.30
       DOS:  cpu time    0.01: real time    0.01
    CHARGE:  cpu time    4.36: real time    4.36
    MIXING:  cpu time    0.01: real time    0.01
    --------------------------------------------
      LOOP:  cpu time  103.47: real time  103.72

 eigenvalue-minimisations  :  8712
 total energy-change (2. order) : 0.7260409E-02  (-0.7192981E-03)
 number of electron     107.9999995 magnetization 
 augmentation part       -9.4175935 magnetization 

 Broyden mixing:
  rms(total) = 0.70574E-02    rms(broyden)= 0.70566E-02
  rms(prec ) = 0.82096E-02
  weight for this iteration     100.00

 eigenvalues of (default mixing * dielectric matrix)
  average eigenvalue GAMMA=   1.2872
  2.6245  1.8995  0.5162  1.0704  1.0704  0.9593  0.8700

 Free energy of the ion-electron system (eV)
  ---------------------------------------------------
  alpha Z        PSCENC =        36.80884744
  Ewald energy   TEWEN  =     11988.55126983
  -Hartree energ DENC   =    -15110.66170980
  -exchange      EXHF   =         0.00000000
  -V(xc)+E(xc)   XCENC  =       -79.40417345
  PAW double counting   =      1187.86361357     -867.82238037
  entropy T*S    EENTRO =        -0.03536799
  eigenvalues    EBANDS =      -621.59282895
  atomic energy  EATOM  =      3354.04126044
  ---------------------------------------------------
  free energy    TOTEN  =      -112.25146929 eV

  energy without entropy =     -112.21610129  energy(sigma->0) =     -112.23378529


--------------------------------------------------------------------------------------------------------




----------------------------------------- Iteration    1(  13)  ---------------------------------------


    POTLOK:  cpu time   16.07: real time   16.12
    SETDIJ:  cpu time    0.01: real time    0.02
     EDDAV:  cpu time  105.69: real time  106.21
       DOS:  cpu time    0.01: real time    0.01
    CHARGE:  cpu time    4.67: real time    4.67
    MIXING:  cpu time    0.01: real time    0.02
    --------------------------------------------
      LOOP:  cpu time  126.47: real time  127.05

 eigenvalue-minimisations  :  9368
 total energy-change (2. order) : 0.5949521E-02  (-0.1001080E-03)
 number of electron     107.9999995 magnetization 
 augmentation part       -9.4185626 magnetization 

 Broyden mixing:
  rms(total) = 0.32630E-02    rms(broyden)= 0.32626E-02
  rms(prec ) = 0.44330E-02
  weight for this iteration     100.00

 eigenvalues of (default mixing * dielectric matrix)
  average eigenvalue GAMMA=   1.3188
  2.7164  2.0243  0.5163  1.1931  1.1931  0.8355  1.0358  1.0358

 Free energy of the ion-electron system (eV)
  ---------------------------------------------------
  alpha Z        PSCENC =        36.80884744
  Ewald energy   TEWEN  =     11988.55126983
  -Hartree energ DENC   =    -15111.47019862
  -exchange      EXHF   =         0.00000000
  -V(xc)+E(xc)   XCENC  =       -79.40472744
  PAW double counting   =      1186.90497385     -866.83781307
  entropy T*S    EENTRO =        -0.03526100
  eigenvalues    EBANDS =      -620.80387120
  atomic energy  EATOM  =      3354.04126044
  ---------------------------------------------------
  free energy    TOTEN  =      -112.24551976 eV

  energy without entropy =     -112.21025877  energy(sigma->0) =     -112.22788927


--------------------------------------------------------------------------------------------------------




----------------------------------------- Iteration    1(  14)  ---------------------------------------


    POTLOK:  cpu time   15.76: real time   15.83
    SETDIJ:  cpu time    0.01: real time    0.01
     EDDAV:  cpu time   88.41: real time   89.03
       DOS:  cpu time    0.01: real time    0.01
    CHARGE:  cpu time    4.42: real time    4.43
    MIXING:  cpu time    0.02: real time    0.02
    --------------------------------------------
      LOOP:  cpu time  108.64: real time  109.44

 eigenvalue-minimisations  :  9080
 total energy-change (2. order) : 0.2476317E-02  (-0.2235498E-04)
 number of electron     107.9999995 magnetization 
 augmentation part       -9.4182539 magnetization 

 Broyden mixing:
  rms(total) = 0.17157E-02    rms(broyden)= 0.17156E-02
  rms(prec ) = 0.27637E-02
  weight for this iteration     100.00

 eigenvalues of (default mixing * dielectric matrix)
  average eigenvalue GAMMA=   1.3610
  2.7712  2.4088  1.6559  0.5163  1.0928  1.0928  0.8144  0.9485  0.9485

 Free energy of the ion-electron system (eV)
  ---------------------------------------------------
  alpha Z        PSCENC =        36.80884744
  Ewald energy   TEWEN  =     11988.55126983
  -Hartree energ DENC   =    -15112.24837259
  -exchange      EXHF   =         0.00000000
  -V(xc)+E(xc)   XCENC  =       -79.39770452
  PAW double counting   =      1186.58167875     -866.50653437
  entropy T*S    EENTRO =        -0.03527286
  eigenvalues    EBANDS =      -620.03821556
  atomic energy  EATOM  =      3354.04126044
  ---------------------------------------------------
  free energy    TOTEN  =      -112.24304345 eV

  energy without entropy =     -112.20777059  energy(sigma->0) =     -112.22540702


--------------------------------------------------------------------------------------------------------




----------------------------------------- Iteration    1(  15)  ---------------------------------------


    POTLOK:  cpu time   15.31: real time   15.35
    SETDIJ:  cpu time    0.01: real time    0.01
     EDDAV:  cpu time   94.18: real time   94.50
       DOS:  cpu time    0.01: real time    0.01
    CHARGE:  cpu time    4.49: real time    4.50
    MIXING:  cpu time    0.01: real time    0.02
    --------------------------------------------
      LOOP:  cpu time  114.02: real time  114.39

 eigenvalue-minimisations  :  9392
 total energy-change (2. order) : 0.1432919E-02  (-0.9032130E-05)
 number of electron     107.9999995 magnetization 
 augmentation part       -9.4179372 magnetization 

 Broyden mixing:
  rms(total) = 0.98132E-03    rms(broyden)= 0.98127E-03
  rms(prec ) = 0.17521E-02
  weight for this iteration     100.00

 eigenvalues of (default mixing * dielectric matrix)
  average eigenvalue GAMMA=   1.3931
  3.0484  2.5417  1.5746  0.5163  1.3155  1.1118  1.1118  0.7963  0.9572  0.9572

 Free energy of the ion-electron system (eV)
  ---------------------------------------------------
  alpha Z        PSCENC =        36.80884744
  Ewald energy   TEWEN  =     11988.55126983
  -Hartree energ DENC   =    -15113.07893016
  -exchange      EXHF   =         0.00000000
  -V(xc)+E(xc)   XCENC  =       -79.39372597
  PAW double counting   =      1186.38346374     -866.30358414
  entropy T*S    EENTRO =        -0.03522964
  eigenvalues    EBANDS =      -619.21498208
  atomic energy  EATOM  =      3354.04126044
  ---------------------------------------------------
  free energy    TOTEN  =      -112.24161053 eV

  energy without entropy =     -112.20638089  energy(sigma->0) =     -112.22399571


--------------------------------------------------------------------------------------------------------




----------------------------------------- Iteration    1(  16)  ---------------------------------------


    POTLOK:  cpu time   15.73: real time   15.76
    SETDIJ:  cpu time    0.01: real time    0.01
     EDDAV:  cpu time   84.94: real time   85.27
       DOS:  cpu time    0.01: real time    0.01
    CHARGE:  cpu time    4.92: real time    4.92
    MIXING:  cpu time    0.02: real time    0.02
    --------------------------------------------
      LOOP:  cpu time  105.63: real time  106.00

 eigenvalue-minimisations  :  7984
 total energy-change (2. order) : 0.4014638E-03  (-0.4521293E-05)
 number of electron     107.9999995 magnetization 
 augmentation part       -9.4178310 magnetization 

 Broyden mixing:
  rms(total) = 0.64154E-03    rms(broyden)= 0.64151E-03
  rms(prec ) = 0.11116E-02
  weight for this iteration     100.00

 eigenvalues of (default mixing * dielectric matrix)
  average eigenvalue GAMMA=   1.4905
  3.5397  2.6799  2.0452  1.7356  0.5163  1.1217  1.1217  0.9589  0.9589  0.8037
  0.9138

 Free energy of the ion-electron system (eV)
  ---------------------------------------------------
  alpha Z        PSCENC =        36.80884744
  Ewald energy   TEWEN  =     11988.55126983
  -Hartree energ DENC   =    -15113.81091268
  -exchange      EXHF   =         0.00000000
  -V(xc)+E(xc)   XCENC  =       -79.38954880
  PAW double counting   =      1186.30395822     -866.22228392
  entropy T*S    EENTRO =        -0.03523351
  eigenvalues    EBANDS =      -618.48856609
  atomic energy  EATOM  =      3354.04126044
  ---------------------------------------------------
  free energy    TOTEN  =      -112.24120906 eV

  energy without entropy =     -112.20597555  energy(sigma->0) =     -112.22359231


--------------------------------------------------------------------------------------------------------




----------------------------------------- Iteration    1(  17)  ---------------------------------------


    POTLOK:  cpu time   15.89: real time   15.98
    SETDIJ:  cpu time    0.01: real time    0.01
     EDDAV:  cpu time   79.30: real time   79.60
       DOS:  cpu time    0.01: real time    0.01
    CHARGE:  cpu time    4.51: real time    4.53
    MIXING:  cpu time    0.02: real time    0.02
    --------------------------------------------
      LOOP:  cpu time   99.74: real time  100.16

 eigenvalue-minimisations  :  8096
 total energy-change (2. order) :-0.5185735E-03  (-0.1012050E-04)
 number of electron     107.9999995 magnetization 
 augmentation part       -9.4177608 magnetization 

 Broyden mixing:
  rms(total) = 0.35352E-03    rms(broyden)= 0.35349E-03
  rms(prec ) = 0.59724E-03
  weight for this iteration     100.00

 eigenvalues of (default mixing * dielectric matrix)
  average eigenvalue GAMMA=   1.5695
  4.4338  2.7456  2.2684  1.5082  1.5082  0.5163  1.1322  1.1322  0.9435  0.9435
  0.8042  0.8978

 Free energy of the ion-electron system (eV)
  ---------------------------------------------------
  alpha Z        PSCENC =        36.80884744
  Ewald energy   TEWEN  =     11988.55126983
  -Hartree energ DENC   =    -15114.44919954
  -exchange      EXHF   =         0.00000000
  -V(xc)+E(xc)   XCENC  =       -79.38600433
  PAW double counting   =      1186.32924211     -866.24823672
  entropy T*S    EENTRO =        -0.03524246
  eigenvalues    EBANDS =      -617.85366441
  atomic energy  EATOM  =      3354.04126044
  ---------------------------------------------------
  free energy    TOTEN  =      -112.24172764 eV

  energy without entropy =     -112.20648518  energy(sigma->0) =     -112.22410641


--------------------------------------------------------------------------------------------------------




----------------------------------------- Iteration    1(  18)  ---------------------------------------


    POTLOK:  cpu time   15.50: real time   15.63
    SETDIJ:  cpu time    0.01: real time    0.01
     EDDAV:  cpu time   82.48: real time   82.82
       DOS:  cpu time    0.01: real time    0.01
    CHARGE:  cpu time    6.29: real time    6.35
    MIXING:  cpu time    0.03: real time    0.03
    --------------------------------------------
      LOOP:  cpu time  104.33: real time  104.86

 eigenvalue-minimisations  :  7752
 total energy-change (2. order) :-0.3015932E-03  (-0.1107576E-04)
 number of electron     107.9999995 magnetization 
 augmentation part       -9.4176926 magnetization 

 Broyden mixing:
  rms(total) = 0.20786E-03    rms(broyden)= 0.20784E-03
  rms(prec ) = 0.36171E-03
  weight for this iteration     100.00

 eigenvalues of (default mixing * dielectric matrix)
  average eigenvalue GAMMA=   1.7033
  5.7718  2.8456  2.5107  1.8827  1.6228  0.5163  1.1203  1.1203  0.9525  0.9525
  1.1156  0.8029  0.9289

 Free energy of the ion-electron system (eV)
  ---------------------------------------------------
  alpha Z        PSCENC =        36.80884744
  Ewald energy   TEWEN  =     11988.55126983
  -Hartree energ DENC   =    -15114.77952035
  -exchange      EXHF   =         0.00000000
  -V(xc)+E(xc)   XCENC  =       -79.38434164
  PAW double counting   =      1186.34817369     -866.26757816
  entropy T*S    EENTRO =        -0.03523183
  eigenvalues    EBANDS =      -617.52490865
  atomic energy  EATOM  =      3354.04126044
  ---------------------------------------------------
  free energy    TOTEN  =      -112.24202923 eV

  energy without entropy =     -112.20679740  energy(sigma->0) =     -112.22441331


--------------------------------------------------------------------------------------------------------




----------------------------------------- Iteration    1(  19)  ---------------------------------------


    POTLOK:  cpu time   16.79: real time   16.85
    SETDIJ:  cpu time    0.01: real time    0.01
     EDDAV:  cpu time   68.24: real time   68.66
       DOS:  cpu time    0.01: real time    0.01
    CHARGE:  cpu time    4.23: real time    4.24
    MIXING:  cpu time    0.02: real time    0.02
    --------------------------------------------
      LOOP:  cpu time   89.30: real time   89.79

 eigenvalue-minimisations  :  7432
 total energy-change (2. order) :-0.1130718E-03  (-0.5311219E-05)
 number of electron     107.9999995 magnetization 
 augmentation part       -9.4176906 magnetization 

 Broyden mixing:
  rms(total) = 0.12464E-03    rms(broyden)= 0.12463E-03
  rms(prec ) = 0.22168E-03
  weight for this iteration     100.00

 eigenvalues of (default mixing * dielectric matrix)
  average eigenvalue GAMMA=   1.7287
  6.2169  2.8876  2.5737  1.9847  1.5012  1.5012  0.5163  1.1233  1.1233  1.1493
  0.9489  0.9489  0.8039  0.9220

 Free energy of the ion-electron system (eV)
  ---------------------------------------------------
  alpha Z        PSCENC =        36.80884744
  Ewald energy   TEWEN  =     11988.55126983
  -Hartree energ DENC   =    -15115.00185817
  -exchange      EXHF   =         0.00000000
  -V(xc)+E(xc)   XCENC  =       -79.38331151
  PAW double counting   =      1186.35874807     -866.27828463
  entropy T*S    EENTRO =        -0.03524472
  eigenvalues    EBANDS =      -617.30356906
  atomic energy  EATOM  =      3354.04126044
  ---------------------------------------------------
  free energy    TOTEN  =      -112.24214230 eV

  energy without entropy =     -112.20689758  energy(sigma->0) =     -112.22451994


--------------------------------------------------------------------------------------------------------




----------------------------------------- Iteration    1(  20)  ---------------------------------------


    POTLOK:  cpu time   15.17: real time   15.23
    SETDIJ:  cpu time    0.01: real time    0.01
     EDDAV:  cpu time   60.11: real time   60.34
       DOS:  cpu time    0.01: real time    0.01
    CHARGE:  cpu time    4.18: real time    4.21
    MIXING:  cpu time    0.02: real time    0.02
    --------------------------------------------
      LOOP:  cpu time   79.52: real time   79.83

 eigenvalue-minimisations  :  6264
 total energy-change (2. order) :-0.2917095E-04  (-0.8254293E-06)
 number of electron     107.9999995 magnetization 
 augmentation part       -9.4176883 magnetization 

 Broyden mixing:
  rms(total) = 0.78593E-04    rms(broyden)= 0.78589E-04
  rms(prec ) = 0.15012E-03
  weight for this iteration     100.00

 eigenvalues of (default mixing * dielectric matrix)
  average eigenvalue GAMMA=   1.7841
  6.7340  3.1627  2.6768  2.2172  1.8657  0.5163  1.1249  1.1249  1.4116  1.3024
  0.9535  0.9535  0.8051  0.9567  0.9567

 Free energy of the ion-electron system (eV)
  ---------------------------------------------------
  alpha Z        PSCENC =        36.80884744
  Ewald energy   TEWEN  =     11988.55126983
  -Hartree energ DENC   =    -15115.06848770
  -exchange      EXHF   =         0.00000000
  -V(xc)+E(xc)   XCENC  =       -79.38320665
  PAW double counting   =      1186.35583037     -866.27528394
  entropy T*S    EENTRO =        -0.03523618
  eigenvalues    EBANDS =      -617.23716508
  atomic energy  EATOM  =      3354.04126044
  ---------------------------------------------------
  free energy    TOTEN  =      -112.24217147 eV

  energy without entropy =     -112.20693529  energy(sigma->0) =     -112.22455338


--------------------------------------------------------------------------------------------------------




----------------------------------------- Iteration    1(  21)  ---------------------------------------


    POTLOK:  cpu time   15.36: real time   15.41
    SETDIJ:  cpu time    0.01: real time    0.01
     EDDAV:  cpu time   65.53: real time   65.79
       DOS:  cpu time    0.01: real time    0.01
    CHARGE:  cpu time    4.18: real time    4.20
    MIXING:  cpu time    0.02: real time    0.02
    --------------------------------------------
      LOOP:  cpu time   85.12: real time   85.45

 eigenvalue-minimisations  :  6976
 total energy-change (2. order) :-0.2251987E-05  (-0.2199020E-05)
 number of electron     107.9999995 magnetization 
 augmentation part       -9.4176840 magnetization 

 Broyden mixing:
  rms(total) = 0.59047E-04    rms(broyden)= 0.59045E-04
  rms(prec ) = 0.90615E-04
  weight for this iteration     100.00

 eigenvalues of (default mixing * dielectric matrix)
  average eigenvalue GAMMA=   1.8149
  6.9101  3.5199  2.7229  2.4265  1.8274  1.5772  1.5772  0.5163  1.1206  1.1206
  1.1505  0.9518  0.9518  0.8049  0.9306  0.9306

 Free energy of the ion-electron system (eV)
  ---------------------------------------------------
  alpha Z        PSCENC =        36.80884744
  Ewald energy   TEWEN  =     11988.55126983
  -Hartree energ DENC   =    -15115.13721996
  -exchange      EXHF   =         0.00000000
  -V(xc)+E(xc)   XCENC  =       -79.38312549
  PAW double counting   =      1186.35395840     -866.27335720
  entropy T*S    EENTRO =        -0.03523816
  eigenvalues    EBANDS =      -617.16856903
  atomic energy  EATOM  =      3354.04126044
  ---------------------------------------------------
  free energy    TOTEN  =      -112.24217373 eV

  energy without entropy =     -112.20693557  energy(sigma->0) =     -112.22455465


--------------------------------------------------------------------------------------------------------




----------------------------------------- Iteration    1(  22)  ---------------------------------------


    POTLOK:  cpu time   15.56: real time   15.69
    SETDIJ:  cpu time    0.01: real time    0.01
     EDDAV:  cpu time   62.82: real time   63.04
       DOS:  cpu time    0.01: real time    0.01
    CHARGE:  cpu time    4.22: real time    4.24
    MIXING:  cpu time    0.02: real time    0.02
    --------------------------------------------
      LOOP:  cpu time   82.65: real time   83.02

 eigenvalue-minimisations  :  6536
 total energy-change (2. order) : 0.9709751E-05  (-0.1239364E-05)
 number of electron     107.9999995 magnetization 
 augmentation part       -9.4176851 magnetization 

 Broyden mixing:
  rms(total) = 0.35326E-04    rms(broyden)= 0.35323E-04
  rms(prec ) = 0.51181E-04
  weight for this iteration     100.00

 eigenvalues of (default mixing * dielectric matrix)
  average eigenvalue GAMMA=   1.9648
  7.5259  5.2516  2.8944  2.5512  1.9593  1.9593  1.4234  1.4234  0.5163  1.1195
  1.1195  0.9494  0.9494  0.8046  0.9946  0.9946  0.9650

 Free energy of the ion-electron system (eV)
  ---------------------------------------------------
  alpha Z        PSCENC =        36.80884744
  Ewald energy   TEWEN  =     11988.55126983
  -Hartree energ DENC   =    -15115.14565142
  -exchange      EXHF   =         0.00000000
  -V(xc)+E(xc)   XCENC  =       -79.38325306
  PAW double counting   =      1186.35243942     -866.27181241
  entropy T*S    EENTRO =        -0.03523903
  eigenvalues    EBANDS =      -617.16002523
  atomic energy  EATOM  =      3354.04126044
  ---------------------------------------------------
  free energy    TOTEN  =      -112.24216402 eV

  energy without entropy =     -112.20692498  energy(sigma->0) =     -112.22454450


--------------------------------------------------------------------------------------------------------




----------------------------------------- Iteration    1(  23)  ---------------------------------------


    POTLOK:  cpu time   15.74: real time   15.77
    SETDIJ:  cpu time    0.01: real time    0.01
     EDDAV:  cpu time   68.85: real time   69.10
       DOS:  cpu time    0.01: real time    0.01
    CHARGE:  cpu time    4.23: real time    4.26
    MIXING:  cpu time    0.02: real time    0.02
    --------------------------------------------
      LOOP:  cpu time   88.88: real time   89.18

 eigenvalue-minimisations  :  7416
 total energy-change (2. order) : 0.7504692E-04  (-0.2393117E-05)
 number of electron     107.9999995 magnetization 
 augmentation part       -9.4176854 magnetization 

 Broyden mixing:
  rms(total) = 0.17801E-04    rms(broyden)= 0.17796E-04
  rms(prec ) = 0.23083E-04
  weight for this iteration     100.00

 eigenvalues of (default mixing * dielectric matrix)
  average eigenvalue GAMMA=   2.0088
  7.9550  6.1402  2.9958  2.6660  2.1604  1.7590  1.5242  1.5242  0.5163  1.1206
  1.1206  0.9539  0.9539  0.8049  1.0827  0.9879  0.9879  0.9044

 Free energy of the ion-electron system (eV)
  ---------------------------------------------------
  alpha Z        PSCENC =        36.80884744
  Ewald energy   TEWEN  =     11988.55126983
  -Hartree energ DENC   =    -15115.16343086
  -exchange      EXHF   =         0.00000000
  -V(xc)+E(xc)   XCENC  =       -79.38326551
  PAW double counting   =      1186.35023590     -866.26956715
  entropy T*S    EENTRO =        -0.03523686
  eigenvalues    EBANDS =      -617.14220219
  atomic energy  EATOM  =      3354.04126044
  ---------------------------------------------------
  free energy    TOTEN  =      -112.24208897 eV

  energy without entropy =     -112.20685211  energy(sigma->0) =     -112.22447054


[...]
     31      -4.1821      2.00000
     32      -3.8955      2.00000
     33      -3.7385      2.00000
     34      -3.6073      2.00000
     35      -3.2632      2.00000
     36      -3.1141      2.00000
     37      -3.0831      2.00000
     38      -2.9509      2.00000
     39      -2.9372      2.00000
     40      -2.6601      2.00000
     41      -2.5944      2.00000
     42      -2.4866      2.00000
     43      -2.4210      2.00000
     44      -2.2447      2.00000
     45      -2.1231      2.00000
     46      -1.8824      2.00000
     47      -1.7846      2.00000
     48      -1.7172      2.00000
     49      -1.6427      2.00000
     50      -1.2689      2.00000
     51      -0.9876      2.00000
     52      -0.8462      2.00000
     53      -0.2575      2.00000
     54      -0.0676      1.98689
     55       0.2336      0.07514
     56       0.9776      0.00000
     57       1.2270      0.00000
     58       1.5290      0.00000
     59       1.6745      0.00000
     60       1.7553      0.00000
     61       1.9950      0.00000
     62       2.3226      0.00000
     63       2.3537      0.00000
     64       2.7141      0.00000
     65       2.8318      0.00000
     66       2.8482      0.00000
     67       2.8851      0.00000
     68       3.1743      0.00000

 k-point    52 :       0.3077    0.5000    0.5000
  band No.  band energies     occupation 
      1     -14.3625      2.00000
      2     -12.3882      2.00000
      3     -12.2664      2.00000
      4     -12.0425      2.00000
      5     -11.6516      2.00000
      6     -11.5239      2.00000
      7     -11.3649      2.00000
      8     -10.9257      2.00000
      9     -10.8895      2.00000
     10     -10.6851      2.00000
     11     -10.4054      2.00000
     12     -10.2720      2.00000
     13      -9.4889      2.00000
     14      -8.8011      2.00000
     15      -8.0766      2.00000
     16      -7.6549      2.00000
     17      -7.4716      2.00000
     18      -6.9453      2.00000
     19      -6.8797      2.00000
     20      -6.8341      2.00000
     21      -6.4745      2.00000
     22      -6.1502      2.00000
     23      -6.0642      2.00000
     24      -5.8040      2.00000
     25      -5.7617      2.00000
     26      -5.2368      2.00000
     27      -4.8185      2.00000
     28      -4.7748      2.00000
     29      -4.5864      2.00000
     30      -4.3548      2.00000
     31      -4.2204      2.00000
     32      -4.1771      2.00000
     33      -3.9606      2.00000
     34      -3.7828      2.00000
     35      -3.4682      2.00000
     36      -3.1705      2.00000
     37      -3.1118      2.00000
     38      -2.9612      2.00000
     39      -2.8733      2.00000
     40      -2.8249      2.00000
     41      -2.7689      2.00000
     42      -2.6208      2.00000
     43      -2.4602      2.00000
     44      -2.3904      2.00000
     45      -2.3032      2.00000
     46      -2.1211      2.00000
     47      -1.8343      2.00000
     48      -1.7593      2.00000
     49      -1.6613      2.00000
     50      -1.6006      2.00000
     51      -1.2461      2.00000
     52      -1.0867      2.00000
     53      -0.5362      2.00000
     54      -0.2106      1.99999
     55       0.1424      0.62413
     56       0.6498      0.00000
     57       1.0506      0.00000
     58       1.3575      0.00000
     59       1.4204      0.00000
     60       1.4692      0.00000
     61       1.7656      0.00000
     62       2.1766      0.00000
     63       2.2997      0.00000
     64       2.4118      0.00000
     65       2.5720      0.00000
     66       2.6846      0.00000
     67       2.7370      0.00000
     68       2.9680      0.00000

 k-point    53 :       0.3846    0.5000    0.5000
  band No.  band energies     occupation 
      1     -13.9214      2.00000
      2     -11.9118      2.00000
      3     -11.8051      2.00000
      4     -11.5457      2.00000
      5     -11.4181      2.00000
      6     -11.1494      2.00000
      7     -11.1236      2.00000
      8     -10.9043      2.00000
      9     -10.6558      2.00000
     10     -10.5758      2.00000
     11     -10.4933      2.00000
     12     -10.3385      2.00000
     13      -9.5476      2.00000
     14      -8.7854      2.00000
     15      -8.4285      2.00000
     16      -8.1292      2.00000
     17      -7.8183      2.00000
     18      -7.4942      2.00000
     19      -7.2663      2.00000
     20      -7.2137      2.00000
     21      -6.9892      2.00000
     22      -6.5978      2.00000
     23      -6.5362      2.00000
     24      -6.2738      2.00000
     25      -5.7211      2.00000
     26      -5.1788      2.00000
     27      -4.7191      2.00000
     28      -4.5576      2.00000
     29      -4.5310      2.00000
     30      -4.3752      2.00000
     31      -4.2846      2.00000
     32      -4.0177      2.00000
     33      -3.9217      2.00000
     34      -3.8871      2.00000
     35      -3.5654      2.00000
     36      -3.4136      2.00000
     37      -3.2582      2.00000
     38      -3.1649      2.00000
     39      -3.0637      2.00000
     40      -3.0056      2.00000
     41      -2.9011      2.00000
     42      -2.7467      2.00000
     43      -2.5778      2.00000
     44      -2.4355      2.00000
     45      -2.2902      2.00000
     46      -2.1842      2.00000
     47      -2.0184      2.00000
     48      -1.9386      2.00000
     49      -1.7403      2.00000
     50      -1.6037      2.00000
     51      -1.4573      2.00000
     52      -1.3215      2.00000
     53      -0.5406      2.00000
     54      -0.3421      2.00000
     55       0.1159      0.90832
     56       0.4140      0.00001
     57       0.8311      0.00000
     58       1.1384      0.00000
     59       1.3753      0.00000
     60       1.5645      0.00000
     61       1.6559      0.00000
     62       1.9556      0.00000
     63       1.9799      0.00000
     64       2.2173      0.00000
     65       2.2592      0.00000
     66       2.3921      0.00000
     67       2.4759      0.00000
     68       2.7985      0.00000

 k-point    54 :       0.4615    0.5000    0.5000
  band No.  band energies     occupation 
      1     -13.5434      2.00000
      2     -11.7694      2.00000
      3     -11.3688      2.00000
      4     -11.2918      2.00000
      5     -11.0479      2.00000
      6     -10.9880      2.00000
      7     -10.9064      2.00000
      8     -10.8284      2.00000
      9     -10.7253      2.00000
     10     -10.6029      2.00000
     11     -10.4959      2.00000
     12     -10.4259      2.00000
     13      -9.6668      2.00000
     14      -8.6307      2.00000
     15      -8.5423      2.00000
     16      -8.3193      2.00000
     17      -8.0148      2.00000
     18      -7.9975      2.00000
     19      -7.7126      2.00000
     20      -7.4383      2.00000
     21      -7.3063      2.00000
     22      -7.1666      2.00000
     23      -7.0470      2.00000
     24      -6.1006      2.00000
     25      -5.4625      2.00000
     26      -4.8498      2.00000
     27      -4.8250      2.00000
     28      -4.4414      2.00000
     29      -4.3654      2.00000
     30      -4.3006      2.00000
     31      -4.1413      2.00000
     32      -3.9902      2.00000
     33      -3.9415      2.00000
     34      -3.8351      2.00000
     35      -3.6776      2.00000
     36      -3.6347      2.00000
     37      -3.4926      2.00000
     38      -3.4231      2.00000
     39      -3.1589      2.00000
     40      -3.1368      2.00000
     41      -2.9504      2.00000
     42      -2.8969      2.00000
     43      -2.6804      2.00000
     44      -2.5692      2.00000
     45      -2.2929      2.00000
     46      -2.2360      2.00000
     47      -2.0758      2.00000
     48      -1.9851      2.00000
     49      -1.8113      2.00000
     50      -1.5993      2.00000
     51      -1.4114      2.00000
     52      -1.3381      2.00000
     53      -0.6107      2.00000
     54      -0.3520      2.00000
     55       0.1194      0.86913
     56       0.2761      0.01728
     57       0.5733      0.00000
     58       1.1396      0.00000
     59       1.4672      0.00000
     60       1.5331      0.00000
     61       1.7082      0.00000
     62       1.8170      0.00000
     63       1.8889      0.00000
     64       1.9966      0.00000
     65       2.1593      0.00000
     66       2.2566      0.00000
     67       2.4738      0.00000
     68       2.5461      0.00000


--------------------------------------------------------------------------------------------------------


 soft charge-density along one line, spin component           1
         0         1         2         3         4         5         6         7         8         9
 total charge-density along one line
 
 pseudopotential strength for first ion, spin component:           1
 29.751   0.008  -0.000  -0.023  -0.000  -0.000  -0.001  -0.000
  0.008   0.009  -0.000  -0.000   0.000   0.000   0.000  -0.000
 -0.000  -0.000   6.544  -0.001   0.000  -0.003   0.000  -0.000
 -0.023  -0.000  -0.001   6.538   0.000   0.000  -0.002  -0.000
 -0.000   0.000   0.000   0.000   6.544  -0.000  -0.000  -0.003
 -0.000   0.000  -0.003   0.000  -0.000   0.015  -0.000   0.000
 -0.001   0.000   0.000  -0.002  -0.000  -0.000   0.015   0.000
 -0.000  -0.000  -0.000  -0.000  -0.003   0.000   0.000   0.015
 total augmentation occupancy for first ion, spin component:           1
  1.812  -0.359   0.007   0.252   0.000   0.005   0.113  -0.000
 -0.359   1.279   0.027   0.851   0.000   0.002  -0.433   0.000
  0.007   0.027   1.143   0.010   0.000  -0.502   0.015  -0.000
  0.252   0.851   0.010   1.291   0.000   0.015  -0.420  -0.000
  0.000   0.000   0.000   0.000   1.145   0.000  -0.000  -0.526
  0.005   0.002  -0.502   0.015   0.000   0.291  -0.016  -0.000
  0.113  -0.433   0.015  -0.420  -0.000  -0.016   0.227   0.000
 -0.000   0.000  -0.000  -0.000  -0.526  -0.000   0.000   0.325


------------------------ aborting loop because EDIFF is reached ----------------------------------------


    CHARGE:  cpu time    4.15: real time    4.15
    FORLOC:  cpu time    0.05: real time    0.05
    FORNL :  cpu time   19.76: real time   19.82
    STRESS:  cpu time   58.65: real time   58.85
    FORCOR:  cpu time   15.15: real time   15.18
    FORHAR:  cpu time    0.14: real time    0.14
    MIXING:  cpu time    0.02: real time    0.02
    OFIELD:  cpu time    0.00: real time    0.00

  FORCE on cell =-STRESS in cart. coord.  units (eV):
  Direction    XX          YY          ZZ          XY          YZ          ZX
  --------------------------------------------------------------------------------------
  Alpha Z    36.80885    36.80885    36.80885
  Ewald   14426.21494 13963.82438-16401.49529    -0.54435   -18.61585    -2.19146
  Hartree 14951.07622 14593.23255-14429.14793     1.28099   -11.84269     1.37474
  E(xc)    -358.49410  -359.10572  -358.42088     0.04077    -0.46858     0.15101
  Local  -30934.33263-30126.05864 29249.41790    -1.74935    36.99968    -2.37669
  n-local  1158.89020  1175.04447  1181.07305    -1.39120     6.77123    -2.49120
  augment  -202.49961  -205.21548  -206.55263    -0.04155     0.35660    -0.05715
  Kinetic   924.14668   947.49415   989.76263     0.84394    -1.97898    -1.98151
  Fock        0.00000     0.00000     0.00000     0.00000     0.00000     0.00000
  -------------------------------------------------------------------------------------
  Total       1.81054    26.02456    61.44571    -1.56075    11.22141    -7.57226
  in kB       2.89409    41.59944    98.21904    -2.49481    17.93707   -12.10402
  external pressure =       47.57 kB  Pullay stress =        0.00 kB


 VOLUME and BASIS-vectors are now :
 -----------------------------------------------------------------------------
  energy-cutoff  :      300.00
  volume of cell :     1002.32
      direct lattice vectors                 reciprocal lattice vectors
     3.540400000  0.000000000  0.000000000     0.282453960  0.048570342  0.000000000
    -1.770200000 10.294348000  0.000000000     0.000000000  0.097140683  0.000000000
     0.000000000  0.000000000 27.501429000     0.000000000  0.000000000  0.036361747

  length of vectors
     3.540400000 10.445439617 27.501429000     0.286599577  0.097140683  0.036361747


 FORCES acting on ions
    electron-ion (+dipol)            ewald-force                    non-local-force                 convergence-correction
 -----------------------------------------------------------------------------------------------
   0.176E-01 0.424E+01 0.311E+02   -.487E-02 -.412E+01 -.266E+02   -.144E-01 -.149E+00 -.451E+01   -.850E-07 0.395E-05 -.125E-04
   -.885E-01 -.161E+02 -.557E+03   0.128E+00 0.164E+02 0.561E+03   -.949E-03 -.337E+00 -.413E+01   0.120E-07 -.456E-05 0.435E-04
   -.108E-02 0.662E+02 0.505E+02   0.284E-02 -.677E+02 -.463E+02   -.183E-02 0.152E+01 -.415E+01   -.240E-07 -.585E-06 -.139E-04
   -.644E+00 0.354E+02 -.556E+03   0.336E+00 -.372E+02 0.561E+03   0.352E+00 0.129E+01 -.426E+01   0.289E-07 -.103E-05 0.301E-04
   -.330E-03 -.571E+02 0.526E+03   0.880E-04 0.587E+02 -.530E+03   -.350E-03 -.154E+01 0.428E+01   -.239E-07 -.258E-05 -.635E-05
   0.313E+00 -.677E+02 -.864E+02   -.234E+00 0.704E+02 0.843E+02   0.237E+00 -.279E+01 0.260E+01   -.223E-06 -.322E-05 -.140E-04
   0.158E-03 0.541E+02 0.526E+03   0.906E-05 -.560E+02 -.531E+03   0.819E-03 0.191E+01 0.415E+01   0.285E-07 -.756E-06 -.639E-05
   0.997E+01 0.980E+02 -.413E+02   -.956E+01 -.996E+02 0.374E+02   -.133E+01 0.513E+00 0.187E+01   0.212E-06 0.695E-05 -.122E-04
   0.487E-03 0.152E+01 0.572E+03   -.849E-04 -.172E+01 -.577E+03   0.120E-02 0.201E+00 0.476E+01   -.170E-06 0.310E-05 -.109E-04
   -.238E+00 -.405E+02 -.114E+02   0.393E+00 0.401E+02 0.802E+01   0.168E+00 0.125E+01 0.193E+01   -.106E-06 -.410E-05 -.209E-04
   -.131E-02 -.650E+02 0.560E+02   -.260E-04 0.670E+02 -.518E+02   0.206E-02 -.197E+01 -.407E+01   -.865E-07 -.281E-05 -.125E-04
   -.186E+00 -.191E+02 -.509E+03   0.293E-02 0.211E+02 0.513E+03   0.867E-01 -.196E+01 -.399E+01   0.117E-07 0.562E-05 0.318E-04
   0.184E-02 0.319E+02 0.209E+03   -.181E-03 -.341E+02 -.209E+03   0.129E-02 0.215E+01 0.354E+00   0.212E-07 -.234E-06 -.397E-05
   0.845E+01 -.260E+02 -.357E+03   -.862E+01 0.274E+02 0.355E+03   -.534E+01 0.142E+02 0.464E+02   0.149E-06 0.965E-06 0.123E-04
   -.191E-02 -.138E+02 0.138E+03   -.829E-04 0.141E+02 -.140E+03   -.365E-03 -.301E+00 0.254E+01   0.840E-08 0.961E-06 -.683E-05
   -.721E+00 -.222E+01 -.287E+03   0.514E+00 0.216E+01 0.287E+03   0.504E-02 -.227E+00 -.680E+00   0.123E-06 0.266E-05 0.187E-04
   0.236E-03 -.557E+01 0.346E+03   0.701E-04 0.604E+01 -.343E+03   -.650E-04 -.476E+00 -.251E+01   0.281E-07 0.919E-07 -.391E-05
   -.481E+00 -.491E+02 -.136E+03   0.285E+00 0.519E+02 0.135E+03   -.391E-01 -.106E+01 0.130E+01   0.750E-07 -.920E-05 -.887E-05
   0.279E-03 0.965E+01 0.336E+03   0.721E-05 -.988E+01 -.333E+03   -.248E-02 0.220E+00 -.254E+01   -.187E-07 0.264E-05 -.433E-05
   -.135E+02 0.119E+02 -.684E+02   0.125E+02 -.116E+02 0.686E+02   0.700E+01 -.740E+01 -.457E+02   0.162E-06 0.466E-05 -.426E-05
   -.119E-01 0.105E+02 0.129E+03   0.971E-03 -.109E+02 -.131E+03   0.122E-01 0.357E+00 0.248E+01   0.219E-07 0.192E-05 -.634E-05
   0.120E+01 -.238E+02 -.332E+03   -.824E+00 0.228E+02 0.330E+03   -.167E+00 0.519E+00 0.365E+00   -.109E-06 -.957E-05 0.213E-04
   0.131E-02 -.311E+02 0.253E+03   -.104E-03 0.331E+02 -.253E+03   0.881E-03 -.207E+01 -.419E+00   -.258E-08 -.281E-05 -.321E-05
   -.606E+01 0.102E+03 -.233E+03   0.508E+01 -.983E+02 0.232E+03   0.998E+00 -.127E+02 0.675E+01   -.180E-06 0.610E-05 0.520E-05
 -----------------------------------------------------------------------------------------------
   -.197E+01 0.882E+01 -.280E+01   -.142E-13 0.142E-13 -.227E-12   0.197E+01 -.882E+01 0.280E+01   -.146E-06 -.183E-05 0.115E-04
 
 
 POSITION                                       TOTAL-FORCE (eV/Angst)
 -----------------------------------------------------------------------------------
      0.00000      2.34757      6.41229        -0.001889     -0.036878      0.046977
      1.59318      5.43588     14.16300         0.037999     -0.017212     -0.220439
     -0.00000      9.43147      5.75866        -0.000335     -0.012547      0.073220
     -0.17702      2.22542     13.50937         0.042774     -0.522419      0.810549
     -0.00000      6.40009      2.31424        -0.000856     -0.003509     -0.000416
     -0.00000      6.40009     10.06495         0.315922     -0.061614      0.562344
      1.77020     10.27849      2.37372         0.000723     -0.003073     -0.000170
      1.77020     10.27849     10.12443        -0.925729     -1.100485     -2.010796
      1.77020      3.18974      1.66157         0.001337     -0.001164      0.010807
      1.77020      3.18974      9.41228         0.322270      0.836947     -1.405220
      1.77020      5.55354      5.69975         0.000464      0.011001      0.095951
     -0.17702      8.64185     13.45047        -0.096251      0.063322      0.106852
      1.77020      9.05319      4.34076         0.002690     -0.005117      0.010967
      1.59318      1.84715     12.09147        -5.509390     15.547487     44.054270
      0.00000      4.22380      5.10944        -0.002624      0.040429      0.088823
      1.59318      7.31211     12.86016        -0.201637     -0.293854     -1.067765
     -0.00000      4.15582      2.74166        -0.000023     -0.003470     -0.022923
     -0.00000      4.15582     10.49237        -0.234923      1.766363      0.409575
      1.77020      1.31366      2.96438        -0.002458     -0.007565     -0.014883
      1.77020      1.31366     10.71510         6.024690     -7.007123    -45.462793
      1.77020      1.38163      5.33187         0.001020     -0.032276     -0.003212
     -0.17702      4.46993     13.08259         0.204496     -0.476621     -1.108907
      1.77020      6.77850      3.73234         0.001827     -0.008494      0.001478
     -0.17702      9.86680     11.48306         0.019903     -8.672126      5.045711
 -----------------------------------------------------------------------------------
    total drift:                                0.006343      0.001188      0.004102


--------------------------------------------------------------------------------------------------------



  FREE ENERGIE OF THE ION-ELECTRON SYSTEM (eV)
  ---------------------------------------------------
  free  energy   TOTEN  =      -112.24204962 eV

  energy  without entropy=     -112.20681141  energy(sigma->0) =     -112.22443051
 


--------------------------------------------------------------------------------------------------------


    POTLOK:  cpu time   15.66: real time   15.72


--------------------------------------------------------------------------------------------------------


     LOOP+:  cpu time 2803.65: real time 2813.98
    4ORBIT:  cpu time    0.00: real time    0.00

 total amount of memory used by VASP on root node   146493. kBytes
========================================================================

   base      :      30000. kBytes
   nonlr-proj:       3452. kBytes
   fftplans  :       9347. kBytes
   grid      :      14649. kBytes
   one-center:         36. kBytes
   wavefun   :      89009. kBytes
 
  
  
 General timing and accounting informations for this job:
 ========================================================
  
                  Total CPU time used (sec):     2819.942
                            User time (sec):     2780.125
                          System time (sec):       39.817
                         Elapsed time (sec):     2831.422
  
                   Maximum memory used (kb):      335260.
                   Average memory used (kb):           0.
  
                          Minor page faults:      8201271
                          Major page faults:            8
                 Voluntary context switches:         1548
