<?xml version="1.0" encoding="ISO-8859-1"?>
<modeling>
 <generator>
  <i name="program" type="string">vasp </i>
  <i name="version" type="string">5.4.1  </i>
  <i name="subversion" type="string">24Jun15 (build May 10 2016 14:18:23) complex                          parallel </i>
  <i name="platform" type="string">IFC91_ompi </i>
  <i name="date" type="string">2016 12 09 </i>
  <i name="time" type="string">15:00:40 </i>
 </generator>
 <incar>
  <i type="string" name="PREC">accurate</i>
  <i type="string" name="ALGO"> Fast</i>
  <i type="int" name="ISPIN">     2</i>
  <i type="int" name="IBRION">     2</i>
  <i name="EDIFF">      0.00010000</i>
  <i type="int" name="NSW">     0</i>
  <i type="int" name="ISIF">     3</i>
  <i name="ENCUT">    500.00000000</i>
  <v name="MAGMOM">      6.00000000      0.50000000      0.50000000      6.00000000      0.50000000      0.50000000</v>
  <i type="string" name="LREAL"> Auto</i>
  <i type="int" name="ISMEAR">     1</i>
  <i name="SIGMA">      0.10000000</i>
  <i type="logical" name="LWAVE"> F  </i>
  <i type="logical" name="LCHARG"> F  </i>
  <i type="logical" name="LVTOT"> T  </i>
  <i type="logical" name="LVHAR"> T  </i>
  <i type="logical" name="LAECHG"> F  </i>
  <v type="int" name="KPOINT_BSE">    -1     0     0     0</v>
  <i type="string" name="GGA"> Bo</i>
  <i name="PARAM1">      0.18333333</i>
  <i name="PARAM2">      0.22000000</i>
  <i type="logical" name="LUSE_VDW"> T  </i>
  <i name="AGGAC">      0.00000000</i>
 </incar>
 <kpoints>
  <generation param="Gamma">
   <v type="int" name="divisions">      13       13        1 </v>
   <v name="usershift">      0.00000000       0.00000000       0.00000000 </v>
   <v name="genvec1">      0.07692308       0.00000000       0.00000000 </v>
   <v name="genvec2">      0.00000000       0.07692308       0.00000000 </v>
   <v name="genvec3">      0.00000000       0.00000000       1.00000000 </v>
   <v name="shift">      0.00000000       0.00000000       0.00000000 </v>
  </generation>
  <varray name="kpointlist" >
   <v>       0.00000000       0.00000000       0.00000000 </v>
   <v>       0.07692308      -0.00000000       0.00000000 </v>
   <v>       0.15384615       0.00000000       0.00000000 </v>
   <v>       0.23076923       0.00000000       0.00000000 </v>
   <v>       0.30769231      -0.00000000       0.00000000 </v>
   <v>       0.38461538       0.00000000       0.00000000 </v>
   <v>       0.46153846       0.00000000       0.00000000 </v>
   <v>       0.00000000       0.07692308       0.00000000 </v>
   <v>       0.07692308       0.07692308       0.00000000 </v>
   <v>       0.15384615       0.07692308       0.00000000 </v>
   <v>       0.23076923       0.07692308       0.00000000 </v>
   <v>       0.30769231       0.07692308       0.00000000 </v>
   <v>       0.38461538       0.07692308       0.00000000 </v>
   <v>       0.46153846       0.07692308       0.00000000 </v>
   <v>      -0.46153846       0.07692308       0.00000000 </v>
   <v>      -0.38461538       0.07692308       0.00000000 </v>
   <v>      -0.30769231       0.07692308       0.00000000 </v>
   <v>      -0.23076923       0.07692308       0.00000000 </v>
   <v>      -0.15384615       0.07692308       0.00000000 </v>
   <v>      -0.07692308       0.07692308       0.00000000 </v>
   <v>       0.00000000       0.15384615       0.00000000 </v>
   <v>       0.07692308       0.15384615       0.00000000 </v>
   <v>       0.15384615       0.15384615       0.00000000 </v>
   <v>       0.23076923       0.15384615       0.00000000 </v>
   <v>       0.30769231       0.15384615       0.00000000 </v>
   <v>       0.38461538       0.15384615       0.00000000 </v>
   <v>       0.46153846       0.15384615       0.00000000 </v>
   <v>      -0.46153846       0.15384615       0.00000000 </v>
   <v>      -0.38461538       0.15384615       0.00000000 </v>
   <v>      -0.30769231       0.15384615       0.00000000 </v>
   <v>      -0.23076923       0.15384615       0.00000000 </v>
   <v>      -0.15384615       0.15384615       0.00000000 </v>
   <v>      -0.07692308       0.15384615       0.00000000 </v>
   <v>       0.00000000       0.23076923       0.00000000 </v>
   <v>       0.07692308       0.23076923       0.00000000 </v>
   <v>       0.15384615       0.23076923       0.00000000 </v>
   <v>       0.23076923       0.23076923       0.00000000 </v>
   <v>       0.30769231       0.23076923       0.00000000 </v>
   <v>       0.38461538       0.23076923       0.00000000 </v>
   <v>       0.46153846       0.23076923       0.00000000 </v>
   <v>      -0.46153846       0.23076923       0.00000000 </v>
   <v>      -0.38461538       0.23076923       0.00000000 </v>
   <v>      -0.30769231       0.23076923       0.00000000 </v>
   <v>      -0.23076923       0.23076923       0.00000000 </v>
   <v>      -0.15384615       0.23076923       0.00000000 </v>
   <v>      -0.07692308       0.23076923       0.00000000 </v>
   <v>       0.00000000       0.30769231       0.00000000 </v>
   <v>       0.07692308       0.30769231       0.00000000 </v>
   <v>       0.15384615       0.30769231       0.00000000 </v>
   <v>       0.23076923       0.30769231       0.00000000 </v>
   <v>       0.30769231       0.30769231       0.00000000 </v>
   <v>       0.38461538       0.30769231       0.00000000 </v>
   <v>       0.46153846       0.30769231       0.00000000 </v>
   <v>      -0.46153846       0.30769231       0.00000000 </v>
   <v>      -0.38461538       0.30769231       0.00000000 </v>
   <v>      -0.30769231       0.30769231       0.00000000 </v>
   <v>      -0.23076923       0.30769231       0.00000000 </v>
   <v>      -0.15384615       0.30769231       0.00000000 </v>
   <v>      -0.07692308       0.30769231       0.00000000 </v>
   <v>       0.00000000       0.38461538       0.00000000 </v>
   <v>       0.07692308       0.38461538       0.00000000 </v>
   <v>       0.15384615       0.38461538       0.00000000 </v>
   <v>       0.23076923       0.38461538       0.00000000 </v>
   <v>       0.30769231       0.38461538       0.00000000 </v>
   <v>       0.38461538       0.38461538       0.00000000 </v>
   <v>       0.46153846       0.38461538       0.00000000 </v>
   <v>      -0.46153846       0.38461538       0.00000000 </v>
   <v>      -0.38461538       0.38461538       0.00000000 </v>
   <v>      -0.30769231       0.38461538       0.00000000 </v>
   <v>      -0.23076923       0.38461538       0.00000000 </v>
   <v>      -0.15384615       0.38461538       0.00000000 </v>
   <v>      -0.07692308       0.38461538       0.00000000 </v>
   <v>       0.00000000       0.46153846       0.00000000 </v>
   <v>       0.07692308       0.46153846       0.00000000 </v>
   <v>       0.15384615       0.46153846       0.00000000 </v>
   <v>       0.23076923       0.46153846       0.00000000 </v>
   <v>       0.30769231       0.46153846       0.00000000 </v>
   <v>       0.38461538       0.46153846       0.00000000 </v>
   <v>       0.46153846       0.46153846       0.00000000 </v>
   <v>      -0.46153846       0.46153846       0.00000000 </v>
   <v>      -0.38461538       0.46153846       0.00000000 </v>
   <v>      -0.30769231       0.46153846       0.00000000 </v>
   <v>      -0.23076923       0.46153846       0.00000000 </v>
   <v>      -0.15384615       0.46153846       0.00000000 </v>
   <v>      -0.07692308       0.46153846       0.00000000 </v>
  </varray>
  <varray name="weights" >
   <v>       0.00591716 </v>
   <v>       0.01183432 </v>
   <v>       0.01183432 </v>
   <v>       0.01183432 </v>
   <v>       0.01183432 </v>
   <v>       0.01183432 </v>
   <v>       0.01183432 </v>
   <v>       0.01183432 </v>
   <v>       0.01183432 </v>
   <v>       0.01183432 </v>
   <v>       0.01183432 </v>
   <v>       0.01183432 </v>
   <v>       0.01183432 </v>
   <v>       0.01183432 </v>
   <v>       0.01183432 </v>
   <v>       0.01183432 </v>
   <v>       0.01183432 </v>
   <v>       0.01183432 </v>
   <v>       0.01183432 </v>
   <v>       0.01183432 </v>
   <v>       0.01183432 </v>
   <v>       0.01183432 </v>
   <v>       0.01183432 </v>
   <v>       0.01183432 </v>
   <v>       0.01183432 </v>
   <v>       0.01183432 </v>
   <v>       0.01183432 </v>
   <v>       0.01183432 </v>
   <v>       0.01183432 </v>
   <v>       0.01183432 </v>
   <v>       0.01183432 </v>
   <v>       0.01183432 </v>
   <v>       0.01183432 </v>
   <v>       0.01183432 </v>
   <v>       0.01183432 </v>
   <v>       0.01183432 </v>
   <v>       0.01183432 </v>
   <v>       0.01183432 </v>
   <v>       0.01183432 </v>
   <v>       0.01183432 </v>
   <v>       0.01183432 </v>
   <v>       0.01183432 </v>
   <v>       0.01183432 </v>
   <v>       0.01183432 </v>
   <v>       0.01183432 </v>
   <v>       0.01183432 </v>
   <v>       0.01183432 </v>
   <v>       0.01183432 </v>
   <v>       0.01183432 </v>
   <v>       0.01183432 </v>
   <v>       0.01183432 </v>
   <v>       0.01183432 </v>
   <v>       0.01183432 </v>
   <v>       0.01183432 </v>
   <v>       0.01183432 </v>
   <v>       0.01183432 </v>
   <v>       0.01183432 </v>
   <v>       0.01183432 </v>
   <v>       0.01183432 </v>
   <v>       0.01183432 </v>
   <v>       0.01183432 </v>
   <v>       0.01183432 </v>
   <v>       0.01183432 </v>
   <v>       0.01183432 </v>
   <v>       0.01183432 </v>
   <v>       0.01183432 </v>
   <v>       0.01183432 </v>
   <v>       0.01183432 </v>
   <v>       0.01183432 </v>
   <v>       0.01183432 </v>
   <v>       0.01183432 </v>
   <v>       0.01183432 </v>
   <v>       0.01183432 </v>
   <v>       0.01183432 </v>
   <v>       0.01183432 </v>
   <v>       0.01183432 </v>
   <v>       0.01183432 </v>
   <v>       0.01183432 </v>
   <v>       0.01183432 </v>
   <v>       0.01183432 </v>
   <v>       0.01183432 </v>
   <v>       0.01183432 </v>
   <v>       0.01183432 </v>
   <v>       0.01183432 </v>
   <v>       0.01183432 </v>
  </varray>
 </kpoints>
 <parameters>
  <separator name="general" >
   <i type="string" name="SYSTEM">unknown system</i>
   <i type="logical" name="LCOMPAT"> F  </i>
  </separator>
  <separator name="electronic" >
   <i type="string" name="PREC">accura</i>
   <i name="ENMAX">    500.00000000</i>
   <i name="ENAUG">    392.42700000</i>
   <i name="EDIFF">      0.00010000</i>
   <i type="int" name="IALGO">    68</i>
   <i type="int" name="IWAVPR">    10</i>
   <i type="int" name="NBANDS">    36</i>
   <i name="NELECT">     48.00000000</i>
   <i type="int" name="TURBO">     0</i>
   <i type="int" name="IRESTART">     0</i>
   <i type="int" name="NREBOOT">     0</i>
   <i type="int" name="NMIN">     0</i>
   <i name="EREF">      0.00000000</i>
   <separator name="electronic smearing" >
    <i type="int" name="ISMEAR">     1</i>
    <i name="SIGMA">      0.10000000</i>
    <i name="KSPACING">      0.50000000</i>
    <i type="logical" name="KGAMMA"> T  </i>
   </separator>
   <separator name="electronic projectors" >
    <i type="logical" name="LREAL"> T  </i>
    <v name="ROPT">     -0.00025000     -0.00025000     -0.00025000     -0.00025000</v>
    <i type="int" name="LMAXPAW">  -100</i>
    <i type="int" name="LMAXMIX">     2</i>
    <i type="logical" name="NLSPLINE"> F  </i>
   </separator>
   <separator name="electronic startup" >
    <i type="int" name="ISTART">     0</i>
    <i type="int" name="ICHARG">     2</i>
    <i type="int" name="INIWAV">     1</i>
   </separator>
   <separator name="electronic spin" >
    <i type="int" name="ISPIN">     2</i>
    <i type="logical" name="LNONCOLLINEAR"> F  </i>
    <v name="MAGMOM">      6.00000000      0.50000000      0.50000000      6.00000000      0.50000000      0.50000000</v>
    <i name="NUPDOWN">     -1.00000000</i>
    <i type="logical" name="LSORBIT"> F  </i>
    <v name="SAXIS">      0.00000000      0.00000000      1.00000000</v>
    <i type="logical" name="LSPIRAL"> F  </i>
    <v name="QSPIRAL">      0.00000000      0.00000000      0.00000000</v>
    <i type="logical" name="LZEROZ"> F  </i>
   </separator>
   <separator name="electronic exchange-correlation" >
    <i type="logical" name="LASPH"> F  </i>
    <i type="logical" name="LMETAGGA"> F  </i>
   </separator>
   <separator name="electronic convergence" >
    <i type="int" name="NELM">    60</i>
    <i type="int" name="NELMDL">     0</i>
    <i type="int" name="NELMIN">     2</i>
    <i name="ENINI">    500.00000000</i>
    <separator name="electronic convergence detail" >
     <i type="logical" name="LDIAG"> T  </i>
     <i type="logical" name="LSUBROT"> F  </i>
     <i name="WEIMIN">      0.00000000</i>
     <i name="EBREAK">      0.00000069</i>
     <i name="DEPER">      0.30000000</i>
     <i type="int" name="NRMM">     4</i>
     <i name="TIME">      0.40000000</i>
    </separator>
   </separator>
   <separator name="electronic mixer" >
    <i name="AMIX">      0.40000000</i>
    <i name="BMIX">      1.00000000</i>
    <i name="AMIN">      0.10000000</i>
    <i name="AMIX_MAG">      1.60000000</i>
    <i name="BMIX_MAG">      1.00000000</i>
    <separator name="electronic mixer details" >
     <i type="int" name="IMIX">     4</i>
     <i type="logical" name="MIXFIRST"> F  </i>
     <i type="int" name="MAXMIX">   -45</i>
     <i name="WC">    100.00000000</i>
     <i type="int" name="INIMIX">     1</i>
     <i type="int" name="MIXPRE">     1</i>
     <i type="int" name="MREMOVE">     5</i>
    </separator>
   </separator>
   <separator name="electronic dipolcorrection" >
    <i type="logical" name="LDIPOL"> F  </i>
    <i type="logical" name="LMONO"> F  </i>
    <i type="int" name="IDIPOL">     0</i>
    <i name="EPSILON">      1.00000000</i>
    <v name="DIPOL">   -100.00000000   -100.00000000   -100.00000000</v>
    <i name="EFIELD">      0.00000000</i>
   </separator>
  </separator>
  <separator name="grids" >
   <i type="int" name="NGX">    24</i>
   <i type="int" name="NGY">    24</i>
   <i type="int" name="NGZ">   180</i>
   <i type="int" name="NGXF">    48</i>
   <i type="int" name="NGYF">    48</i>
   <i type="int" name="NGZF">   360</i>
   <i type="logical" name="ADDGRID"> F  </i>
  </separator>
  <separator name="ionic" >
   <i type="int" name="NSW">     0</i>
   <i type="int" name="IBRION">    -1</i>
   <i type="int" name="ISIF">     3</i>
   <i name="PSTRESS">      0.00000000</i>
   <i name="EDIFFG">      0.00100000</i>
   <i type="int" name="NFREE">     1</i>
   <i name="POTIM">      0.50000000</i>
   <i name="SMASS">     -3.00000000</i>
   <i name="SCALEE">      1.00000000</i>
  </separator>
  <separator name="ionic md" >
   <i name="TEBEG">      0.00010000</i>
   <i name="TEEND">      0.00010000</i>
   <i type="int" name="NBLOCK">     1</i>
   <i type="int" name="KBLOCK">     1</i>
   <i type="int" name="NPACO">   256</i>
   <i name="APACO">     16.00000000</i>
  </separator>
  <separator name="symmetry" >
   <i type="int" name="ISYM">     2</i>
   <i name="SYMPREC">      0.00001000</i>
  </separator>
  <separator name="dos" >
   <i type="logical" name="LORBIT"> F  </i>
   <v name="RWIGS">     -1.00000000     -1.00000000     -1.00000000     -1.00000000</v>
   <i type="int" name="NEDOS">   301</i>
   <i name="EMIN">     10.00000000</i>
   <i name="EMAX">    -10.00000000</i>
   <i name="EFERMI">      0.00000000</i>
  </separator>
  <separator name="writing" >
   <i type="int" name="NWRITE">     2</i>
   <i type="logical" name="LWAVE"> F  </i>
   <i type="logical" name="LCHARG"> F  </i>
   <i type="logical" name="LPARD"> F  </i>
   <i type="logical" name="LVTOT"> F  </i>
   <i type="logical" name="LVHAR"> T  </i>
   <i type="logical" name="LELF"> F  </i>
   <i type="logical" name="LOPTICS"> F  </i>
   <v name="STM">      0.00000000      0.00000000      0.00000000      0.00000000      0.00000000      0.00000000      0.00000000</v>
  </separator>
  <separator name="performance" >
   <i type="int" name="NPAR">     4</i>
   <i type="int" name="NSIM">     4</i>
   <i type="int" name="NBLK">    -1</i>
   <i type="logical" name="LPLANE"> T  </i>
   <i type="logical" name="LSCALAPACK"> T  </i>
   <i type="logical" name="LSCAAWARE"> F  </i>
   <i type="logical" name="LSCALU"> F  </i>
   <i type="logical" name="LASYNC"> F  </i>
   <i type="logical" name="LORBITALREAL"> F  </i>
  </separator>
  <separator name="miscellaneous" >
   <i type="int" name="IDIOT">     3</i>
   <i type="logical" name="LMUSIC"> F  </i>
   <v name="POMASS">     95.94000000     32.06600000     95.94000000     32.06600000</v>
   <v name="DARWINR">      0.00000000      0.00000000      0.00000000      0.00000000</v>
   <v name="DARWINV">      1.00000000      1.00000000      1.00000000      1.00000000</v>
   <i type="logical" name="LCORR"> T  </i>
  </separator>
  <i type="logical" name="GGA_COMPAT"> T  </i>
  <i type="logical" name="LBERRY"> F  </i>
  <i type="int" name="ICORELEVEL">     0</i>
  <i type="logical" name="LDAU"> F  </i>
  <i type="int" name="I_CONSTRAINED_M">     0</i>
  <separator name="electronic exchange-correlation" >
   <i type="string" name="GGA">BO</i>
   <i type="int" name="VOSKOWN">     0</i>
   <i type="logical" name="LHFCALC"> F  </i>
   <i type="string" name="PRECFOCK"></i>
   <i type="logical" name="LSYMGRAD"> F  </i>
   <i type="logical" name="LHFONE"> F  </i>
   <i type="logical" name="LRHFCALC"> F  </i>
   <i type="logical" name="LTHOMAS"> F  </i>
   <i type="logical" name="LMODELHF"> F  </i>
   <i name="ENCUT4O">     -1.00000000</i>
   <i type="int" name="EXXOEP">     0</i>
   <i type="int" name="FOURORBIT">     0</i>
   <i name="AEXX">      0.00000000</i>
   <i name="HFALPHA">      0.00000000</i>
   <i name="MCALPHA">      0.00000000</i>
   <i name="ALDAX">      1.00000000</i>
   <i name="AGGAX">      1.00000000</i>
   <i name="ALDAC">      1.00000000</i>
   <i name="AGGAC">      0.00000000</i>
   <i type="int" name="NKREDX">     1</i>
   <i type="int" name="NKREDY">     1</i>
   <i type="int" name="NKREDZ">     1</i>
   <i type="logical" name="SHIFTRED"> F  </i>
   <i type="logical" name="ODDONLY"> F  </i>
   <i type="logical" name="EVENONLY"> F  </i>
   <i type="int" name="LMAXFOCK">     0</i>
   <i type="int" name="NMAXFOCKAE">     0</i>
   <i type="logical" name="LFOCKAEDFT"> F  </i>
   <i name="HFSCREEN">      0.00000000</i>
   <i name="HFSCREENC">      0.00000000</i>
   <i type="int" name="NBANDSGWLOW">     0</i>
  </separator>
  <separator name="vdW DFT" >
   <i type="logical" name="LUSE_VDW"> T  </i>
   <i name="Zab_VDW">     -0.84910000</i>
   <i name="PARAM1">      0.18333333</i>
   <i name="PARAM2">      0.22000000</i>
   <i name="PARAM3">      0.00000000</i>
  </separator>
  <separator name="model GW" >
   <i type="int" name="MODEL_GW">     0</i>
   <i name="MODEL_EPS0">     20.39722663</i>
   <i name="MODEL_ALPHA">      1.00000000</i>
  </separator>
  <separator name="linear response parameters" >
   <i type="logical" name="LEPSILON"> F  </i>
   <i type="logical" name="LRPA"> F  </i>
   <i type="logical" name="LNABLA"> F  </i>
   <i type="logical" name="LVEL"> F  </i>
   <i type="int" name="KINTER">     0</i>
   <i name="CSHIFT">      0.10000000</i>
   <i name="OMEGAMAX">     -1.00000000</i>
   <i name="DEG_THRESHOLD">      0.00200000</i>
  </separator>
  <separator name="orbital magnetization" >
   <i type="logical" name="NUCIND"> F  </i>
   <v name="MAGPOS">      0.00000000      0.00000000      0.00000000</v>
   <i type="logical" name="LNICSALL"> T  </i>
   <i type="logical" name="ORBITALMAG"> F  </i>
   <i type="logical" name="LMAGBLOCH"> F  </i>
   <i type="logical" name="LCHIMAG"> F  </i>
   <i type="logical" name="LGAUGE"> T  </i>
   <i type="int" name="MAGATOM">     0</i>
   <v name="MAGDIPOL">      0.00000000      0.00000000      0.00000000</v>
   <v name="AVECCONST">      0.00000000      0.00000000      0.00000000</v>
  </separator>
  <separator name="response functions" >
   <i type="logical" name="LADDER"> F  </i>
   <i type="logical" name="LFXC"> F  </i>
   <i type="logical" name="LHARTREE"> T  </i>
   <i type="int" name="IBSE">     0</i>
   <v type="int" name="KPOINT">    -1     0     0     0</v>
   <i type="logical" name="LTCTE"> F  </i>
   <i type="logical" name="LTETE"> F  </i>
   <i type="logical" name="LTRIPLET"> F  </i>
   <i type="logical" name="LFXCEPS"> F  </i>
   <i type="logical" name="LFXHEG"> F  </i>
   <i type="int" name="NATURALO">     0</i>
   <i type="logical" name="L2ORDER"> F  </i>
   <i type="logical" name="LUSEW"> F  </i>
   <i name="ENCUTGW">     -2.00000000</i>
   <i name="ENCUTGWSOFT">     -2.00000000</i>
   <i name="ENCUTLF">     -1.00000000</i>
   <i type="int" name="LMAXMP2">    -1</i>
   <i name="SCISSOR">      0.00000000</i>
   <i type="int" name="NOMEGA">     0</i>
   <i type="int" name="NOMEGAR">     0</i>
   <i type="int" name="NBANDSGW">    -1</i>
   <i type="int" name="NBANDSO">    -1</i>
   <i type="int" name="NBANDSV">    -1</i>
   <i type="int" name="NELM">     1</i>
   <i type="int" name="NELMHF">     1</i>
   <i type="int" name="DIM">     3</i>
   <i type="int" name="ANTIRES">     0</i>
   <i name="OMEGAMAX">    -30.00000000</i>
   <i name="OMEGAMIN">    -30.00000000</i>
   <i name="OMEGATL">   -200.00000000</i>
   <i type="int" name="OMEGAGRID">     0</i>
   <i name="CSHIFT">     -0.10000000</i>
   <i type="logical" name="SELFENERGY"> F  </i>
   <i type="logical" name="LSPECTRAL"> F  </i>
   <i type="logical" name="LSPECTRALGW"> F  </i>
   <i type="logical" name="LSINGLES"> F  </i>
   <i type="logical" name="LFERMIGW"> F  </i>
   <i type="logical" name="ODDONLYGW"> F  </i>
   <i type="logical" name="EVENONLYGW"> F  </i>
   <i type="int" name="NKREDLFX">     1</i>
   <i type="int" name="NKREDLFY">     1</i>
   <i type="int" name="NKREDLFZ">     1</i>
   <i type="int" name="MAXMEM">  1800</i>
   <i type="int" name="TELESCOPE">     0</i>
   <i type="int" name="TAUPAR">     1</i>
   <i type="int" name="OMEGAPAR">    -1</i>
   <i name="LAMBDA">      1.00000000</i>
  </separator>
  <separator name="External order field" >
   <i name="OFIELD_KAPPA">      0.00000000</i>
   <v name="OFIELD_K">      0.00000000      0.00000000      0.00000000</v>
   <i name="OFIELD_Q6_NEAR">      0.00000000</i>
   <i name="OFIELD_Q6_FAR">      0.00000000</i>
   <i name="OFIELD_A">      0.00000000</i>
  </separator>
 </parameters>
 <atominfo>
  <atoms>       6 </atoms>
  <types>       4 </types>
  <array name="atoms" >
   <dimension dim="1">ion</dimension>
   <field type="string">element</field>
   <field type="int">atomtype</field>
   <set>
    <rc><c>Mo</c><c>   1</c></rc>
    <rc><c>S </c><c>   2</c></rc>
    <rc><c>S </c><c>   2</c></rc>
    <rc><c>Mo</c><c>   3</c></rc>
    <rc><c>S </c><c>   4</c></rc>
    <rc><c>S </c><c>   4</c></rc>
   </set>
  </array>
  <array name="atomtypes" >
   <dimension dim="1">type</dimension>
   <field type="int">atomspertype</field>
   <field type="string">element</field>
   <field>mass</field>
   <field>valence</field>
   <field type="string">pseudopotential</field>
   <set>
    <rc><c>   1</c><c>Mo</c><c>     95.94000000</c><c>     12.00000000</c><c> PAW_PBE Mo_pv 08Apr2002                </c></rc>
    <rc><c>   2</c><c>S </c><c>     32.06600000</c><c>      6.00000000</c><c>  PAW_PBE S 17Jan2003                   </c></rc>
    <rc><c>   1</c><c>Mo</c><c>     95.94000000</c><c>     12.00000000</c><c> PAW_PBE Mo_pv 08Apr2002                </c></rc>
    <rc><c>   2</c><c>S </c><c>     32.06600000</c><c>      6.00000000</c><c>  PAW_PBE S 17Jan2003                   </c></rc>
   </set>
  </array>
 </atominfo>
 <structure name="initialpos" >
  <crystal>
   <varray name="basis" >
    <v>       3.19031700       0.00000000       0.00000000 </v>
    <v>      -1.59515800       2.76289700       0.00000000 </v>
    <v>       0.00000000       0.00000000      23.14049200 </v>
   </varray>
   <i name="volume">    203.97226633 </i>
   <varray name="rec_basis" >
    <v>       0.31344848       0.18096941       0.00000000 </v>
    <v>       0.00000000       0.36193894       0.00000000 </v>
    <v>       0.00000000       0.00000000       0.04321429 </v>
   </varray>
  </crystal>
  <varray name="positions" >
   <v>       0.66666700       0.33333300       0.06785900 </v>
   <v>       0.33333300       0.66666700       0.00000000 </v>
   <v>       0.33333300       0.66666700       0.13571500 </v>
   <v>       0.23809557       0.19047586       0.35482300 </v>
   <v>       0.90476157       0.52380986       0.28696500 </v>
   <v>       0.90476157       0.52380986       0.42267900 </v>
  </varray>
 </structure>
 <calculation>
  <scstep>
   <time name="dav">  108.36  108.44</time>
   <time name="total">  127.98  128.09</time>
   <energy>
    <i name="alphaZ">    104.15310261 </i>
    <i name="ewald">   7699.04583513 </i>
    <i name="hartreedc"> -11109.09877732 </i>
    <i name="XCdc">    128.46410054 </i>
    <i name="pawpsdc">   2252.92270536 </i>
    <i name="pawaedc">  -2205.68654582 </i>
    <i name="eentropy">      0.00092173 </i>
    <i name="bandstr">   -159.67879658 </i>
    <i name="atom">   3688.31848598 </i>
    <i name="e_fr_energy">    398.44103163 </i>
    <i name="e_wo_entrp">    398.44010990 </i>
    <i name="e_0_energy">    398.44072439 </i>
   </energy>
  </scstep>
  <scstep>
   <time name="dav">  117.86  117.95</time>
   <time name="total">  117.88  117.97</time>
   <energy>
    <i name="e_fr_energy">     -1.57858813 </i>
    <i name="e_wo_entrp">     -1.57859802 </i>
    <i name="e_0_energy">     -1.57859143 </i>
   </energy>
  </scstep>
  <scstep>
   <time name="dav">  120.17  120.26</time>
   <time name="total">  120.18  120.28</time>
   <energy>
    <i name="e_fr_energy">    -32.96679555 </i>
    <i name="e_wo_entrp">    -32.96761614 </i>
    <i name="e_0_energy">    -32.96706908 </i>
   </energy>
  </scstep>
  <scstep>
   <time name="dav">  114.89  114.98</time>
   <time name="total">  114.91  115.07</time>
   <energy>
    <i name="e_fr_energy">    -33.84543672 </i>
    <i name="e_wo_entrp">    -33.84664922 </i>
    <i name="e_0_energy">    -33.84584089 </i>
   </energy>
  </scstep>
  <scstep>
   <time name="dav">  119.34  119.43</time>
   <time name="total">  129.32  129.53</time>
   <energy>
    <i name="e_fr_energy">    -33.87256123 </i>
    <i name="e_wo_entrp">    -33.87379147 </i>
    <i name="e_0_energy">    -33.87297131 </i>
   </energy>
  </scstep>
  <scstep>
   <time name="diag">   22.29   22.31</time>
   <time name="diis">   83.83   83.89</time>
   <time name="orth">    0.72    0.72</time>
   <time name="total">  135.47  135.57</time>
   <energy>
    <i name="e_fr_energy">    -30.08526794 </i>
    <i name="e_wo_entrp">    -30.08482873 </i>
    <i name="e_0_energy">    -30.08512153 </i>
   </energy>
  </scstep>
  <scstep>
   <time name="diag">   22.08   22.10</time>
   <time name="diis">   83.70   83.77</time>
   <time name="orth">    0.72    0.72</time>
   <time name="total">  135.36  135.46</time>
   <energy>
    <i name="e_fr_energy">    -33.01720844 </i>
    <i name="e_wo_entrp">    -33.01738194 </i>
    <i name="e_0_energy">    -33.01726627 </i>
   </energy>
  </scstep>
  <scstep>
   <time name="diag">   22.19   22.21</time>
   <time name="diis">   82.15   82.21</time>
   <time name="orth">    0.72    0.72</time>
   <time name="total">  133.87  134.00</time>
   <energy>
    <i name="e_fr_energy">    -34.43839377 </i>
    <i name="e_wo_entrp">    -34.43855920 </i>
    <i name="e_0_energy">    -34.43844892 </i>
   </energy>
  </scstep>
  <scstep>
   <time name="diag">   22.04   22.06</time>
   <time name="diis">   81.67   81.73</time>
   <time name="orth">    0.72    0.72</time>
   <time name="total">  133.43  133.53</time>
   <energy>
    <i name="e_fr_energy">    -37.01670492 </i>
    <i name="e_wo_entrp">    -37.01687311 </i>
    <i name="e_0_energy">    -37.01676099 </i>
   </energy>
  </scstep>
  <scstep>
   <time name="diag">   22.12   22.13</time>
   <time name="diis">   75.98   76.04</time>
   <time name="orth">    0.72    0.72</time>
   <time name="total">  127.66  127.78</time>
   <energy>
    <i name="e_fr_energy">    -38.99754898 </i>
    <i name="e_wo_entrp">    -38.99771617 </i>
    <i name="e_0_energy">    -38.99760471 </i>
   </energy>
  </scstep>
  <scstep>
   <time name="diag">   22.18   22.20</time>
   <time name="diis">   79.18   79.25</time>
   <time name="orth">    0.72    0.72</time>
   <time name="total">  131.18  131.28</time>
   <energy>
    <i name="e_fr_energy">    -39.37497215 </i>
    <i name="e_wo_entrp">    -39.37530483 </i>
    <i name="e_0_energy">    -39.37508304 </i>
   </energy>
  </scstep>
  <scstep>
   <time name="diag">   22.10   22.12</time>
   <time name="diis">   81.65   81.71</time>
   <time name="orth">    0.72    0.72</time>
   <time name="total">  133.54  133.65</time>
   <energy>
    <i name="e_fr_energy">    -39.40528117 </i>
    <i name="e_wo_entrp">    -39.40561269 </i>
    <i name="e_0_energy">    -39.40539168 </i>
   </energy>
  </scstep>
  <scstep>
   <time name="diag">   22.14   22.15</time>
   <time name="diis">   90.72   90.78</time>
   <time name="orth">    0.72    0.72</time>
   <time name="total">  142.78  142.89</time>
   <energy>
    <i name="e_fr_energy">    -39.41655062 </i>
    <i name="e_wo_entrp">    -39.41688410 </i>
    <i name="e_0_energy">    -39.41666178 </i>
   </energy>
  </scstep>
  <scstep>
   <time name="diag">   22.03   22.05</time>
   <time name="diis">   83.69   83.76</time>
   <time name="orth">    0.72    0.72</time>
   <time name="total">  135.56  135.67</time>
   <energy>
    <i name="e_fr_energy">    -39.42043748 </i>
    <i name="e_wo_entrp">    -39.42077159 </i>
    <i name="e_0_energy">    -39.42054885 </i>
   </energy>
  </scstep>
  <scstep>
   <time name="diag">   22.17   22.19</time>
   <time name="diis">   75.91   75.97</time>
   <time name="orth">    0.72    0.72</time>
   <time name="total">  127.87  127.97</time>
   <energy>
    <i name="e_fr_energy">    -39.41988601 </i>
    <i name="e_wo_entrp">    -39.42022013 </i>
    <i name="e_0_energy">    -39.41999738 </i>
   </energy>
  </scstep>
  <scstep>
   <time name="diag">   22.14   22.15</time>
   <time name="diis">   60.23   60.27</time>
   <time name="orth">    0.72    0.72</time>
   <time name="total">  112.23  112.32</time>
   <energy>
    <i name="e_fr_energy">    -39.42019689 </i>
    <i name="e_wo_entrp">    -39.42053104 </i>
    <i name="e_0_energy">    -39.42030828 </i>
   </energy>
  </scstep>
  <scstep>
   <time name="diag">   22.07   22.08</time>
   <time name="diis">   58.91   58.95</time>
   <time name="orth">    0.72    0.72</time>
   <time name="total">  110.77  110.89</time>
   <energy>
    <i name="e_fr_energy">    -39.42033960 </i>
    <i name="e_wo_entrp">    -39.42067375 </i>
    <i name="e_0_energy">    -39.42045098 </i>
   </energy>
  </scstep>
  <scstep>
   <time name="diag">   22.11   22.13</time>
   <time name="diis">   56.10   56.14</time>
   <time name="orth">    0.73    0.73</time>
   <time name="total">  108.10  108.19</time>
   <energy>
    <i name="e_fr_energy">    -39.42074291 </i>
    <i name="e_wo_entrp">    -39.42107702 </i>
    <i name="e_0_energy">    -39.42085428 </i>
   </energy>
  </scstep>
  <scstep>
   <time name="diag">   22.01   22.02</time>
   <time name="diis">   55.06   55.10</time>
   <time name="orth">    0.72    0.72</time>
   <time name="total">  106.91  107.00</time>
   <energy>
    <i name="e_fr_energy">    -39.42122003 </i>
    <i name="e_wo_entrp">    -39.42155411 </i>
    <i name="e_0_energy">    -39.42133139 </i>
   </energy>
  </scstep>
  <scstep>
   <time name="diag">   22.04   22.06</time>
   <time name="diis">   57.35   57.39</time>
   <time name="orth">    0.72    0.72</time>
   <time name="total">  109.24  109.33</time>
   <energy>
    <i name="e_fr_energy">    -39.42142536 </i>
    <i name="e_wo_entrp">    -39.42175943 </i>
    <i name="e_0_energy">    -39.42153672 </i>
   </energy>
  </scstep>
  <scstep>
   <time name="diag">   22.02   22.03</time>
   <time name="diis">   53.69   53.73</time>
   <time name="orth">    0.72    0.72</time>
   <time name="total">   95.09   95.17</time>
   <energy>
    <i name="alphaZ">    104.15310261 </i>
    <i name="ewald">   7699.04583513 </i>
    <i name="hartreedc"> -11092.71368655 </i>
    <i name="XCdc">    122.66122878 </i>
    <i name="pawpsdc">   2399.31470521 </i>
    <i name="pawaedc">  -2361.49893191 </i>
    <i name="eentropy">      0.00033407 </i>
    <i name="bandstr">   -598.70250971 </i>
    <i name="atom">   3688.31848598 </i>
    <i name="e_fr_energy">    -39.42143639 </i>
    <i name="e_wo_entrp">    -39.42177046 </i>
    <i name="e_0_energy">    -39.42154775 </i>
   </energy>
  </scstep>
  <structure>
   <crystal>
    <varray name="basis" >
     <v>       3.19031700       0.00000000       0.00000000 </v>
     <v>      -1.59515800       2.76289700       0.00000000 </v>
     <v>       0.00000000       0.00000000      23.14049200 </v>
    </varray>
    <i name="volume">    203.97226633 </i>
    <varray name="rec_basis" >
     <v>       0.31344848       0.18096941       0.00000000 </v>
     <v>       0.00000000       0.36193894       0.00000000 </v>
     <v>       0.00000000       0.00000000       0.04321429 </v>
    </varray>
   </crystal>
   <varray name="positions" >
    <v>       0.66666700       0.33333300       0.06785900 </v>
    <v>       0.33333300       0.66666700       0.00000000 </v>
    <v>       0.33333300       0.66666700       0.13571500 </v>
    <v>       0.23809557       0.19047586       0.35482300 </v>
    <v>       0.90476157       0.52380986       0.28696500 </v>
    <v>       0.90476157       0.52380986       0.42267900 </v>
   </varray>
  </structure>
  <varray name="forces" >
   <v>       0.00445090       0.00308073      -0.00517269 </v>
   <v>      -0.00064718      -0.00017712      -0.05387650 </v>
   <v>       0.02474058       0.01112801       0.10928595 </v>
   <v>      -0.00320266      -0.00039930       0.00443827 </v>
   <v>      -0.02566448      -0.01177589      -0.11320075 </v>
   <v>       0.00032284      -0.00185643       0.05852571 </v>
  </varray>
  <varray name="stress" >
   <v>       3.74216340       0.12529673      -0.85789524 </v>
   <v>       0.12529675       3.27671870      -0.34617117 </v>
   <v>      -0.85789523      -0.34617117       0.30937654 </v>
  </varray>
  <energy>
   <i name="e_fr_energy">    -39.42143639 </i>
   <i name="e_wo_entrp">    -39.42154775 </i>
   <i name="e_0_energy">      0.00033407 </i>
  </energy>
  <time name="totalsc"> 2788.96 2791.40</time>
  <eigenvalues>
   <array>
    <dimension dim="1">band</dimension>
    <dimension dim="2">kpoint</dimension>
    <dimension dim="3">spin</dimension>
    <field>eigene</field>
    <field>occ</field>
    <set>
     <set comment="spin 1">
      <set comment="kpoint 1">
       <r>  -34.9958    1.0000 </r>
       <r>  -34.9864    1.0000 </r>
       <r>  -34.8050    1.0000 </r>
       <r>  -34.8048    1.0000 </r>
       <r>  -34.7956    1.0000 </r>
       <r>  -34.7955    1.0000 </r>
       <r>  -13.9755    1.0000 </r>
       <r>  -13.9192    1.0000 </r>
       <r>  -12.7096    1.0000 </r>
       <r>  -12.6159    1.0000 </r>
       <r>   -5.6868    1.0000 </r>
       <r>   -5.3980    1.0000 </r>
       <r>   -2.6252    1.0000 </r>
       <r>   -2.6251    1.0000 </r>
       <r>   -2.6155    1.0000 </r>
       <r>   -2.6154    1.0000 </r>
       <r>   -2.1775    1.0000 </r>
       <r>   -1.5325    1.0000 </r>
       <r>   -1.5315    1.0000 </r>
       <r>   -1.5218    1.0000 </r>
       <r>   -1.5214    1.0000 </r>
       <r>   -1.4737    1.0000 </r>
       <r>   -0.2238    1.0000 </r>
       <r>    0.2145    0.7958 </r>
       <r>    2.6914   -0.0000 </r>
       <r>    2.6972   -0.0000 </r>
       <r>    2.7117   -0.0000 </r>
       <r>    2.7163   -0.0000 </r>
       <r>    2.8721   -0.0000 </r>
       <r>    2.8788   -0.0000 </r>
       <r>    2.8958   -0.0000 </r>
       <r>    2.9040   -0.0000 </r>
       <r>    5.2793    0.0000 </r>
       <r>    5.3981    0.0000 </r>
       <r>    6.3840    0.0000 </r>
       <r>    6.5429    0.0000 </r>
      </set>
      <set comment="kpoint 2">
       <r>  -34.9917    1.0000 </r>
       <r>  -34.9823    1.0000 </r>
       <r>  -34.8262    1.0000 </r>
       <r>  -34.8167    1.0000 </r>
       <r>  -34.8096    1.0000 </r>
       <r>  -34.8004    1.0000 </r>
       <r>  -13.8888    1.0000 </r>
       <r>  -13.8328    1.0000 </r>
       <r>  -12.6728    1.0000 </r>
       <r>  -12.5817    1.0000 </r>
       <r>   -5.5874    1.0000 </r>
       <r>   -5.2993    1.0000 </r>
       <r>   -2.8123    1.0000 </r>
       <r>   -2.8020    1.0000 </r>
       <r>   -2.5345    1.0000 </r>
       <r>   -2.5248    1.0000 </r>
       <r>   -2.4633    1.0000 </r>
       <r>   -2.0727    1.0000 </r>
       <r>   -1.6693    1.0000 </r>
       <r>   -1.6589    1.0000 </r>
       <r>   -1.3565    1.0000 </r>
       <r>   -1.0750    1.0000 </r>
       <r>   -0.2441    1.0000 </r>
       <r>    0.1358    1.0348 </r>
       <r>    2.5910   -0.0000 </r>
       <r>    2.6051   -0.0000 </r>
       <r>    2.6470   -0.0000 </r>
       <r>    2.6954   -0.0000 </r>
       <r>    2.7805   -0.0000 </r>
       <r>    2.8033   -0.0000 </r>
       <r>    2.8464   -0.0000 </r>
       <r>    2.8602   -0.0000 </r>
       <r>    5.4188    0.0000 </r>
       <r>    5.5352    0.0000 </r>
       <r>    6.7436    0.0000 </r>
       <r>    6.9262    0.0000 </r>
      </set>
      <set comment="kpoint 3">
       <r>  -34.9803    1.0000 </r>
       <r>  -34.9709    1.0000 </r>
       <r>  -34.8847    1.0000 </r>
       <r>  -34.8752    1.0000 </r>
       <r>  -34.8230    1.0000 </r>
       <r>  -34.8138    1.0000 </r>
       <r>  -13.6400    1.0000 </r>
       <r>  -13.5852    1.0000 </r>
       <r>  -12.5675    1.0000 </r>
       <r>  -12.4837    1.0000 </r>
       <r>   -5.3266    1.0000 </r>
       <r>   -5.0458    1.0000 </r>
       <r>   -3.2627    1.0000 </r>
       <r>   -3.2497    1.0000 </r>
       <r>   -2.9624    1.0000 </r>
       <r>   -2.6890    1.0000 </r>
       <r>   -2.2792    1.0000 </r>
       <r>   -2.2687    1.0000 </r>
       <r>   -2.0052    1.0000 </r>
       <r>   -1.9931    1.0000 </r>
       <r>   -1.2625    1.0000 </r>
       <r>   -0.9521    1.0000 </r>
       <r>   -0.3718    1.0000 </r>
       <r>   -0.1501    1.0000 </r>
       <r>    2.1856   -0.0000 </r>
       <r>    2.3563   -0.0000 </r>
       <r>    2.4975   -0.0000 </r>
       <r>    2.5474   -0.0000 </r>
       <r>    2.5810   -0.0000 </r>
       <r>    2.6101   -0.0000 </r>
       <r>    3.1885    0.0000 </r>
       <r>    3.2135    0.0000 </r>
       <r>    5.7750    0.0000 </r>
       <r>    5.8838    0.0000 </r>
       <r>    7.4095    0.0000 </r>
       <r>    7.8260    0.0000 </r>
      </set>
      <set comment="kpoint 4">
       <r>  -34.9662    1.0000 </r>
       <r>  -34.9642    1.0000 </r>
       <r>  -34.9570    1.0000 </r>
       <r>  -34.9545    1.0000 </r>
       <r>  -34.8419    1.0000 </r>
       <r>  -34.8326    1.0000 </r>
       <r>  -13.2642    1.0000 </r>
       <r>  -13.2124    1.0000 </r>
       <r>  -12.4092    1.0000 </r>
       <r>  -12.3372    1.0000 </r>
       <r>   -5.0629    1.0000 </r>
       <r>   -4.8290    1.0000 </r>
       <r>   -3.7210    1.0000 </r>
       <r>   -3.6844    1.0000 </r>
       <r>   -3.4907    1.0000 </r>
       <r>   -3.3100    1.0000 </r>
       <r>   -2.4011    1.0000 </r>
       <r>   -2.3874    1.0000 </r>
       <r>   -1.9109    1.0000 </r>
       <r>   -1.8980    1.0000 </r>
       <r>   -1.4226    1.0000 </r>
       <r>   -1.1525    1.0000 </r>
       <r>   -0.6858    1.0000 </r>
       <r>   -0.6051    1.0000 </r>
       <r>    1.9507   -0.0000 </r>
       <r>    2.2336   -0.0000 </r>
       <r>    2.2963   -0.0000 </r>
       <r>    2.3331   -0.0000 </r>
       <r>    2.6943   -0.0000 </r>
       <r>    2.8935   -0.0000 </r>
       <r>    3.5648    0.0000 </r>
       <r>    3.6049    0.0000 </r>
       <r>    6.2898    0.0000 </r>
       <r>    6.3917    0.0000 </r>
       <r>    7.8778    0.0000 </r>
       <r>    8.3165    0.0000 </r>
      </set>
      <set comment="kpoint 5">
       <r>  -35.0515    1.0000 </r>
       <r>  -35.0420    1.0000 </r>
       <r>  -34.9471    1.0000 </r>
       <r>  -34.9377    1.0000 </r>
       <r>  -34.8618    1.0000 </r>
       <r>  -34.8526    1.0000 </r>
       <r>  -12.8226    1.0000 </r>
       <r>  -12.7770    1.0000 </r>
       <r>  -12.2256    1.0000 </r>
       <r>  -12.1693    1.0000 </r>
       <r>   -5.1171    1.0000 </r>
       <r>   -5.0001    1.0000 </r>
       <r>   -4.0548    1.0000 </r>
       <r>   -3.9403    1.0000 </r>
       <r>   -3.8491    1.0000 </r>
       <r>   -3.7647    1.0000 </r>
       <r>   -2.7569    1.0000 </r>
       <r>   -2.7422    1.0000 </r>
       <r>   -1.6826    1.0000 </r>
       <r>   -1.5180    1.0000 </r>
       <r>   -1.4993    1.0000 </r>
       <r>   -1.4644    1.0000 </r>
       <r>   -0.9779    1.0000 </r>
       <r>   -0.9265    1.0000 </r>
       <r>    2.0417   -0.0000 </r>
       <r>    2.1297   -0.0000 </r>
       <r>    2.1617   -0.0000 </r>
       <r>    2.3163   -0.0000 </r>
       <r>    3.1083    0.0000 </r>
       <r>    3.3347    0.0000 </r>
       <r>    3.8613    0.0000 </r>
       <r>    3.9190    0.0000 </r>
       <r>    6.9157    0.0000 </r>
       <r>    6.9984    0.0000 </r>
       <r>    7.9021    0.0000 </r>
       <r>    8.0013    0.0000 </r>
      </set>
      <set comment="kpoint 6">
       <r>  -35.1212    1.0000 </r>
       <r>  -35.1117    1.0000 </r>
       <r>  -34.9329    1.0000 </r>
       <r>  -34.9234    1.0000 </r>
       <r>  -34.8782    1.0000 </r>
       <r>  -34.8690    1.0000 </r>
       <r>  -12.4087    1.0000 </r>
       <r>  -12.3740    1.0000 </r>
       <r>  -12.0577    1.0000 </r>
       <r>  -12.0195    1.0000 </r>
       <r>   -5.4284    1.0000 </r>
       <r>   -5.3781    1.0000 </r>
       <r>   -4.4677    1.0000 </r>
       <r>   -4.4019    1.0000 </r>
       <r>   -3.9257    1.0000 </r>
       <r>   -3.8516    1.0000 </r>
       <r>   -3.0170    1.0000 </r>
       <r>   -3.0017    1.0000 </r>
       <r>   -1.8786    1.0000 </r>
       <r>   -1.7119    1.0000 </r>
       <r>   -1.2037    1.0000 </r>
       <r>   -1.1770    1.0000 </r>
       <r>   -0.9378    1.0000 </r>
       <r>   -0.8594    1.0000 </r>
       <r>    2.0890   -0.0000 </r>
       <r>    2.1108   -0.0000 </r>
       <r>    2.3056   -0.0000 </r>
       <r>    2.4905   -0.0000 </r>
       <r>    3.5204    0.0000 </r>
       <r>    3.7002    0.0000 </r>
       <r>    4.0445    0.0000 </r>
       <r>    4.1174    0.0000 </r>
       <r>    6.8959    0.0000 </r>
       <r>    7.0792    0.0000 </r>
       <r>    7.7054    0.0000 </r>
       <r>    7.9155    0.0000 </r>
      </set>
      <set comment="kpoint 7">
       <r>  -35.1602    1.0000 </r>
       <r>  -35.1507    1.0000 </r>
       <r>  -34.9248    1.0000 </r>
       <r>  -34.9154    1.0000 </r>
       <r>  -34.8875    1.0000 </r>
       <r>  -34.8783    1.0000 </r>
       <r>  -12.1460    1.0000 </r>
       <r>  -12.1249    1.0000 </r>
       <r>  -11.9536    1.0000 </r>
       <r>  -11.9318    1.0000 </r>
       <r>   -5.6608    1.0000 </r>
       <r>   -5.6382    1.0000 </r>
       <r>   -4.7091    1.0000 </r>
       <r>   -4.6778    1.0000 </r>
       <r>   -4.0246    1.0000 </r>
       <r>   -3.9670    1.0000 </r>
       <r>   -3.1531    1.0000 </r>
       <r>   -3.1374    1.0000 </r>
       <r>   -1.9671    1.0000 </r>
       <r>   -1.8402    1.0000 </r>
       <r>   -1.0393    1.0000 </r>
       <r>   -1.0060    1.0000 </r>
       <r>   -0.7125    1.0000 </r>
       <r>   -0.6386    1.0000 </r>
       <r>    2.1183   -0.0000 </r>
       <r>    2.1321   -0.0000 </r>
       <r>    2.5642   -0.0000 </r>
       <r>    2.6309   -0.0000 </r>
       <r>    3.7692    0.0000 </r>
       <r>    3.8639    0.0000 </r>
       <r>    4.1271    0.0000 </r>
       <r>    4.2087    0.0000 </r>
       <r>    6.1705    0.0000 </r>
       <r>    6.3575    0.0000 </r>
       <r>    7.8478    0.0000 </r>
       <r>    8.0679    0.0000 </r>
      </set>
      <set comment="kpoint 8">
       <r>  -34.9917    1.0000 </r>
       <r>  -34.9823    1.0000 </r>
       <r>  -34.8261    1.0000 </r>
       <r>  -34.8168    1.0000 </r>
       <r>  -34.8098    1.0000 </r>
       <r>  -34.8004    1.0000 </r>
       <r>  -13.8889    1.0000 </r>
       <r>  -13.8327    1.0000 </r>
       <r>  -12.6730    1.0000 </r>
       <r>  -12.5815    1.0000 </r>
       <r>   -5.5877    1.0000 </r>
       <r>   -5.2991    1.0000 </r>
       <r>   -2.8123    1.0000 </r>
       <r>   -2.8021    1.0000 </r>
       <r>   -2.5346    1.0000 </r>
       <r>   -2.5247    1.0000 </r>
       <r>   -2.4621    1.0000 </r>
       <r>   -2.0728    1.0000 </r>
       <r>   -1.6698    1.0000 </r>
       <r>   -1.6585    1.0000 </r>
       <r>   -1.3661    1.0000 </r>
       <r>   -1.0673    1.0000 </r>
       <r>   -0.2454    1.0000 </r>
       <r>    0.1423    1.0326 </r>
       <r>    2.5726   -0.0000 </r>
       <r>    2.6062   -0.0000 </r>
       <r>    2.6338   -0.0000 </r>
       <r>    2.7208   -0.0000 </r>
       <r>    2.7753   -0.0000 </r>
       <r>    2.8067   -0.0000 </r>
       <r>    2.8427   -0.0000 </r>
       <r>    2.8661   -0.0000 </r>
       <r>    5.4187    0.0000 </r>
       <r>    5.5354    0.0000 </r>
       <r>    6.7447    0.0000 </r>
       <r>    6.9252    0.0000 </r>
      </set>
      <set comment="kpoint 9">
       <r>  -34.9840    1.0000 </r>
       <r>  -34.9745    1.0000 </r>
       <r>  -34.8651    1.0000 </r>
       <r>  -34.8557    1.0000 </r>
       <r>  -34.8197    1.0000 </r>
       <r>  -34.8105    1.0000 </r>
       <r>  -13.7211    1.0000 </r>
       <r>  -13.6656    1.0000 </r>
       <r>  -12.6020    1.0000 </r>
       <r>  -12.5152    1.0000 </r>
       <r>   -5.4058    1.0000 </r>
       <r>   -5.1203    1.0000 </r>
       <r>   -3.1266    1.0000 </r>
       <r>   -3.1146    1.0000 </r>
       <r>   -2.8003    1.0000 </r>
       <r>   -2.4866    1.0000 </r>
       <r>   -2.3663    1.0000 </r>
       <r>   -2.3565    1.0000 </r>
       <r>   -1.9827    1.0000 </r>
       <r>   -1.9717    1.0000 </r>
       <r>   -1.2038    1.0000 </r>
       <r>   -0.8881    1.0000 </r>
       <r>   -0.3196    1.0000 </r>
       <r>   -0.0374    1.0002 </r>
       <r>    2.2879   -0.0000 </r>
       <r>    2.4169   -0.0000 </r>
       <r>    2.4542   -0.0000 </r>
       <r>    2.5442   -0.0000 </r>
       <r>    2.6200   -0.0000 </r>
       <r>    2.6398   -0.0000 </r>
       <r>    3.1255    0.0000 </r>
       <r>    3.1391    0.0000 </r>
       <r>    5.6631    0.0000 </r>
       <r>    5.7762    0.0000 </r>
       <r>    7.2677    0.0000 </r>
       <r>    7.5953    0.0000 </r>
      </set>
      <set comment="kpoint 10">
       <r>  -34.9702    1.0000 </r>
       <r>  -34.9608    1.0000 </r>
       <r>  -34.9327    1.0000 </r>
       <r>  -34.9232    1.0000 </r>
       <r>  -34.8382    1.0000 </r>
       <r>  -34.8290    1.0000 </r>
       <r>  -13.4084    1.0000 </r>
       <r>  -13.3547    1.0000 </r>
       <r>  -12.4696    1.0000 </r>
       <r>  -12.3922    1.0000 </r>
       <r>   -5.1261    1.0000 </r>
       <r>   -4.8622    1.0000 </r>
       <r>   -3.5685    1.0000 </r>
       <r>   -3.5461    1.0000 </r>
       <r>   -3.2347    1.0000 </r>
       <r>   -3.0081    1.0000 </r>
       <r>   -2.4707    1.0000 </r>
       <r>   -2.4426    1.0000 </r>
       <r>   -2.0827    1.0000 </r>
       <r>   -2.0715    1.0000 </r>
       <r>   -1.1735    1.0000 </r>
       <r>   -0.9015    1.0000 </r>
       <r>   -0.5480    1.0000 </r>
       <r>   -0.4185    1.0000 </r>
       <r>    1.9541   -0.0000 </r>
       <r>    2.1814   -0.0000 </r>
       <r>    2.3855   -0.0000 </r>
       <r>    2.4244   -0.0000 </r>
       <r>    2.4605   -0.0000 </r>
       <r>    2.6248   -0.0000 </r>
       <r>    3.5249    0.0000 </r>
       <r>    3.5610    0.0000 </r>
       <r>    6.0974    0.0000 </r>
       <r>    6.2061    0.0000 </r>
       <r>    7.7960    0.0000 </r>
       <r>    8.2456    0.0000 </r>
      </set>
      <set comment="kpoint 11">
       <r>  -35.0131    1.0000 </r>
       <r>  -35.0036    1.0000 </r>
       <r>  -34.9536    1.0000 </r>
       <r>  -34.9442    1.0000 </r>
       <r>  -34.8606    1.0000 </r>
       <r>  -34.8514    1.0000 </r>
       <r>  -12.9977    1.0000 </r>
       <r>  -12.9484    1.0000 </r>
       <r>  -12.2969    1.0000 </r>
       <r>  -12.2329    1.0000 </r>
       <r>   -5.0026    1.0000 </r>
       <r>   -4.8322    1.0000 </r>
       <r>   -3.8706    1.0000 </r>
       <r>   -3.7823    1.0000 </r>
       <r>   -3.7175    1.0000 </r>
       <r>   -3.6018    1.0000 </r>
       <r>   -2.8658    1.0000 </r>
       <r>   -2.8057    1.0000 </r>
       <r>   -1.8025    1.0000 </r>
       <r>   -1.7853    1.0000 </r>
       <r>   -1.3717    1.0000 </r>
       <r>   -1.1621    1.0000 </r>
       <r>   -0.8500    1.0000 </r>
       <r>   -0.8022    1.0000 </r>
       <r>    1.8451   -0.0000 </r>
       <r>    2.0627   -0.0000 </r>
       <r>    2.2733   -0.0000 </r>
       <r>    2.3715   -0.0000 </r>
       <r>    2.7376   -0.0000 </r>
       <r>    2.9522   -0.0000 </r>
       <r>    3.8713    0.0000 </r>
       <r>    3.9290    0.0000 </r>
       <r>    6.6894    0.0000 </r>
       <r>    6.7798    0.0000 </r>
       <r>    8.1644    0.0000 </r>
       <r>    8.5469    0.0000 </r>
      </set>
      <set comment="kpoint 12">
       <r>  -35.0877    1.0000 </r>
       <r>  -35.0782    1.0000 </r>
       <r>  -34.9379    1.0000 </r>
       <r>  -34.9285    1.0000 </r>
       <r>  -34.8816    1.0000 </r>
       <r>  -34.8724    1.0000 </r>
       <r>  -12.5650    1.0000 </r>
       <r>  -12.5240    1.0000 </r>
       <r>  -12.1176    1.0000 </r>
       <r>  -12.0702    1.0000 </r>
       <r>   -5.2220    1.0000 </r>
       <r>   -5.1453    1.0000 </r>
       <r>   -4.2902    1.0000 </r>
       <r>   -4.2188    1.0000 </r>
       <r>   -3.8520    1.0000 </r>
       <r>   -3.7617    1.0000 </r>
       <r>   -3.0804    1.0000 </r>
       <r>   -3.0198    1.0000 </r>
       <r>   -1.6939    1.0000 </r>
       <r>   -1.6276    1.0000 </r>
       <r>   -1.6068    1.0000 </r>
       <r>   -1.4824    1.0000 </r>
       <r>   -0.8727    1.0000 </r>
       <r>   -0.8363    1.0000 </r>
       <r>    1.9487   -0.0000 </r>
       <r>    2.0956   -0.0000 </r>
       <r>    2.3179   -0.0000 </r>
       <r>    2.4328   -0.0000 </r>
       <r>    3.1618    0.0000 </r>
       <r>    3.3786    0.0000 </r>
       <r>    4.0714    0.0000 </r>
       <r>    4.1415    0.0000 </r>
       <r>    7.2732    0.0000 </r>
       <r>    7.3991    0.0000 </r>
       <r>    7.5878    0.0000 </r>
       <r>    8.1636    0.0000 </r>
      </set>
      <set comment="kpoint 13">
       <r>  -35.1401    1.0000 </r>
       <r>  -35.1306    1.0000 </r>
       <r>  -34.9268    1.0000 </r>
       <r>  -34.9173    1.0000 </r>
       <r>  -34.8965    1.0000 </r>
       <r>  -34.8872    1.0000 </r>
       <r>  -12.2187    1.0000 </r>
       <r>  -12.1905    1.0000 </r>
       <r>  -11.9770    1.0000 </r>
       <r>  -11.9473    1.0000 </r>
       <r>   -5.4963    1.0000 </r>
       <r>   -5.4611    1.0000 </r>
       <r>   -4.6687    1.0000 </r>
       <r>   -4.6320    1.0000 </r>
       <r>   -3.9457    1.0000 </r>
       <r>   -3.8807    1.0000 </r>
       <r>   -3.1663    1.0000 </r>
       <r>   -3.1281    1.0000 </r>
       <r>   -1.8849    1.0000 </r>
       <r>   -1.7506    1.0000 </r>
       <r>   -1.5134    1.0000 </r>
       <r>   -1.4477    1.0000 </r>
       <r>   -0.6552    1.0000 </r>
       <r>   -0.6146    1.0000 </r>
       <r>    2.0984   -0.0000 </r>
       <r>    2.1573   -0.0000 </r>
       <r>    2.4951   -0.0000 </r>
       <r>    2.5868   -0.0000 </r>
       <r>    3.5644    0.0000 </r>
       <r>    3.7446    0.0000 </r>
       <r>    4.0796    0.0000 </r>
       <r>    4.1636    0.0000 </r>
       <r>    6.5647    0.0000 </r>
       <r>    6.7789    0.0000 </r>
       <r>    7.9841    0.0000 </r>
       <r>    8.1910    0.0000 </r>
      </set>
      <set comment="kpoint 14">
       <r>  -35.1588    1.0000 </r>
       <r>  -35.1493    1.0000 </r>
       <r>  -34.9227    1.0000 </r>
       <r>  -34.9133    1.0000 </r>
       <r>  -34.9018    1.0000 </r>
       <r>  -34.8926    1.0000 </r>
       <r>  -12.0812    1.0000 </r>
       <r>  -12.0630    1.0000 </r>
       <r>  -11.9217    1.0000 </r>
       <r>  -11.9029    1.0000 </r>
       <r>   -5.6077    1.0000 </r>
       <r>   -5.5892    1.0000 </r>
       <r>   -4.8062    1.0000 </r>
       <r>   -4.7839    1.0000 </r>
       <r>   -4.0137    1.0000 </r>
       <r>   -3.9566    1.0000 </r>
       <r>   -3.1830    1.0000 </r>
       <r>   -3.1624    1.0000 </r>
       <r>   -1.9635    1.0000 </r>
       <r>   -1.8410    1.0000 </r>
       <r>   -1.4463    1.0000 </r>
       <r>   -1.3840    1.0000 </r>
       <r>   -0.5187    1.0000 </r>
       <r>   -0.4766    1.0000 </r>
       <r>    2.1388   -0.0000 </r>
       <r>    2.1551   -0.0000 </r>
       <r>    2.6606   -0.0000 </r>
       <r>    2.6799   -0.0000 </r>
       <r>    3.8490    0.0000 </r>
       <r>    3.8906    0.0000 </r>
       <r>    3.9971    0.0000 </r>
       <r>    4.0649    0.0000 </r>
       <r>    6.1696    0.0000 </r>
       <r>    6.3458    0.0000 </r>
       <r>    8.2929    0.0000 </r>
       <r>    8.3830    0.0000 </r>
      </set>
      <set comment="kpoint 15">
       <r>  -35.1401    1.0000 </r>
       <r>  -35.1306    1.0000 </r>
       <r>  -34.9268    1.0000 </r>
       <r>  -34.9173    1.0000 </r>
       <r>  -34.8965    1.0000 </r>
       <r>  -34.8872    1.0000 </r>
       <r>  -12.2180    1.0000 </r>
       <r>  -12.1911    1.0000 </r>
       <r>  -11.9764    1.0000 </r>
       <r>  -11.9481    1.0000 </r>
       <r>   -5.4962    1.0000 </r>
       <r>   -5.4614    1.0000 </r>
       <r>   -4.6675    1.0000 </r>
       <r>   -4.6331    1.0000 </r>
       <r>   -3.9452    1.0000 </r>
       <r>   -3.8814    1.0000 </r>
       <r>   -3.1668    1.0000 </r>
       <r>   -3.1270    1.0000 </r>
       <r>   -1.8788    1.0000 </r>
       <r>   -1.7530    1.0000 </r>
       <r>   -1.5087    1.0000 </r>
       <r>   -1.4577    1.0000 </r>
       <r>   -0.6568    1.0000 </r>
       <r>   -0.6128    1.0000 </r>
       <r>    2.0961   -0.0000 </r>
       <r>    2.1603   -0.0000 </r>
       <r>    2.4964   -0.0000 </r>
       <r>    2.5854   -0.0000 </r>
       <r>    3.5779    0.0000 </r>
       <r>    3.7314    0.0000 </r>
       <r>    4.0744    0.0000 </r>
       <r>    4.1672    0.0000 </r>
       <r>    6.5640    0.0000 </r>
       <r>    6.7795    0.0000 </r>
       <r>    7.9921    0.0000 </r>
       <r>    8.1978    0.0000 </r>
      </set>
      <set comment="kpoint 16">
       <r>  -35.0877    1.0000 </r>
       <r>  -35.0782    1.0000 </r>
       <r>  -34.9379    1.0000 </r>
       <r>  -34.9285    1.0000 </r>
       <r>  -34.8816    1.0000 </r>
       <r>  -34.8724    1.0000 </r>
       <r>  -12.5644    1.0000 </r>
       <r>  -12.5245    1.0000 </r>
       <r>  -12.1169    1.0000 </r>
       <r>  -12.0710    1.0000 </r>
       <r>   -5.2220    1.0000 </r>
       <r>   -5.1455    1.0000 </r>
       <r>   -4.2888    1.0000 </r>
       <r>   -4.2198    1.0000 </r>
       <r>   -3.8500    1.0000 </r>
       <r>   -3.7643    1.0000 </r>
       <r>   -3.0797    1.0000 </r>
       <r>   -3.0193    1.0000 </r>
       <r>   -1.6785    1.0000 </r>
       <r>   -1.6281    1.0000 </r>
       <r>   -1.6106    1.0000 </r>
       <r>   -1.4958    1.0000 </r>
       <r>   -0.8720    1.0000 </r>
       <r>   -0.8372    1.0000 </r>
       <r>    1.9500   -0.0000 </r>
       <r>    2.0959   -0.0000 </r>
       <r>    2.3185   -0.0000 </r>
       <r>    2.4313   -0.0000 </r>
       <r>    3.1732    0.0000 </r>
       <r>    3.3660    0.0000 </r>
       <r>    4.0719    0.0000 </r>
       <r>    4.1418    0.0000 </r>
       <r>    7.2713    0.0000 </r>
       <r>    7.3770    0.0000 </r>
       <r>    7.5801    0.0000 </r>
       <r>    8.0950    0.0000 </r>
      </set>
      <set comment="kpoint 17">
       <r>  -35.0131    1.0000 </r>
       <r>  -35.0036    1.0000 </r>
       <r>  -34.9536    1.0000 </r>
       <r>  -34.9442    1.0000 </r>
       <r>  -34.8606    1.0000 </r>
       <r>  -34.8513    1.0000 </r>
       <r>  -12.9972    1.0000 </r>
       <r>  -12.9488    1.0000 </r>
       <r>  -12.2963    1.0000 </r>
       <r>  -12.2336    1.0000 </r>
       <r>   -5.0026    1.0000 </r>
       <r>   -4.8322    1.0000 </r>
       <r>   -3.8674    1.0000 </r>
       <r>   -3.7850    1.0000 </r>
       <r>   -3.7170    1.0000 </r>
       <r>   -3.6031    1.0000 </r>
       <r>   -2.8642    1.0000 </r>
       <r>   -2.8064    1.0000 </r>
       <r>   -1.8024    1.0000 </r>
       <r>   -1.7845    1.0000 </r>
       <r>   -1.3646    1.0000 </r>
       <r>   -1.1705    1.0000 </r>
       <r>   -0.8486    1.0000 </r>
       <r>   -0.8065    1.0000 </r>
       <r>    1.8482   -0.0000 </r>
       <r>    2.0606   -0.0000 </r>
       <r>    2.2741   -0.0000 </r>
       <r>    2.3699   -0.0000 </r>
       <r>    2.7459   -0.0000 </r>
       <r>    2.9444   -0.0000 </r>
       <r>    3.8714    0.0000 </r>
       <r>    3.9303    0.0000 </r>
       <r>    6.6904    0.0000 </r>
       <r>    6.7803    0.0000 </r>
       <r>    8.2237    0.0000 </r>
       <r>    8.4665    0.0000 </r>
      </set>
      <set comment="kpoint 18">
       <r>  -34.9702    1.0000 </r>
       <r>  -34.9608    1.0000 </r>
       <r>  -34.9327    1.0000 </r>
       <r>  -34.9233    1.0000 </r>
       <r>  -34.8382    1.0000 </r>
       <r>  -34.8290    1.0000 </r>
       <r>  -13.4080    1.0000 </r>
       <r>  -13.3549    1.0000 </r>
       <r>  -12.4692    1.0000 </r>
       <r>  -12.3927    1.0000 </r>
       <r>   -5.1256    1.0000 </r>
       <r>   -4.8625    1.0000 </r>
       <r>   -3.5677    1.0000 </r>
       <r>   -3.5469    1.0000 </r>
       <r>   -3.2356    1.0000 </r>
       <r>   -3.0074    1.0000 </r>
       <r>   -2.4693    1.0000 </r>
       <r>   -2.4437    1.0000 </r>
       <r>   -2.0829    1.0000 </r>
       <r>   -2.0713    1.0000 </r>
       <r>   -1.1651    1.0000 </r>
       <r>   -0.9083    1.0000 </r>
       <r>   -0.5452    1.0000 </r>
       <r>   -0.4278    1.0000 </r>
       <r>    1.9582   -0.0000 </r>
       <r>    2.1823   -0.0000 </r>
       <r>    2.3850   -0.0000 </r>
       <r>    2.4204   -0.0000 </r>
       <r>    2.4673   -0.0000 </r>
       <r>    2.6212   -0.0000 </r>
       <r>    3.5225    0.0000 </r>
       <r>    3.5644    0.0000 </r>
       <r>    6.1002    0.0000 </r>
       <r>    6.2062    0.0000 </r>
       <r>    7.8125    0.0000 </r>
       <r>    8.4670    0.0000 </r>
      </set>
      <set comment="kpoint 19">
       <r>  -34.9840    1.0000 </r>
       <r>  -34.9745    1.0000 </r>
       <r>  -34.8651    1.0000 </r>
       <r>  -34.8557    1.0000 </r>
       <r>  -34.8197    1.0000 </r>
       <r>  -34.8104    1.0000 </r>
       <r>  -13.7210    1.0000 </r>
       <r>  -13.6657    1.0000 </r>
       <r>  -12.6017    1.0000 </r>
       <r>  -12.5155    1.0000 </r>
       <r>   -5.4053    1.0000 </r>
       <r>   -5.1207    1.0000 </r>
       <r>   -3.1270    1.0000 </r>
       <r>   -3.1140    1.0000 </r>
       <r>   -2.8013    1.0000 </r>
       <r>   -2.4857    1.0000 </r>
       <r>   -2.3663    1.0000 </r>
       <r>   -2.3566    1.0000 </r>
       <r>   -1.9829    1.0000 </r>
       <r>   -1.9713    1.0000 </r>
       <r>   -1.1959    1.0000 </r>
       <r>   -0.8945    1.0000 </r>
       <r>   -0.3175    1.0000 </r>
       <r>   -0.0465    1.0001 </r>
       <r>    2.2999   -0.0000 </r>
       <r>    2.4178   -0.0000 </r>
       <r>    2.4588   -0.0000 </r>
       <r>    2.5363   -0.0000 </r>
       <r>    2.6159   -0.0000 </r>
       <r>    2.6400   -0.0000 </r>
       <r>    3.1215    0.0000 </r>
       <r>    3.1433    0.0000 </r>
       <r>    5.6639    0.0000 </r>
       <r>    5.7761    0.0000 </r>
       <r>    7.2710    0.0000 </r>
       <r>    7.6007    0.0000 </r>
      </set>
      <set comment="kpoint 20">
       <r>  -34.9917    1.0000 </r>
       <r>  -34.9823    1.0000 </r>
       <r>  -34.8261    1.0000 </r>
       <r>  -34.8168    1.0000 </r>
       <r>  -34.8098    1.0000 </r>
       <r>  -34.8003    1.0000 </r>
       <r>  -13.8888    1.0000 </r>
       <r>  -13.8328    1.0000 </r>
       <r>  -12.6729    1.0000 </r>
       <r>  -12.5816    1.0000 </r>
       <r>   -5.5875    1.0000 </r>
       <r>   -5.2992    1.0000 </r>
       <r>   -2.8123    1.0000 </r>
       <r>   -2.8021    1.0000 </r>
       <r>   -2.5343    1.0000 </r>
       <r>   -2.5250    1.0000 </r>
       <r>   -2.4627    1.0000 </r>
       <r>   -2.0727    1.0000 </r>
       <r>   -1.6690    1.0000 </r>
       <r>   -1.6594    1.0000 </r>
       <r>   -1.3607    1.0000 </r>
       <r>   -1.0715    1.0000 </r>
       <r>   -0.2447    1.0000 </r>
       <r>    0.1387    1.0341 </r>
       <r>    2.5839   -0.0000 </r>
       <r>    2.6043   -0.0000 </r>
       <r>    2.6388   -0.0000 </r>
       <r>    2.7061   -0.0000 </r>
       <r>    2.7880   -0.0000 </r>
       <r>    2.8005   -0.0000 </r>
       <r>    2.8472   -0.0000 </r>
       <r>    2.8580   -0.0000 </r>
       <r>    5.4185    0.0000 </r>
       <r>    5.5353    0.0000 </r>
       <r>    6.7367    0.0000 </r>
       <r>    6.9279    0.0000 </r>
      </set>
      <set comment="kpoint 21">
       <r>  -34.9803    1.0000 </r>
       <r>  -34.9709    1.0000 </r>
       <r>  -34.8846    1.0000 </r>
       <r>  -34.8753    1.0000 </r>
       <r>  -34.8232    1.0000 </r>
       <r>  -34.8138    1.0000 </r>
       <r>  -13.6405    1.0000 </r>
       <r>  -13.5848    1.0000 </r>
       <r>  -12.5682    1.0000 </r>
       <r>  -12.4830    1.0000 </r>
       <r>   -5.3277    1.0000 </r>
       <r>   -5.0449    1.0000 </r>
       <r>   -3.2652    1.0000 </r>
       <r>   -3.2475    1.0000 </r>
       <r>   -2.9614    1.0000 </r>
       <r>   -2.6885    1.0000 </r>
       <r>   -2.2792    1.0000 </r>
       <r>   -2.2687    1.0000 </r>
       <r>   -2.0051    1.0000 </r>
       <r>   -1.9933    1.0000 </r>
       <r>   -1.2883    1.0000 </r>
       <r>   -0.9320    1.0000 </r>
       <r>   -0.3778    1.0000 </r>
       <r>   -0.1260    1.0000 </r>
       <r>    2.1577   -0.0000 </r>
       <r>    2.3596   -0.0000 </r>
       <r>    2.4878   -0.0000 </r>
       <r>    2.5493   -0.0000 </r>
       <r>    2.5795   -0.0000 </r>
       <r>    2.6290   -0.0000 </r>
       <r>    3.1869    0.0000 </r>
       <r>    3.2152    0.0000 </r>
       <r>    5.7733    0.0000 </r>
       <r>    5.8852    0.0000 </r>
       <r>    7.4287    0.0000 </r>
       <r>    7.8316    0.0000 </r>
      </set>
      <set comment="kpoint 22">
       <r>  -34.9702    1.0000 </r>
       <r>  -34.9608    1.0000 </r>
       <r>  -34.9327    1.0000 </r>
       <r>  -34.9233    1.0000 </r>
       <r>  -34.8383    1.0000 </r>
       <r>  -34.8290    1.0000 </r>
       <r>  -13.4088    1.0000 </r>
       <r>  -13.3544    1.0000 </r>
       <r>  -12.4702    1.0000 </r>
       <r>  -12.3916    1.0000 </r>
       <r>   -5.1266    1.0000 </r>
       <r>   -4.8618    1.0000 </r>
       <r>   -3.5736    1.0000 </r>
       <r>   -3.5409    1.0000 </r>
       <r>   -3.2352    1.0000 </r>
       <r>   -3.0068    1.0000 </r>
       <r>   -2.4692    1.0000 </r>
       <r>   -2.4451    1.0000 </r>
       <r>   -2.0823    1.0000 </r>
       <r>   -2.0718    1.0000 </r>
       <r>   -1.1919    1.0000 </r>
       <r>   -0.8879    1.0000 </r>
       <r>   -0.5528    1.0000 </r>
       <r>   -0.4008    1.0000 </r>
       <r>    1.9441   -0.0000 </r>
       <r>    2.1813   -0.0000 </r>
       <r>    2.3917   -0.0000 </r>
       <r>    2.4090   -0.0000 </r>
       <r>    2.4660   -0.0000 </r>
       <r>    2.6285   -0.0000 </r>
       <r>    3.5348    0.0000 </r>
       <r>    3.5524    0.0000 </r>
       <r>    6.0981    0.0000 </r>
       <r>    6.2076    0.0000 </r>
       <r>    7.8022    0.0000 </r>
       <r>    8.3517    0.0000 </r>
      </set>
      <set comment="kpoint 23">
       <r>  -34.9948    1.0000 </r>
       <r>  -34.9854    1.0000 </r>
       <r>  -34.9560    1.0000 </r>
       <r>  -34.9465    1.0000 </r>
       <r>  -34.8646    1.0000 </r>
       <r>  -34.8553    1.0000 </r>
       <r>  -13.0597    1.0000 </r>
       <r>  -13.0084    1.0000 </r>
       <r>  -12.3221    1.0000 </r>
       <r>  -12.2541    1.0000 </r>
       <r>   -4.9538    1.0000 </r>
       <r>   -4.7565    1.0000 </r>
       <r>   -3.8187    1.0000 </r>
       <r>   -3.7348    1.0000 </r>
       <r>   -3.5259    1.0000 </r>
       <r>   -3.4017    1.0000 </r>
       <r>   -3.0995    1.0000 </r>
       <r>   -2.9982    1.0000 </r>
       <r>   -1.9531    1.0000 </r>
       <r>   -1.9381    1.0000 </r>
       <r>   -1.1571    1.0000 </r>
       <r>   -0.9342    1.0000 </r>
       <r>   -0.7882    1.0000 </r>
       <r>   -0.7265    1.0000 </r>
       <r>    1.7536   -0.0000 </r>
       <r>    1.9847   -0.0000 </r>
       <r>    2.3163   -0.0000 </r>
       <r>    2.3991   -0.0000 </r>
       <r>    2.5131   -0.0000 </r>
       <r>    2.7083   -0.0000 </r>
       <r>    3.9203    0.0000 </r>
       <r>    3.9809    0.0000 </r>
       <r>    6.6141    0.0000 </r>
       <r>    6.7135    0.0000 </r>
       <r>    8.3157    0.0000 </r>
       <r>    8.6019    0.0000 </r>
      </set>
      <set comment="kpoint 24">
       <r>  -35.0576    1.0000 </r>
       <r>  -35.0482    1.0000 </r>
       <r>  -34.9408    1.0000 </r>
       <r>  -34.9313    1.0000 </r>
       <r>  -34.8949    1.0000 </r>
       <r>  -34.8856    1.0000 </r>
       <r>  -12.6526    1.0000 </r>
       <r>  -12.6073    1.0000 </r>
       <r>  -12.1493    1.0000 </r>
       <r>  -12.0952    1.0000 </r>
       <r>   -5.0299    1.0000 </r>
       <r>   -4.9253    1.0000 </r>
       <r>   -4.1048    1.0000 </r>
       <r>   -4.0617    1.0000 </r>
       <r>   -3.7782    1.0000 </r>
       <r>   -3.6589    1.0000 </r>
       <r>   -3.3192    1.0000 </r>
       <r>   -3.1704    1.0000 </r>
       <r>   -2.0827    1.0000 </r>
       <r>   -2.0568    1.0000 </r>
       <r>   -1.3562    1.0000 </r>
       <r>   -1.1966    1.0000 </r>
       <r>   -0.8457    1.0000 </r>
       <r>   -0.8170    1.0000 </r>
       <r>    1.7789   -0.0000 </r>
       <r>    2.0387   -0.0000 </r>
       <r>    2.3868   -0.0000 </r>
       <r>    2.4450   -0.0000 </r>
       <r>    2.7661   -0.0000 </r>
       <r>    2.9727   -0.0000 </r>
       <r>    4.1765    0.0000 </r>
       <r>    4.2600    0.0000 </r>
       <r>    7.2559    0.0000 </r>
       <r>    7.3383    0.0000 </r>
       <r>    8.1908    0.0000 </r>
       <r>    8.5640    0.0000 </r>
      </set>
      <set comment="kpoint 25">
       <r>  -35.1083    1.0000 </r>
       <r>  -35.0988    1.0000 </r>
       <r>  -34.9282    1.0000 </r>
       <r>  -34.9208    1.0000 </r>
       <r>  -34.9187    1.0000 </r>
       <r>  -34.9116    1.0000 </r>
       <r>  -12.2759    1.0000 </r>
       <r>  -12.2408    1.0000 </r>
       <r>  -11.9899    1.0000 </r>
       <r>  -11.9519    1.0000 </r>
       <r>   -5.2261    1.0000 </r>
       <r>   -5.1685    1.0000 </r>
       <r>   -4.6409    1.0000 </r>
       <r>   -4.6164    1.0000 </r>
       <r>   -3.7840    1.0000 </r>
       <r>   -3.7002    1.0000 </r>
       <r>   -3.2882    1.0000 </r>
       <r>   -3.1724    1.0000 </r>
       <r>   -2.2328    1.0000 </r>
       <r>   -2.1650    1.0000 </r>
       <r>   -1.6776    1.0000 </r>
       <r>   -1.5489    1.0000 </r>
       <r>   -0.6690    1.0000 </r>
       <r>   -0.6455    1.0000 </r>
       <r>    2.0033   -0.0000 </r>
       <r>    2.2069   -0.0000 </r>
       <r>    2.5076   -0.0000 </r>
       <r>    2.5484   -0.0000 </r>
       <r>    3.1086    0.0000 </r>
       <r>    3.2995    0.0000 </r>
       <r>    4.2646    0.0000 </r>
       <r>    4.3466    0.0000 </r>
       <r>    7.1857    0.0000 </r>
       <r>    7.3880    0.0000 </r>
       <r>    8.0945    0.0000 </r>
       <r>    8.3543    0.0000 </r>
      </set>
      <set comment="kpoint 26">
       <r>  -35.1364    1.0000 </r>
       <r>  -35.1269    1.0000 </r>
       <r>  -34.9357    1.0000 </r>
       <r>  -34.9265    1.0000 </r>
       <r>  -34.9210    1.0000 </r>
       <r>  -34.9116    1.0000 </r>
       <r>  -12.0404    1.0000 </r>
       <r>  -12.0177    1.0000 </r>
       <r>  -11.8904    1.0000 </r>
       <r>  -11.8673    1.0000 </r>
       <r>   -5.3478    1.0000 </r>
       <r>   -5.3216    1.0000 </r>
       <r>   -4.9462    1.0000 </r>
       <r>   -4.9271    1.0000 </r>
       <r>   -3.9162    1.0000 </r>
       <r>   -3.8557    1.0000 </r>
       <r>   -3.1845    1.0000 </r>
       <r>   -3.1314    1.0000 </r>
       <r>   -2.2408    1.0000 </r>
       <r>   -2.1529    1.0000 </r>
       <r>   -1.9266    1.0000 </r>
       <r>   -1.8007    1.0000 </r>
       <r>   -0.4348    1.0000 </r>
       <r>   -0.4116    1.0000 </r>
       <r>    2.0592   -0.0000 </r>
       <r>    2.1028   -0.0000 </r>
       <r>    2.7700   -0.0000 </r>
       <r>    2.8341   -0.0000 </r>
       <r>    3.3701    0.0000 </r>
       <r>    3.5126    0.0000 </r>
       <r>    4.2379    0.0000 </r>
       <r>    4.3120    0.0000 </r>
       <r>    6.5230    0.0000 </r>
       <r>    6.7219    0.0000 </r>
       <r>    8.7228    0.0000 </r>
       <r>    8.7741    0.0000 </r>
      </set>
      <set comment="kpoint 27">
       <r>  -35.1364    1.0000 </r>
       <r>  -35.1270    1.0000 </r>
       <r>  -34.9357    1.0000 </r>
       <r>  -34.9265    1.0000 </r>
       <r>  -34.9210    1.0000 </r>
       <r>  -34.9116    1.0000 </r>
       <r>  -12.0392    1.0000 </r>
       <r>  -12.0185    1.0000 </r>
       <r>  -11.8895    1.0000 </r>
       <r>  -11.8684    1.0000 </r>
       <r>   -5.3476    1.0000 </r>
       <r>   -5.3221    1.0000 </r>
       <r>   -4.9455    1.0000 </r>
       <r>   -4.9277    1.0000 </r>
       <r>   -3.9160    1.0000 </r>
       <r>   -3.8558    1.0000 </r>
       <r>   -3.1853    1.0000 </r>
       <r>   -3.1301    1.0000 </r>
       <r>   -2.2333    1.0000 </r>
       <r>   -2.1568    1.0000 </r>
       <r>   -1.9293    1.0000 </r>
       <r>   -1.8032    1.0000 </r>
       <r>   -0.4347    1.0000 </r>
       <r>   -0.4114    1.0000 </r>
       <r>    2.0575   -0.0000 </r>
       <r>    2.1044   -0.0000 </r>
       <r>    2.7695   -0.0000 </r>
       <r>    2.8349   -0.0000 </r>
       <r>    3.3865    0.0000 </r>
       <r>    3.4947    0.0000 </r>
       <r>    4.2373    0.0000 </r>
       <r>    4.3126    0.0000 </r>
       <r>    6.5228    0.0000 </r>
       <r>    6.7232    0.0000 </r>
       <r>    8.7457    0.0000 </r>
       <r>    8.9223    0.0000 </r>
      </set>
      <set comment="kpoint 28">
       <r>  -35.1083    1.0000 </r>
       <r>  -35.0988    1.0000 </r>
       <r>  -34.9282    1.0000 </r>
       <r>  -34.9208    1.0000 </r>
       <r>  -34.9187    1.0000 </r>
       <r>  -34.9116    1.0000 </r>
       <r>  -12.2743    1.0000 </r>
       <r>  -12.2421    1.0000 </r>
       <r>  -11.9884    1.0000 </r>
       <r>  -11.9538    1.0000 </r>
       <r>   -5.2261    1.0000 </r>
       <r>   -5.1689    1.0000 </r>
       <r>   -4.6391    1.0000 </r>
       <r>   -4.6183    1.0000 </r>
       <r>   -3.7807    1.0000 </r>
       <r>   -3.7029    1.0000 </r>
       <r>   -3.2870    1.0000 </r>
       <r>   -3.1722    1.0000 </r>
       <r>   -2.2234    1.0000 </r>
       <r>   -2.1717    1.0000 </r>
       <r>   -1.6768    1.0000 </r>
       <r>   -1.5567    1.0000 </r>
       <r>   -0.6689    1.0000 </r>
       <r>   -0.6446    1.0000 </r>
       <r>    2.0011   -0.0000 </r>
       <r>    2.2106   -0.0000 </r>
       <r>    2.5094   -0.0000 </r>
       <r>    2.5455   -0.0000 </r>
       <r>    3.1270    0.0000 </r>
       <r>    3.2785    0.0000 </r>
       <r>    4.2664    0.0000 </r>
       <r>    4.3458    0.0000 </r>
       <r>    7.1799    0.0000 </r>
       <r>    7.3943    0.0000 </r>
       <r>    8.0987    0.0000 </r>
       <r>    8.4320    0.0000 </r>
      </set>
      <set comment="kpoint 29">
       <r>  -35.0576    1.0000 </r>
       <r>  -35.0482    1.0000 </r>
       <r>  -34.9408    1.0000 </r>
       <r>  -34.9313    1.0000 </r>
       <r>  -34.8949    1.0000 </r>
       <r>  -34.8856    1.0000 </r>
       <r>  -12.6513    1.0000 </r>
       <r>  -12.6084    1.0000 </r>
       <r>  -12.1479    1.0000 </r>
       <r>  -12.0969    1.0000 </r>
       <r>   -5.0304    1.0000 </r>
       <r>   -4.9251    1.0000 </r>
       <r>   -4.1032    1.0000 </r>
       <r>   -4.0649    1.0000 </r>
       <r>   -3.7682    1.0000 </r>
       <r>   -3.6663    1.0000 </r>
       <r>   -3.3170    1.0000 </r>
       <r>   -3.1719    1.0000 </r>
       <r>   -2.0838    1.0000 </r>
       <r>   -2.0550    1.0000 </r>
       <r>   -1.3458    1.0000 </r>
       <r>   -1.2121    1.0000 </r>
       <r>   -0.8481    1.0000 </r>
       <r>   -0.8150    1.0000 </r>
       <r>    1.7800   -0.0000 </r>
       <r>    2.0387   -0.0000 </r>
       <r>    2.3881   -0.0000 </r>
       <r>    2.4420   -0.0000 </r>
       <r>    2.7767   -0.0000 </r>
       <r>    2.9628   -0.0000 </r>
       <r>    4.1808    0.0000 </r>
       <r>    4.2570    0.0000 </r>
       <r>    7.2558    0.0000 </r>
       <r>    7.3382    0.0000 </r>
       <r>    8.1657    0.0000 </r>
       <r>    8.5753    0.0000 </r>
      </set>
      <set comment="kpoint 30">
       <r>  -34.9948    1.0000 </r>
       <r>  -34.9854    1.0000 </r>
       <r>  -34.9560    1.0000 </r>
       <r>  -34.9465    1.0000 </r>
       <r>  -34.8646    1.0000 </r>
       <r>  -34.8553    1.0000 </r>
       <r>  -13.0588    1.0000 </r>
       <r>  -13.0091    1.0000 </r>
       <r>  -12.3210    1.0000 </r>
       <r>  -12.2554    1.0000 </r>
       <r>   -4.9540    1.0000 </r>
       <r>   -4.7560    1.0000 </r>
       <r>   -3.8117    1.0000 </r>
       <r>   -3.7432    1.0000 </r>
       <r>   -3.5249    1.0000 </r>
       <r>   -3.4013    1.0000 </r>
       <r>   -3.0959    1.0000 </r>
       <r>   -3.0013    1.0000 </r>
       <r>   -1.9541    1.0000 </r>
       <r>   -1.9369    1.0000 </r>
       <r>   -1.1395    1.0000 </r>
       <r>   -0.9481    1.0000 </r>
       <r>   -0.7865    1.0000 </r>
       <r>   -0.7388    1.0000 </r>
       <r>    1.7569   -0.0000 </r>
       <r>    1.9841   -0.0000 </r>
       <r>    2.3179   -0.0000 </r>
       <r>    2.3969   -0.0000 </r>
       <r>    2.5184   -0.0000 </r>
       <r>    2.7057   -0.0000 </r>
       <r>    3.9205    0.0000 </r>
       <r>    3.9813    0.0000 </r>
       <r>    6.6146    0.0000 </r>
       <r>    6.7125    0.0000 </r>
       <r>    8.3166    0.0000 </r>
       <r>    8.6194    0.0000 </r>
      </set>
      <set comment="kpoint 31">
       <r>  -34.9702    1.0000 </r>
       <r>  -34.9608    1.0000 </r>
       <r>  -34.9327    1.0000 </r>
       <r>  -34.9233    1.0000 </r>
       <r>  -34.8383    1.0000 </r>
       <r>  -34.8289    1.0000 </r>
       <r>  -13.4082    1.0000 </r>
       <r>  -13.3548    1.0000 </r>
       <r>  -12.4695    1.0000 </r>
       <r>  -12.3924    1.0000 </r>
       <r>   -5.1258    1.0000 </r>
       <r>   -4.8624    1.0000 </r>
       <r>   -3.5702    1.0000 </r>
       <r>   -3.5444    1.0000 </r>
       <r>   -3.2358    1.0000 </r>
       <r>   -3.0068    1.0000 </r>
       <r>   -2.4681    1.0000 </r>
       <r>   -2.4454    1.0000 </r>
       <r>   -2.0821    1.0000 </r>
       <r>   -2.0721    1.0000 </r>
       <r>   -1.1739    1.0000 </r>
       <r>   -0.9015    1.0000 </r>
       <r>   -0.5476    1.0000 </r>
       <r>   -0.4197    1.0000 </r>
       <r>    1.9538   -0.0000 </r>
       <r>    2.1824   -0.0000 </r>
       <r>    2.3898   -0.0000 </r>
       <r>    2.4123   -0.0000 </r>
       <r>    2.4689   -0.0000 </r>
       <r>    2.6229   -0.0000 </r>
       <r>    3.5288    0.0000 </r>
       <r>    3.5585    0.0000 </r>
       <r>    6.0970    0.0000 </r>
       <r>    6.2065    0.0000 </r>
       <r>    7.7951    0.0000 </r>
       <r>    8.2555    0.0000 </r>
      </set>
      <set comment="kpoint 32">
       <r>  -34.9803    1.0000 </r>
       <r>  -34.9709    1.0000 </r>
       <r>  -34.8846    1.0000 </r>
       <r>  -34.8753    1.0000 </r>
       <r>  -34.8232    1.0000 </r>
       <r>  -34.8137    1.0000 </r>
       <r>  -13.6402    1.0000 </r>
       <r>  -13.5850    1.0000 </r>
       <r>  -12.5678    1.0000 </r>
       <r>  -12.4834    1.0000 </r>
       <r>   -5.3271    1.0000 </r>
       <r>   -5.0454    1.0000 </r>
       <r>   -3.2638    1.0000 </r>
       <r>   -3.2488    1.0000 </r>
       <r>   -2.9620    1.0000 </r>
       <r>   -2.6887    1.0000 </r>
       <r>   -2.2786    1.0000 </r>
       <r>   -2.2692    1.0000 </r>
       <r>   -2.0041    1.0000 </r>
       <r>   -1.9944    1.0000 </r>
       <r>   -1.2742    1.0000 </r>
       <r>   -0.9428    1.0000 </r>
       <r>   -0.3745    1.0000 </r>
       <r>   -0.1395    1.0000 </r>
       <r>    2.1729   -0.0000 </r>
       <r>    2.3579   -0.0000 </r>
       <r>    2.4918   -0.0000 </r>
       <r>    2.5585   -0.0000 </r>
       <r>    2.5707   -0.0000 </r>
       <r>    2.6198   -0.0000 </r>
       <r>    3.1948    0.0000 </r>
       <r>    3.2070    0.0000 </r>
       <r>    5.7744    0.0000 </r>
       <r>    5.8845    0.0000 </r>
       <r>    7.4178    0.0000 </r>
       <r>    7.8303    0.0000 </r>
      </set>
      <set comment="kpoint 33">
       <r>  -34.9840    1.0000 </r>
       <r>  -34.9745    1.0000 </r>
       <r>  -34.8650    1.0000 </r>
       <r>  -34.8558    1.0000 </r>
       <r>  -34.8199    1.0000 </r>
       <r>  -34.8104    1.0000 </r>
       <r>  -13.7213    1.0000 </r>
       <r>  -13.6655    1.0000 </r>
       <r>  -12.6022    1.0000 </r>
       <r>  -12.5150    1.0000 </r>
       <r>   -5.4062    1.0000 </r>
       <r>   -5.1200    1.0000 </r>
       <r>   -3.1262    1.0000 </r>
       <r>   -3.1150    1.0000 </r>
       <r>   -2.7994    1.0000 </r>
       <r>   -2.4873    1.0000 </r>
       <r>   -2.3661    1.0000 </r>
       <r>   -2.3566    1.0000 </r>
       <r>   -1.9825    1.0000 </r>
       <r>   -1.9721    1.0000 </r>
       <r>   -1.2096    1.0000 </r>
       <r>   -0.8834    1.0000 </r>
       <r>   -0.3211    1.0000 </r>
       <r>   -0.0304    1.0002 </r>
       <r>    2.2784   -0.0000 </r>
       <r>    2.4160   -0.0000 </r>
       <r>    2.4515   -0.0000 </r>
       <r>    2.5526   -0.0000 </r>
       <r>    2.6230   -0.0000 </r>
       <r>    2.6373   -0.0000 </r>
       <r>    3.1258    0.0000 </r>
       <r>    3.1386    0.0000 </r>
       <r>    5.6623    0.0000 </r>
       <r>    5.7765    0.0000 </r>
       <r>    7.2663    0.0000 </r>
       <r>    7.5871    0.0000 </r>
      </set>
      <set comment="kpoint 34">
       <r>  -34.9660    1.0000 </r>
       <r>  -34.9642    1.0000 </r>
       <r>  -34.9569    1.0000 </r>
       <r>  -34.9547    1.0000 </r>
       <r>  -34.8420    1.0000 </r>
       <r>  -34.8326    1.0000 </r>
       <r>  -13.2655    1.0000 </r>
       <r>  -13.2113    1.0000 </r>
       <r>  -12.4109    1.0000 </r>
       <r>  -12.3353    1.0000 </r>
       <r>   -5.0637    1.0000 </r>
       <r>   -4.8286    1.0000 </r>
       <r>   -3.7376    1.0000 </r>
       <r>   -3.6681    1.0000 </r>
       <r>   -3.4928    1.0000 </r>
       <r>   -3.3059    1.0000 </r>
       <r>   -2.4004    1.0000 </r>
       <r>   -2.3881    1.0000 </r>
       <r>   -1.9105    1.0000 </r>
       <r>   -1.8985    1.0000 </r>
       <r>   -1.4698    1.0000 </r>
       <r>   -1.1135    1.0000 </r>
       <r>   -0.6986    1.0000 </r>
       <r>   -0.5686    1.0000 </r>
       <r>    1.9318   -0.0000 </r>
       <r>    2.2344   -0.0000 </r>
       <r>    2.2997   -0.0000 </r>
       <r>    2.3301   -0.0000 </r>
       <r>    2.6843   -0.0000 </r>
[...]
       <r>    -2.2276     1.4913    18.3816 </r>
       <r>    -2.0657     2.9642    18.8616 </r>
       <r>    -1.9038     4.0891    19.5238 </r>
       <r>    -1.7418     3.0038    20.0102 </r>
       <r>    -1.5799     3.1811    20.5254 </r>
       <r>    -1.4180     3.2054    21.0444 </r>
       <r>    -1.2560     1.7864    21.3337 </r>
       <r>    -1.0941     2.3136    21.7084 </r>
       <r>    -0.9321     1.4878    21.9493 </r>
       <r>    -0.7702     3.7594    22.5581 </r>
       <r>    -0.6083     2.9297    23.0325 </r>
       <r>    -0.4463     2.0681    23.3675 </r>
       <r>    -0.2844     2.2088    23.7251 </r>
       <r>    -0.1224     1.0315    23.8922 </r>
       <r>     0.0395     0.4092    23.9585 </r>
       <r>     0.2014     0.2195    23.9940 </r>
       <r>     0.3634     0.0388    24.0003 </r>
       <r>     0.5253    -0.0018    24.0000 </r>
       <r>     0.6873    -0.0000    24.0000 </r>
       <r>     0.8492    -0.0000    24.0000 </r>
       <r>     1.0111    -0.0000    24.0000 </r>
       <r>     1.1731    -0.0000    24.0000 </r>
       <r>     1.3350    -0.0000    24.0000 </r>
       <r>     1.4970    -0.0058    23.9991 </r>
       <r>     1.6589     0.1085    24.0166 </r>
       <r>     1.8208     1.1390    24.2011 </r>
       <r>     1.9828     2.4577    24.5991 </r>
       <r>     2.1447     5.2152    25.4436 </r>
       <r>     2.3067     3.6899    26.0412 </r>
       <r>     2.4686     4.7706    26.8137 </r>
       <r>     2.6305     5.0549    27.6323 </r>
       <r>     2.7925     3.4506    28.1911 </r>
       <r>     2.9544     2.9970    28.6764 </r>
       <r>     3.1164     2.5516    29.0896 </r>
       <r>     3.2783     2.6998    29.5268 </r>
       <r>     3.4402     1.6178    29.7888 </r>
       <r>     3.6022     2.1312    30.1339 </r>
       <r>     3.7641     0.9970    30.2954 </r>
       <r>     3.9260     1.8037    30.5875 </r>
       <r>     4.0880     1.9887    30.9095 </r>
       <r>     4.2499     3.1063    31.4126 </r>
       <r>     4.4119     1.6270    31.6760 </r>
       <r>     4.5738     1.1185    31.8572 </r>
       <r>     4.7357     0.7507    31.9787 </r>
       <r>     4.8977     0.1387    32.0012 </r>
       <r>     5.0596    -0.0075    32.0000 </r>
       <r>     5.2216     0.0009    32.0001 </r>
       <r>     5.3835     0.0933    32.0152 </r>
       <r>     5.5454     0.3264    32.0681 </r>
       <r>     5.7074     0.2959    32.1160 </r>
       <r>     5.8693     0.5401    32.2035 </r>
       <r>     6.0313     0.3405    32.2586 </r>
       <r>     6.1932     0.7912    32.3867 </r>
       <r>     6.3551     0.8679    32.5273 </r>
       <r>     6.5171     0.9479    32.6808 </r>
       <r>     6.6790     0.9391    32.8329 </r>
       <r>     6.8410     1.7032    33.1087 </r>
       <r>     7.0029     1.6575    33.3771 </r>
       <r>     7.1648     0.8649    33.5171 </r>
       <r>     7.3268     1.8359    33.8145 </r>
       <r>     7.4887     1.6318    34.0787 </r>
       <r>     7.6507     1.0866    34.2547 </r>
       <r>     7.8126     0.8211    34.3876 </r>
       <r>     7.9745     1.4069    34.6155 </r>
       <r>     8.1365     2.0381    34.9455 </r>
       <r>     8.2984     2.3954    35.3334 </r>
       <r>     8.4604     1.3849    35.5577 </r>
       <r>     8.6223     1.3619    35.7783 </r>
       <r>     8.7842     0.9686    35.9351 </r>
       <r>     8.9462     0.3130    35.9858 </r>
       <r>     9.1081     0.0919    36.0007 </r>
       <r>     9.2701    -0.0042    36.0000 </r>
       <r>     9.4320    -0.0000    36.0000 </r>
       <r>     9.5939    -0.0000    36.0000 </r>
       <r>     9.7559     0.0000    36.0000 </r>
       <r>     9.9178     0.0000    36.0000 </r>
       <r>    10.0797     0.0000    36.0000 </r>
       <r>    10.2417     0.0000    36.0000 </r>
       <r>    10.4036     0.0000    36.0000 </r>
       <r>    10.5656     0.0000    36.0000 </r>
       <r>    10.7275     0.0000    36.0000 </r>
       <r>    10.8894     0.0000    36.0000 </r>
       <r>    11.0514     0.0000    36.0000 </r>
       <r>    11.2133     0.0000    36.0000 </r>
      </set>
      <set comment="spin 2">
       <r>   -37.3685     0.0000     0.0000 </r>
       <r>   -37.2066     0.0000     0.0000 </r>
       <r>   -37.0446     0.0000     0.0000 </r>
       <r>   -36.8827     0.0000     0.0000 </r>
       <r>   -36.7208     0.0000     0.0000 </r>
       <r>   -36.5588     0.0000     0.0000 </r>
       <r>   -36.3969     0.0000     0.0000 </r>
       <r>   -36.2349     0.0000     0.0000 </r>
       <r>   -36.0730    -0.0000    -0.0000 </r>
       <r>   -35.9111    -0.0000    -0.0000 </r>
       <r>   -35.7491    -0.0000    -0.0000 </r>
       <r>   -35.5872    -0.0000    -0.0000 </r>
       <r>   -35.4252    -0.0008    -0.0001 </r>
       <r>   -35.2633    -0.1857    -0.0302 </r>
       <r>   -35.1014     4.0680     0.6286 </r>
       <r>   -34.9394    15.0750     3.0698 </r>
       <r>   -34.7775    18.0686     5.9959 </r>
       <r>   -34.6155     0.0541     6.0046 </r>
       <r>   -34.4536    -0.0285     6.0000 </r>
       <r>   -34.2917    -0.0000     6.0000 </r>
       <r>   -34.1297    -0.0000     6.0000 </r>
       <r>   -33.9678     0.0000     6.0000 </r>
       <r>   -33.8058     0.0000     6.0000 </r>
       <r>   -33.6439     0.0000     6.0000 </r>
       <r>   -33.4820     0.0000     6.0000 </r>
       <r>   -33.3200     0.0000     6.0000 </r>
       <r>   -33.1581     0.0000     6.0000 </r>
       <r>   -32.9961     0.0000     6.0000 </r>
       <r>   -32.8342     0.0000     6.0000 </r>
       <r>   -32.6723     0.0000     6.0000 </r>
       <r>   -32.5103     0.0000     6.0000 </r>
       <r>   -32.3484     0.0000     6.0000 </r>
       <r>   -32.1864     0.0000     6.0000 </r>
       <r>   -32.0245     0.0000     6.0000 </r>
       <r>   -31.8626     0.0000     6.0000 </r>
       <r>   -31.7006     0.0000     6.0000 </r>
       <r>   -31.5387     0.0000     6.0000 </r>
       <r>   -31.3768     0.0000     6.0000 </r>
       <r>   -31.2148     0.0000     6.0000 </r>
       <r>   -31.0529     0.0000     6.0000 </r>
       <r>   -30.8909     0.0000     6.0000 </r>
       <r>   -30.7290     0.0000     6.0000 </r>
       <r>   -30.5671     0.0000     6.0000 </r>
       <r>   -30.4051     0.0000     6.0000 </r>
       <r>   -30.2432     0.0000     6.0000 </r>
       <r>   -30.0812     0.0000     6.0000 </r>
       <r>   -29.9193     0.0000     6.0000 </r>
       <r>   -29.7574     0.0000     6.0000 </r>
       <r>   -29.5954     0.0000     6.0000 </r>
       <r>   -29.4335     0.0000     6.0000 </r>
       <r>   -29.2715     0.0000     6.0000 </r>
       <r>   -29.1096     0.0000     6.0000 </r>
       <r>   -28.9477     0.0000     6.0000 </r>
       <r>   -28.7857     0.0000     6.0000 </r>
       <r>   -28.6238     0.0000     6.0000 </r>
       <r>   -28.4618     0.0000     6.0000 </r>
       <r>   -28.2999     0.0000     6.0000 </r>
       <r>   -28.1380     0.0000     6.0000 </r>
       <r>   -27.9760     0.0000     6.0000 </r>
       <r>   -27.8141     0.0000     6.0000 </r>
       <r>   -27.6521     0.0000     6.0000 </r>
       <r>   -27.4902     0.0000     6.0000 </r>
       <r>   -27.3283     0.0000     6.0000 </r>
       <r>   -27.1663     0.0000     6.0000 </r>
       <r>   -27.0044     0.0000     6.0000 </r>
       <r>   -26.8424     0.0000     6.0000 </r>
       <r>   -26.6805     0.0000     6.0000 </r>
       <r>   -26.5186     0.0000     6.0000 </r>
       <r>   -26.3566     0.0000     6.0000 </r>
       <r>   -26.1947     0.0000     6.0000 </r>
       <r>   -26.0327     0.0000     6.0000 </r>
       <r>   -25.8708     0.0000     6.0000 </r>
       <r>   -25.7089     0.0000     6.0000 </r>
       <r>   -25.5469     0.0000     6.0000 </r>
       <r>   -25.3850     0.0000     6.0000 </r>
       <r>   -25.2231     0.0000     6.0000 </r>
       <r>   -25.0611     0.0000     6.0000 </r>
       <r>   -24.8992     0.0000     6.0000 </r>
       <r>   -24.7372     0.0000     6.0000 </r>
       <r>   -24.5753     0.0000     6.0000 </r>
       <r>   -24.4134     0.0000     6.0000 </r>
       <r>   -24.2514     0.0000     6.0000 </r>
       <r>   -24.0895     0.0000     6.0000 </r>
       <r>   -23.9275     0.0000     6.0000 </r>
       <r>   -23.7656     0.0000     6.0000 </r>
       <r>   -23.6037     0.0000     6.0000 </r>
       <r>   -23.4417     0.0000     6.0000 </r>
       <r>   -23.2798     0.0000     6.0000 </r>
       <r>   -23.1178     0.0000     6.0000 </r>
       <r>   -22.9559     0.0000     6.0000 </r>
       <r>   -22.7940     0.0000     6.0000 </r>
       <r>   -22.6320     0.0000     6.0000 </r>
       <r>   -22.4701     0.0000     6.0000 </r>
       <r>   -22.3081     0.0000     6.0000 </r>
       <r>   -22.1462     0.0000     6.0000 </r>
       <r>   -21.9843     0.0000     6.0000 </r>
       <r>   -21.8223     0.0000     6.0000 </r>
       <r>   -21.6604     0.0000     6.0000 </r>
       <r>   -21.4984     0.0000     6.0000 </r>
       <r>   -21.3365     0.0000     6.0000 </r>
       <r>   -21.1746     0.0000     6.0000 </r>
       <r>   -21.0126     0.0000     6.0000 </r>
       <r>   -20.8507     0.0000     6.0000 </r>
       <r>   -20.6887     0.0000     6.0000 </r>
       <r>   -20.5268     0.0000     6.0000 </r>
       <r>   -20.3649     0.0000     6.0000 </r>
       <r>   -20.2029     0.0000     6.0000 </r>
       <r>   -20.0410     0.0000     6.0000 </r>
       <r>   -19.8790     0.0000     6.0000 </r>
       <r>   -19.7171     0.0000     6.0000 </r>
       <r>   -19.5552     0.0000     6.0000 </r>
       <r>   -19.3932     0.0000     6.0000 </r>
       <r>   -19.2313     0.0000     6.0000 </r>
       <r>   -19.0694     0.0000     6.0000 </r>
       <r>   -18.9074     0.0000     6.0000 </r>
       <r>   -18.7455     0.0000     6.0000 </r>
       <r>   -18.5835     0.0000     6.0000 </r>
       <r>   -18.4216     0.0000     6.0000 </r>
       <r>   -18.2597     0.0000     6.0000 </r>
       <r>   -18.0977     0.0000     6.0000 </r>
       <r>   -17.9358     0.0000     6.0000 </r>
       <r>   -17.7738     0.0000     6.0000 </r>
       <r>   -17.6119     0.0000     6.0000 </r>
       <r>   -17.4500     0.0000     6.0000 </r>
       <r>   -17.2880     0.0000     6.0000 </r>
       <r>   -17.1261     0.0000     6.0000 </r>
       <r>   -16.9641     0.0000     6.0000 </r>
       <r>   -16.8022     0.0000     6.0000 </r>
       <r>   -16.6403     0.0000     6.0000 </r>
       <r>   -16.4783     0.0000     6.0000 </r>
       <r>   -16.3164     0.0000     6.0000 </r>
       <r>   -16.1544     0.0000     6.0000 </r>
       <r>   -15.9925     0.0000     6.0000 </r>
       <r>   -15.8306     0.0000     6.0000 </r>
       <r>   -15.6686     0.0000     6.0000 </r>
       <r>   -15.5067     0.0000     6.0000 </r>
       <r>   -15.3447     0.0000     6.0000 </r>
       <r>   -15.1828     0.0000     6.0000 </r>
       <r>   -15.0209     0.0000     6.0000 </r>
       <r>   -14.8589    -0.0000     6.0000 </r>
       <r>   -14.6970    -0.0000     6.0000 </r>
       <r>   -14.5350    -0.0000     6.0000 </r>
       <r>   -14.3731    -0.0000     6.0000 </r>
       <r>   -14.2112    -0.0001     6.0000 </r>
       <r>   -14.0492    -0.0062     5.9990 </r>
       <r>   -13.8873     0.2009     6.0315 </r>
       <r>   -13.7254     0.4410     6.1029 </r>
       <r>   -13.5634     0.6758     6.2124 </r>
       <r>   -13.4015     0.3808     6.2741 </r>
       <r>   -13.2395     0.8074     6.4048 </r>
       <r>   -13.0776     0.2905     6.4519 </r>
       <r>   -12.9157     1.1205     6.6333 </r>
       <r>   -12.7537     0.4371     6.7041 </r>
       <r>   -12.5918     1.4809     6.9439 </r>
       <r>   -12.4298     2.3435     7.3234 </r>
       <r>   -12.2679     2.5904     7.7429 </r>
       <r>   -12.1060     3.8953     8.3737 </r>
       <r>   -11.9440     5.4087     9.2496 </r>
       <r>   -11.7821     4.3461     9.9534 </r>
       <r>   -11.6201     0.3062    10.0030 </r>
       <r>   -11.4582    -0.0184    10.0000 </r>
       <r>   -11.2963    -0.0000    10.0000 </r>
       <r>   -11.1343    -0.0000    10.0000 </r>
       <r>   -10.9724     0.0000    10.0000 </r>
       <r>   -10.8104     0.0000    10.0000 </r>
       <r>   -10.6485     0.0000    10.0000 </r>
       <r>   -10.4866     0.0000    10.0000 </r>
       <r>   -10.3246     0.0000    10.0000 </r>
       <r>   -10.1627     0.0000    10.0000 </r>
       <r>   -10.0007     0.0000    10.0000 </r>
       <r>    -9.8388     0.0000    10.0000 </r>
       <r>    -9.6769     0.0000    10.0000 </r>
       <r>    -9.5149     0.0000    10.0000 </r>
       <r>    -9.3530     0.0000    10.0000 </r>
       <r>    -9.1910     0.0000    10.0000 </r>
       <r>    -9.0291     0.0000    10.0000 </r>
       <r>    -8.8672     0.0000    10.0000 </r>
       <r>    -8.7052     0.0000    10.0000 </r>
       <r>    -8.5433     0.0000    10.0000 </r>
       <r>    -8.3813     0.0000    10.0000 </r>
       <r>    -8.2194     0.0000    10.0000 </r>
       <r>    -8.0575     0.0000    10.0000 </r>
       <r>    -7.8955     0.0000    10.0000 </r>
       <r>    -7.7336     0.0000    10.0000 </r>
       <r>    -7.5717     0.0000    10.0000 </r>
       <r>    -7.4097     0.0000    10.0000 </r>
       <r>    -7.2478     0.0000    10.0000 </r>
       <r>    -7.0858     0.0000    10.0000 </r>
       <r>    -6.9239     0.0000    10.0000 </r>
       <r>    -6.7620     0.0000    10.0000 </r>
       <r>    -6.6000    -0.0000    10.0000 </r>
       <r>    -6.4381    -0.0000    10.0000 </r>
       <r>    -6.2761    -0.0000    10.0000 </r>
       <r>    -6.1142    -0.0000    10.0000 </r>
       <r>    -5.9523    -0.0001    10.0000 </r>
       <r>    -5.7903    -0.0200     9.9967 </r>
       <r>    -5.6284     0.4733    10.0734 </r>
       <r>    -5.4664     1.2408    10.2743 </r>
       <r>    -5.3045     2.0442    10.6054 </r>
       <r>    -5.1426     2.7482    11.0504 </r>
       <r>    -4.9806     4.6314    11.8004 </r>
       <r>    -4.8187     3.0608    12.2961 </r>
       <r>    -4.6567     2.1972    12.6519 </r>
       <r>    -4.4948     1.8174    12.9462 </r>
       <r>    -4.3329     0.3561    13.0039 </r>
       <r>    -4.1709     0.7289    13.1219 </r>
       <r>    -4.0090     1.6103    13.3827 </r>
       <r>    -3.8470     3.5975    13.9653 </r>
       <r>    -3.6851     5.0447    14.7822 </r>
       <r>    -3.5232     2.9796    15.2647 </r>
       <r>    -3.3612     1.1795    15.4557 </r>
       <r>    -3.1993     2.9668    15.9362 </r>
       <r>    -3.0373     5.5305    16.8318 </r>
       <r>    -2.8754     3.3298    17.3710 </r>
       <r>    -2.7135     1.8959    17.6780 </r>
       <r>    -2.5515     0.8793    17.8204 </r>
       <r>    -2.3896     1.9741    18.1401 </r>
       <r>    -2.2276     1.4914    18.3816 </r>
       <r>    -2.0657     2.9645    18.8617 </r>
       <r>    -1.9038     4.0892    19.5239 </r>
       <r>    -1.7418     3.0041    20.0104 </r>
       <r>    -1.5799     3.1806    20.5254 </r>
       <r>    -1.4180     3.2058    21.0446 </r>
       <r>    -1.2560     1.7858    21.3338 </r>
       <r>    -1.0941     2.3138    21.7085 </r>
       <r>    -0.9321     1.4880    21.9494 </r>
       <r>    -0.7702     3.7589    22.5582 </r>
       <r>    -0.6083     2.9298    23.0326 </r>
       <r>    -0.4463     2.0681    23.3675 </r>
       <r>    -0.2844     2.2087    23.7252 </r>
       <r>    -0.1224     1.0313    23.8922 </r>
       <r>     0.0395     0.4092    23.9585 </r>
       <r>     0.2014     0.2195    23.9940 </r>
       <r>     0.3634     0.0388    24.0003 </r>
       <r>     0.5253    -0.0018    24.0000 </r>
       <r>     0.6873    -0.0000    24.0000 </r>
       <r>     0.8492    -0.0000    24.0000 </r>
       <r>     1.0111    -0.0000    24.0000 </r>
       <r>     1.1731    -0.0000    24.0000 </r>
       <r>     1.3350    -0.0000    24.0000 </r>
       <r>     1.4970    -0.0058    23.9991 </r>
       <r>     1.6589     0.1086    24.0166 </r>
       <r>     1.8208     1.1391    24.2011 </r>
       <r>     1.9828     2.4581    24.5992 </r>
       <r>     2.1447     5.2152    25.4437 </r>
       <r>     2.3067     3.6899    26.0413 </r>
       <r>     2.4686     4.7709    26.8139 </r>
       <r>     2.6305     5.0545    27.6324 </r>
       <r>     2.7925     3.4505    28.1912 </r>
       <r>     2.9544     2.9970    28.6765 </r>
       <r>     3.1164     2.5518    29.0897 </r>
       <r>     3.2783     2.6995    29.5269 </r>
       <r>     3.4402     1.6177    29.7888 </r>
       <r>     3.6022     2.1311    30.1340 </r>
       <r>     3.7641     0.9969    30.2954 </r>
       <r>     3.9260     1.8039    30.5875 </r>
       <r>     4.0880     1.9888    30.9096 </r>
       <r>     4.2499     3.1062    31.4126 </r>
       <r>     4.4119     1.6269    31.6761 </r>
       <r>     4.5738     1.1184    31.8572 </r>
       <r>     4.7357     0.7506    31.9787 </r>
       <r>     4.8977     0.1386    32.0012 </r>
       <r>     5.0596    -0.0074    32.0000 </r>
       <r>     5.2216    -0.0005    31.9999 </r>
       <r>     5.3835     0.0733    32.0118 </r>
       <r>     5.5454     0.3305    32.0653 </r>
       <r>     5.7074     0.2893    32.1122 </r>
       <r>     5.8693     0.5410    32.1998 </r>
       <r>     6.0313     0.3491    32.2563 </r>
       <r>     6.1932     0.7622    32.3797 </r>
       <r>     6.3551     0.8809    32.5224 </r>
       <r>     6.5171     0.9695    32.6794 </r>
       <r>     6.6790     0.8654    32.8195 </r>
       <r>     6.8410     1.6799    33.0916 </r>
       <r>     7.0029     1.5616    33.3444 </r>
       <r>     7.1648     1.0254    33.5105 </r>
       <r>     7.3268     1.7936    33.8009 </r>
       <r>     7.4887     1.6808    34.0731 </r>
       <r>     7.6507     1.1405    34.2578 </r>
       <r>     7.8126     0.8192    34.3905 </r>
       <r>     7.9745     1.3389    34.6073 </r>
       <r>     8.1365     1.8346    34.9044 </r>
       <r>     8.2984     2.7026    35.3421 </r>
       <r>     8.4604     1.3381    35.5588 </r>
       <r>     8.6223     0.9137    35.7067 </r>
       <r>     8.7842     0.9826    35.8658 </r>
       <r>     8.9462     0.6377    35.9691 </r>
       <r>     9.1081     0.1991    36.0013 </r>
       <r>     9.2701    -0.0082    36.0000 </r>
       <r>     9.4320    -0.0000    36.0000 </r>
       <r>     9.5939    -0.0000    36.0000 </r>
       <r>     9.7559    -0.0000    36.0000 </r>
       <r>     9.9178     0.0000    36.0000 </r>
       <r>    10.0797     0.0000    36.0000 </r>
       <r>    10.2417     0.0000    36.0000 </r>
       <r>    10.4036     0.0000    36.0000 </r>
       <r>    10.5656     0.0000    36.0000 </r>
       <r>    10.7275     0.0000    36.0000 </r>
       <r>    10.8894     0.0000    36.0000 </r>
       <r>    11.0514     0.0000    36.0000 </r>
       <r>    11.2133     0.0000    36.0000 </r>
      </set>
     </set>
    </array>
   </total>
  </dos>
 </calculation>
 <structure name="finalpos" >
  <crystal>
   <varray name="basis" >
    <v>       3.19031700       0.00000000       0.00000000 </v>
    <v>      -1.59515800       2.76289700       0.00000000 </v>
    <v>       0.00000000       0.00000000      23.14049200 </v>
   </varray>
   <i name="volume">    203.97226633 </i>
   <varray name="rec_basis" >
    <v>       0.31344848       0.18096941       0.00000000 </v>
    <v>       0.00000000       0.36193894       0.00000000 </v>
    <v>       0.00000000       0.00000000       0.04321429 </v>
   </varray>
  </crystal>
  <varray name="positions" >
   <v>       0.66666700       0.33333300       0.06785900 </v>
   <v>       0.33333300       0.66666700       0.00000000 </v>
   <v>       0.33333300       0.66666700       0.13571500 </v>
   <v>       0.23809557       0.19047586       0.35482300 </v>
   <v>       0.90476157       0.52380986       0.28696500 </v>
   <v>       0.90476157       0.52380986       0.42267900 </v>
  </varray>
 </structure>
</modeling>
