<?xml version="1.0" encoding="ISO-8859-1"?>
<modeling>
 <generator>
  <i name="program" type="string">vasp </i>
  <i name="version" type="string">5.3.5  </i>
  <i name="subversion" type="string">31Mar14 (build Oct 29 2014 16:16:03) complex                          parallel </i>
  <i name="platform" type="string">Linux-UFHPC </i>
  <i name="date" type="string">2016 02 09 </i>
  <i name="time" type="string">17:25:17 </i>
 </generator>
 <incar>
  <i type="string" name="PREC">accurate</i>
  <i type="int" name="IBRION">     2</i>
  <i name="EDIFF">      0.00000100</i>
  <i type="int" name="NSW">     0</i>
  <i type="int" name="ISIF">     3</i>
  <i name="ENCUT">    300.00000000</i>
  <i type="string" name="LREAL"> Auto</i>
  <i type="int" name="ISMEAR">     0</i>
  <i name="SIGMA">      0.10000000</i>
  <i type="logical" name="LWAVE"> F  </i>
  <i type="logical" name="LCHARG"> F  </i>
  <i type="logical" name="LAECHG"> F  </i>
  <i type="string" name="GGA"> Bo</i>
  <i name="PARAM1">      0.18333333</i>
  <i name="PARAM2">      0.22000000</i>
  <i type="logical" name="LUSE_VDW"> T  </i>
  <i name="AGGAC">      0.00000000</i>
 </incar>
 <kpoints>
  <generation param="Gamma">
   <v type="int" name="divisions">      13        4        2 </v>
   <v name="usershift">      0.00000000       0.00000000       0.00000000 </v>
   <v name="genvec1">      0.07692308      -0.00000000       0.00000000 </v>
   <v name="genvec2">      0.00000000       0.25000000       0.00000000 </v>
   <v name="genvec3">      0.00000000       0.00000000       0.50000000 </v>
   <v name="shift">      0.00000000       0.00000000       0.00000000 </v>
  </generation>
  <varray name="kpointlist" >
   <v>       0.00000000       0.00000000       0.00000000 </v>
   <v>       0.07692308      -0.00000000       0.00000000 </v>
   <v>       0.15384615      -0.00000000       0.00000000 </v>
   <v>       0.23076923      -0.00000000       0.00000000 </v>
   <v>       0.30769231      -0.00000000       0.00000000 </v>
   <v>       0.38461538      -0.00000000       0.00000000 </v>
   <v>       0.46153846      -0.00000000       0.00000000 </v>
   <v>       0.00000000       0.25000000       0.00000000 </v>
   <v>       0.07692308       0.25000000       0.00000000 </v>
   <v>       0.15384615       0.25000000       0.00000000 </v>
   <v>       0.23076923       0.25000000       0.00000000 </v>
   <v>       0.30769231       0.25000000       0.00000000 </v>
   <v>       0.38461538       0.25000000       0.00000000 </v>
   <v>       0.46153846       0.25000000       0.00000000 </v>
   <v>      -0.46153846       0.25000000       0.00000000 </v>
   <v>      -0.38461538       0.25000000       0.00000000 </v>
   <v>      -0.30769231       0.25000000       0.00000000 </v>
   <v>      -0.23076923       0.25000000       0.00000000 </v>
   <v>      -0.15384615       0.25000000       0.00000000 </v>
   <v>      -0.07692308       0.25000000       0.00000000 </v>
   <v>       0.00000000       0.50000000       0.00000000 </v>
   <v>       0.07692308       0.50000000       0.00000000 </v>
   <v>       0.15384615       0.50000000       0.00000000 </v>
   <v>       0.23076923       0.50000000       0.00000000 </v>
   <v>       0.30769231       0.50000000       0.00000000 </v>
   <v>       0.38461538       0.50000000       0.00000000 </v>
   <v>       0.46153846       0.50000000       0.00000000 </v>
   <v>       0.00000000       0.00000000       0.50000000 </v>
   <v>       0.07692308      -0.00000000       0.50000000 </v>
   <v>       0.15384615      -0.00000000       0.50000000 </v>
   <v>       0.23076923      -0.00000000       0.50000000 </v>
   <v>       0.30769231      -0.00000000       0.50000000 </v>
   <v>       0.38461538      -0.00000000       0.50000000 </v>
   <v>       0.46153846      -0.00000000       0.50000000 </v>
   <v>       0.00000000       0.25000000       0.50000000 </v>
   <v>       0.07692308       0.25000000       0.50000000 </v>
   <v>       0.15384615       0.25000000       0.50000000 </v>
   <v>       0.23076923       0.25000000       0.50000000 </v>
   <v>       0.30769231       0.25000000       0.50000000 </v>
   <v>       0.38461538       0.25000000       0.50000000 </v>
   <v>       0.46153846       0.25000000       0.50000000 </v>
   <v>      -0.46153846       0.25000000       0.50000000 </v>
   <v>      -0.38461538       0.25000000       0.50000000 </v>
   <v>      -0.30769231       0.25000000       0.50000000 </v>
   <v>      -0.23076923       0.25000000       0.50000000 </v>
   <v>      -0.15384615       0.25000000       0.50000000 </v>
   <v>      -0.07692308       0.25000000       0.50000000 </v>
   <v>       0.00000000       0.50000000       0.50000000 </v>
   <v>       0.07692308       0.50000000       0.50000000 </v>
   <v>       0.15384615       0.50000000       0.50000000 </v>
   <v>       0.23076923       0.50000000       0.50000000 </v>
   <v>       0.30769231       0.50000000       0.50000000 </v>
   <v>       0.38461538       0.50000000       0.50000000 </v>
   <v>       0.46153846       0.50000000       0.50000000 </v>
  </varray>
  <varray name="weights" >
   <v>       0.00961538 </v>
   <v>       0.01923077 </v>
   <v>       0.01923077 </v>
   <v>       0.01923077 </v>
   <v>       0.01923077 </v>
   <v>       0.01923077 </v>
   <v>       0.01923077 </v>
   <v>       0.01923077 </v>
   <v>       0.01923077 </v>
   <v>       0.01923077 </v>
   <v>       0.01923077 </v>
   <v>       0.01923077 </v>
   <v>       0.01923077 </v>
   <v>       0.01923077 </v>
   <v>       0.01923077 </v>
   <v>       0.01923077 </v>
   <v>       0.01923077 </v>
   <v>       0.01923077 </v>
   <v>       0.01923077 </v>
   <v>       0.01923077 </v>
   <v>       0.00961538 </v>
   <v>       0.01923077 </v>
   <v>       0.01923077 </v>
   <v>       0.01923077 </v>
   <v>       0.01923077 </v>
   <v>       0.01923077 </v>
   <v>       0.01923077 </v>
   <v>       0.00961538 </v>
   <v>       0.01923077 </v>
   <v>       0.01923077 </v>
   <v>       0.01923077 </v>
   <v>       0.01923077 </v>
   <v>       0.01923077 </v>
   <v>       0.01923077 </v>
   <v>       0.01923077 </v>
   <v>       0.01923077 </v>
   <v>       0.01923077 </v>
   <v>       0.01923077 </v>
   <v>       0.01923077 </v>
   <v>       0.01923077 </v>
   <v>       0.01923077 </v>
   <v>       0.01923077 </v>
   <v>       0.01923077 </v>
   <v>       0.01923077 </v>
   <v>       0.01923077 </v>
   <v>       0.01923077 </v>
   <v>       0.01923077 </v>
   <v>       0.00961538 </v>
   <v>       0.01923077 </v>
   <v>       0.01923077 </v>
   <v>       0.01923077 </v>
   <v>       0.01923077 </v>
   <v>       0.01923077 </v>
   <v>       0.01923077 </v>
  </varray>
 </kpoints>
 <parameters>
  <separator name="general" >
   <i type="string" name="SYSTEM">unknown system</i>
   <i type="logical" name="LCOMPAT"> F  </i>
  </separator>
  <separator name="electronic" >
   <i type="string" name="PREC">accura</i>
   <i name="ENMAX">    300.00000000</i>
   <i name="ENAUG">    342.92400000</i>
   <i name="EDIFF">      0.00000100</i>
   <i type="int" name="IALGO">    38</i>
   <i type="int" name="IWAVPR">    10</i>
   <i type="int" name="NBANDS">    68</i>
   <i name="NELECT">    108.00000000</i>
   <i type="int" name="TURBO">     0</i>
   <i type="int" name="IRESTART">     0</i>
   <i type="int" name="NREBOOT">     0</i>
   <i type="int" name="NMIN">     0</i>
   <i name="EREF">      0.00000000</i>
   <separator name="electronic smearing" >
    <i type="int" name="ISMEAR">     0</i>
    <i name="SIGMA">      0.10000000</i>
    <i name="KSPACING">      0.50000000</i>
    <i type="logical" name="KGAMMA"> T  </i>
   </separator>
   <separator name="electronic projectors" >
    <i type="logical" name="LREAL"> T  </i>
    <v name="ROPT">     -0.00025000     -0.00025000</v>
    <i type="int" name="LMAXPAW">  -100</i>
    <i type="int" name="LMAXMIX">     2</i>
    <i type="logical" name="NLSPLINE"> F  </i>
   </separator>
   <separator name="electronic startup" >
    <i type="int" name="ISTART">     0</i>
    <i type="int" name="ICHARG">     2</i>
    <i type="int" name="INIWAV">     1</i>
   </separator>
   <separator name="electronic spin" >
    <i type="int" name="ISPIN">     1</i>
    <i type="logical" name="LNONCOLLINEAR"> F  </i>
    <v name="MAGMOM">      1.00000000      1.00000000      1.00000000      1.00000000      1.00000000      1.00000000      1.00000000      1.00000000      1.00000000      1.00000000      1.00000000      1.00000000      1.00000000      1.00000000      1.00000000      1.00000000      1.00000000      1.00000000      1.00000000      1.00000000
      1.00000000      1.00000000      1.00000000      1.00000000</v>
    <i name="NUPDOWN">     -1.00000000</i>
    <i type="logical" name="LSORBIT"> F  </i>
    <v name="SAXIS">      0.00000000      0.00000000      1.00000000</v>
    <i type="logical" name="LSPIRAL"> F  </i>
    <v name="QSPIRAL">      0.00000000      0.00000000      0.00000000</v>
    <i type="logical" name="LZEROZ"> F  </i>
   </separator>
   <separator name="electronic exchange-correlation" >
    <i type="logical" name="LASPH"> F  </i>
    <i type="logical" name="LMETAGGA"> F  </i>
   </separator>
   <separator name="electronic convergence" >
    <i type="int" name="NELM">    60</i>
    <i type="int" name="NELMDL">    -5</i>
    <i type="int" name="NELMIN">     2</i>
    <i name="ENINI">    300.00000000</i>
    <separator name="electronic convergence detail" >
     <i type="logical" name="LDIAG"> T  </i>
     <i type="logical" name="LSUBROT"> F  </i>
     <i name="WEIMIN">      0.00000000</i>
     <i name="EBREAK">      0.00000000</i>
     <i name="DEPER">      0.30000000</i>
     <i type="int" name="NRMM">     4</i>
     <i name="TIME">      0.40000000</i>
    </separator>
   </separator>
   <separator name="electronic mixer" >
    <i name="AMIX">      0.40000000</i>
    <i name="BMIX">      1.00000000</i>
    <i name="AMIN">      0.10000000</i>
    <i name="AMIX_MAG">      1.60000000</i>
    <i name="BMIX_MAG">      1.00000000</i>
    <separator name="electronic mixer details" >
     <i type="int" name="IMIX">     4</i>
     <i type="int" name="MAXMIX">   -45</i>
     <i name="WC">    100.00000000</i>
     <i type="int" name="INIMIX">     1</i>
     <i type="int" name="MIXPRE">     1</i>
     <i type="int" name="MREMOVE">     5</i>
    </separator>
   </separator>
   <separator name="electronic dipolcorrection" >
    <i type="logical" name="LDIPOL"> F  </i>
    <i type="logical" name="LMONO"> F  </i>
    <i type="int" name="IDIPOL">     0</i>
    <i name="EPSILON">      1.00000000</i>
    <v name="DIPOL">   -100.00000000   -100.00000000   -100.00000000</v>
    <i name="EFIELD">      0.00000000</i>
   </separator>
  </separator>
  <separator name="grids" >
   <i type="int" name="NGX">    20</i>
   <i type="int" name="NGY">    60</i>
   <i type="int" name="NGZ">   160</i>
   <i type="int" name="NGXF">    40</i>
   <i type="int" name="NGYF">   120</i>
   <i type="int" name="NGZF">   320</i>
   <i type="logical" name="ADDGRID"> F  </i>
  </separator>
  <separator name="ionic" >
   <i type="int" name="NSW">     0</i>
   <i type="int" name="IBRION">    -1</i>
   <i type="int" name="ISIF">     3</i>
   <i name="PSTRESS">      0.00000000</i>
   <i name="EDIFFG">      0.00001000</i>
   <i type="int" name="NFREE">     1</i>
   <i name="POTIM">      0.50000000</i>
   <i name="SMASS">     -3.00000000</i>
   <i name="SCALEE">      1.00000000</i>
  </separator>
  <separator name="ionic md" >
   <i name="TEBEG">      0.00010000</i>
   <i name="TEEND">      0.00010000</i>
   <i type="int" name="NBLOCK">     1</i>
   <i type="int" name="KBLOCK">     1</i>
   <i type="int" name="NPACO">   256</i>
   <i name="APACO">     16.00000000</i>
  </separator>
  <separator name="symmetry" >
   <i type="int" name="ISYM">     2</i>
   <i name="SYMPREC">      0.00001000</i>
  </separator>
  <separator name="dos" >
   <i type="logical" name="LORBIT"> F  </i>
   <v name="RWIGS">     -1.00000000     -1.00000000</v>
   <i type="int" name="NEDOS">   301</i>
   <i name="EMIN">     10.00000000</i>
   <i name="EMAX">    -10.00000000</i>
   <i name="EFERMI">      0.00000000</i>
  </separator>
  <separator name="writing" >
   <i type="int" name="NWRITE">     2</i>
   <i type="logical" name="LWAVE"> F  </i>
   <i type="logical" name="LCHARG"> F  </i>
   <i type="logical" name="LPARD"> F  </i>
   <i type="logical" name="LVTOT"> F  </i>
   <i type="logical" name="LVHAR"> F  </i>
   <i type="logical" name="LELF"> F  </i>
   <i type="logical" name="LOPTICS"> F  </i>
   <v name="STM">      0.00000000      0.00000000      0.00000000      0.00000000      0.00000000      0.00000000      0.00000000</v>
  </separator>
  <separator name="performance" >
   <i type="int" name="NPAR">     4</i>
   <i type="int" name="NSIM">     4</i>
   <i type="int" name="NBLK">    -1</i>
   <i type="logical" name="LPLANE"> T  </i>
   <i type="logical" name="LSCALAPACK"> T  </i>
   <i type="logical" name="LSCAAWARE"> F  </i>
   <i type="logical" name="LSCALU"> F  </i>
   <i type="logical" name="LASYNC"> F  </i>
   <i type="logical" name="LORBITALREAL"> F  </i>
  </separator>
  <separator name="miscellaneous" >
   <i type="int" name="IDIOT">     3</i>
   <i type="logical" name="LMUSIC"> F  </i>
   <v name="POMASS">     30.97400000     28.08500000</v>
   <v name="DARWINR">      0.00000000      0.00000000</v>
   <v name="DARWINV">      1.00000000      1.00000000</v>
   <i type="logical" name="LCORR"> T  </i>
  </separator>
  <i type="logical" name="GGA_COMPAT"> T  </i>
  <i type="logical" name="LBERRY"> F  </i>
  <i type="int" name="ICORELEVEL">     0</i>
  <i type="logical" name="LDAU"> F  </i>
  <i type="int" name="I_CONSTRAINED_M">     0</i>
  <separator name="electronic exchange-correlation" >
   <i type="string" name="GGA">BO</i>
   <i type="int" name="VOSKOWN">     0</i>
   <i type="logical" name="LHFCALC"> F  </i>
   <i type="string" name="PRECFOCK"></i>
   <i type="logical" name="LSYMGRAD"> F  </i>
   <i type="logical" name="LHFONE"> F  </i>
   <i type="logical" name="LRHFCALC"> F  </i>
   <i type="logical" name="LTHOMAS"> F  </i>
   <i type="logical" name="LMODELHF"> F  </i>
   <i name="ENCUT4O">     -1.00000000</i>
   <i type="int" name="EXXOEP">     0</i>
   <i type="int" name="FOURORBIT">     0</i>
   <i name="AEXX">      0.00000000</i>
   <i name="HFALPHA">      0.00000000</i>
   <i name="MCALPHA">      0.00000000</i>
   <i name="ALDAX">      1.00000000</i>
   <i name="AGGAX">      1.00000000</i>
   <i name="ALDAC">      1.00000000</i>
   <i name="AGGAC">      0.00000000</i>
   <i type="int" name="NKREDX">     1</i>
   <i type="int" name="NKREDY">     1</i>
   <i type="int" name="NKREDZ">     1</i>
   <i type="logical" name="SHIFTRED"> F  </i>
   <i type="logical" name="ODDONLY"> F  </i>
   <i type="logical" name="EVENONLY"> F  </i>
   <i type="int" name="LMAXFOCK">     0</i>
   <i type="int" name="NMAXFOCKAE">     0</i>
   <i type="logical" name="LFOCKAEDFT"> F  </i>
   <i name="HFSCREEN">      0.00000000</i>
   <i name="HFSCREENC">      0.00000000</i>
   <i type="int" name="NBANDSGWLOW">     0</i>
  </separator>
  <separator name="vdW DFT" >
   <i type="logical" name="LUSE_VDW"> T  </i>
   <i name="Zab_VDW">     -0.84910000</i>
   <i name="PARAM1">      0.18333333</i>
   <i name="PARAM2">      0.22000000</i>
   <i name="PARAM3">      0.00000000</i>
  </separator>
  <separator name="model GW" >
   <i type="int" name="MODEL_GW">     0</i>
   <i name="MODEL_EPS0">     25.05800243</i>
   <i name="MODEL_ALPHA">      1.00000000</i>
  </separator>
  <separator name="linear response parameters" >
   <i type="logical" name="LEPSILON"> F  </i>
   <i type="logical" name="LRPA"> F  </i>
   <i type="logical" name="LNABLA"> F  </i>
   <i type="logical" name="LVEL"> F  </i>
   <i type="int" name="KINTER">     0</i>
   <i name="CSHIFT">      0.10000000</i>
   <i name="OMEGAMAX">     -1.00000000</i>
   <i name="DEG_THRESHOLD">      0.00200000</i>
  </separator>
  <separator name="orbital magnetization" >
   <i type="logical" name="NUCIND"> F  </i>
   <v name="MAGPOS">      0.00000000      0.00000000      0.00000000</v>
   <i type="logical" name="LNICSALL"> T  </i>
   <i type="logical" name="ORBITALMAG"> F  </i>
   <i type="logical" name="LMAGBLOCH"> F  </i>
   <i type="logical" name="LCHIMAG"> F  </i>
   <i type="logical" name="LGAUGE"> T  </i>
   <i type="int" name="MAGATOM">     0</i>
   <v name="MAGDIPOL">      0.00000000      0.00000000      0.00000000</v>
   <v name="AVECCONST">      0.00000000      0.00000000      0.00000000</v>
  </separator>
  <separator name="response functions" >
   <i type="logical" name="LADDER"> F  </i>
   <i type="logical" name="LFXC"> F  </i>
   <i type="logical" name="LHARTREE"> T  </i>
   <i type="int" name="IBSE">     0</i>
   <i type="logical" name="LTCTE"> F  </i>
   <i type="logical" name="LTETE"> F  </i>
   <i type="logical" name="LTRIPLET"> F  </i>
   <i type="logical" name="LFXCEPS"> F  </i>
   <i type="logical" name="LFXHEG"> F  </i>
   <i type="logical" name="L2ORDER"> F  </i>
   <i type="logical" name="LUSEW"> F  </i>
   <i name="ENCUTGW">     -2.00000000</i>
   <i name="ENCUTGWSOFT">     -2.00000000</i>
   <i name="ENCUTLF">     -1.00000000</i>
   <i type="int" name="LMAXMP2">    -1</i>
   <i name="SCISSOR">      0.00000000</i>
   <i type="int" name="NOMEGA">     0</i>
   <i type="int" name="NOMEGAR">     0</i>
   <i type="int" name="NBANDSGW">    -1</i>
   <i type="int" name="NBANDSO">    -1</i>
   <i type="int" name="NBANDSV">    -1</i>
   <i type="int" name="NELM">     1</i>
   <i type="int" name="DIM">     3</i>
   <i type="int" name="ANTIRES">     0</i>
   <i name="OMEGAMAX">    -30.00000000</i>
   <i name="OMEGAMIN">    -30.00000000</i>
   <i name="OMEGATL">   -200.00000000</i>
   <i type="int" name="OMEGAGRID">     0</i>
   <i name="CSHIFT">     -0.10000000</i>
   <i type="logical" name="SELFENERGY"> F  </i>
   <i type="logical" name="LSPECTRAL"> F  </i>
   <i type="logical" name="ODDONLYGW"> F  </i>
   <i type="logical" name="EVENONLYGW"> F  </i>
   <i type="int" name="NKREDLFX">     1</i>
   <i type="int" name="NKREDLFY">     1</i>
   <i type="int" name="NKREDLFZ">     1</i>
   <i type="int" name="MAXMEM">  1800</i>
   <i type="int" name="TELESCOPE">     0</i>
   <i type="int" name="TAUPAR">     1</i>
  </separator>
  <separator name="External order field" >
   <i name="OFIELD_KAPPA">      0.00000000</i>
   <v name="OFIELD_K">      0.00000000      0.00000000      0.00000000</v>
   <i name="OFIELD_Q6_NEAR">      0.00000000</i>
   <i name="OFIELD_Q6_FAR">      0.00000000</i>
   <i name="OFIELD_A">      0.00000000</i>
  </separator>
 </parameters>
 <atominfo>
  <atoms>      24 </atoms>
  <types>       2 </types>
  <array name="atoms" >
   <dimension dim="1">ion</dimension>
   <field type="string">element</field>
   <field type="int">atomtype</field>
   <set>
    <rc><c>P </c><c>   1</c></rc>
    <rc><c>P </c><c>   1</c></rc>
    <rc><c>P </c><c>   1</c></rc>
    <rc><c>P </c><c>   1</c></rc>
    <rc><c>P </c><c>   1</c></rc>
    <rc><c>P </c><c>   1</c></rc>
    <rc><c>P </c><c>   1</c></rc>
    <rc><c>P </c><c>   1</c></rc>
    <rc><c>P </c><c>   1</c></rc>
    <rc><c>P </c><c>   1</c></rc>
    <rc><c>P </c><c>   1</c></rc>
    <rc><c>P </c><c>   1</c></rc>
    <rc><c>Si</c><c>   2</c></rc>
    <rc><c>Si</c><c>   2</c></rc>
    <rc><c>Si</c><c>   2</c></rc>
    <rc><c>Si</c><c>   2</c></rc>
    <rc><c>Si</c><c>   2</c></rc>
    <rc><c>Si</c><c>   2</c></rc>
    <rc><c>Si</c><c>   2</c></rc>
    <rc><c>Si</c><c>   2</c></rc>
    <rc><c>Si</c><c>   2</c></rc>
    <rc><c>Si</c><c>   2</c></rc>
    <rc><c>Si</c><c>   2</c></rc>
    <rc><c>Si</c><c>   2</c></rc>
   </set>
  </array>
  <array name="atomtypes" >
   <dimension dim="1">type</dimension>
   <field type="int">atomspertype</field>
   <field type="string">element</field>
   <field>mass</field>
   <field>valence</field>
   <field type="string">pseudopotential</field>
   <set>
    <rc><c>  12</c><c>P </c><c>     30.97400000</c><c>      5.00000000</c><c>  PAW_PBE P 17Jan2003                   </c></rc>
    <rc><c>  12</c><c>Si</c><c>     28.08500000</c><c>      4.00000000</c><c> PAW_PBE Si 05Jan2001                   </c></rc>
   </set>
  </array>
 </atominfo>
 <structure name="initialpos" >
  <crystal>
   <varray name="basis" >
    <v>       3.54040000       0.00000000       0.00000000 </v>
    <v>      -1.77020000      10.29434800       0.00000000 </v>
    <v>       0.00000000       0.00000000      27.50142900 </v>
   </varray>
   <i name="volume">   1002.32009712 </i>
   <varray name="rec_basis" >
    <v>       0.28245396       0.04857034       0.00000000 </v>
    <v>       0.00000000       0.09714068       0.00000000 </v>
    <v>       0.00000000       0.00000000       0.03636175 </v>
   </varray>
  </crystal>
  <varray name="positions" >
   <v>       0.11402300       0.22804500       0.23316207 </v>
   <v>       0.11402300       0.02804500       0.51499159 </v>
   <v>       0.45808900       0.91617900       0.20939482 </v>
   <v>       0.45808900       0.71617900       0.49122434 </v>
   <v>       0.31085400       0.62170900       0.08414979 </v>
   <v>       0.31085400       0.62170900       0.36597930 </v>
   <v>       0.99923000       0.99846000       0.08631254 </v>
   <v>       0.99923000       0.99846000       0.36814206 </v>
   <v>       0.65492700       0.30985400       0.06041748 </v>
   <v>       0.65492700       0.30985400       0.34224700 </v>
   <v>       0.76973800       0.53947500       0.20725292 </v>
   <v>       0.76973800       0.33947500       0.48908244 </v>
   <v>       0.93971600       0.87943300       0.15783749 </v>
   <v>       0.93971600       0.67943300       0.43966701 </v>
   <v>       0.20515200       0.41030300       0.18578822 </v>
   <v>       0.20515200       0.21030300       0.46761774 </v>
   <v>       0.20184900       0.40369900       0.09969156 </v>
   <v>       0.20184900       0.40369900       0.38152107 </v>
   <v>       0.56380500       0.12761000       0.10779021 </v>
   <v>       0.56380500       0.12761000       0.38961973 </v>
   <v>       0.56710600       0.13421200       0.19387616 </v>
   <v>       0.56710600       0.93421200       0.47570568 </v>
   <v>       0.82923400       0.65846800       0.13571444 </v>
   <v>       0.82923400       0.45846800       0.41754396 </v>
  </varray>
 </structure>
 <calculation>
  <scstep>
   <time name="dav">  112.61  112.64</time>
   <time name="total">  129.90  129.93</time>
   <energy>
    <i name="alphaZ">     36.80884744 </i>
    <i name="ewald">  11942.45789442 </i>
    <i name="hartreedc"> -14992.91741915 </i>
    <i name="XCdc">    -87.93535414 </i>
    <i name="pawpsdc">   1056.43050070 </i>
    <i name="pawaedc">   -732.41190547 </i>
    <i name="eentropy">     -0.03988547 </i>
    <i name="bandstr">    -86.31482539 </i>
    <i name="atom">   3354.04126044 </i>
    <i name="e_fr_energy">    490.11911338 </i>
    <i name="e_wo_entrp">    490.15899885 </i>
    <i name="e_0_energy">    490.13905612 </i>
   </energy>
  </scstep>
  <scstep>
   <time name="dav">  139.77  139.81</time>
   <time name="total">  139.79  139.83</time>
   <energy>
    <i name="e_fr_energy">    -67.21961169 </i>
    <i name="e_wo_entrp">    -67.19216795 </i>
    <i name="e_0_energy">    -67.20588982 </i>
   </energy>
  </scstep>
  <scstep>
   <time name="dav">  114.28  114.30</time>
   <time name="total">  114.29  114.31</time>
   <energy>
    <i name="e_fr_energy">   -122.63451024 </i>
    <i name="e_wo_entrp">   -122.59949271 </i>
    <i name="e_0_energy">   -122.61700148 </i>
   </energy>
  </scstep>
  <scstep>
   <time name="dav">  135.41  135.43</time>
   <time name="total">  135.42  135.45</time>
   <energy>
    <i name="e_fr_energy">   -125.09812094 </i>
    <i name="e_wo_entrp">   -125.06104147 </i>
    <i name="e_0_energy">   -125.07958121 </i>
   </energy>
  </scstep>
  <scstep>
   <time name="dav">  126.35  126.37</time>
   <time name="total">  132.56  132.59</time>
   <energy>
    <i name="e_fr_energy">   -125.16036636 </i>
    <i name="e_wo_entrp">   -125.12320109 </i>
    <i name="e_0_energy">   -125.14178372 </i>
   </energy>
  </scstep>
  <scstep>
   <time name="dav">  122.60  122.62</time>
   <time name="total">  143.51  143.53</time>
   <energy>
    <i name="e_fr_energy">   -122.86873946 </i>
    <i name="e_wo_entrp">   -122.82897934 </i>
    <i name="e_0_energy">   -122.84885940 </i>
   </energy>
  </scstep>
  <scstep>
   <time name="dav">   98.36   98.38</time>
   <time name="total">  119.10  119.12</time>
   <energy>
    <i name="e_fr_energy">   -122.67684193 </i>
    <i name="e_wo_entrp">   -122.64167707 </i>
    <i name="e_0_energy">   -122.65925950 </i>
   </energy>
  </scstep>
  <scstep>
   <time name="dav">   99.13   99.15</time>
   <time name="total">  118.63  118.65</time>
   <energy>
    <i name="e_fr_energy">   -122.68880483 </i>
    <i name="e_wo_entrp">   -122.65082281 </i>
    <i name="e_0_energy">   -122.66981382 </i>
   </energy>
  </scstep>
  <scstep>
   <time name="dav">   98.35   98.36</time>
   <time name="total">  119.16  119.19</time>
   <energy>
    <i name="e_fr_energy">   -122.66616475 </i>
    <i name="e_wo_entrp">   -122.62863862 </i>
    <i name="e_0_energy">   -122.64740168 </i>
   </energy>
  </scstep>
  <scstep>
   <time name="dav">   99.60   99.62</time>
   <time name="total">  120.40  120.42</time>
   <energy>
    <i name="e_fr_energy">   -122.64954216 </i>
    <i name="e_wo_entrp">   -122.61240774 </i>
    <i name="e_0_energy">   -122.63097495 </i>
   </energy>
  </scstep>
  <scstep>
   <time name="dav">  101.77  101.79</time>
   <time name="total">  122.51  122.54</time>
   <energy>
    <i name="e_fr_energy">   -122.64137568 </i>
    <i name="e_wo_entrp">   -122.60371428 </i>
    <i name="e_0_energy">   -122.62254498 </i>
   </energy>
  </scstep>
  <scstep>
   <time name="dav">  101.22  101.24</time>
   <time name="total">  121.69  121.71</time>
   <energy>
    <i name="e_fr_energy">   -122.63581626 </i>
    <i name="e_wo_entrp">   -122.59828090 </i>
    <i name="e_0_energy">   -122.61704858 </i>
   </energy>
  </scstep>
  <scstep>
   <time name="dav">  102.73  102.75</time>
   <time name="total">  123.48  123.50</time>
   <energy>
    <i name="e_fr_energy">   -122.63137383 </i>
    <i name="e_wo_entrp">   -122.59387986 </i>
    <i name="e_0_energy">   -122.61262685 </i>
   </energy>
  </scstep>
  <scstep>
   <time name="dav">  107.30  107.32</time>
   <time name="total">  127.95  127.97</time>
   <energy>
    <i name="e_fr_energy">   -122.62901459 </i>
    <i name="e_wo_entrp">   -122.59149904 </i>
    <i name="e_0_energy">   -122.61025682 </i>
   </energy>
  </scstep>
  <scstep>
   <time name="dav">   98.57   98.58</time>
   <time name="total">  119.15  119.17</time>
   <energy>
    <i name="e_fr_energy">   -122.62808677 </i>
    <i name="e_wo_entrp">   -122.59058860 </i>
    <i name="e_0_energy">   -122.60933769 </i>
   </energy>
  </scstep>
  <scstep>
   <time name="dav">   90.42   90.44</time>
   <time name="total">  109.89  109.91</time>
   <energy>
    <i name="e_fr_energy">   -122.62851064 </i>
    <i name="e_wo_entrp">   -122.59100713 </i>
    <i name="e_0_energy">   -122.60975889 </i>
   </energy>
  </scstep>
  <scstep>
   <time name="dav">   94.25   94.26</time>
   <time name="total">  113.75  113.78</time>
   <energy>
    <i name="e_fr_energy">   -122.62893921 </i>
    <i name="e_wo_entrp">   -122.59144362 </i>
    <i name="e_0_energy">   -122.61019141 </i>
   </energy>
  </scstep>
  <scstep>
   <time name="dav">   89.40   89.42</time>
   <time name="total">  108.95  108.97</time>
   <energy>
    <i name="e_fr_energy">   -122.62908959 </i>
    <i name="e_wo_entrp">   -122.59159224 </i>
    <i name="e_0_energy">   -122.61034092 </i>
   </energy>
  </scstep>
  <scstep>
   <time name="dav">   82.25   82.26</time>
   <time name="total">  101.78  101.80</time>
   <energy>
    <i name="e_fr_energy">   -122.62910845 </i>
    <i name="e_wo_entrp">   -122.59160973 </i>
    <i name="e_0_energy">   -122.61035909 </i>
   </energy>
  </scstep>
  <scstep>
   <time name="dav">   85.69   85.71</time>
   <time name="total">  105.31  105.33</time>
   <energy>
    <i name="e_fr_energy">   -122.62912436 </i>
    <i name="e_wo_entrp">   -122.59162832 </i>
    <i name="e_0_energy">   -122.61037634 </i>
   </energy>
  </scstep>
  <scstep>
   <time name="dav">   85.42   85.44</time>
   <time name="total">  105.01  105.04</time>
   <energy>
    <i name="e_fr_energy">   -122.62911031 </i>
    <i name="e_wo_entrp">   -122.59161389 </i>
    <i name="e_0_energy">   -122.61036210 </i>
   </energy>
  </scstep>
  <scstep>
   <time name="dav">   75.27   75.29</time>
   <time name="total">   94.73   94.75</time>
   <energy>
    <i name="e_fr_energy">   -122.62906938 </i>
    <i name="e_wo_entrp">   -122.59157313 </i>
    <i name="e_0_energy">   -122.61032125 </i>
   </energy>
  </scstep>
  <scstep>
   <time name="dav">   76.33   76.34</time>
   <time name="total">   95.85   95.87</time>
   <energy>
    <i name="e_fr_energy">   -122.62901788 </i>
    <i name="e_wo_entrp">   -122.59152152 </i>
    <i name="e_0_energy">   -122.61026970 </i>
   </energy>
  </scstep>
  <scstep>
   <time name="dav">   76.13   76.14</time>
   <time name="total">   95.75   95.77</time>
   <energy>
    <i name="e_fr_energy">   -122.62900436 </i>
    <i name="e_wo_entrp">   -122.59150783 </i>
    <i name="e_0_energy">   -122.61025610 </i>
   </energy>
  </scstep>
  <scstep>
   <time name="dav">   75.76   75.77</time>
   <time name="total">   95.33   95.35</time>
   <energy>
    <i name="e_fr_energy">   -122.62899668 </i>
    <i name="e_wo_entrp">   -122.59150027 </i>
    <i name="e_0_energy">   -122.61024848 </i>
   </energy>
  </scstep>
  <scstep>
   <time name="dav">   73.57   73.58</time>
   <time name="total">   93.16   93.18</time>
   <energy>
    <i name="e_fr_energy">   -122.62899385 </i>
    <i name="e_wo_entrp">   -122.59149741 </i>
    <i name="e_0_energy">   -122.61024563 </i>
   </energy>
  </scstep>
  <scstep>
   <time name="dav">   73.46   73.47</time>
   <time name="total">   88.57   88.59</time>
   <energy>
    <i name="alphaZ">     36.80884744 </i>
    <i name="ewald">  11942.45789442 </i>
    <i name="hartreedc"> -15086.50481503 </i>
    <i name="XCdc">    -80.62608046 </i>
    <i name="pawpsdc">   1156.47758159 </i>
    <i name="pawaedc">   -835.32265628 </i>
    <i name="eentropy">     -0.03749645 </i>
    <i name="bandstr">   -609.92352871 </i>
    <i name="atom">   3354.04126044 </i>
    <i name="e_fr_energy">   -122.62899303 </i>
    <i name="e_wo_entrp">   -122.59149658 </i>
    <i name="e_0_energy">   -122.61024481 </i>
   </energy>
  </scstep>
  <structure>
   <crystal>
    <varray name="basis" >
     <v>       3.54040000       0.00000000       0.00000000 </v>
     <v>      -1.77020000      10.29434800       0.00000000 </v>
     <v>       0.00000000       0.00000000      27.50142900 </v>
    </varray>
    <i name="volume">   1002.32009712 </i>
    <varray name="rec_basis" >
     <v>       0.28245396       0.04857034       0.00000000 </v>
     <v>       0.00000000       0.09714068       0.00000000 </v>
     <v>       0.00000000       0.00000000       0.03636175 </v>
    </varray>
   </crystal>
   <varray name="positions" >
    <v>       0.11402300       0.22804500       0.23316207 </v>
    <v>       0.11402300       0.02804500       0.51499159 </v>
    <v>       0.45808900       0.91617900       0.20939482 </v>
    <v>       0.45808900       0.71617900       0.49122434 </v>
    <v>       0.31085400       0.62170900       0.08414979 </v>
    <v>       0.31085400       0.62170900       0.36597930 </v>
    <v>       0.99923000       0.99846000       0.08631254 </v>
    <v>       0.99923000       0.99846000       0.36814206 </v>
    <v>       0.65492700       0.30985400       0.06041748 </v>
    <v>       0.65492700       0.30985400       0.34224700 </v>
    <v>       0.76973800       0.53947500       0.20725292 </v>
    <v>       0.76973800       0.33947500       0.48908244 </v>
    <v>       0.93971600       0.87943300       0.15783749 </v>
    <v>       0.93971600       0.67943300       0.43966701 </v>
    <v>       0.20515200       0.41030300       0.18578822 </v>
    <v>       0.20515200       0.21030300       0.46761774 </v>
    <v>       0.20184900       0.40369900       0.09969156 </v>
    <v>       0.20184900       0.40369900       0.38152107 </v>
    <v>       0.56380500       0.12761000       0.10779021 </v>
    <v>       0.56380500       0.12761000       0.38961973 </v>
    <v>       0.56710600       0.13421200       0.19387616 </v>
    <v>       0.56710600       0.93421200       0.47570568 </v>
    <v>       0.82923400       0.65846800       0.13571444 </v>
    <v>       0.82923400       0.45846800       0.41754396 </v>
   </varray>
  </structure>
  <varray name="forces" >
   <v>      -0.00465958      -0.02785175       0.03644408 </v>
   <v>       0.06333161      -0.02721921      -0.07779355 </v>
   <v>      -0.00157275      -0.01179243       0.10119394 </v>
   <v>       0.17744523       0.46844406      -0.08064828 </v>
   <v>      -0.00064060      -0.00839702       0.00977662 </v>
   <v>      -0.19028521       0.70366944       0.02640643 </v>
   <v>      -0.00027380       0.01084426      -0.00018327 </v>
   <v>      -0.42911569      -0.08900574       0.35912973 </v>
   <v>       0.00066099       0.00019596       0.01214669 </v>
   <v>      -0.59576006      -0.69577184      -0.65537033 </v>
   <v>      -0.00133853       0.00755456       0.10114236 </v>
   <v>      -0.09096788      -0.05034095       0.55087205 </v>
   <v>       0.00245211       0.00816729       0.01245920 </v>
   <v>       0.25280607      -0.42010246      -0.89826746 </v>
   <v>      -0.00236686       0.04012552       0.04002537 </v>
   <v>       0.60597337      -0.00914622      -0.08342258 </v>
   <v>      -0.00252228      -0.00620893      -0.02986660 </v>
   <v>      10.27793698      -3.22559485      -7.60277244 </v>
   <v>      -0.00372387      -0.00354056      -0.03401376 </v>
   <v>      -0.76186364      -0.92381883      -0.17299847 </v>
   <v>       0.00179883      -0.06808756       0.03755424 </v>
   <v>       0.19509736       0.17349495      -0.09774270 </v>
   <v>       0.00085035       0.01017937      -0.00161176 </v>
   <v>      -9.49326214       4.14420296       8.44754050 </v>
  </varray>
  <varray name="stress" >
   <v>      21.50402191      -3.98967237      -9.25275889 </v>
   <v>      -3.98967244       6.36425035       8.79552286 </v>
   <v>      -9.25275876       8.79552257       9.33092287 </v>
  </varray>
  <energy>
   <i name="e_fr_energy">   -122.62899303 </i>
   <i name="e_wo_entrp">   -122.61024481 </i>
   <i name="e_0_energy">     -0.03749645 </i>
  </energy>
  <time name="totalsc"> 3209.72 3210.40</time>
  <eigenvalues>
   <array>
    <dimension dim="1">band</dimension>
    <dimension dim="2">kpoint</dimension>
    <dimension dim="3">spin</dimension>
    <field>eigene</field>
    <field>occ</field>
    <set>
     <set comment="spin 1">
      <set comment="kpoint 1">
       <r>  -14.1140    1.0000 </r>
       <r>  -13.6501    1.0000 </r>
       <r>  -12.9070    1.0000 </r>
       <r>  -12.7123    1.0000 </r>
       <r>  -12.5975    1.0000 </r>
       <r>  -12.2284    1.0000 </r>
       <r>  -12.1938    1.0000 </r>
       <r>  -11.7038    1.0000 </r>
       <r>  -11.5397    1.0000 </r>
       <r>  -11.0982    1.0000 </r>
       <r>  -11.0667    1.0000 </r>
       <r>  -10.6101    1.0000 </r>
       <r>   -8.3987    1.0000 </r>
       <r>   -8.1310    1.0000 </r>
       <r>   -7.9401    1.0000 </r>
       <r>   -7.0217    1.0000 </r>
       <r>   -6.9346    1.0000 </r>
       <r>   -6.6695    1.0000 </r>
       <r>   -6.6016    1.0000 </r>
       <r>   -6.2074    1.0000 </r>
       <r>   -5.9284    1.0000 </r>
       <r>   -5.3325    1.0000 </r>
       <r>   -4.8560    1.0000 </r>
       <r>   -4.4142    1.0000 </r>
       <r>   -4.0593    1.0000 </r>
       <r>   -3.8654    1.0000 </r>
       <r>   -3.7864    1.0000 </r>
       <r>   -3.6000    1.0000 </r>
       <r>   -3.3349    1.0000 </r>
       <r>   -3.1688    1.0000 </r>
       <r>   -2.9834    1.0000 </r>
       <r>   -2.9481    1.0000 </r>
       <r>   -2.6935    1.0000 </r>
       <r>   -2.5907    1.0000 </r>
       <r>   -2.5482    1.0000 </r>
       <r>   -2.5073    1.0000 </r>
       <r>   -2.3246    1.0000 </r>
       <r>   -2.1852    1.0000 </r>
       <r>   -2.1599    1.0000 </r>
       <r>   -2.0353    1.0000 </r>
       <r>   -1.9189    1.0000 </r>
       <r>   -1.8348    1.0000 </r>
       <r>   -1.7544    1.0000 </r>
       <r>   -1.6765    1.0000 </r>
       <r>   -1.5538    1.0000 </r>
       <r>   -1.5383    1.0000 </r>
       <r>   -1.4297    1.0000 </r>
       <r>   -1.3885    1.0000 </r>
       <r>   -1.2243    1.0000 </r>
       <r>   -1.0917    1.0000 </r>
       <r>   -0.6841    1.0000 </r>
       <r>   -0.5261    1.0000 </r>
       <r>   -0.1223    0.9979 </r>
       <r>   -0.0265    0.9339 </r>
       <r>    0.3327    0.0002 </r>
       <r>    0.7841    0.0000 </r>
       <r>    1.0309    0.0000 </r>
       <r>    1.1818    0.0000 </r>
       <r>    1.2174    0.0000 </r>
       <r>    1.4471    0.0000 </r>
       <r>    1.6016    0.0000 </r>
       <r>    1.8558    0.0000 </r>
       <r>    1.9511    0.0000 </r>
       <r>    2.0294    0.0000 </r>
       <r>    2.3205    0.0000 </r>
       <r>    2.4463    0.0000 </r>
       <r>    2.5109    0.0000 </r>
       <r>    2.6880    0.0000 </r>
      </set>
      <set comment="kpoint 2">
       <r>  -14.0541    1.0000 </r>
       <r>  -13.5887    1.0000 </r>
       <r>  -12.8548    1.0000 </r>
       <r>  -12.6567    1.0000 </r>
       <r>  -12.5421    1.0000 </r>
       <r>  -12.1701    1.0000 </r>
       <r>  -12.1316    1.0000 </r>
       <r>  -11.6489    1.0000 </r>
       <r>  -11.4907    1.0000 </r>
       <r>  -11.0498    1.0000 </r>
       <r>  -11.0171    1.0000 </r>
       <r>  -10.5676    1.0000 </r>
       <r>   -8.3624    1.0000 </r>
       <r>   -8.1677    1.0000 </r>
       <r>   -7.9018    1.0000 </r>
       <r>   -7.0121    1.0000 </r>
       <r>   -6.9112    1.0000 </r>
       <r>   -6.6696    1.0000 </r>
       <r>   -6.5956    1.0000 </r>
       <r>   -6.1997    1.0000 </r>
       <r>   -5.8953    1.0000 </r>
       <r>   -5.3268    1.0000 </r>
       <r>   -4.8594    1.0000 </r>
       <r>   -4.4216    1.0000 </r>
       <r>   -4.3887    1.0000 </r>
       <r>   -3.8896    1.0000 </r>
       <r>   -3.7996    1.0000 </r>
       <r>   -3.6931    1.0000 </r>
       <r>   -3.5982    1.0000 </r>
       <r>   -3.3913    1.0000 </r>
       <r>   -3.3251    1.0000 </r>
       <r>   -3.0892    1.0000 </r>
       <r>   -3.0009    1.0000 </r>
       <r>   -2.8563    1.0000 </r>
       <r>   -2.7416    1.0000 </r>
       <r>   -2.5853    1.0000 </r>
       <r>   -2.4211    1.0000 </r>
       <r>   -2.3470    1.0000 </r>
       <r>   -2.2844    1.0000 </r>
       <r>   -2.1506    1.0000 </r>
       <r>   -2.0699    1.0000 </r>
       <r>   -2.0533    1.0000 </r>
       <r>   -1.9340    1.0000 </r>
       <r>   -1.9067    1.0000 </r>
       <r>   -1.8278    1.0000 </r>
       <r>   -1.7495    1.0000 </r>
       <r>   -1.6128    1.0000 </r>
       <r>   -1.3389    1.0000 </r>
       <r>   -1.2314    1.0000 </r>
       <r>   -1.0916    1.0000 </r>
       <r>   -0.7504    1.0000 </r>
       <r>   -0.4918    1.0000 </r>
       <r>   -0.1054    0.9956 </r>
       <r>    0.0815    0.4914 </r>
       <r>    0.5424    0.0000 </r>
       <r>    0.9653    0.0000 </r>
       <r>    1.2212    0.0000 </r>
       <r>    1.4745    0.0000 </r>
       <r>    1.5729    0.0000 </r>
       <r>    1.6565    0.0000 </r>
       <r>    1.9981    0.0000 </r>
       <r>    2.0711    0.0000 </r>
       <r>    2.1100    0.0000 </r>
       <r>    2.1863    0.0000 </r>
       <r>    2.4988    0.0000 </r>
       <r>    2.6153    0.0000 </r>
       <r>    2.6601    0.0000 </r>
       <r>    2.7707    0.0000 </r>
      </set>
      <set comment="kpoint 3">
       <r>  -13.8758    1.0000 </r>
       <r>  -13.4058    1.0000 </r>
       <r>  -12.6990    1.0000 </r>
       <r>  -12.4913    1.0000 </r>
       <r>  -12.3777    1.0000 </r>
       <r>  -11.9984    1.0000 </r>
       <r>  -11.9490    1.0000 </r>
       <r>  -11.4873    1.0000 </r>
       <r>  -11.3484    1.0000 </r>
       <r>  -10.9111    1.0000 </r>
       <r>  -10.8741    1.0000 </r>
       <r>  -10.4467    1.0000 </r>
       <r>   -8.2993    1.0000 </r>
       <r>   -8.2254    1.0000 </r>
       <r>   -7.8590    1.0000 </r>
       <r>   -7.0678    1.0000 </r>
       <r>   -6.8538    1.0000 </r>
       <r>   -6.6944    1.0000 </r>
       <r>   -6.6086    1.0000 </r>
       <r>   -6.2409    1.0000 </r>
       <r>   -5.8228    1.0000 </r>
       <r>   -5.4024    1.0000 </r>
       <r>   -5.0919    1.0000 </r>
       <r>   -4.9636    1.0000 </r>
       <r>   -4.4245    1.0000 </r>
       <r>   -4.3079    1.0000 </r>
       <r>   -4.1945    1.0000 </r>
       <r>   -4.0826    1.0000 </r>
       <r>   -3.9108    1.0000 </r>
       <r>   -3.7712    1.0000 </r>
       <r>   -3.7004    1.0000 </r>
       <r>   -3.6191    1.0000 </r>
       <r>   -3.4156    1.0000 </r>
       <r>   -3.2448    1.0000 </r>
       <r>   -3.1668    1.0000 </r>
       <r>   -3.0709    1.0000 </r>
       <r>   -2.9770    1.0000 </r>
       <r>   -2.7517    1.0000 </r>
       <r>   -2.6090    1.0000 </r>
       <r>   -2.5049    1.0000 </r>
       <r>   -2.3827    1.0000 </r>
       <r>   -2.2823    1.0000 </r>
       <r>   -2.2367    1.0000 </r>
       <r>   -2.0539    1.0000 </r>
       <r>   -1.9548    1.0000 </r>
       <r>   -1.8614    1.0000 </r>
       <r>   -1.7577    1.0000 </r>
       <r>   -1.5501    1.0000 </r>
       <r>   -1.3348    1.0000 </r>
       <r>   -1.1303    1.0000 </r>
       <r>   -0.8647    1.0000 </r>
       <r>   -0.5283    1.0000 </r>
       <r>   -0.1044    0.9954 </r>
       <r>    0.1120    0.3252 </r>
       <r>    0.8189    0.0000 </r>
       <r>    1.1027    0.0000 </r>
       <r>    1.3121    0.0000 </r>
       <r>    1.7798    0.0000 </r>
       <r>    1.8858    0.0000 </r>
       <r>    2.0928    0.0000 </r>
       <r>    2.1751    0.0000 </r>
       <r>    2.3345    0.0000 </r>
       <r>    2.4917    0.0000 </r>
       <r>    2.5400    0.0000 </r>
       <r>    2.8065    0.0000 </r>
       <r>    2.8772    0.0000 </r>
       <r>    2.9387    0.0000 </r>
       <r>    3.1036    0.0000 </r>
      </set>
      <set comment="kpoint 4">
       <r>  -13.5848    1.0000 </r>
       <r>  -13.1048    1.0000 </r>
       <r>  -12.4427    1.0000 </r>
       <r>  -12.2213    1.0000 </r>
       <r>  -12.1116    1.0000 </r>
       <r>  -11.7258    1.0000 </r>
       <r>  -11.6610    1.0000 </r>
       <r>  -11.2316    1.0000 </r>
       <r>  -11.1309    1.0000 </r>
       <r>  -10.7082    1.0000 </r>
       <r>  -10.6625    1.0000 </r>
       <r>  -10.2679    1.0000 </r>
       <r>   -8.4694    1.0000 </r>
       <r>   -8.1262    1.0000 </r>
       <r>   -7.9325    1.0000 </r>
       <r>   -7.4154    1.0000 </r>
       <r>   -6.9136    1.0000 </r>
       <r>   -6.7963    1.0000 </r>
       <r>   -6.7452    1.0000 </r>
       <r>   -6.4149    1.0000 </r>
       <r>   -5.8448    1.0000 </r>
       <r>   -5.7271    1.0000 </r>
       <r>   -5.4514    1.0000 </r>
       <r>   -5.4347    1.0000 </r>
       <r>   -4.9223    1.0000 </r>
       <r>   -4.7254    1.0000 </r>
       <r>   -4.6286    1.0000 </r>
       <r>   -4.5955    1.0000 </r>
       <r>   -4.4363    1.0000 </r>
       <r>   -4.2710    1.0000 </r>
       <r>   -4.0579    1.0000 </r>
       <r>   -3.8983    1.0000 </r>
       <r>   -3.7744    1.0000 </r>
       <r>   -3.6016    1.0000 </r>
       <r>   -3.5723    1.0000 </r>
       <r>   -3.2553    1.0000 </r>
       <r>   -3.1338    1.0000 </r>
       <r>   -3.0962    1.0000 </r>
       <r>   -3.0160    1.0000 </r>
       <r>   -2.7105    1.0000 </r>
       <r>   -2.5926    1.0000 </r>
       <r>   -2.5386    1.0000 </r>
       <r>   -2.3173    1.0000 </r>
       <r>   -2.0522    1.0000 </r>
       <r>   -1.9939    1.0000 </r>
       <r>   -1.9214    1.0000 </r>
       <r>   -1.8354    1.0000 </r>
       <r>   -1.6211    1.0000 </r>
       <r>   -1.5575    1.0000 </r>
       <r>   -1.2562    1.0000 </r>
       <r>   -1.0655    1.0000 </r>
       <r>   -0.6475    1.0000 </r>
       <r>   -0.3009    1.0000 </r>
       <r>    0.0209    0.7981 </r>
       <r>    0.6061    0.0000 </r>
       <r>    0.7718    0.0000 </r>
       <r>    1.2093    0.0000 </r>
       <r>    1.6062    0.0000 </r>
       <r>    1.7857    0.0000 </r>
       <r>    1.9164    0.0000 </r>
       <r>    2.1455    0.0000 </r>
       <r>    2.2422    0.0000 </r>
       <r>    2.5532    0.0000 </r>
       <r>    2.6878    0.0000 </r>
       <r>    2.7707    0.0000 </r>
       <r>    2.8671    0.0000 </r>
       <r>    2.9077    0.0000 </r>
       <r>    3.1028    0.0000 </r>
      </set>
      <set comment="kpoint 5">
       <r>  -13.1939    1.0000 </r>
       <r>  -12.6931    1.0000 </r>
       <r>  -12.0942    1.0000 </r>
       <r>  -11.8602    1.0000 </r>
       <r>  -11.7607    1.0000 </r>
       <r>  -11.3836    1.0000 </r>
       <r>  -11.3024    1.0000 </r>
       <r>  -10.9184    1.0000 </r>
       <r>  -10.8846    1.0000 </r>
       <r>  -10.5222    1.0000 </r>
       <r>  -10.4675    1.0000 </r>
       <r>  -10.0493    1.0000 </r>
       <r>   -8.7635    1.0000 </r>
       <r>   -8.2106    1.0000 </r>
       <r>   -8.1853    1.0000 </r>
       <r>   -7.8656    1.0000 </r>
       <r>   -7.3303    1.0000 </r>
       <r>   -7.1079    1.0000 </r>
       <r>   -7.0109    1.0000 </r>
       <r>   -6.6704    1.0000 </r>
       <r>   -6.2668    1.0000 </r>
       <r>   -6.2023    1.0000 </r>
       <r>   -6.0770    1.0000 </r>
       <r>   -5.8836    1.0000 </r>
       <r>   -5.3187    1.0000 </r>
       <r>   -4.9316    1.0000 </r>
       <r>   -4.8467    1.0000 </r>
       <r>   -4.8082    1.0000 </r>
       <r>   -4.6142    1.0000 </r>
       <r>   -4.4145    1.0000 </r>
       <r>   -4.4038    1.0000 </r>
       <r>   -4.3131    1.0000 </r>
       <r>   -3.9277    1.0000 </r>
       <r>   -3.7163    1.0000 </r>
       <r>   -3.5131    1.0000 </r>
       <r>   -3.4353    1.0000 </r>
       <r>   -3.2189    1.0000 </r>
       <r>   -3.1883    1.0000 </r>
       <r>   -3.0600    1.0000 </r>
       <r>   -2.8705    1.0000 </r>
       <r>   -2.7157    1.0000 </r>
       <r>   -2.6909    1.0000 </r>
       <r>   -2.3421    1.0000 </r>
       <r>   -2.1711    1.0000 </r>
       <r>   -2.0537    1.0000 </r>
       <r>   -1.9867    1.0000 </r>
       <r>   -1.9073    1.0000 </r>
       <r>   -1.8207    1.0000 </r>
       <r>   -1.6929    1.0000 </r>
       <r>   -1.4773    1.0000 </r>
       <r>   -1.3052    1.0000 </r>
       <r>   -0.7435    1.0000 </r>
       <r>   -0.4516    1.0000 </r>
       <r>   -0.2616    1.0000 </r>
       <r>    0.3162    0.0004 </r>
       <r>    0.4581    0.0000 </r>
       <r>    0.9652    0.0000 </r>
       <r>    1.2647    0.0000 </r>
       <r>    1.5081    0.0000 </r>
       <r>    1.6922    0.0000 </r>
       <r>    1.8732    0.0000 </r>
       <r>    2.1256    0.0000 </r>
       <r>    2.2537    0.0000 </r>
       <r>    2.4795    0.0000 </r>
       <r>    2.6281    0.0000 </r>
       <r>    2.7216    0.0000 </r>
       <r>    2.8528    0.0000 </r>
       <r>    3.0012    0.0000 </r>
      </set>
      <set comment="kpoint 6">
       <r>  -12.7361    1.0000 </r>
       <r>  -12.1849    1.0000 </r>
       <r>  -11.6747    1.0000 </r>
       <r>  -11.4490    1.0000 </r>
       <r>  -11.3642    1.0000 </r>
       <r>  -11.0656    1.0000 </r>
       <r>  -10.9599    1.0000 </r>
       <r>  -10.7317    1.0000 </r>
       <r>  -10.6698    1.0000 </r>
       <r>  -10.5632    1.0000 </r>
       <r>  -10.4038    1.0000 </r>
       <r>   -9.7748    1.0000 </r>
       <r>   -8.9394    1.0000 </r>
       <r>   -8.5799    1.0000 </r>
       <r>   -8.4883    1.0000 </r>
       <r>   -8.1428    1.0000 </r>
       <r>   -7.6471    1.0000 </r>
       <r>   -7.5670    1.0000 </r>
       <r>   -7.5270    1.0000 </r>
       <r>   -7.1447    1.0000 </r>
       <r>   -6.8638    1.0000 </r>
       <r>   -6.7743    1.0000 </r>
       <r>   -6.6819    1.0000 </r>
       <r>   -6.3664    1.0000 </r>
       <r>   -5.3197    1.0000 </r>
       <r>   -4.9833    1.0000 </r>
       <r>   -4.7956    1.0000 </r>
       <r>   -4.6453    1.0000 </r>
       <r>   -4.6090    1.0000 </r>
       <r>   -4.3830    1.0000 </r>
       <r>   -4.3247    1.0000 </r>
       <r>   -4.1780    1.0000 </r>
       <r>   -4.0400    1.0000 </r>
       <r>   -3.7620    1.0000 </r>
       <r>   -3.6329    1.0000 </r>
       <r>   -3.4306    1.0000 </r>
       <r>   -3.3758    1.0000 </r>
       <r>   -3.3220    1.0000 </r>
       <r>   -3.2553    1.0000 </r>
       <r>   -2.9005    1.0000 </r>
       <r>   -2.8261    1.0000 </r>
       <r>   -2.6094    1.0000 </r>
       <r>   -2.4292    1.0000 </r>
       <r>   -2.3917    1.0000 </r>
       <r>   -2.2422    1.0000 </r>
       <r>   -2.1316    1.0000 </r>
       <r>   -2.0201    1.0000 </r>
       <r>   -1.9501    1.0000 </r>
       <r>   -1.8301    1.0000 </r>
       <r>   -1.5624    1.0000 </r>
       <r>   -1.3503    1.0000 </r>
       <r>   -0.8914    1.0000 </r>
       <r>   -0.5996    1.0000 </r>
       <r>   -0.4250    1.0000 </r>
       <r>    0.1125    0.3223 </r>
       <r>    0.2055    0.0379 </r>
       <r>    0.7028    0.0000 </r>
       <r>    1.0550    0.0000 </r>
       <r>    1.3140    0.0000 </r>
       <r>    1.5755    0.0000 </r>
       <r>    1.6316    0.0000 </r>
       <r>    1.9558    0.0000 </r>
       <r>    2.1421    0.0000 </r>
       <r>    2.1926    0.0000 </r>
       <r>    2.3055    0.0000 </r>
       <r>    2.5756    0.0000 </r>
       <r>    2.7089    0.0000 </r>
       <r>    2.8076    0.0000 </r>
      </set>
      <set comment="kpoint 7">
       <r>  -12.3256    1.0000 </r>
       <r>  -11.6120    1.0000 </r>
       <r>  -11.2517    1.0000 </r>
       <r>  -11.2343    1.0000 </r>
       <r>  -11.0665    1.0000 </r>
       <r>  -10.9497    1.0000 </r>
       <r>  -10.8823    1.0000 </r>
       <r>  -10.8351    1.0000 </r>
       <r>  -10.7439    1.0000 </r>
       <r>  -10.6449    1.0000 </r>
       <r>  -10.3291    1.0000 </r>
       <r>   -9.5082    1.0000 </r>
       <r>   -8.7975    1.0000 </r>
       <r>   -8.7863    1.0000 </r>
       <r>   -8.5526    1.0000 </r>
       <r>   -8.4711    1.0000 </r>
       <r>   -8.1877    1.0000 </r>
       <r>   -7.7123    1.0000 </r>
       <r>   -7.6827    1.0000 </r>
       <r>   -7.4538    1.0000 </r>
       <r>   -7.3969    1.0000 </r>
       <r>   -7.2822    1.0000 </r>
       <r>   -7.1924    1.0000 </r>
       <r>   -6.5589    1.0000 </r>
       <r>   -5.1120    1.0000 </r>
       <r>   -5.0195    1.0000 </r>
       <r>   -4.6211    1.0000 </r>
       <r>   -4.5577    1.0000 </r>
       <r>   -4.3557    1.0000 </r>
       <r>   -4.3165    1.0000 </r>
       <r>   -4.1608    1.0000 </r>
       <r>   -4.0535    1.0000 </r>
       <r>   -3.9391    1.0000 </r>
       <r>   -3.8961    1.0000 </r>
       <r>   -3.6936    1.0000 </r>
       <r>   -3.6183    1.0000 </r>
       <r>   -3.4403    1.0000 </r>
       <r>   -3.3591    1.0000 </r>
       <r>   -3.3371    1.0000 </r>
       <r>   -3.1092    1.0000 </r>
       <r>   -2.9695    1.0000 </r>
       <r>   -2.7987    1.0000 </r>
       <r>   -2.5603    1.0000 </r>
       <r>   -2.4627    1.0000 </r>
       <r>   -2.3072    1.0000 </r>
       <r>   -2.2196    1.0000 </r>
       <r>   -2.1129    1.0000 </r>
       <r>   -1.8929    1.0000 </r>
       <r>   -1.7992    1.0000 </r>
       <r>   -1.6204    1.0000 </r>
       <r>   -1.3482    1.0000 </r>
       <r>   -0.9707    1.0000 </r>
       <r>   -0.6010    1.0000 </r>
       <r>   -0.5075    1.0000 </r>
       <r>   -0.0577    0.9742 </r>
       <r>    0.0120    0.8318 </r>
       <r>    0.5834    0.0000 </r>
       <r>    0.9322    0.0000 </r>
       <r>    1.2708    0.0000 </r>
       <r>    1.4540    0.0000 </r>
       <r>    1.5630    0.0000 </r>
       <r>    1.7554    0.0000 </r>
       <r>    1.9595    0.0000 </r>
       <r>    2.1508    0.0000 </r>
       <r>    2.2862    0.0000 </r>
       <r>    2.3727    0.0000 </r>
       <r>    2.5988    0.0000 </r>
       <r>    2.6979    0.0000 </r>
      </set>
      <set comment="kpoint 8">
       <r>  -14.1079    1.0000 </r>
       <r>  -13.5952    1.0000 </r>
       <r>  -13.0806    1.0000 </r>
       <r>  -12.7750    1.0000 </r>
       <r>  -12.5990    1.0000 </r>
       <r>  -12.1701    1.0000 </r>
       <r>  -11.9807    1.0000 </r>
       <r>  -11.6366    1.0000 </r>
       <r>  -11.5811    1.0000 </r>
       <r>  -11.1672    1.0000 </r>
       <r>  -11.1075    1.0000 </r>
       <r>  -10.5592    1.0000 </r>
       <r>   -8.6281    1.0000 </r>
       <r>   -8.4073    1.0000 </r>
       <r>   -7.5028    1.0000 </r>
       <r>   -7.1771    1.0000 </r>
       <r>   -6.7839    1.0000 </r>
       <r>   -6.7458    1.0000 </r>
       <r>   -6.6600    1.0000 </r>
       <r>   -5.9752    1.0000 </r>
       <r>   -5.8462    1.0000 </r>
       <r>   -5.2813    1.0000 </r>
       <r>   -4.7542    1.0000 </r>
       <r>   -4.3539    1.0000 </r>
       <r>   -4.1302    1.0000 </r>
       <r>   -3.9895    1.0000 </r>
       <r>   -3.7910    1.0000 </r>
       <r>   -3.5841    1.0000 </r>
       <r>   -3.4076    1.0000 </r>
       <r>   -3.2402    1.0000 </r>
       <r>   -3.2305    1.0000 </r>
       <r>   -2.8156    1.0000 </r>
       <r>   -2.7504    1.0000 </r>
       <r>   -2.5863    1.0000 </r>
       <r>   -2.5084    1.0000 </r>
       <r>   -2.4830    1.0000 </r>
       <r>   -2.3872    1.0000 </r>
       <r>   -2.2146    1.0000 </r>
       <r>   -2.1170    1.0000 </r>
       <r>   -2.0550    1.0000 </r>
       <r>   -1.9911    1.0000 </r>
       <r>   -1.9665    1.0000 </r>
       <r>   -1.7394    1.0000 </r>
       <r>   -1.6392    1.0000 </r>
       <r>   -1.5541    1.0000 </r>
       <r>   -1.4703    1.0000 </r>
       <r>   -1.4197    1.0000 </r>
       <r>   -1.3192    1.0000 </r>
       <r>   -1.2513    1.0000 </r>
       <r>   -1.1136    1.0000 </r>
       <r>   -0.7742    1.0000 </r>
       <r>   -0.5759    1.0000 </r>
       <r>   -0.1414    0.9991 </r>
       <r>    0.0995    0.3911 </r>
       <r>    0.3957    0.0000 </r>
       <r>    0.7598    0.0000 </r>
       <r>    1.0784    0.0000 </r>
       <r>    1.2095    0.0000 </r>
       <r>    1.2968    0.0000 </r>
       <r>    1.5360    0.0000 </r>
       <r>    1.6180    0.0000 </r>
       <r>    1.7082    0.0000 </r>
       <r>    2.0205    0.0000 </r>
       <r>    2.1420    0.0000 </r>
       <r>    2.3499    0.0000 </r>
       <r>    2.5124    0.0000 </r>
       <r>    2.5606    0.0000 </r>
       <r>    2.7116    0.0000 </r>
      </set>
      <set comment="kpoint 9">
       <r>  -14.0467    1.0000 </r>
       <r>  -13.5185    1.0000 </r>
       <r>  -13.0613    1.0000 </r>
       <r>  -12.7304    1.0000 </r>
       <r>  -12.5423    1.0000 </r>
       <r>  -12.1036    1.0000 </r>
       <r>  -11.8803    1.0000 </r>
       <r>  -11.5672    1.0000 </r>
       <r>  -11.5329    1.0000 </r>
       <r>  -11.1413    1.0000 </r>
       <r>  -11.0633    1.0000 </r>
       <r>  -10.5097    1.0000 </r>
       <r>   -8.6848    1.0000 </r>
       <r>   -8.3715    1.0000 </r>
       <r>   -7.4569    1.0000 </r>
       <r>   -7.2144    1.0000 </r>
       <r>   -6.7923    1.0000 </r>
       <r>   -6.6986    1.0000 </r>
       <r>   -6.6130    1.0000 </r>
       <r>   -5.9264    1.0000 </r>
       <r>   -5.7985    1.0000 </r>
       <r>   -5.2745    1.0000 </r>
       <r>   -4.8005    1.0000 </r>
       <r>   -4.4545    1.0000 </r>
       <r>   -4.3375    1.0000 </r>
       <r>   -4.1917    1.0000 </r>
       <r>   -3.8107    1.0000 </r>
       <r>   -3.7150    1.0000 </r>
       <r>   -3.5123    1.0000 </r>
       <r>   -3.4306    1.0000 </r>
       <r>   -3.3299    1.0000 </r>
       <r>   -3.1266    1.0000 </r>
       <r>   -2.9516    1.0000 </r>
       <r>   -2.8714    1.0000 </r>
       <r>   -2.7110    1.0000 </r>
       <r>   -2.5975    1.0000 </r>
       <r>   -2.5516    1.0000 </r>
       <r>   -2.4016    1.0000 </r>
       <r>   -2.3121    1.0000 </r>
       <r>   -2.2184    1.0000 </r>
       <r>   -2.1023    1.0000 </r>
       <r>   -2.0764    1.0000 </r>
       <r>   -1.9655    1.0000 </r>
       <r>   -1.9330    1.0000 </r>
       <r>   -1.8450    1.0000 </r>
       <r>   -1.6975    1.0000 </r>
       <r>   -1.4848    1.0000 </r>
       <r>   -1.3275    1.0000 </r>
       <r>   -1.2323    1.0000 </r>
       <r>   -1.0983    1.0000 </r>
       <r>   -0.8470    1.0000 </r>
       <r>   -0.5744    1.0000 </r>
       <r>   -0.0744    0.9855 </r>
       <r>    0.1568    0.1385 </r>
       <r>    0.6357    0.0000 </r>
       <r>    0.9661    0.0000 </r>
       <r>    1.2095    0.0000 </r>
       <r>    1.5222    0.0000 </r>
       <r>    1.6617    0.0000 </r>
       <r>    1.7109    0.0000 </r>
       <r>    1.8260    0.0000 </r>
       <r>    2.0765    0.0000 </r>
       <r>    2.1201    0.0000 </r>
       <r>    2.3705    0.0000 </r>
       <r>    2.5336    0.0000 </r>
       <r>    2.6703    0.0000 </r>
       <r>    2.7880    0.0000 </r>
       <r>    2.9167    0.0000 </r>
      </set>
      <set comment="kpoint 10">
       <r>  -13.8677    1.0000 </r>
       <r>  -13.3222    1.0000 </r>
       <r>  -12.9245    1.0000 </r>
       <r>  -12.5692    1.0000 </r>
       <r>  -12.3764    1.0000 </r>
       <r>  -11.9316    1.0000 </r>
       <r>  -11.6815    1.0000 </r>
       <r>  -11.4127    1.0000 </r>
       <r>  -11.3683    1.0000 </r>
       <r>  -11.0164    1.0000 </r>
       <r>  -10.9221    1.0000 </r>
       <r>  -10.3839    1.0000 </r>
       <r>   -8.7493    1.0000 </r>
       <r>   -8.2681    1.0000 </r>
       <r>   -7.4300    1.0000 </r>
       <r>   -7.3043    1.0000 </r>
       <r>   -6.7697    1.0000 </r>
       <r>   -6.6482    1.0000 </r>
       <r>   -6.5743    1.0000 </r>
       <r>   -6.0017    1.0000 </r>
       <r>   -5.7551    1.0000 </r>
       <r>   -5.3587    1.0000 </r>
       <r>   -5.2104    1.0000 </r>
       <r>   -4.9437    1.0000 </r>
       <r>   -4.4973    1.0000 </r>
       <r>   -4.4181    1.0000 </r>
       <r>   -4.3629    1.0000 </r>
       <r>   -4.0830    1.0000 </r>
       <r>   -3.9297    1.0000 </r>
       <r>   -3.7340    1.0000 </r>
       <r>   -3.6648    1.0000 </r>
       <r>   -3.4692    1.0000 </r>
       <r>   -3.3445    1.0000 </r>
       <r>   -3.1762    1.0000 </r>
       <r>   -3.0696    1.0000 </r>
       <r>   -2.9873    1.0000 </r>
       <r>   -2.8979    1.0000 </r>
       <r>   -2.8139    1.0000 </r>
       <r>   -2.7070    1.0000 </r>
       <r>   -2.5677    1.0000 </r>
       <r>   -2.4839    1.0000 </r>
       <r>   -2.4206    1.0000 </r>
       <r>   -2.2349    1.0000 </r>
       <r>   -2.0688    1.0000 </r>
       <r>   -2.0138    1.0000 </r>
       <r>   -1.9537    1.0000 </r>
       <r>   -1.6499    1.0000 </r>
       <r>   -1.6000    1.0000 </r>
       <r>   -1.2906    1.0000 </r>
       <r>   -1.1889    1.0000 </r>
       <r>   -0.9474    1.0000 </r>
       <r>   -0.5240    1.0000 </r>
       <r>   -0.0046    0.8841 </r>
       <r>    0.1441    0.1821 </r>
       <r>    0.8340    0.0000 </r>
       <r>    1.0492    0.0000 </r>
       <r>    1.3457    0.0000 </r>
       <r>    1.5850    0.0000 </r>
       <r>    1.8171    0.0000 </r>
       <r>    1.9932    0.0000 </r>
       <r>    2.1140    0.0000 </r>
       <r>    2.2430    0.0000 </r>
       <r>    2.5603    0.0000 </r>
       <r>    2.7176    0.0000 </r>
       <r>    2.8929    0.0000 </r>
       <r>    2.9729    0.0000 </r>
       <r>    3.0578    0.0000 </r>
       <r>    3.1594    0.0000 </r>
      </set>
      <set comment="kpoint 11">
       <r>  -13.5767    1.0000 </r>
       <r>  -13.0112    1.0000 </r>
       <r>  -12.6728    1.0000 </r>
       <r>  -12.2963    1.0000 </r>
       <r>  -12.1091    1.0000 </r>
       <r>  -11.6656    1.0000 </r>
       <r>  -11.4041    1.0000 </r>
       <r>  -11.1869    1.0000 </r>
       <r>  -11.1064    1.0000 </r>
       <r>  -10.8124    1.0000 </r>
       <r>  -10.7046    1.0000 </r>
       <r>  -10.2028    1.0000 </r>
       <r>   -8.8802    1.0000 </r>
       <r>   -8.1490    1.0000 </r>
       <r>   -7.6036    1.0000 </r>
       <r>   -7.5034    1.0000 </r>
       <r>   -6.8087    1.0000 </r>
       <r>   -6.7586    1.0000 </r>
       <r>   -6.6254    1.0000 </r>
       <r>   -6.4462    1.0000 </r>
       <r>   -5.9267    1.0000 </r>
       <r>   -5.7655    1.0000 </r>
       <r>   -5.5251    1.0000 </r>
       <r>   -5.3171    1.0000 </r>
       <r>   -5.1360    1.0000 </r>
       <r>   -4.7758    1.0000 </r>
       <r>   -4.7088    1.0000 </r>
       <r>   -4.6556    1.0000 </r>
       <r>   -4.3932    1.0000 </r>
       <r>   -4.1283    1.0000 </r>
       <r>   -3.9992    1.0000 </r>
       <r>   -3.8480    1.0000 </r>
       <r>   -3.7535    1.0000 </r>
       <r>   -3.4471    1.0000 </r>
       <r>   -3.3163    1.0000 </r>
       <r>   -3.2403    1.0000 </r>
       <r>   -3.1982    1.0000 </r>
       <r>   -3.0343    1.0000 </r>
       <r>   -2.9108    1.0000 </r>
       <r>   -2.7214    1.0000 </r>
       <r>   -2.6358    1.0000 </r>
       <r>   -2.5639    1.0000 </r>
       <r>   -2.3383    1.0000 </r>
       <r>   -2.2006    1.0000 </r>
       <r>   -2.0888    1.0000 </r>
       <r>   -1.9908    1.0000 </r>
       <r>   -1.8787    1.0000 </r>
       <r>   -1.6984    1.0000 </r>
       <r>   -1.5039    1.0000 </r>
       <r>   -1.3361    1.0000 </r>
       <r>   -1.1000    1.0000 </r>
       <r>   -0.5285    1.0000 </r>
       <r>   -0.2310    1.0000 </r>
       <r>   -0.0713    0.9838 </r>
       <r>    0.4788    0.0000 </r>
       <r>    0.8269    0.0000 </r>
       <r>    1.1383    0.0000 </r>
       <r>    1.3732    0.0000 </r>
       <r>    1.4803    0.0000 </r>
       <r>    1.5803    0.0000 </r>
       <r>    2.0842    0.0000 </r>
       <r>    2.4163    0.0000 </r>
       <r>    2.5599    0.0000 </r>
       <r>    2.6976    0.0000 </r>
       <r>    2.8703    0.0000 </r>
       <r>    2.9255    0.0000 </r>
       <r>    3.0502    0.0000 </r>
       <r>    3.2108    0.0000 </r>
      </set>
      <set comment="kpoint 12">
       <r>  -13.1868    1.0000 </r>
       <r>  -12.5949    1.0000 </r>
       <r>  -12.3132    1.0000 </r>
       <r>  -11.9241    1.0000 </r>
       <r>  -11.7582    1.0000 </r>
       <r>  -11.3340    1.0000 </r>
       <r>  -11.0897    1.0000 </r>
       <r>  -10.9217    1.0000 </r>
       <r>  -10.8188    1.0000 </r>
       <r>  -10.5761    1.0000 </r>
       <r>  -10.4987    1.0000 </r>
       <r>   -9.9980    1.0000 </r>
       <r>   -9.0797    1.0000 </r>
       <r>   -8.2865    1.0000 </r>
       <r>   -7.8870    1.0000 </r>
       <r>   -7.8193    1.0000 </r>
       <r>   -7.2204    1.0000 </r>
       <r>   -7.1261    1.0000 </r>
       <r>   -7.0741    1.0000 </r>
       <r>   -6.7971    1.0000 </r>
       <r>   -6.3172    1.0000 </r>
       <r>   -6.2125    1.0000 </r>
       <r>   -6.0311    1.0000 </r>
       <r>   -5.8659    1.0000 </r>
       <r>   -5.4867    1.0000 </r>
       <r>   -5.0958    1.0000 </r>
       <r>   -5.0473    1.0000 </r>
       <r>   -4.6480    1.0000 </r>
       <r>   -4.5262    1.0000 </r>
       <r>   -4.4443    1.0000 </r>
       <r>   -4.2476    1.0000 </r>
       <r>   -4.1168    1.0000 </r>
       <r>   -3.9210    1.0000 </r>
       <r>   -3.5830    1.0000 </r>
       <r>   -3.4602    1.0000 </r>
       <r>   -3.4130    1.0000 </r>
       <r>   -3.1247    1.0000 </r>
       <r>   -3.0322    1.0000 </r>
       <r>   -2.9638    1.0000 </r>
       <r>   -2.8791    1.0000 </r>
       <r>   -2.7346    1.0000 </r>
       <r>   -2.5980    1.0000 </r>
       <r>   -2.4290    1.0000 </r>
       <r>   -2.3039    1.0000 </r>
       <r>   -2.0960    1.0000 </r>
       <r>   -2.0331    1.0000 </r>
       <r>   -1.9722    1.0000 </r>
       <r>   -1.8530    1.0000 </r>
       <r>   -1.7839    1.0000 </r>
       <r>   -1.4944    1.0000 </r>
       <r>   -1.3230    1.0000 </r>
       <r>   -0.6994    1.0000 </r>
       <r>   -0.5723    1.0000 </r>
       <r>   -0.2132    1.0000 </r>
       <r>    0.1671    0.1087 </r>
       <r>    0.4877    0.0000 </r>
       <r>    0.7879    0.0000 </r>
       <r>    1.1271    0.0000 </r>
       <r>    1.1517    0.0000 </r>
       <r>    1.2854    0.0000 </r>
       <r>    2.0438    0.0000 </r>
       <r>    2.1836    0.0000 </r>
       <r>    2.3048    0.0000 </r>
       <r>    2.4420    0.0000 </r>
       <r>    2.5287    0.0000 </r>
       <r>    2.7880    0.0000 </r>
       <r>    2.8530    0.0000 </r>
       <r>    3.0276    0.0000 </r>
      </set>
      <set comment="kpoint 13">
       <r>  -12.7313    1.0000 </r>
       <r>  -12.0919    1.0000 </r>
       <r>  -11.8625    1.0000 </r>
       <r>  -11.4869    1.0000 </r>
       <r>  -11.3638    1.0000 </r>
       <r>  -11.0370    1.0000 </r>
       <r>  -10.8313    1.0000 </r>
       <r>  -10.7105    1.0000 </r>
       <r>  -10.6874    1.0000 </r>
       <r>  -10.5754    1.0000 </r>
       <r>  -10.3664    1.0000 </r>
       <r>   -9.7673    1.0000 </r>
       <r>   -9.0700    1.0000 </r>
       <r>   -8.6127    1.0000 </r>
       <r>   -8.2239    1.0000 </r>
       <r>   -8.1164    1.0000 </r>
       <r>   -7.8862    1.0000 </r>
       <r>   -7.6093    1.0000 </r>
       <r>   -7.4724    1.0000 </r>
       <r>   -7.2365    1.0000 </r>
       <r>   -6.8093    1.0000 </r>
       <r>   -6.7658    1.0000 </r>
       <r>   -6.6179    1.0000 </r>
       <r>   -6.3863    1.0000 </r>
       <r>   -5.4500    1.0000 </r>
       <r>   -5.1173    1.0000 </r>
       <r>   -4.8943    1.0000 </r>
       <r>   -4.7035    1.0000 </r>
       <r>   -4.5716    1.0000 </r>
       <r>   -4.3877    1.0000 </r>
       <r>   -4.2237    1.0000 </r>
       <r>   -3.9694    1.0000 </r>
       <r>   -3.9187    1.0000 </r>
       <r>   -3.6371    1.0000 </r>
       <r>   -3.4613    1.0000 </r>
       <r>   -3.3924    1.0000 </r>
       <r>   -3.3709    1.0000 </r>
       <r>   -3.2271    1.0000 </r>
       <r>   -3.1683    1.0000 </r>
       <r>   -3.0236    1.0000 </r>
       <r>   -2.8004    1.0000 </r>
       <r>   -2.7158    1.0000 </r>
       <r>   -2.4460    1.0000 </r>
       <r>   -2.3532    1.0000 </r>
       <r>   -2.2761    1.0000 </r>
       <r>   -2.1801    1.0000 </r>
       <r>   -2.0567    1.0000 </r>
       <r>   -1.9669    1.0000 </r>
       <r>   -1.8046    1.0000 </r>
       <r>   -1.5953    1.0000 </r>
       <r>   -1.3697    1.0000 </r>
       <r>   -0.9923    1.0000 </r>
       <r>   -0.7454    1.0000 </r>
       <r>   -0.3224    1.0000 </r>
       <r>    0.0484    0.6725 </r>
       <r>    0.1925    0.0557 </r>
       <r>    0.5264    0.0000 </r>
       <r>    0.9953    0.0000 </r>
       <r>    1.1017    0.0000 </r>
       <r>    1.2321    0.0000 </r>
       <r>    1.7158    0.0000 </r>
       <r>    1.9213    0.0000 </r>
       <r>    2.0070    0.0000 </r>
       <r>    2.2228    0.0000 </r>
       <r>    2.4840    0.0000 </r>
       <r>    2.5608    0.0000 </r>
       <r>    2.6805    0.0000 </r>
       <r>    2.8762    0.0000 </r>
      </set>
      <set comment="kpoint 14">
       <r>  -12.3246    1.0000 </r>
       <r>  -11.5435    1.0000 </r>
       <r>  -11.3667    1.0000 </r>
       <r>  -11.2170    1.0000 </r>
       <r>  -11.0774    1.0000 </r>
       <r>  -10.9713    1.0000 </r>
       <r>  -10.9318    1.0000 </r>
       <r>  -10.8050    1.0000 </r>
       <r>  -10.6903    1.0000 </r>
       <r>  -10.6201    1.0000 </r>
       <r>  -10.3279    1.0000 </r>
       <r>   -9.5148    1.0000 </r>
       <r>   -8.7038    1.0000 </r>
       <r>   -8.6615    1.0000 </r>
       <r>   -8.5105    1.0000 </r>
       <r>   -8.4837    1.0000 </r>
       <r>   -8.4381    1.0000 </r>
       <r>   -7.8421    1.0000 </r>
       <r>   -7.6341    1.0000 </r>
       <r>   -7.4467    1.0000 </r>
       <r>   -7.4117    1.0000 </r>
       <r>   -7.2418    1.0000 </r>
       <r>   -7.1585    1.0000 </r>
       <r>   -6.5363    1.0000 </r>
       <r>   -5.1334    1.0000 </r>
       <r>   -5.0858    1.0000 </r>
       <r>   -4.6468    1.0000 </r>
       <r>   -4.5672    1.0000 </r>
       <r>   -4.3410    1.0000 </r>
       <r>   -4.2985    1.0000 </r>
       <r>   -4.2262    1.0000 </r>
       <r>   -4.0482    1.0000 </r>
       <r>   -3.9699    1.0000 </r>
       <r>   -3.7621    1.0000 </r>
       <r>   -3.6143    1.0000 </r>
       <r>   -3.5522    1.0000 </r>
       <r>   -3.3885    1.0000 </r>
       <r>   -3.3521    1.0000 </r>
       <r>   -3.2814    1.0000 </r>
       <r>   -3.0957    1.0000 </r>
       <r>   -3.0029    1.0000 </r>
       <r>   -2.7557    1.0000 </r>
       <r>   -2.7027    1.0000 </r>
       <r>   -2.4801    1.0000 </r>
       <r>   -2.2851    1.0000 </r>
       <r>   -2.2292    1.0000 </r>
       <r>   -2.1384    1.0000 </r>
       <r>   -1.8448    1.0000 </r>
       <r>   -1.7622    1.0000 </r>
       <r>   -1.6540    1.0000 </r>
       <r>   -1.3014    1.0000 </r>
       <r>   -1.0860    1.0000 </r>
       <r>   -0.7513    1.0000 </r>
       <r>   -0.4254    1.0000 </r>
       <r>   -0.0800    0.9881 </r>
       <r>    0.1031    0.3714 </r>
       <r>    0.4533    0.0000 </r>
       <r>    0.8807    0.0000 </r>
       <r>    1.3241    0.0000 </r>
       <r>    1.3864    0.0000 </r>
       <r>    1.4569    0.0000 </r>
       <r>    1.6788    0.0000 </r>
       <r>    1.9477    0.0000 </r>
       <r>    2.1353    0.0000 </r>
       <r>    2.3439    0.0000 </r>
       <r>    2.4009    0.0000 </r>
       <r>    2.5885    0.0000 </r>
       <r>    2.6690    0.0000 </r>
      </set>
      <set comment="kpoint 15">
       <r>  -12.3282    1.0000 </r>
       <r>  -11.6452    1.0000 </r>
       <r>  -11.2176    1.0000 </r>
       <r>  -11.1748    1.0000 </r>
       <r>  -11.0533    1.0000 </r>
       <r>  -10.9131    1.0000 </r>
       <r>  -10.8707    1.0000 </r>
       <r>  -10.8636    1.0000 </r>
       <r>  -10.8091    1.0000 </r>
       <r>  -10.6806    1.0000 </r>
       <r>  -10.3295    1.0000 </r>
       <r>   -9.5178    1.0000 </r>
       <r>   -8.8642    1.0000 </r>
       <r>   -8.7901    1.0000 </r>
       <r>   -8.5460    1.0000 </r>
       <r>   -8.3997    1.0000 </r>
       <r>   -8.0530    1.0000 </r>
       <r>   -7.7599    1.0000 </r>
       <r>   -7.7173    1.0000 </r>
       <r>   -7.4889    1.0000 </r>
       <r>   -7.3874    1.0000 </r>
       <r>   -7.3255    1.0000 </r>
       <r>   -7.2294    1.0000 </r>
       <r>   -6.4708    1.0000 </r>
       <r>   -5.0869    1.0000 </r>
       <r>   -4.8361    1.0000 </r>
       <r>   -4.6874    1.0000 </r>
       <r>   -4.5637    1.0000 </r>
       <r>   -4.4336    1.0000 </r>
       <r>   -4.3112    1.0000 </r>
       <r>   -4.1087    1.0000 </r>
       <r>   -4.1040    1.0000 </r>
       <r>   -3.9949    1.0000 </r>
       <r>   -3.9543    1.0000 </r>
       <r>   -3.7589    1.0000 </r>
       <r>   -3.6507    1.0000 </r>
       <r>   -3.4994    1.0000 </r>
       <r>   -3.4546    1.0000 </r>
       <r>   -3.3449    1.0000 </r>
       <r>   -2.9906    1.0000 </r>
       <r>   -2.9026    1.0000 </r>
       <r>   -2.7872    1.0000 </r>
       <r>   -2.5397    1.0000 </r>
       <r>   -2.4720    1.0000 </r>
       <r>   -2.2776    1.0000 </r>
       <r>   -2.2393    1.0000 </r>
       <r>   -2.0819    1.0000 </r>
       <r>   -1.8906    1.0000 </r>
       <r>   -1.8114    1.0000 </r>
       <r>   -1.6021    1.0000 </r>
       <r>   -1.2777    1.0000 </r>
       <r>   -0.9533    1.0000 </r>
       <r>   -0.7964    1.0000 </r>
       <r>   -0.3727    1.0000 </r>
       <r>   -0.0790    0.9877 </r>
       <r>    0.1339    0.2226 </r>
       <r>    0.5107    0.0000 </r>
       <r>    0.8894    0.0000 </r>
       <r>    1.2671    0.0000 </r>
       <r>    1.5500    0.0000 </r>
       <r>    1.6343    0.0000 </r>
       <r>    1.6959    0.0000 </r>
       <r>    2.0945    0.0000 </r>
       <r>    2.1859    0.0000 </r>
       <r>    2.2878    0.0000 </r>
       <r>    2.4682    0.0000 </r>
       <r>    2.5050    0.0000 </r>
       <r>    2.6505    0.0000 </r>
      </set>
      <set comment="kpoint 16">
       <r>  -12.7392    1.0000 </r>
       <r>  -12.2112    1.0000 </r>
       <r>  -11.5896    1.0000 </r>
       <r>  -11.4014    1.0000 </r>
       <r>  -11.3581    1.0000 </r>
       <r>  -11.1051    1.0000 </r>
       <r>  -11.0422    1.0000 </r>
       <r>  -10.7499    1.0000 </r>
       <r>  -10.7338    1.0000 </r>
       <r>  -10.5586    1.0000 </r>
       <r>  -10.3185    1.0000 </r>
       <r>   -9.7844    1.0000 </r>
       <r>   -8.8506    1.0000 </r>
       <r>   -8.6040    1.0000 </r>
       <r>   -8.5862    1.0000 </r>
       <r>   -8.1886    1.0000 </r>
       <r>   -7.5787    1.0000 </r>
       <r>   -7.5421    1.0000 </r>
       <r>   -7.4386    1.0000 </r>
       <r>   -7.0873    1.0000 </r>
       <r>   -6.9105    1.0000 </r>
       <r>   -6.8684    1.0000 </r>
       <r>   -6.7800    1.0000 </r>
       <r>   -6.2489    1.0000 </r>
       <r>   -5.1687    1.0000 </r>
       <r>   -4.9774    1.0000 </r>
       <r>   -4.9246    1.0000 </r>
       <r>   -4.5854    1.0000 </r>
       <r>   -4.5045    1.0000 </r>
       <r>   -4.3814    1.0000 </r>
       <r>   -4.2865    1.0000 </r>
       <r>   -4.2595    1.0000 </r>
       <r>   -4.1850    1.0000 </r>
       <r>   -3.8280    1.0000 </r>
       <r>   -3.6719    1.0000 </r>
       <r>   -3.5155    1.0000 </r>
       <r>   -3.4247    1.0000 </r>
       <r>   -3.3199    1.0000 </r>
       <r>   -3.2685    1.0000 </r>
       <r>   -2.9498    1.0000 </r>
       <r>   -2.8420    1.0000 </r>
       <r>   -2.6191    1.0000 </r>
       <r>   -2.3957    1.0000 </r>
       <r>   -2.3362    1.0000 </r>
       <r>   -2.2083    1.0000 </r>
       <r>   -2.0496    1.0000 </r>
       <r>   -1.9804    1.0000 </r>
       <r>   -1.9462    1.0000 </r>
       <r>   -1.8181    1.0000 </r>
       <r>   -1.5580    1.0000 </r>
       <r>   -1.2798    1.0000 </r>
       <r>   -0.9276    1.0000 </r>
       <r>   -0.7163    1.0000 </r>
       <r>   -0.2687    1.0000 </r>
       <r>    0.0567    0.6286 </r>
       <r>    0.2924    0.0013 </r>
       <r>    0.7052    0.0000 </r>
       <r>    0.9951    0.0000 </r>
       <r>    1.3198    0.0000 </r>
       <r>    1.6471    0.0000 </r>
       <r>    1.7764    0.0000 </r>
       <r>    2.0080    0.0000 </r>
       <r>    2.1618    0.0000 </r>
       <r>    2.3077    0.0000 </r>
       <r>    2.4306    0.0000 </r>
       <r>    2.4857    0.0000 </r>
       <r>    2.6436    0.0000 </r>
       <r>    2.8113    0.0000 </r>
      </set>
      <set comment="kpoint 17">
       <r>  -13.1956    1.0000 </r>
       <r>  -12.7053    1.0000 </r>
       <r>  -12.0525    1.0000 </r>
       <r>  -11.8374    1.0000 </r>
       <r>  -11.7586    1.0000 </r>
       <r>  -11.3965    1.0000 </r>
       <r>  -11.3497    1.0000 </r>
       <r>  -10.9759    1.0000 </r>
       <r>  -10.8783    1.0000 </r>
       <r>  -10.5283    1.0000 </r>
       <r>  -10.4008    1.0000 </r>
       <r>  -10.0554    1.0000 </r>
       <r>   -8.6649    1.0000 </r>
       <r>   -8.2989    1.0000 </r>
       <r>   -8.2535    1.0000 </r>
       <r>   -7.8618    1.0000 </r>
       <r>   -7.2752    1.0000 </r>
       <r>   -7.1124    1.0000 </r>
       <r>   -6.9826    1.0000 </r>
       <r>   -6.5509    1.0000 </r>
       <r>   -6.3957    1.0000 </r>
       <r>   -6.2562    1.0000 </r>
       <r>   -6.0868    1.0000 </r>
       <r>   -5.8240    1.0000 </r>
       <r>   -5.2593    1.0000 </r>
       <r>   -5.0066    1.0000 </r>
       <r>   -4.8763    1.0000 </r>
       <r>   -4.7541    1.0000 </r>
       <r>   -4.5186    1.0000 </r>
       <r>   -4.4084    1.0000 </r>
       <r>   -4.3982    1.0000 </r>
       <r>   -4.3288    1.0000 </r>
       <r>   -4.0050    1.0000 </r>
       <r>   -3.8170    1.0000 </r>
       <r>   -3.5680    1.0000 </r>
       <r>   -3.3999    1.0000 </r>
       <r>   -3.2131    1.0000 </r>
       <r>   -3.1846    1.0000 </r>
       <r>   -3.0688    1.0000 </r>
       <r>   -2.8774    1.0000 </r>
       <r>   -2.8028    1.0000 </r>
       <r>   -2.6875    1.0000 </r>
       <r>   -2.2974    1.0000 </r>
       <r>   -2.1320    1.0000 </r>
       <r>   -2.0153    1.0000 </r>
       <r>   -1.9704    1.0000 </r>
       <r>   -1.9007    1.0000 </r>
       <r>   -1.8021    1.0000 </r>
       <r>   -1.5976    1.0000 </r>
       <r>   -1.4714    1.0000 </r>
       <r>   -1.2440    1.0000 </r>
       <r>   -0.9724    1.0000 </r>
       <r>   -0.4992    1.0000 </r>
       <r>   -0.1030    0.9952 </r>
       <r>    0.2734    0.0031 </r>
       <r>    0.4843    0.0000 </r>
       <r>    0.9798    0.0000 </r>
       <r>    1.2524    0.0000 </r>
       <r>    1.5515    0.0000 </r>
       <r>    1.8023    0.0000 </r>
       <r>    1.8800    0.0000 </r>
       <r>    2.1547    0.0000 </r>
       <r>    2.2587    0.0000 </r>
       <r>    2.4902    0.0000 </r>
       <r>    2.6130    0.0000 </r>
       <r>    2.7236    0.0000 </r>
       <r>    2.8917    0.0000 </r>
       <r>    2.9673    0.0000 </r>
      </set>
      <set comment="kpoint 18">
       <r>  -13.5846    1.0000 </r>
       <r>  -13.1006    1.0000 </r>
       <r>  -12.4573    1.0000 </r>
       <r>  -12.2224    1.0000 </r>
       <r>  -12.1118    1.0000 </r>
       <r>  -11.7206    1.0000 </r>
       <r>  -11.6442    1.0000 </r>
       <r>  -11.2458    1.0000 </r>
       <r>  -11.1348    1.0000 </r>
       <r>  -10.7068    1.0000 </r>
       <r>  -10.6566    1.0000 </r>
       <r>  -10.2531    1.0000 </r>
       <r>   -8.5096    1.0000 </r>
       <r>   -8.1607    1.0000 </r>
       <r>   -7.8930    1.0000 </r>
       <r>   -7.4191    1.0000 </r>
       <r>   -6.8894    1.0000 </r>
       <r>   -6.7969    1.0000 </r>
       <r>   -6.7493    1.0000 </r>
       <r>   -6.3427    1.0000 </r>
       <r>   -5.8513    1.0000 </r>
       <r>   -5.7943    1.0000 </r>
       <r>   -5.4536    1.0000 </r>
       <r>   -5.4336    1.0000 </r>
       <r>   -4.9421    1.0000 </r>
       <r>   -4.7179    1.0000 </r>
       <r>   -4.6565    1.0000 </r>
       <r>   -4.6217    1.0000 </r>
       <r>   -4.3564    1.0000 </r>
       <r>   -4.2485    1.0000 </r>
       <r>   -4.0881    1.0000 </r>
       <r>   -3.8886    1.0000 </r>
       <r>   -3.7987    1.0000 </r>
       <r>   -3.5690    1.0000 </r>
       <r>   -3.5339    1.0000 </r>
       <r>   -3.3278    1.0000 </r>
       <r>   -3.1600    1.0000 </r>
       <r>   -3.0895    1.0000 </r>
       <r>   -2.9456    1.0000 </r>
       <r>   -2.7366    1.0000 </r>
       <r>   -2.5992    1.0000 </r>
       <r>   -2.5484    1.0000 </r>
       <r>   -2.3519    1.0000 </r>
       <r>   -2.0381    1.0000 </r>
       <r>   -1.9796    1.0000 </r>
       <r>   -1.9233    1.0000 </r>
       <r>   -1.8412    1.0000 </r>
       <r>   -1.5738    1.0000 </r>
       <r>   -1.5011    1.0000 </r>
       <r>   -1.2424    1.0000 </r>
       <r>   -1.0518    1.0000 </r>
       <r>   -0.7590    1.0000 </r>
       <r>   -0.3238    1.0000 </r>
       <r>    0.0489    0.6696 </r>
       <r>    0.5763    0.0000 </r>
       <r>    0.7138    0.0000 </r>
       <r>    1.2846    0.0000 </r>
       <r>    1.6075    0.0000 </r>
       <r>    1.7483    0.0000 </r>
       <r>    1.8974    0.0000 </r>
       <r>    2.1246    0.0000 </r>
       <r>    2.2299    0.0000 </r>
       <r>    2.5845    0.0000 </r>
       <r>    2.6711    0.0000 </r>
       <r>    2.8032    0.0000 </r>
       <r>    2.8782    0.0000 </r>
       <r>    2.9416    0.0000 </r>
[...]
       <r>    2.8168    0.0000 </r>
      </set>
      <set comment="kpoint 54">
       <r>  -12.3272    1.0000 </r>
       <r>  -11.6008    1.0000 </r>
       <r>  -11.2741    1.0000 </r>
       <r>  -11.1973    1.0000 </r>
       <r>  -11.0689    1.0000 </r>
       <r>  -10.9552    1.0000 </r>
       <r>  -10.9276    1.0000 </r>
       <r>  -10.8282    1.0000 </r>
       <r>  -10.7306    1.0000 </r>
       <r>  -10.6471    1.0000 </r>
       <r>  -10.3292    1.0000 </r>
       <r>   -9.5238    1.0000 </r>
       <r>   -8.7723    1.0000 </r>
       <r>   -8.7064    1.0000 </r>
       <r>   -8.5525    1.0000 </r>
       <r>   -8.4166    1.0000 </r>
       <r>   -8.2278    1.0000 </r>
       <r>   -7.8339    1.0000 </r>
       <r>   -7.6785    1.0000 </r>
       <r>   -7.5668    1.0000 </r>
       <r>   -7.4011    1.0000 </r>
       <r>   -7.2729    1.0000 </r>
       <r>   -7.1334    1.0000 </r>
       <r>   -6.4635    1.0000 </r>
       <r>   -5.0808    1.0000 </r>
       <r>   -5.0205    1.0000 </r>
       <r>   -4.6509    1.0000 </r>
       <r>   -4.5833    1.0000 </r>
       <r>   -4.3880    1.0000 </r>
       <r>   -4.3090    1.0000 </r>
       <r>   -4.1846    1.0000 </r>
       <r>   -4.0571    1.0000 </r>
       <r>   -3.9732    1.0000 </r>
       <r>   -3.8712    1.0000 </r>
       <r>   -3.6763    1.0000 </r>
       <r>   -3.6152    1.0000 </r>
       <r>   -3.4480    1.0000 </r>
       <r>   -3.3653    1.0000 </r>
       <r>   -3.2632    1.0000 </r>
       <r>   -3.1154    1.0000 </r>
       <r>   -2.9926    1.0000 </r>
       <r>   -2.7987    1.0000 </r>
       <r>   -2.5225    1.0000 </r>
       <r>   -2.4713    1.0000 </r>
       <r>   -2.3116    1.0000 </r>
       <r>   -2.2281    1.0000 </r>
       <r>   -2.0993    1.0000 </r>
       <r>   -1.8310    1.0000 </r>
       <r>   -1.7664    1.0000 </r>
       <r>   -1.6308    1.0000 </r>
       <r>   -1.2092    1.0000 </r>
       <r>   -1.0774    1.0000 </r>
       <r>   -0.9019    1.0000 </r>
       <r>   -0.2974    1.0000 </r>
       <r>   -0.1603    0.9997 </r>
       <r>    0.2103    0.0326 </r>
       <r>    0.3563    0.0000 </r>
       <r>    0.8906    0.0000 </r>
       <r>    1.2470    0.0000 </r>
       <r>    1.4722    0.0000 </r>
       <r>    1.5537    0.0000 </r>
       <r>    1.7803    0.0000 </r>
       <r>    1.9392    0.0000 </r>
       <r>    2.1392    0.0000 </r>
       <r>    2.2510    0.0000 </r>
       <r>    2.3608    0.0000 </r>
       <r>    2.6088    0.0000 </r>
       <r>    2.7192    0.0000 </r>
      </set>
     </set>
    </set>
   </array>
  </eigenvalues>
  <separator name="orbital magnetization" >
   <v name="MAGDIPOLOUT">      0.00000000      0.00000000      0.00000000</v>
  </separator>
  <dos>
   <i name="efermi">      0.07993906 </i>
   <total>
    <array>
     <dimension dim="1">gridpoints</dimension>
     <dimension dim="2">spin</dimension>
     <field>energy</field>
     <field>total</field>
     <field>integrated</field>
     <set>
      <set comment="spin 1">
       <r>   -15.1140     0.0000     0.0000 </r>
       <r>   -15.0495     0.0000     0.0000 </r>
       <r>   -14.9851     0.0000     0.0000 </r>
       <r>   -14.9206     0.0000     0.0000 </r>
       <r>   -14.8561     0.0000     0.0000 </r>
       <r>   -14.7916     0.0000     0.0000 </r>
       <r>   -14.7271     0.0000     0.0000 </r>
       <r>   -14.6626     0.0000     0.0000 </r>
       <r>   -14.5981     0.0000     0.0000 </r>
       <r>   -14.5336     0.0000     0.0000 </r>
       <r>   -14.4691     0.0000     0.0000 </r>
       <r>   -14.4046     0.0000     0.0000 </r>
       <r>   -14.3401     0.0013     0.0001 </r>
       <r>   -14.2756     0.0232     0.0016 </r>
       <r>   -14.2111     0.1996     0.0145 </r>
       <r>   -14.1466     0.8658     0.0703 </r>
       <r>   -14.0821     1.9546     0.1964 </r>
       <r>   -14.0176     2.3704     0.3492 </r>
       <r>   -13.9531     1.8594     0.4692 </r>
       <r>   -13.8886     1.7269     0.5805 </r>
       <r>   -13.8241     1.7069     0.6906 </r>
       <r>   -13.7597     1.0258     0.7568 </r>
       <r>   -13.6952     0.7766     0.8069 </r>
       <r>   -13.6307     1.8656     0.9272 </r>
       <r>   -13.5662     3.3474     1.1431 </r>
       <r>   -13.5017     3.3986     1.3623 </r>
       <r>   -13.4372     2.4733     1.5218 </r>
       <r>   -13.3727     1.9600     1.6482 </r>
       <r>   -13.3082     1.9287     1.7726 </r>
       <r>   -13.2437     2.3818     1.9262 </r>
       <r>   -13.1792     3.0786     2.1248 </r>
       <r>   -13.1147     3.3276     2.3394 </r>
       <r>   -13.0502     3.2806     2.5510 </r>
       <r>   -12.9857     3.1087     2.7515 </r>
       <r>   -12.9212     2.5815     2.9179 </r>
       <r>   -12.8567     2.3589     3.0701 </r>
       <r>   -12.7922     3.5624     3.2998 </r>
       <r>   -12.7277     5.8202     3.6752 </r>
       <r>   -12.6632     6.9021     4.1204 </r>
       <r>   -12.5988     6.4518     4.5365 </r>
       <r>   -12.5343     5.7357     4.9064 </r>
       <r>   -12.4698     4.7371     5.2119 </r>
       <r>   -12.4053     4.2717     5.4874 </r>
       <r>   -12.3408     5.0123     5.8107 </r>
       <r>   -12.2763     5.6481     6.1749 </r>
       <r>   -12.2118     5.8906     6.5549 </r>
       <r>   -12.1473     6.7092     6.9876 </r>
       <r>   -12.0828     7.0347     7.4413 </r>
       <r>   -12.0183     5.9341     7.8240 </r>
       <r>   -11.9538     5.1934     8.1589 </r>
       <r>   -11.8893     5.2877     8.5000 </r>
       <r>   -11.8248     5.2833     8.8407 </r>
       <r>   -11.7603     5.7588     9.2121 </r>
       <r>   -11.6958     7.0945     9.6697 </r>
       <r>   -11.6313     8.3896    10.2108 </r>
       <r>   -11.5668     8.6291    10.7673 </r>
       <r>   -11.5023     8.1386    11.2922 </r>
       <r>   -11.4378     8.5388    11.8429 </r>
       <r>   -11.3734     9.8073    12.4754 </r>
       <r>   -11.3089     9.6938    13.1006 </r>
       <r>   -11.2444     8.5698    13.6533 </r>
       <r>   -11.1799     9.0072    14.2342 </r>
       <r>   -11.1154    10.9127    14.9380 </r>
       <r>   -11.0509    12.1909    15.7243 </r>
       <r>   -10.9864    11.8018    16.4854 </r>
       <r>   -10.9219    11.8677    17.2508 </r>
       <r>   -10.8574    11.9308    18.0203 </r>
       <r>   -10.7929    10.6478    18.7070 </r>
       <r>   -10.7284     9.9686    19.3499 </r>
       <r>   -10.6639     9.7807    19.9808 </r>
       <r>   -10.5994     8.9014    20.5548 </r>
       <r>   -10.5349     8.3145    21.0911 </r>
       <r>   -10.4704     7.6125    21.5821 </r>
       <r>   -10.4059     6.4766    21.9998 </r>
       <r>   -10.3414     5.8302    22.3758 </r>
       <r>   -10.2769     4.9760    22.6967 </r>
       <r>   -10.2125     3.3900    22.9153 </r>
       <r>   -10.1480     1.9646    23.0420 </r>
       <r>   -10.0835     1.4405    23.1349 </r>
       <r>   -10.0190     1.6148    23.2391 </r>
       <r>    -9.9545     1.4333    23.3315 </r>
       <r>    -9.8900     0.8998    23.3895 </r>
       <r>    -9.8255     1.0595    23.4579 </r>
       <r>    -9.7610     1.6458    23.5640 </r>
       <r>    -9.6965     1.3869    23.6535 </r>
       <r>    -9.6320     0.7446    23.7015 </r>
       <r>    -9.5675     0.9683    23.7639 </r>
       <r>    -9.5030     1.6246    23.8687 </r>
       <r>    -9.4385     1.3823    23.9579 </r>
       <r>    -9.3740     0.5456    23.9931 </r>
       <r>    -9.3095     0.1002    23.9995 </r>
       <r>    -9.2450     0.0288    24.0014 </r>
       <r>    -9.1805     0.1742    24.0126 </r>
       <r>    -9.1160     0.7167    24.0588 </r>
       <r>    -9.0515     1.5276    24.1574 </r>
       <r>    -8.9871     2.0061    24.2867 </r>
       <r>    -8.9226     2.5299    24.4499 </r>
       <r>    -8.8581     3.7773    24.6935 </r>
       <r>    -8.7936     4.8797    25.0082 </r>
       <r>    -8.7291     5.0718    25.3353 </r>
       <r>    -8.6646     5.1148    25.6652 </r>
       <r>    -8.6001     5.7179    26.0340 </r>
       <r>    -8.5356     6.4342    26.4490 </r>
       <r>    -8.4711     6.7410    26.8837 </r>
       <r>    -8.4066     6.7935    27.3219 </r>
       <r>    -8.3421     6.8075    27.7609 </r>
       <r>    -8.2776     7.0181    28.2135 </r>
       <r>    -8.2131     7.5912    28.7031 </r>
       <r>    -8.1486     7.2844    29.1729 </r>
       <r>    -8.0841     5.0605    29.4993 </r>
       <r>    -8.0196     2.7000    29.6734 </r>
       <r>    -7.9551     2.6120    29.8419 </r>
       <r>    -7.8906     4.5351    30.1344 </r>
       <r>    -7.8262     5.5217    30.4905 </r>
       <r>    -7.7617     4.6633    30.7913 </r>
       <r>    -7.6972     4.3592    31.0724 </r>
       <r>    -7.6327     5.2416    31.4105 </r>
       <r>    -7.5682     6.4736    31.8280 </r>
       <r>    -7.5037     7.8979    32.3374 </r>
       <r>    -7.4392     9.0953    32.9240 </r>
       <r>    -7.3747     8.8191    33.4927 </r>
       <r>    -7.3102     7.7256    33.9910 </r>
       <r>    -7.2457     7.4959    34.4744 </r>
       <r>    -7.1812     7.7100    34.9717 </r>
       <r>    -7.1167     7.6255    35.4635 </r>
       <r>    -7.0522     6.5767    35.8877 </r>
       <r>    -6.9877     5.0997    36.2166 </r>
       <r>    -6.9232     5.1594    36.5493 </r>
       <r>    -6.8587     7.6454    37.0424 </r>
       <r>    -6.7942    11.3724    37.7759 </r>
       <r>    -6.7297    13.4537    38.6436 </r>
       <r>    -6.6652    12.6492    39.4594 </r>
       <r>    -6.6008    10.1793    40.1159 </r>
       <r>    -6.5363     7.0727    40.5720 </r>
       <r>    -6.4718     5.0750    40.8993 </r>
       <r>    -6.4073     4.8842    41.2144 </r>
       <r>    -6.3428     5.2161    41.5508 </r>
       <r>    -6.2783     5.3855    41.8981 </r>
       <r>    -6.2138     5.1438    42.2298 </r>
       <r>    -6.1493     4.0212    42.4892 </r>
       <r>    -6.0848     3.1855    42.6946 </r>
       <r>    -6.0203     3.4981    42.9203 </r>
       <r>    -5.9558     4.4864    43.2096 </r>
       <r>    -5.8913     6.1406    43.6056 </r>
       <r>    -5.8268     7.6022    44.0959 </r>
       <r>    -5.7623     7.1319    44.5559 </r>
       <r>    -5.6978     4.8323    44.8676 </r>
       <r>    -5.6333     2.5045    45.0291 </r>
       <r>    -5.5688     1.7212    45.1401 </r>
       <r>    -5.5043     2.9100    45.3278 </r>
       <r>    -5.4398     4.9544    45.6473 </r>
       <r>    -5.3754     6.1617    46.0447 </r>
       <r>    -5.3109     6.3740    46.4558 </r>
       <r>    -5.2464     6.0462    46.8457 </r>
       <r>    -5.1819     5.9306    47.2282 </r>
       <r>    -5.1174     7.1977    47.6925 </r>
       <r>    -5.0529     8.5756    48.2455 </r>
       <r>    -4.9884     8.4935    48.7933 </r>
       <r>    -4.9239     7.6757    49.2884 </r>
       <r>    -4.8594     7.0024    49.7400 </r>
       <r>    -4.7949     7.1931    50.2039 </r>
       <r>    -4.7304     8.2906    50.7386 </r>
       <r>    -4.6659     9.9625    51.3811 </r>
       <r>    -4.6014    11.1703    52.1015 </r>
       <r>    -4.5369    10.8008    52.7981 </r>
       <r>    -4.4724    11.2203    53.5218 </r>
       <r>    -4.4079    14.4302    54.4524 </r>
       <r>    -4.3434    16.5556    55.5202 </r>
       <r>    -4.2789    14.7852    56.4738 </r>
       <r>    -4.2145    12.0701    57.2522 </r>
       <r>    -4.1500    11.1611    57.9721 </r>
       <r>    -4.0855    11.4654    58.7115 </r>
       <r>    -4.0210    11.5855    59.4587 </r>
       <r>    -3.9565    11.5274    60.2022 </r>
       <r>    -3.8920    11.3615    60.9349 </r>
       <r>    -3.8275    11.4425    61.6729 </r>
       <r>    -3.7630    12.6323    62.4876 </r>
       <r>    -3.6985    13.6290    63.3666 </r>
       <r>    -3.6340    13.4151    64.2318 </r>
       <r>    -3.5695    12.5640    65.0421 </r>
       <r>    -3.5050    12.2104    65.8296 </r>
       <r>    -3.4405    14.0106    66.7332 </r>
       <r>    -3.3760    16.5911    67.8033 </r>
       <r>    -3.3115    17.3059    68.9194 </r>
       <r>    -3.2470    16.6035    69.9903 </r>
       <r>    -3.1825    15.7178    71.0040 </r>
       <r>    -3.1180    14.7099    71.9527 </r>
       <r>    -3.0535    14.4201    72.8827 </r>
       <r>    -2.9891    14.9450    73.8466 </r>
       <r>    -2.9246    14.9460    74.8105 </r>
       <r>    -2.8601    14.3843    75.7382 </r>
       <r>    -2.7956    14.0243    76.6427 </r>
       <r>    -2.7311    14.2315    77.5606 </r>
       <r>    -2.6666    14.5857    78.5013 </r>
       <r>    -2.6021    14.8687    79.4602 </r>
       <r>    -2.5376    15.2643    80.4447 </r>
       <r>    -2.4731    15.2690    81.4295 </r>
       <r>    -2.4086    15.3279    82.4180 </r>
       <r>    -2.3441    15.9061    83.4439 </r>
       <r>    -2.2796    16.4480    84.5047 </r>
       <r>    -2.2151    16.2019    85.5496 </r>
       <r>    -2.1506    16.2645    86.5986 </r>
       <r>    -2.0861    18.1527    87.7694 </r>
       <r>    -2.0216    20.2954    89.0783 </r>
       <r>    -1.9571    20.5814    90.4057 </r>
       <r>    -1.8926    19.4346    91.6591 </r>
       <r>    -1.8282    17.8571    92.8108 </r>
       <r>    -1.7637    15.2160    93.7921 </r>
       <r>    -1.6992    11.8794    94.5583 </r>
       <r>    -1.6347    10.5568    95.2392 </r>
       <r>    -1.5702    11.4921    95.9803 </r>
       <r>    -1.5057    11.6695    96.7330 </r>
       <r>    -1.4412    10.0606    97.3818 </r>
       <r>    -1.3767     9.3370    97.9840 </r>
       <r>    -1.3122    10.9041    98.6873 </r>
       <r>    -1.2477    11.4608    99.4264 </r>
       <r>    -1.1832     9.6878   100.0512 </r>
       <r>    -1.1187     8.4571   100.5967 </r>
       <r>    -1.0542     7.9987   101.1125 </r>
       <r>    -0.9897     7.0058   101.5644 </r>
       <r>    -0.9252     6.4538   101.9806 </r>
       <r>    -0.8607     6.2378   102.3829 </r>
       <r>    -0.7962     6.0133   102.7707 </r>
       <r>    -0.7317     5.7017   103.1385 </r>
       <r>    -0.6672     5.2518   103.4772 </r>
       <r>    -0.6028     5.8856   103.8568 </r>
       <r>    -0.5383     7.1891   104.3204 </r>
       <r>    -0.4738     6.7681   104.7569 </r>
       <r>    -0.4093     4.8312   105.0685 </r>
       <r>    -0.3448     3.7390   105.3097 </r>
       <r>    -0.2803     4.0850   105.5731 </r>
       <r>    -0.2158     4.7262   105.8780 </r>
       <r>    -0.1513     5.7447   106.2485 </r>
       <r>    -0.0868     7.3552   106.7228 </r>
       <r>    -0.0223     7.9494   107.2355 </r>
       <r>     0.0422     7.5031   107.7194 </r>
       <r>     0.1067     7.4770   108.2017 </r>
       <r>     0.1712     7.3700   108.6770 </r>
       <r>     0.2357     6.1422   109.0731 </r>
       <r>     0.3002     4.5209   109.3647 </r>
       <r>     0.3647     3.9513   109.6195 </r>
       <r>     0.4292     4.4706   109.9079 </r>
       <r>     0.4937     5.2534   110.2467 </r>
       <r>     0.5581     5.3922   110.5944 </r>
       <r>     0.6226     4.6926   110.8971 </r>
       <r>     0.6871     4.1992   111.1679 </r>
       <r>     0.7516     4.9048   111.4843 </r>
       <r>     0.8161     5.8926   111.8643 </r>
       <r>     0.8806     5.9682   112.2492 </r>
       <r>     0.9451     6.2022   112.6492 </r>
       <r>     1.0096     6.8032   113.0880 </r>
       <r>     1.0741     6.7628   113.5242 </r>
       <r>     1.1386     7.0017   113.9757 </r>
       <r>     1.2031     8.5190   114.5252 </r>
       <r>     1.2676    10.1351   115.1788 </r>
       <r>     1.3321     9.9838   115.8227 </r>
       <r>     1.3966     8.4474   116.3675 </r>
       <r>     1.4611     7.8626   116.8746 </r>
       <r>     1.5256     9.2458   117.4709 </r>
       <r>     1.5901    11.0099   118.1810 </r>
       <r>     1.6546    11.4116   118.9170 </r>
       <r>     1.7191    10.7476   119.6102 </r>
       <r>     1.7835     9.7269   120.2375 </r>
       <r>     1.8480     8.4290   120.7811 </r>
       <r>     1.9125     7.9885   121.2963 </r>
       <r>     1.9770     9.0336   121.8789 </r>
       <r>     2.0415    10.8920   122.5814 </r>
       <r>     2.1060    13.3125   123.4400 </r>
       <r>     2.1705    14.6920   124.3876 </r>
       <r>     2.2350    13.5922   125.2642 </r>
       <r>     2.2995    11.8183   126.0264 </r>
       <r>     2.3640    10.8674   126.7273 </r>
       <r>     2.4285    10.5099   127.4051 </r>
       <r>     2.4930    11.6608   128.1572 </r>
       <r>     2.5575    13.9503   129.0569 </r>
       <r>     2.6220    14.9699   130.0224 </r>
       <r>     2.6865    14.8657   130.9811 </r>
       <r>     2.7510    14.3667   131.9077 </r>
       <r>     2.8155    13.4834   132.7773 </r>
       <r>     2.8800    12.5724   133.5882 </r>
       <r>     2.9445    10.8640   134.2888 </r>
       <r>     3.0089     8.5170   134.8381 </r>
       <r>     3.0734     6.7016   135.2704 </r>
       <r>     3.1379     5.1986   135.6056 </r>
       <r>     3.2024     3.5430   135.8342 </r>
       <r>     3.2669     1.8281   135.9521 </r>
       <r>     3.3314     0.6119   135.9915 </r>
       <r>     3.3959     0.1186   135.9992 </r>
       <r>     3.4604     0.0123   136.0000 </r>
       <r>     3.5249     0.0006   136.0000 </r>
       <r>     3.5894     0.0000   136.0000 </r>
       <r>     3.6539     0.0000   136.0000 </r>
       <r>     3.7184     0.0000   136.0000 </r>
       <r>     3.7829     0.0000   136.0000 </r>
       <r>     3.8474     0.0000   136.0000 </r>
       <r>     3.9119     0.0000   136.0000 </r>
       <r>     3.9764     0.0000   136.0000 </r>
       <r>     4.0409     0.0000   136.0000 </r>
       <r>     4.1054     0.0000   136.0000 </r>
       <r>     4.1698     0.0000   136.0000 </r>
       <r>     4.2343     0.0000   136.0000 </r>
      </set>
     </set>
    </array>
   </total>
  </dos>
 </calculation>
 <structure name="finalpos" >
  <crystal>
   <varray name="basis" >
    <v>       3.54040000       0.00000000       0.00000000 </v>
    <v>      -1.77020000      10.29434800       0.00000000 </v>
    <v>       0.00000000       0.00000000      27.50142900 </v>
   </varray>
   <i name="volume">   1002.32009712 </i>
   <varray name="rec_basis" >
    <v>       0.28245396       0.04857034       0.00000000 </v>
    <v>       0.00000000       0.09714068       0.00000000 </v>
    <v>       0.00000000       0.00000000       0.03636175 </v>
   </varray>
  </crystal>
  <varray name="positions" >
   <v>       0.11402300       0.22804500       0.23316207 </v>
   <v>       0.11402300       0.02804500       0.51499159 </v>
   <v>       0.45808900       0.91617900       0.20939482 </v>
   <v>       0.45808900       0.71617900       0.49122434 </v>
   <v>       0.31085400       0.62170900       0.08414979 </v>
   <v>       0.31085400       0.62170900       0.36597930 </v>
   <v>       0.99923000       0.99846000       0.08631254 </v>
   <v>       0.99923000       0.99846000       0.36814206 </v>
   <v>       0.65492700       0.30985400       0.06041748 </v>
   <v>       0.65492700       0.30985400       0.34224700 </v>
   <v>       0.76973800       0.53947500       0.20725292 </v>
   <v>       0.76973800       0.33947500       0.48908244 </v>
   <v>       0.93971600       0.87943300       0.15783749 </v>
   <v>       0.93971600       0.67943300       0.43966701 </v>
   <v>       0.20515200       0.41030300       0.18578822 </v>
   <v>       0.20515200       0.21030300       0.46761774 </v>
   <v>       0.20184900       0.40369900       0.09969156 </v>
   <v>       0.20184900       0.40369900       0.38152107 </v>
   <v>       0.56380500       0.12761000       0.10779021 </v>
   <v>       0.56380500       0.12761000       0.38961973 </v>
   <v>       0.56710600       0.13421200       0.19387616 </v>
   <v>       0.56710600       0.93421200       0.47570568 </v>
   <v>       0.82923400       0.65846800       0.13571444 </v>
   <v>       0.82923400       0.45846800       0.41754396 </v>
  </varray>
 </structure>
</modeling>
