  24  24   0   0
  0.4176334E+02  0.3540400E-09  0.1044544E-08  0.2750143E-08  0.5000000E-15
  1.000000000000000E-004
  CAR 
 unknown system                          
      4.23930321    -16.36841771  301      0.04520479      1.00000000
    -16.368  0.0000E+00  0.0000E+00
    -16.300  0.0000E+00  0.0000E+00
    -16.231  0.0000E+00  0.0000E+00
    -16.162  0.0000E+00  0.0000E+00
    -16.094  0.0000E+00  0.0000E+00
    -16.025  0.0000E+00  0.0000E+00
    -15.956  0.1243E-15  0.8540E-17
    -15.888  0.2156E-12  0.1482E-13
    -15.819  0.1967E-09  0.1353E-10
    -15.750  0.7170E-07  0.4939E-08
    -15.681  0.1057E-04  0.7307E-06
    -15.613  0.6405E-03  0.4473E-04
    -15.544  0.1638E-01  0.1170E-02
    -15.475  0.1824E+00  0.1370E-01
    -15.407  0.9148E+00  0.7654E-01
    -15.338  0.2137E+01  0.2233E+00
    -15.269  0.2541E+01  0.3979E+00
    -15.201  0.2199E+01  0.5489E+00
    -15.132  0.1901E+01  0.6795E+00
    -15.063  0.1202E+01  0.7621E+00
    -14.995  0.1062E+01  0.8350E+00
    -14.926  0.1635E+01  0.9474E+00
    -14.857  0.1353E+01  0.1040E+01
    -14.788  0.5770E+00  0.1080E+01
    -14.720  0.6917E+00  0.1127E+01
    -14.651  0.1500E+01  0.1231E+01
    -14.582  0.1502E+01  0.1334E+01
    -14.514  0.6856E+00  0.1381E+01
    -14.445  0.5355E+00  0.1418E+01
    -14.376  0.1303E+01  0.1507E+01
    -14.308  0.1704E+01  0.1624E+01
    -14.239  0.1348E+01  0.1717E+01
    -14.170  0.1554E+01  0.1823E+01
    -14.102  0.1615E+01  0.1934E+01
    -14.033  0.7821E+00  0.1988E+01
    -13.964  0.1590E+00  0.1999E+01
    -13.895  0.1335E-01  0.2000E+01
    -13.827  0.5365E-03  0.2000E+01
    -13.758  0.2491E-02  0.2000E+01
    -13.689  0.3547E-01  0.2003E+01
    -13.621  0.2457E+00  0.2019E+01
    -13.552  0.8757E+00  0.2080E+01
    -13.483  0.1700E+01  0.2196E+01
    -13.415  0.2025E+01  0.2335E+01
    -13.346  0.1930E+01  0.2468E+01
    -13.277  0.1830E+01  0.2594E+01
    -13.209  0.1679E+01  0.2709E+01
    -13.140  0.1498E+01  0.2812E+01
    -13.071  0.1670E+01  0.2927E+01
    -13.002  0.2797E+01  0.3119E+01
    -12.934  0.4387E+01  0.3420E+01
    -12.865  0.4953E+01  0.3760E+01
    -12.796  0.4142E+01  0.4045E+01
    -12.728  0.3446E+01  0.4282E+01
    -12.659  0.3673E+01  0.4534E+01
    -12.590  0.4364E+01  0.4834E+01
    -12.522  0.5310E+01  0.5199E+01
    -12.453  0.6339E+01  0.5634E+01
    -12.384  0.6375E+01  0.6072E+01
    -12.316  0.5732E+01  0.6466E+01
    -12.247  0.5108E+01  0.6817E+01
    -12.178  0.4824E+01  0.7148E+01
    -12.109  0.5928E+01  0.7555E+01
    -12.041  0.7576E+01  0.8076E+01
    -11.972  0.7748E+01  0.8608E+01
    -11.903  0.6692E+01  0.9067E+01
    -11.835  0.6334E+01  0.9503E+01
    -11.766  0.6769E+01  0.9968E+01
    -11.697  0.7254E+01  0.1047E+02
    -11.629  0.8138E+01  0.1102E+02
    -11.560  0.9367E+01  0.1167E+02
    -11.491  0.9177E+01  0.1230E+02
    -11.423  0.7709E+01  0.1283E+02
    -11.354  0.7755E+01  0.1336E+02
    -11.285  0.9706E+01  0.1403E+02
    -11.216  0.1014E+02  0.1472E+02
    -11.148  0.8186E+01  0.1529E+02
    -11.079  0.6853E+01  0.1576E+02
    -11.010  0.8177E+01  0.1632E+02
    -10.942  0.1028E+02  0.1703E+02
    -10.873  0.1101E+02  0.1778E+02
    -10.804  0.1074E+02  0.1852E+02
    -10.736  0.9760E+01  0.1919E+02
    -10.667  0.9297E+01  0.1983E+02
    -10.598  0.9535E+01  0.2048E+02
    -10.530  0.8905E+01  0.2110E+02
    -10.461  0.7027E+01  0.2158E+02
    -10.392  0.4194E+01  0.2187E+02
    -10.323  0.1590E+01  0.2198E+02
    -10.255  0.3270E+00  0.2200E+02
    -10.186  0.3280E-01  0.2200E+02
    -10.117  0.1317E-01  0.2200E+02
    -10.049  0.1472E+00  0.2201E+02
     -9.980  0.8561E+00  0.2207E+02
     -9.911  0.2512E+01  0.2224E+02
     -9.843  0.4520E+01  0.2255E+02
     -9.774  0.6422E+01  0.2299E+02
     -9.705  0.7124E+01  0.2348E+02
     -9.637  0.5061E+01  0.2383E+02
     -9.568  0.2019E+01  0.2397E+02
     -9.499  0.4977E+00  0.2400E+02
     -9.430  0.5619E+00  0.2404E+02
     -9.362  0.1353E+01  0.2414E+02
     -9.293  0.1635E+01  0.2425E+02
     -9.224  0.1303E+01  0.2434E+02
     -9.156  0.1481E+01  0.2444E+02
     -9.087  0.1763E+01  0.2456E+02
     -9.018  0.1982E+01  0.2470E+02
     -8.950  0.3238E+01  0.2492E+02
     -8.881  0.5560E+01  0.2530E+02
     -8.812  0.8277E+01  0.2587E+02
     -8.744  0.1035E+02  0.2658E+02
     -8.675  0.1014E+02  0.2728E+02
     -8.606  0.7289E+01  0.2778E+02
     -8.537  0.4658E+01  0.2810E+02
     -8.469  0.4415E+01  0.2840E+02
     -8.400  0.5174E+01  0.2876E+02
     -8.331  0.4753E+01  0.2908E+02
     -8.263  0.3242E+01  0.2931E+02
     -8.194  0.2509E+01  0.2948E+02
     -8.125  0.2753E+01  0.2967E+02
     -8.057  0.2463E+01  0.2984E+02
     -7.988  0.1544E+01  0.2994E+02
     -7.919  0.1513E+01  0.3005E+02
     -7.851  0.3392E+01  0.3028E+02
     -7.782  0.5896E+01  0.3068E+02
     -7.713  0.6241E+01  0.3111E+02
     -7.644  0.5537E+01  0.3149E+02
     -7.576  0.5938E+01  0.3190E+02
     -7.507  0.7137E+01  0.3239E+02
     -7.438  0.8738E+01  0.3299E+02
     -7.370  0.9815E+01  0.3367E+02
     -7.301  0.8996E+01  0.3428E+02
     -7.232  0.6952E+01  0.3476E+02
     -7.164  0.5254E+01  0.3512E+02
     -7.095  0.4742E+01  0.3545E+02
     -7.026  0.5654E+01  0.3584E+02
     -6.958  0.6272E+01  0.3627E+02
     -6.889  0.5991E+01  0.3668E+02
     -6.820  0.6760E+01  0.3714E+02
     -6.751  0.1023E+02  0.3785E+02
     -6.683  0.1385E+02  0.3880E+02
     -6.614  0.1251E+02  0.3966E+02
     -6.545  0.8597E+01  0.4025E+02
     -6.477  0.6351E+01  0.4068E+02
     -6.408  0.5187E+01  0.4104E+02
     -6.339  0.4670E+01  0.4136E+02
     -6.271  0.5083E+01  0.4171E+02
     -6.202  0.6055E+01  0.4213E+02
     -6.133  0.6329E+01  0.4256E+02
     -6.065  0.5804E+01  0.4296E+02
     -5.996  0.5741E+01  0.4335E+02
     -5.927  0.6005E+01  0.4377E+02
     -5.858  0.5697E+01  0.4416E+02
     -5.790  0.5764E+01  0.4455E+02
     -5.721  0.6458E+01  0.4500E+02
     -5.652  0.6903E+01  0.4547E+02
     -5.584  0.6466E+01  0.4592E+02
     -5.515  0.5498E+01  0.4629E+02
     -5.446  0.5384E+01  0.4666E+02
     -5.378  0.6348E+01  0.4710E+02
     -5.309  0.7066E+01  0.4759E+02
     -5.240  0.7606E+01  0.4811E+02
     -5.172  0.8016E+01  0.4866E+02
     -5.103  0.7903E+01  0.4920E+02
     -5.034  0.8581E+01  0.4979E+02
     -4.965  0.9400E+01  0.5044E+02
     -4.897  0.1002E+02  0.5112E+02
     -4.828  0.9769E+01  0.5180E+02
     -4.759  0.8558E+01  0.5238E+02
     -4.691  0.8077E+01  0.5294E+02
     -4.622  0.7789E+01  0.5347E+02
     -4.553  0.7810E+01  0.5401E+02
     -4.485  0.8467E+01  0.5459E+02
     -4.416  0.9547E+01  0.5525E+02
     -4.347  0.1098E+02  0.5600E+02
     -4.279  0.1108E+02  0.5676E+02
     -4.210  0.1122E+02  0.5753E+02
     -4.141  0.1320E+02  0.5844E+02
     -4.072  0.1417E+02  0.5941E+02
     -4.004  0.1322E+02  0.6032E+02
     -3.935  0.1144E+02  0.6111E+02
     -3.866  0.9673E+01  0.6177E+02
     -3.798  0.1005E+02  0.6246E+02
     -3.729  0.1266E+02  0.6333E+02
     -3.660  0.1343E+02  0.6425E+02
     -3.592  0.1119E+02  0.6502E+02
     -3.523  0.9016E+01  0.6564E+02
     -3.454  0.9038E+01  0.6626E+02
     -3.386  0.1173E+02  0.6707E+02
     -3.317  0.1456E+02  0.6807E+02
     -3.248  0.1599E+02  0.6917E+02
     -3.179  0.1689E+02  0.7033E+02
     -3.111  0.1699E+02  0.7150E+02
     -3.042  0.1680E+02  0.7265E+02
     -2.973  0.1779E+02  0.7387E+02
     -2.905  0.1756E+02  0.7508E+02
     -2.836  0.1554E+02  0.7615E+02
     -2.767  0.1433E+02  0.7713E+02
     -2.699  0.1469E+02  0.7814E+02
     -2.630  0.1446E+02  0.7913E+02
     -2.561  0.1386E+02  0.8008E+02
     -2.493  0.1471E+02  0.8110E+02
     -2.424  0.1712E+02  0.8227E+02
     -2.355  0.1830E+02  0.8353E+02
     -2.286  0.1607E+02  0.8463E+02
     -2.218  0.1367E+02  0.8557E+02
     -2.149  0.1403E+02  0.8654E+02
     -2.080  0.1634E+02  0.8766E+02
     -2.012  0.1866E+02  0.8894E+02
     -1.943  0.1990E+02  0.9031E+02
     -1.874  0.1933E+02  0.9163E+02
     -1.806  0.1660E+02  0.9277E+02
     -1.737  0.1331E+02  0.9369E+02
     -1.668  0.9995E+01  0.9438E+02
     -1.600  0.8680E+01  0.9497E+02
     -1.531  0.1095E+02  0.9572E+02
     -1.462  0.1301E+02  0.9662E+02
     -1.393  0.1216E+02  0.9745E+02
     -1.325  0.1007E+02  0.9814E+02
     -1.256  0.8242E+01  0.9871E+02
     -1.187  0.8658E+01  0.9931E+02
     -1.119  0.1079E+02  0.1000E+03
     -1.050  0.1171E+02  0.1009E+03
     -0.981  0.1180E+02  0.1017E+03
     -0.913  0.1159E+02  0.1025E+03
     -0.844  0.9489E+01  0.1031E+03
     -0.775  0.6941E+01  0.1036E+03
     -0.707  0.6291E+01  0.1040E+03
     -0.638  0.6267E+01  0.1044E+03
     -0.569  0.5760E+01  0.1048E+03
     -0.500  0.5042E+01  0.1052E+03
     -0.432  0.4483E+01  0.1055E+03
     -0.363  0.5082E+01  0.1058E+03
     -0.294  0.6206E+01  0.1063E+03
     -0.226  0.6569E+01  0.1067E+03
     -0.157  0.6253E+01  0.1072E+03
     -0.088  0.4951E+01  0.1075E+03
     -0.020  0.3611E+01  0.1077E+03
      0.049  0.3992E+01  0.1080E+03
      0.118  0.5672E+01  0.1084E+03
      0.186  0.7251E+01  0.1089E+03
      0.255  0.7937E+01  0.1095E+03
      0.324  0.7841E+01  0.1100E+03
      0.393  0.6913E+01  0.1105E+03
      0.461  0.4994E+01  0.1108E+03
      0.530  0.3301E+01  0.1110E+03
      0.599  0.2862E+01  0.1112E+03
      0.667  0.3266E+01  0.1115E+03
      0.736  0.3840E+01  0.1117E+03
      0.805  0.4320E+01  0.1120E+03
      0.873  0.4181E+01  0.1123E+03
      0.942  0.3832E+01  0.1126E+03
      1.011  0.3960E+01  0.1128E+03
      1.079  0.4023E+01  0.1131E+03
      1.148  0.4887E+01  0.1135E+03
      1.217  0.7202E+01  0.1139E+03
      1.286  0.9204E+01  0.1146E+03
      1.354  0.9630E+01  0.1152E+03
      1.423  0.8322E+01  0.1158E+03
      1.492  0.7859E+01  0.1164E+03
      1.560  0.1033E+02  0.1171E+03
      1.629  0.1263E+02  0.1179E+03
      1.698  0.1275E+02  0.1188E+03
      1.766  0.1173E+02  0.1196E+03
      1.835  0.9751E+01  0.1203E+03
      1.904  0.8393E+01  0.1209E+03
      1.972  0.8590E+01  0.1214E+03
      2.041  0.8932E+01  0.1221E+03
      2.110  0.9804E+01  0.1227E+03
      2.179  0.1245E+02  0.1236E+03
      2.247  0.1550E+02  0.1247E+03
      2.316  0.1581E+02  0.1257E+03
      2.385  0.1413E+02  0.1267E+03
      2.453  0.1249E+02  0.1276E+03
      2.522  0.1204E+02  0.1284E+03
      2.591  0.1438E+02  0.1294E+03
      2.659  0.1779E+02  0.1306E+03
      2.728  0.1781E+02  0.1318E+03
      2.797  0.1455E+02  0.1328E+03
      2.865  0.1121E+02  0.1336E+03
      2.934  0.8760E+01  0.1342E+03
      3.003  0.7408E+01  0.1347E+03
      3.072  0.7313E+01  0.1352E+03
      3.140  0.6109E+01  0.1356E+03
      3.209  0.3290E+01  0.1359E+03
      3.278  0.1417E+01  0.1360E+03
      3.346  0.5509E+00  0.1360E+03
      3.415  0.1251E+00  0.1360E+03
      3.484  0.1266E-01  0.1360E+03
      3.552  0.5317E-03  0.1360E+03
      3.621  0.9087E-05  0.1360E+03
      3.690  0.6249E-07  0.1360E+03
      3.758  0.1717E-09  0.1360E+03
      3.827  0.1874E-12  0.1360E+03
      3.896  0.0000E+00  0.1360E+03
      3.965  0.0000E+00  0.1360E+03
      4.033  0.0000E+00  0.1360E+03
      4.102  0.0000E+00  0.1360E+03
      4.171  0.0000E+00  0.1360E+03
      4.239  0.0000E+00  0.1360E+03
