   24   24    1    1
  0.4176334E+02  0.3540400E-09  0.1044544E-08  0.2750143E-08  0.5000000E-15
  1.000000000000000E-004
  CAR 
 unknown system                          
    108     54     68
 
  0.0000000E+00  0.0000000E+00  0.0000000E+00  0.9615385E-02
    1      -15.368418
    2      -13.568227
    3      -12.868703
    4      -12.826608
    5      -12.552050
    6      -12.496312
    7      -12.117468
    8      -11.936263
    9      -11.460817
   10      -11.392120
   11      -11.016337
   12       -9.948104
   13       -8.792902
   14       -8.059760
   15       -7.858132
   16       -7.375999
   17       -6.874165
   18       -6.645637
   19       -6.515500
   20       -6.232428
   21       -5.848431
   22       -5.454026
   23       -5.222238
   24       -4.851134
   25       -4.729167
   26       -3.937009
   27       -3.838031
   28       -3.711586
   29       -3.414812
   30       -3.095767
   31       -3.084829
   32       -2.878908
   33       -2.868611
   34       -2.740880
   35       -2.478528
   36       -2.422615
   37       -2.332290
   38       -2.293718
   39       -2.119624
   40       -2.056210
   41       -1.961074
   42       -1.851374
   43       -1.751589
   44       -1.671419
   45       -1.619810
   46       -1.596199
   47       -1.535489
   48       -1.458611
   49       -1.187891
   50       -1.159265
   51       -0.924358
   52       -0.755967
   53       -0.361966
   54        0.080230
   55        0.665371
   56        1.121261
   57        1.167660
   58        1.285695
   59        1.393683
   60        1.509442
   61        1.684556
   62        1.955343
   63        1.969451
   64        2.066303
   65        2.175890
   66        2.301835
   67        2.415146
   68        2.628394
 
  0.7692308E-01 -0.1387779E-16  0.0000000E+00  0.1923077E-01
    1      -15.318412
    2      -13.506877
    3      -12.816393
    4      -12.774409
    5      -12.494418
    6      -12.439975
    7      -12.055461
    8      -11.882916
    9      -11.411852
   10      -11.342252
   11      -10.967999
   12       -9.917757
   13       -8.767307
   14       -8.096850
   15       -7.820868
   16       -7.358210
   17       -6.841005
   18       -6.627220
   19       -6.509673
   20       -6.249210
   21       -5.815520
   22       -5.663261
   23       -5.338973
   24       -4.853711
   25       -4.736401
   26       -3.911275
   27       -3.828499
   28       -3.722407
   29       -3.571772
   30       -3.411412
   31       -3.308353
   32       -3.254281
   33       -3.037382
   34       -2.896424
   35       -2.774641
   36       -2.659130
   37       -2.505287
   38       -2.370166
   39       -2.328737
   40       -2.217828
   41       -2.098912
   42       -2.049246
   43       -1.989521
   44       -1.905609
   45       -1.862929
   46       -1.748772
   47       -1.545133
   48       -1.470750
   49       -1.140372
   50       -1.010931
   51       -0.732895
   52       -0.630817
   53       -0.251173
   54        0.070122
   55        0.819043
   56        1.073550
   57        1.178473
   58        1.548703
   59        1.623447
   60        1.742757
   61        2.104822
   62        2.144018
   63        2.207123
   64        2.268413
   65        2.407425
   66        2.578741
   67        2.626757
   68        2.739613
 
  0.1538462E+00 -0.2775558E-16  0.0000000E+00  0.1923077E-01
    1      -15.171764
    2      -13.323898
    3      -12.661609
    4      -12.618544
    5      -12.324606
    6      -12.273214
    7      -11.873790
    8      -11.725536
    9      -11.269775
   10      -11.197268
   11      -10.829321
   12       -9.835331
   13       -8.705544
   14       -8.193632
   15       -7.778465
   16       -7.380684
   17       -6.774169
   18       -6.691013
   19       -6.531982
   20       -6.488892
   21       -5.977293
   22       -5.739887
   23       -5.316793
   24       -4.923309
   25       -4.866486
   26       -4.242407
   27       -4.184418
   28       -4.108195
   29       -4.001703
   30       -3.832140
   31       -3.708501
   32       -3.664111
   33       -3.461136
   34       -3.383583
   35       -3.186138
   36       -3.019868
   37       -2.993458
   38       -2.895958
   39       -2.756731
   40       -2.578011
   41       -2.397813
   42       -2.287944
   43       -2.184358
   44       -2.053962
   45       -1.967574
   46       -1.779289
   47       -1.684264
   48       -1.402852
   49       -1.185206
   50       -0.984603
   51       -0.730042
   52       -0.333148
   53       -0.184722
   54        0.213063
   55        0.526017
   56        0.837603
   57        1.281059
   58        1.727038
   59        1.890337
   60        1.955473
   61        2.228520
   62        2.406106
   63        2.584795
   64        2.638209
   65        2.655919
   66        2.912722
   67        3.025651
   68        3.067205
 
  0.2307692E+00 -0.4163336E-16  0.0000000E+00  0.1923077E-01
    1      -14.940531
    2      -13.022866
    3      -12.412886
    4      -12.362158
    5      -12.052272
    6      -12.004709
    7      -11.587529
    8      -11.473482
    9      -11.052736
   10      -10.974761
   11      -10.626473
   12       -9.731561
   13       -8.670511
   14       -8.385469
   15       -7.852501
   16       -7.832680
   17       -6.989401
   18       -6.722791
   19       -6.661843
   20       -6.547951
   21       -6.043289
   22       -5.762417
   23       -5.526167
   24       -5.363782
   25       -5.076600
   26       -4.844595
   27       -4.754463
   28       -4.630857
   29       -4.534998
   30       -4.347639
   31       -4.208814
   32       -4.013872
   33       -3.806184
   34       -3.693836
   35       -3.495843
   36       -3.305523
   37       -3.203259
   38       -3.020255
   39       -2.838729
   40       -2.679618
   41       -2.526348
   42       -2.456710
   43       -2.417277
   44       -2.127984
   45       -1.934952
   46       -1.849911
   47       -1.759642
   48       -1.505908
   49       -1.296950
   50       -1.108191
   51       -0.833671
   52       -0.621478
   53       -0.390650
   54       -0.279955
   55        0.426930
   56        0.776689
   57        1.007647
   58        1.723305
   59        1.852736
   60        1.993444
   61        2.127425
   62        2.237084
   63        2.358805
   64        2.652599
   65        2.832199
   66        2.866022
   67        2.933620
   68        3.094420
 
  0.3076923E+00 -0.5551115E-16  0.0000000E+00  0.1923077E-01
    1      -14.651288
    2      -12.611089
    3      -12.094380
    4      -12.013807
    5      -11.696651
    6      -11.655437
    7      -11.230884
    8      -11.149503
    9      -10.808087
   10      -10.720442
   11      -10.441020
   12       -9.675150
   13       -8.834805
   14       -8.680738
   15       -8.382067
   16       -8.112250
   17       -7.234272
   18       -7.023921
   19       -6.926624
   20       -6.626478
   21       -6.367589
   22       -6.185362
   23       -5.994022
   24       -5.935643
   25       -5.403940
   26       -5.240916
   27       -5.058911
   28       -4.807693
   29       -4.728758
   30       -4.537922
   31       -4.345901
   32       -4.251750
   33       -4.162298
   34       -3.753008
   35       -3.422562
   36       -3.184979
   37       -3.144022
   38       -3.092766
   39       -2.993442
   40       -2.819458
   41       -2.719666
   42       -2.629093
   43       -2.373389
   44       -2.146396
   45       -2.068643
   46       -1.917257
   47       -1.891509
   48       -1.737979
   49       -1.477131
   50       -1.336973
   51       -1.172801
   52       -0.896439
   53       -0.750513
   54       -0.468268
   55        0.172839
   56        0.409947
   57        0.673739
   58        1.550868
   59        1.587316
   60        1.758401
   61        1.959608
   62        2.203747
   63        2.337846
   64        2.495261
   65        2.640936
   66        2.666864
   67        2.799294
   68        2.888542
 
  0.3846154E+00 -0.8326673E-16  0.0000000E+00  0.1923077E-01
    1      -14.358020
    2      -12.102802
    3      -11.774277
    4      -11.594620
    5      -11.296408
    6      -11.267331
    7      -10.882899
    8      -10.811030
    9      -10.652908
   10      -10.540164
   11      -10.481942
   12       -9.739139
   13       -9.145296
   14       -8.857040
   15       -8.685119
   16       -8.404605
   17       -7.615601
   18       -7.485441
   19       -7.442878
   20       -6.961043
   21       -6.789340
   22       -6.772052
   23       -6.682482
   24       -6.194862
   25       -5.576955
   26       -5.243564
   27       -5.043260
   28       -4.666563
   29       -4.554133
   30       -4.410142
   31       -4.261375
   32       -4.170402
   33       -4.090941
   34       -3.736463
   35       -3.680248
   36       -3.298813
   37       -3.241579
   38       -3.182106
   39       -2.999247
   40       -2.961727
   41       -2.809263
   42       -2.576370
   43       -2.416860
   44       -2.303348
   45       -2.219874
   46       -2.065559
   47       -2.026448
   48       -1.854344
   49       -1.836467
   50       -1.468875
   51       -1.403055
   52       -1.112902
   53       -0.919611
   54       -0.564115
   55       -0.150509
   56        0.281603
   57        0.347865
   58        1.357275
   59        1.386543
   60        1.673657
   61        1.699787
   62        2.034345
   63        2.225536
   64        2.256450
   65        2.390473
   66        2.626622
   67        2.692835
   68        2.811341
 
  0.4615385E+00 -0.8326673E-16  0.0000000E+00  0.1923077E-01
    1      -14.157855
    2      -11.591462
    3      -11.527297
    4      -11.171745
    5      -10.976685
    6      -10.913181
    7      -10.869802
    8      -10.754361
    9      -10.663896
   10      -10.594873
   11      -10.543281
   12       -9.768245
   13       -9.364961
   14       -8.882614
   15       -8.713857
   16       -8.467554
   17       -8.106001
   18       -7.766735
   19       -7.599135
   20       -7.449970
   21       -7.314256
   22       -7.204763
   23       -7.066020
   24       -6.136629
   25       -5.505002
   26       -5.124933
   27       -4.939710
   28       -4.530688
   29       -4.415304
   30       -4.291679
   31       -4.097211
   32       -3.986043
   33       -3.916304
   34       -3.853181
   35       -3.616388
   36       -3.592505
   37       -3.363963
   38       -3.275364
   39       -3.122531
   40       -3.027088
   41       -3.008674
   42       -2.716834
   43       -2.465861
   44       -2.374124
   45       -2.269098
   46       -2.193749
   47       -2.095112
   48       -2.039631
   49       -1.729167
   50       -1.561759
   51       -1.510541
   52       -1.171837
   53       -1.006597
   54       -0.569775
   55       -0.328436
   56        0.089092
   57        0.201599
   58        1.226750
   59        1.346669
   60        1.543301
   61        1.627334
   62        1.824012
   63        2.048185
   64        2.290853
   65        2.362415
   66        2.445398
   67        2.635067
   68        2.681947
 
  0.0000000E+00  0.2500000E+00  0.0000000E+00  0.1923077E-01
    1      -15.367465
    2      -13.513058
    3      -13.000757
    4      -12.929948
    5      -12.520368
    6      -12.420625
    7      -11.996061
    8      -11.887497
    9      -11.505829
   10      -11.393900
   11      -11.025736
   12       -9.917554
   13       -8.816504
   14       -8.541972
   15       -7.526779
   16       -7.413009
   17       -6.725580
   18       -6.689632
   19       -6.601596
   20       -6.043913
   21       -5.770801
   22       -5.241018
   23       -5.213744
   24       -4.918379
   25       -4.652569
   26       -4.074742
   27       -3.963433
   28       -3.709766
   29       -3.418502
   30       -3.277576
   31       -3.155665
   32       -2.929797
   33       -2.735560
   34       -2.721769
   35       -2.491998
   36       -2.425519
   37       -2.394731
   38       -2.342529
   39       -2.172910
   40       -2.063303
   41       -1.994896
   42       -1.942130
   43       -1.899345
   44       -1.656978
   45       -1.655392
   46       -1.569418
   47       -1.390611
   48       -1.388414
   49       -1.163725
   50       -1.109860
   51       -0.959968
   52       -0.809823
   53       -0.137696
   54        0.141766
   55        0.642667
   56        1.077870
   57        1.180509
   58        1.356704
   59        1.442005
   60        1.546499
   61        1.704655
   62        1.803463
   63        1.966044
   64        2.213903
   65        2.246355
   66        2.365659
   67        2.556456
   68        2.633607
 
  0.7692308E-01  0.2500000E+00  0.0000000E+00  0.1923077E-01
    1      -15.317315
    2      -13.436291
    3      -12.981498
    4      -12.886298
    5      -12.461970
    6      -12.343273
    7      -11.951659
    8      -11.791107
    9      -11.464571
   10      -11.343230
   11      -10.981579
   12       -9.883677
   13       -8.788790
   14       -8.600352
   15       -7.534991
   16       -7.365894
   17       -6.718698
   18       -6.693203
   19       -6.545716
   20       -5.966243
   21       -5.722504
   22       -5.660472
   23       -5.178282
   24       -4.895040
   25       -4.701157
   26       -4.133108
   27       -3.970441
   28       -3.706020
   29       -3.601948
   30       -3.420610
   31       -3.352185
   32       -3.128305
   33       -3.048606
   34       -2.949821
   35       -2.743568
   36       -2.704570
   37       -2.543202
   38       -2.508129
   39       -2.335218
   40       -2.311441
   41       -2.184029
   42       -2.047619
   43       -2.020598
   44       -1.898818
   45       -1.850665
   46       -1.775494
   47       -1.548800
   48       -1.321587
   49       -1.092197
   50       -1.005053
   51       -0.894847
   52       -0.508471
   53       -0.115242
   54        0.149454
   55        0.796918
   56        0.989612
   57        1.224489
   58        1.569928
   59        1.656942
   60        1.772631
   61        1.926791
   62        2.189276
   63        2.320865
   64        2.464172
   65        2.524751
   66        2.606420
   67        2.636345
   68        2.849760
 
  0.1538462E+00  0.2500000E+00  0.0000000E+00  0.1923077E-01
    1      -15.170639
    2      -13.239846
    3      -12.844823
    4      -12.732302
    5      -12.294806
    6      -12.162633
    7      -11.804428
    8      -11.594505
    9      -11.325231
   10      -11.195759
   11      -10.840497
   12       -9.804208
   13       -8.721204
   14       -8.664903
   15       -7.512552
   16       -7.335492
   17       -6.878196
   18       -6.683715
   19       -6.526867
   20       -6.264562
   21       -5.867098
   22       -5.674805
   23       -5.279522
   24       -4.880052
   25       -4.854979
   26       -4.408547
   27       -4.322851
   28       -4.155757
   29       -4.001304
   30       -3.866583
   31       -3.755930
   32       -3.631693
   33       -3.385841
   34       -3.269075
   35       -3.097158
   36       -2.994989
   37       -2.955981
   38       -2.853721
   39       -2.784900
   40       -2.638002
   41       -2.569921
   42       -2.413560
   43       -2.342788
   44       -1.996131
   45       -1.920642
   46       -1.887515
   47       -1.548414
   48       -1.375257
   49       -1.132415
   50       -0.985292
   51       -0.874874
   52       -0.293689
   53       -0.154184
   54        0.252789
   55        0.504897
   56        0.888754
   57        1.265056
   58        1.626935
   59        1.745437
   60        1.923432
   61        2.092430
   62        2.324902
   63        2.702263
   64        2.728171
   65        2.849658
   66        3.016558
   67        3.040351
   68        3.098994
 
  0.2307692E+00  0.2500000E+00  0.0000000E+00  0.1923077E-01
    1      -14.939537
    2      -12.928590
    3      -12.593242
    4      -12.476309
    5      -12.026548
    6      -11.892598
    7      -11.560811
    8      -11.318485
    9      -11.103572
   10      -10.969256
   11      -10.623319
   12       -9.710954
   13       -8.798802
   14       -8.671375
   15       -7.815313
   16       -7.422815
   17       -7.216840
   18       -6.724274
   19       -6.671812
   20       -6.422129
   21       -5.921933
   22       -5.837187
   23       -5.678005
   24       -5.236975
   25       -5.058954
   26       -4.956953
   27       -4.706529
   28       -4.692827
   29       -4.575038
   30       -4.312988
   31       -4.137398
   32       -4.041277
   33       -3.765351
   34       -3.569738
   35       -3.355207
   36       -3.230218
   37       -3.142614
   38       -3.116868
   39       -2.900986
   40       -2.694386
   41       -2.561074
   42       -2.535442
   43       -2.429027
   44       -2.023170
   45       -1.961496
   46       -1.924287
   47       -1.795595
   48       -1.439522
   49       -1.294303
   50       -1.074919
   51       -0.930423
   52       -0.710651
   53       -0.403066
   54       -0.342109
   55        0.367217
   56        0.738984
   57        1.002008
   58        1.421146
   59        1.578618
   60        1.695662
   61        2.166269
   62        2.236711
   63        2.525340
   64        2.664894
   65        2.698154
   66        3.009630
   67        3.096723
   68        3.238605
 
  0.3076923E+00  0.2500000E+00  0.0000000E+00  0.1923077E-01
    1      -14.650517
    2      -12.512065
    3      -12.233958
    4      -12.141302
    5      -11.674756
    6      -11.562821
    7      -11.238609
    8      -11.005305
    9      -10.840013
   10      -10.709517
   11      -10.417854
   12       -9.672499
   13       -8.997707
   14       -8.810302
   15       -8.352190
   16       -7.735931
   17       -7.377723
   18       -7.138457
   19       -6.990073
   20       -6.527849
   21       -6.315200
   22       -6.215166
   23       -6.122978
   24       -5.945411
   25       -5.411396
   26       -5.378976
   27       -5.026729
   28       -4.965110
   29       -4.487082
   30       -4.418013
   31       -4.347651
   32       -4.179889
   33       -4.034764
   34       -3.742181
   35       -3.370999
   36       -3.259076
   37       -3.047741
   38       -2.992746
   39       -2.909727
   40       -2.871091
   41       -2.656092
   42       -2.539735
   43       -2.424731
   44       -2.270452
   45       -2.062114
   46       -1.973238
   47       -1.913342
   48       -1.771779
   49       -1.474182
   50       -1.341396
   51       -1.122809
   52       -0.954438
   53       -0.780913
   54       -0.667570
   55        0.017935
   56        0.364138
   57        0.565289
   58        1.209006
   59        1.270283
   60        1.521205
   61        2.131268
   62        2.255807
   63        2.355021
   64        2.422715
   65        2.597685
   66        2.779828
   67        2.920885
   68        3.092354
 
  0.3846154E+00  0.2500000E+00  0.0000000E+00  0.1923077E-01
    1      -14.357632
    2      -12.008927
    3      -11.794514
    4      -11.782832
    5      -11.279079
    6      -11.226499
    7      -10.881915
    8      -10.747772
    9      -10.629410
   10      -10.518957
   11      -10.494009
   12       -9.751274
   13       -9.098989
   14       -8.987345
   15       -8.665222
   16       -8.140040
   17       -7.805319
   18       -7.707659
   19       -7.385958
   20       -6.934999
   21       -6.742001
   22       -6.703198
   23       -6.679068
   24       -6.259559
   25       -5.647091
   26       -5.370897
   27       -5.042712
   28       -4.809832
   29       -4.534231
   30       -4.363528
   31       -4.141337
   32       -4.110798
   33       -3.886105
   34       -3.684786
   35       -3.378352
   36       -3.311896
   37       -3.195332
   38       -3.149515
   39       -2.989183
   40       -2.932711
   41       -2.835901
   42       -2.670582
   43       -2.472299
   44       -2.373836
   45       -2.269920
   46       -2.101047
   47       -2.056588
   48       -1.861939
   49       -1.779593
   50       -1.490140
   51       -1.402619
   52       -1.126710
   53       -0.946042
   54       -0.658680
   55       -0.248761
   56        0.119813
   57        0.302496
   58        1.173178
   59        1.303890
   60        1.310909
   61        1.792040
   62        1.981357
   63        2.120604
   64        2.251255
   65        2.559622
   66        2.634825
   67        2.802845
   68        2.922912
 
  0.4615385E+00  0.2500000E+00  0.0000000E+00  0.1923077E-01
    1      -14.157768
    2      -11.591313
    3      -11.457758
    4      -11.288023
    5      -10.988916
    6      -10.914019
    7      -10.890645
    8      -10.724411
    9      -10.610854
   10      -10.609170
   11      -10.529051
   12       -9.780795
   13       -9.326433
   14       -8.893165
   15       -8.580737
   16       -8.425759
   17       -8.356180
   18       -7.808043
   19       -7.545261
   20       -7.432773
   21       -7.344207
   22       -7.164004
   23       -7.050962
   24       -6.127442
   25       -5.528414
   26       -5.172197
   27       -5.042161
   28       -4.497193
   29       -4.396169
   30       -4.232389
   31       -4.166009
   32       -3.989775
   33       -3.923029
   34       -3.683788
   35       -3.543207
   36       -3.499966
   37       -3.332614
   38       -3.289377
   39       -3.160463
   40       -3.007012
   41       -2.930818
   42       -2.688705
   43       -2.629840
   44       -2.519443
   45       -2.313287
   46       -2.161582
   47       -2.110627
   48       -1.945029
   49       -1.713027
   50       -1.567926
   51       -1.497374
   52       -1.224563
   53       -1.005399
   54       -0.671826
   55       -0.305909
   56        0.063416
   57        0.234675
   58        1.179594
   59        1.396720
   60        1.478790
   61        1.539079
   62        1.724777
   63        2.049780
   64        2.213953
   65        2.410873
   66        2.461644
   67        2.674206
   68        2.751815
 
 -0.4615385E+00  0.2500000E+00  0.0000000E+00  0.1923077E-01
    1      -14.157940
    2      -11.593536
    3      -11.559588
    4      -11.095081
    5      -10.962759
    6      -10.906186
    7      -10.834325
    8      -10.783481
    9      -10.731567
   10      -10.599608
   11      -10.542349
   12       -9.758243
   13       -9.375420
   14       -8.908184
   15       -8.782452
   16       -8.461433
   17       -7.971131
   18       -7.716661
   19       -7.632143
   20       -7.472157
   21       -7.306440
   22       -7.245807
   23       -7.069874
   24       -6.137043
   25       -5.425936
   26       -5.173888
   27       -4.761840
   28       -4.605123
   29       -4.416426
   30       -4.379687
   31       -4.043005
   32       -4.031345
   33       -3.911300
   34       -3.888777
   35       -3.696605
   36       -3.679855
   37       -3.428409
   38       -3.337184
   39       -3.163413
   40       -2.974269
   41       -2.829287
   42       -2.706329
   43       -2.455703
   44       -2.408995
   45       -2.291032
   46       -2.185112
   47       -2.122059
   48       -1.976592
   49       -1.710168
   50       -1.536575
   51       -1.486551
   52       -1.205658
   53       -1.019119
   54       -0.639869
   55       -0.233343
   56        0.165626
   57        0.309106
   58        1.191911
   59        1.344711
   60        1.617958
   61        1.732647
   62        1.747902
   63        2.179372
   64        2.327668
   65        2.339387
   66        2.519166
   67        2.564226
   68        2.703104
 
 -0.3846154E+00  0.2500000E+00  0.0000000E+00  0.1923077E-01
    1      -14.358188
    2      -12.129239
    3      -11.766570
    4      -11.509829
    5      -11.310532
    6      -11.269269
    7      -10.960873
    8      -10.793724
    9      -10.655355
   10      -10.546236
   11      -10.477508
   12       -9.726486
   13       -9.183005
   14       -8.768511
   15       -8.694204
   16       -8.518581
   17       -7.554574
   18       -7.467868
   19       -7.356454
   20       -7.006769
   21       -6.832181
   22       -6.760154
   23       -6.684798
   24       -6.177203
   25       -5.544585
   26       -5.125199
   27       -5.022415
   28       -4.864553
   29       -4.446478
   30       -4.390436
   31       -4.309888
   32       -4.192159
   33       -4.100493
   34       -3.748579
   35       -3.732408
   36       -3.433855
   37       -3.312573
   38       -3.197164
   39       -3.062623
   40       -2.954735
   41       -2.761920
   42       -2.571128
   43       -2.394053
   44       -2.279004
   45       -2.219686
   46       -2.059072
   47       -1.969506
   48       -1.850234
   49       -1.803015
   50       -1.485658
   51       -1.389812
   52       -1.074828
   53       -0.920737
   54       -0.513268
   55       -0.038274
   56        0.319381
   57        0.391766
   58        1.312014
   59        1.379363
   60        1.748407
   61        1.869191
   62        2.086322
   63        2.242862
   64        2.386301
   65        2.455406
   66        2.543276
   67        2.640905
   68        2.699234
 
 -0.3076923E+00  0.2500000E+00  0.0000000E+00  0.1923077E-01
    1      -14.651414
    2      -12.623340
    3      -12.085175
    4      -11.972350
    5      -11.707429
    6      -11.661637
    7      -11.273174
    8      -11.143031
    9      -10.799779
   10      -10.720777
   11      -10.447054
   12       -9.669874
   13       -8.878760
   14       -8.581789
   15       -8.354754
   16       -8.214699
   17       -7.181532
   18       -7.028739
   19       -6.896951
   20       -6.676386
   21       -6.366798
   22       -6.178297
   23       -6.002139
   24       -5.893674
   25       -5.419470
   26       -5.191673
   27       -5.068935
   28       -4.899383
   29       -4.674951
   30       -4.527510
   31       -4.349244
   32       -4.275628
   33       -4.175999
   34       -3.743143
   35       -3.486108
   36       -3.196211
   37       -3.153752
   38       -3.102730
   39       -2.984946
   40       -2.835051
   41       -2.721667
   42       -2.642285
   43       -2.359084
   44       -2.155747
   45       -2.045724
   46       -1.909278
   47       -1.883937
   48       -1.732388
   49       -1.492265
   50       -1.337989
   51       -1.189406
   52       -0.871217
   53       -0.711463
   54       -0.343227
   55        0.254415
   56        0.328302
   57        0.649197
   58        1.542423
   59        1.611655
   60        1.880703
   61        1.965343
   62        2.229022
   63        2.354982
   64        2.536585
   65        2.642914
   66        2.663638
   67        2.756709
   68        2.830935
 
 -0.2307692E+00  0.2500000E+00  0.0000000E+00  0.1923077E-01
    1      -14.940467
    2      -13.018640
    3      -12.418387
    4      -12.376692
    5      -12.048316
    6      -12.000367
    7      -11.571940
    8      -11.474398
    9      -11.056456
   10      -10.974068
   11      -10.625094
   12       -9.726974
   13       -8.700362
   14       -8.425696
   15       -7.812189
   16       -7.782228
   17       -7.023870
   18       -6.722366
   19       -6.665144
   20       -6.537605
   21       -6.055754
   22       -5.763820
   23       -5.499048
   24       -5.358892
   25       -5.088232
   26       -4.864117
   27       -4.762044
   28       -4.626301
   29       -4.538644
   30       -4.336945
   31       -4.205747
   32       -4.025096
   33       -3.803145
   34       -3.681315
   35       -3.476881
   36       -3.294955
   37       -3.206980
   38       -3.017833
   39       -2.864421
   40       -2.697056
   41       -2.531220
   42       -2.454779
   43       -2.397361
   44       -2.147274
   45       -1.926176
   46       -1.851404
   47       -1.773482
   48       -1.500984
   49       -1.298727
   50       -1.096128
   51       -0.904527
   52       -0.523920
   53       -0.384443
   54       -0.191913
   55        0.355848
   56        0.753100
   57        0.965146
   58        1.679407
   59        1.807430
   60        1.969847
   61        2.193161
   62        2.216482
   63        2.360512
   64        2.684759
   65        2.847160
   66        2.891857
   67        2.927121
   68        3.040975
 
 -0.1538462E+00  0.2500000E+00  0.0000000E+00  0.1923077E-01
    1      -15.171404
    2      -13.302477
    3      -12.695141
    4      -12.684712
    5      -12.307629
    6      -12.247369
    7      -11.797641
    8      -11.728693
    9      -11.289093
   10      -11.197332
   11      -10.827541
   12       -9.823044
   13       -8.727309
   14       -8.405292
   15       -7.568089
   16       -7.364459
   17       -6.848280
   18       -6.696865
   19       -6.580254
   20       -6.384571
   21       -5.955911
   22       -5.714922
   23       -5.245824
   24       -4.951839
   25       -4.858152
   26       -4.313565
   27       -4.201833
   28       -4.154261
   29       -3.968975
   30       -3.839242
   31       -3.726651
   32       -3.665182
   33       -3.439692
   34       -3.356920
   35       -3.154351
   36       -3.016072
   37       -2.938459
   38       -2.899331
   39       -2.798631
   40       -2.596347
   41       -2.518819
   42       -2.287828
   43       -2.209300
   44       -2.030726
   45       -1.952751
   46       -1.792179
   47       -1.644868
   48       -1.398543
   49       -1.177953
   50       -0.965280
   51       -0.830008
   52       -0.206306
   53       -0.141908
   54        0.216603
   55        0.447305
   56        0.842713
   57        1.319218
   58        1.642335
   59        1.773290
   60        1.939479
   61        2.175214
   62        2.438572
   63        2.636029
   64        2.680949
   65        2.769928
   66        2.920462
   67        3.078247
   68        3.116921
 
 -0.7692308E-01  0.2500000E+00  0.0000000E+00  0.1923077E-01
    1      -15.317750
    2      -13.468297
    3      -12.903423
    4      -12.861902
    5      -12.467979