 vasp.5.3.5 31Mar14 (build Oct 29 2014 16:16:03) complex                        
  
 executed on          Linux-UFHPC date 2016.02.09  17:25:17
 running on    8 total cores
 distrk:  each k-point on    8 cores,    1 groups
 distr:  one band on NCORES_PER_BAND=   2 cores,    4 groups


--------------------------------------------------------------------------------------------------------


 INCAR:
 POTCAR:    PAW_PBE P 17Jan2003                   
 POTCAR:   PAW_PBE Si 05Jan2001                   

 ----------------------------------------------------------------------------- 
|                                                                             |
|  ADVICE TO THIS USER RUNNING 'VASP/VAMP'   (HEAR YOUR MASTER'S VOICE ...):  |
|                                                                             |
|      You have switched on vdW-DFT.                                          |
|      This routine was written and supplied by Jiri Klimes.                  |
|      We recommed that you carefully read and cite the following             |
|      publication                                                            |
|      J. Klimes, D.R. Bowler, A. Michelides                                  |
|        J. Phys.: Cond Matt. 22 022201 (2010)                                |
|      J. Klimes, D.R. Bowler, A. Michelides                                  |
|        Phys. Rev. B. 83, 195131 (2011)                                      |
|      and references therein.                                                |
|                                                                             |
 ----------------------------------------------------------------------------- 

 POTCAR:    PAW_PBE P 17Jan2003                   
   VRHFIN =P : s2p3                                                             
   LEXCH  = PE                                                                  
   EATOM  =   176.0430 eV,   12.9388 Ry                                         
                                                                                
   TITEL  = PAW_PBE P 17Jan2003                                                 
   LULTRA =        F    use ultrasoft PP ?                                      
   IUNSCR =        1    unscreen: 0-lin 1-nonlin 2-no                           
   RPACOR =    1.500    partial core radius                                     
   POMASS =   30.974; ZVAL   =    5.000    mass and valenz                      
   RCORE  =    1.900    outmost cutoff radius                                   
   RWIGS  =    2.330; RWIGS  =    1.233    wigner-seitz radius (au A)           
   ENMAX  =  270.000; ENMIN  =  191.280 eV                                      
   ICORE  =        2    local potential                                         
   LCOR   =        T    correct aug charges                                     
   LPAW   =        T    paw PP                                                  
   EAUG   =  342.924                                                            
   DEXC   =    -.002                                                            
   RMAX   =    2.887    core radius for proj-oper                               
   RAUG   =    1.300    factor for augmentation sphere                          
   RDEP   =    1.931    radius for radial grids                                 
   QCUT   =   -4.330; QGAM   =    8.659    optimization parameters              
                                                                                
   Description                                                                  
     l     E      TYP  RCUT    TYP  RCUT                                        
     0   .000     23  1.900                                                     
     0   .000     23  1.900                                                     
     1   .000     23  1.900                                                     
     1   .000     23  1.900                                                     
     2   .000     23  1.900                                                     
  local pseudopotential read in
  partial core-charges read in
  atomic valenz-charges read in
  non local Contribution for L=           0  read in
    real space projection operators read in
  non local Contribution for L=           0  read in
    real space projection operators read in
  non local Contribution for L=           1  read in
    real space projection operators read in
  non local Contribution for L=           1  read in
    real space projection operators read in
    PAW grid and wavefunctions read in
 
   number of l-projection  operators is LMAX  =           4
   number of lm-projection operators is LMMAX =           8
 
 POTCAR:   PAW_PBE Si 05Jan2001                   
   VRHFIN =Si: s2p2                                                             
   LEXCH  = PE                                                                  
   EATOM  =   103.0669 eV,    7.5752 Ry                                         
                                                                                
   TITEL  = PAW_PBE Si 05Jan2001                                                
   LULTRA =        F    use ultrasoft PP ?                                      
   IUNSCR =        1    unscreen: 0-lin 1-nonlin 2-no                           
   RPACOR =    1.500    partial core radius                                     
   POMASS =   28.085; ZVAL   =    4.000    mass and valenz                      
   RCORE  =    1.900    outmost cutoff radius                                   
   RWIGS  =    2.480; RWIGS  =    1.312    wigner-seitz radius (au A)           
   ENMAX  =  245.345; ENMIN  =  184.009 eV                                      
   ICORE  =        2    local potential                                         
   LCOR   =        T    correct aug charges                                     
   LPAW   =        T    paw PP                                                  
   EAUG   =  322.069                                                            
   DEXC   =    -.007                                                            
   RMAX   =    2.944    core radius for proj-oper                               
   RAUG   =    1.300    factor for augmentation sphere                          
   RDEP   =    1.993    radius for radial grids                                 
   QCUT   =   -4.246; QGAM   =    8.493    optimization parameters              
                                                                                
   Description                                                                  
     l     E      TYP  RCUT    TYP  RCUT                                        
     0   .000     23  1.900                                                     
     0   .000     23  1.900                                                     
     1   .000     23  1.900                                                     
     1   .000     23  1.900                                                     
     2   .000      7  1.900                                                     
  local pseudopotential read in
  partial core-charges read in
  atomic valenz-charges read in
  non local Contribution for L=           0  read in
    real space projection operators read in
  non local Contribution for L=           0  read in
    real space projection operators read in
  non local Contribution for L=           1  read in
    real space projection operators read in
  non local Contribution for L=           1  read in
    real space projection operators read in
    PAW grid and wavefunctions read in
 
   number of l-projection  operators is LMAX  =           4
   number of lm-projection operators is LMMAX =           8
 
 Optimization of the real space projectors (new method)

 maximal supplied QI-value         = 19.84
 optimisation between [QCUT,QGAM] = [  8.73, 17.66] = [ 21.34, 87.33] Ry 
 Optimized for a Real-space Cutoff    1.50 Angstroem

   l    n(q)    QCUT    max X(q) W(low)/X(q) W(high)/X(q)  e(spline) 
   0      8     8.731     6.651    0.16E-04    0.15E-04    0.77E-08
   0      8     8.731    90.285    0.16E-03    0.90E-04    0.16E-06
   1      7     8.731     4.328    0.47E-04    0.36E-04    0.45E-07
   1      7     8.731    54.583    0.13E-03    0.39E-03    0.20E-06
 Optimization of the real space projectors (new method)

 maximal supplied QI-value         = 19.84
 optimisation between [QCUT,QGAM] = [  8.73, 17.66] = [ 21.34, 87.33] Ry 
 Optimized for a Real-space Cutoff    1.46 Angstroem

   l    n(q)    QCUT    max X(q) W(low)/X(q) W(high)/X(q)  e(spline) 
   0      8     8.731     8.708    0.16E-04    0.11E-04    0.68E-08
   0      8     8.731   106.241    0.24E-03    0.77E-04    0.13E-06
   1      7     8.731     5.901    0.34E-04    0.38E-04    0.36E-07
   1      7     8.731    73.241    0.12E-03    0.39E-03    0.15E-06

 ----------------------------------------------------------------------------- 
|                                                                             |
|  ADVICE TO THIS USER RUNNING 'VASP/VAMP'   (HEAR YOUR MASTER'S VOICE ...):  |
|                                                                             |
|      You enforced a specific xc-type in the INCAR file,                     |
|      a different type was found on the POTCAR file                          |
|          I HOPE YOU KNOW, WHAT YOU ARE  DOING                               |
|                                                                             |
 ----------------------------------------------------------------------------- 

  PAW_PBE P 17Jan2003                   :
 energy of atom  1       EATOM= -176.0430
 kinetic energy error for atom=    0.0040 (will be added to EATOM!!)
 PAW_PBE Si 05Jan2001                   :
 energy of atom  2       EATOM= -103.0669
 kinetic energy error for atom=    0.0021 (will be added to EATOM!!)
 
 
 POSCAR: Si12                                    
  positions in direct lattice
  No initial velocities read in
 exchange correlation table for  LEXCH =       42
   RHO(1)=    0.500       N(1)  =     2000
   RHO(2)=  100.500       N(2)  =     4000
 


--------------------------------------------------------------------------------------------------------


 ion  position               nearest neighbor table
   1  0.114  0.228  0.233-  15 2.28  21 2.29  21 2.29
   2  0.214  0.528  0.515-  16 2.28  22 2.29  22 2.29
   3  0.458  0.916  0.209-  21 2.28  13 2.30  13 2.30
   4  0.558  0.216  0.491-  22 2.28  14 2.30  14 2.30  20 2.94
   5  0.311  0.622  0.084-  17 2.28  23 2.30  23 2.30
   6  0.311  0.622  0.366-  18 2.28  16 2.95
   7  0.999  0.998  0.086-  19 2.29  19 2.29  13 2.32
   8  0.999  0.998  0.368-  24 1.43  20 2.29  20 2.29  14 2.72
   9  0.655  0.310  0.060-  19 2.28  17 2.29  17 2.29
  10  0.655  0.310  0.342-  20 2.28  18 2.29  18 2.29
  11  0.770  0.539  0.207-  15 2.29  15 2.29  23 2.32
  12  0.870  0.839  0.489-  16 2.29  16 2.29  24 2.32
  13  0.940  0.879  0.158-   3 2.30   3 2.30   7 2.32  23 2.35
  14  0.040  0.179  0.440-  20 2.17   4 2.30   4 2.30  24 2.35  20 2.44   8 2.72  18 2.81
  15  0.205  0.410  0.186-   1 2.28  11 2.29  11 2.29  17 2.37
  16  0.305  0.710  0.468-   2 2.28  12 2.29  12 2.29   6 2.95
  17  0.202  0.404  0.100-   5 2.28   9 2.29   9 2.29  15 2.37
  18  0.202  0.404  0.382-   6 2.28  10 2.29  10 2.29  14 2.81  22 3.06
  19  0.564  0.128  0.108-   9 2.28   7 2.29   7 2.29  21 2.37
  20  0.564  0.128  0.390-  14 2.17  10 2.28   8 2.29   8 2.29  14 2.44  24 2.48  24 2.72   4 2.94

  21  0.567  0.134  0.194-   3 2.28   1 2.29   1 2.29  19 2.37
  22  0.667  0.434  0.476-   4 2.28   2 2.29   2 2.29  18 3.06
  23  0.829  0.658  0.136-   5 2.30   5 2.30  11 2.32  13 2.35
  24  0.929  0.958  0.418-   8 1.43  12 2.32  14 2.35  20 2.48  20 2.72
 

 ----------------------------------------------------------------------------- 
|                                                                             |
|           W    W    AA    RRRRR   N    N  II  N    N   GGGG   !!!           |
|           W    W   A  A   R    R  NN   N  II  NN   N  G    G  !!!           |
|           W    W  A    A  R    R  N N  N  II  N N  N  G       !!!           |
|           W WW W  AAAAAA  RRRRR   N  N N  II  N  N N  G  GGG   !            |
|           WW  WW  A    A  R   R   N   NN  II  N   NN  G    G                |
|           W    W  A    A  R    R  N    N  II  N    N   GGGG   !!!           |
|                                                                             |
|      The distance between some ions is very small                           |
|      please check the nearest neigbor list in the OUTCAR file               |
|          I HOPE YOU KNOW, WHAT YOU ARE  DOING                               |
|                                                                             |
 ----------------------------------------------------------------------------- 

  LATTYP: Found a base centered orthorhombic cell.
 ALAT       =     3.5404000000
 B/A-ratio  =     5.8153587165
 C/A-ratio  =     7.7678875268
  
  Lattice vectors:
  
 A1 = (   1.7702000000,  10.2943480000,   0.0000000000)
 A2 = (   1.7702000000, -10.2943480000,   0.0000000000)
 A3 = (   0.0000000000,   0.0000000000, -27.5014290000)


Analysis of symmetry for initial positions (statically):
=====================================================================
 Subroutine PRICEL returns:
 Original cell was already a primitive cell.
 

 Routine SETGRP: Setting up the symmetry group for a 
 base centered orthorhombic supercell.


 Subroutine GETGRP returns: Found  1 space group operations
 (whereof  1 operations were pure point group operations)
 out of a pool of  8 trial point group operations.


The static configuration has the point symmetry C_1 .


Analysis of symmetry for dynamics (positions and initial velocities):
=====================================================================
 Subroutine PRICEL returns:
 Original cell was already a primitive cell.
 

 Routine SETGRP: Setting up the symmetry group for a 
 base centered orthorhombic supercell.


 Subroutine GETGRP returns: Found  1 space group operations
 (whereof  1 operations were pure point group operations)
 out of a pool of  8 trial point group operations.


The dynamic configuration has the point symmetry C_1 .
 
 
 KPOINTS: pymatgen generated KPOINTS with grid den

Automatic generation of k-mesh.
Space group operators:
 irot       det(A)        alpha          n_x          n_y          n_z        tau_x        tau_y        tau_z
    1     1.000000     0.000000     1.000000     0.000000     0.000000     0.000000     0.000000     0.000000
 
 Subroutine IBZKPT returns following result:
 ===========================================
 
 Found     54 irreducible k-points:
 
 Following reciprocal coordinates:
            Coordinates               Weight
  0.000000  0.000000  0.000000      1.000000
  0.076923 -0.000000  0.000000      2.000000
  0.153846 -0.000000  0.000000      2.000000
  0.230769 -0.000000  0.000000      2.000000
  0.307692 -0.000000  0.000000      2.000000
  0.384615 -0.000000  0.000000      2.000000
  0.461538 -0.000000  0.000000      2.000000
  0.000000  0.250000  0.000000      2.000000
  0.076923  0.250000  0.000000      2.000000
  0.153846  0.250000  0.000000      2.000000
  0.230769  0.250000  0.000000      2.000000
  0.307692  0.250000  0.000000      2.000000
  0.384615  0.250000  0.000000      2.000000
  0.461538  0.250000  0.000000      2.000000
 -0.461538  0.250000  0.000000      2.000000
 -0.384615  0.250000  0.000000      2.000000
 -0.307692  0.250000  0.000000      2.000000
 -0.230769  0.250000  0.000000      2.000000
 -0.153846  0.250000  0.000000      2.000000
 -0.076923  0.250000  0.000000      2.000000
  0.000000  0.500000  0.000000      1.000000
  0.076923  0.500000  0.000000      2.000000
  0.153846  0.500000  0.000000      2.000000
  0.230769  0.500000  0.000000      2.000000
  0.307692  0.500000  0.000000      2.000000
  0.384615  0.500000  0.000000      2.000000
  0.461538  0.500000  0.000000      2.000000
  0.000000  0.000000  0.500000      1.000000
  0.076923 -0.000000  0.500000      2.000000
  0.153846 -0.000000  0.500000      2.000000
  0.230769 -0.000000  0.500000      2.000000
  0.307692 -0.000000  0.500000      2.000000
  0.384615 -0.000000  0.500000      2.000000
  0.461538 -0.000000  0.500000      2.000000
  0.000000  0.250000  0.500000      2.000000
  0.076923  0.250000  0.500000      2.000000
  0.153846  0.250000  0.500000      2.000000
  0.230769  0.250000  0.500000      2.000000
  0.307692  0.250000  0.500000      2.000000
  0.384615  0.250000  0.500000      2.000000
  0.461538  0.250000  0.500000      2.000000
 -0.461538  0.250000  0.500000      2.000000
 -0.384615  0.250000  0.500000      2.000000
 -0.307692  0.250000  0.500000      2.000000
 -0.230769  0.250000  0.500000      2.000000
 -0.153846  0.250000  0.500000      2.000000
 -0.076923  0.250000  0.500000      2.000000
  0.000000  0.500000  0.500000      1.000000
  0.076923  0.500000  0.500000      2.000000
  0.153846  0.500000  0.500000      2.000000
  0.230769  0.500000  0.500000      2.000000
  0.307692  0.500000  0.500000      2.000000
  0.384615  0.500000  0.500000      2.000000
  0.461538  0.500000  0.500000      2.000000
 
 Following cartesian coordinates:
            Coordinates               Weight
  0.000000  0.000000  0.000000      1.000000
  0.021727  0.003736  0.000000      2.000000
  0.043454  0.007472  0.000000      2.000000
  0.065182  0.011209  0.000000      2.000000
  0.086909  0.014945  0.000000      2.000000
  0.108636  0.018681  0.000000      2.000000
  0.130363  0.022417  0.000000      2.000000
  0.000000  0.024285  0.000000      2.000000
  0.021727  0.028021  0.000000      2.000000
  0.043454  0.031758  0.000000      2.000000
  0.065182  0.035494  0.000000      2.000000
  0.086909  0.039230  0.000000      2.000000
  0.108636  0.042966  0.000000      2.000000
  0.130363  0.046702  0.000000      2.000000
 -0.130363  0.001868  0.000000      2.000000
 -0.108636  0.005604  0.000000      2.000000
 -0.086909  0.009340  0.000000      2.000000
 -0.065182  0.013077  0.000000      2.000000
 -0.043454  0.016813  0.000000      2.000000
 -0.021727  0.020549  0.000000      2.000000
  0.000000  0.048570  0.000000      1.000000
  0.021727  0.052307  0.000000      2.000000
  0.043454  0.056043  0.000000      2.000000
  0.065182  0.059779  0.000000      2.000000
  0.086909  0.063515  0.000000      2.000000
  0.108636  0.067251  0.000000      2.000000
  0.130363  0.070987  0.000000      2.000000
  0.000000  0.000000  0.018181      1.000000
  0.021727  0.003736  0.018181      2.000000
  0.043454  0.007472  0.018181      2.000000
  0.065182  0.011209  0.018181      2.000000
  0.086909  0.014945  0.018181      2.000000
  0.108636  0.018681  0.018181      2.000000
  0.130363  0.022417  0.018181      2.000000
  0.000000  0.024285  0.018181      2.000000
  0.021727  0.028021  0.018181      2.000000
  0.043454  0.031758  0.018181      2.000000
  0.065182  0.035494  0.018181      2.000000
  0.086909  0.039230  0.018181      2.000000
  0.108636  0.042966  0.018181      2.000000
  0.130363  0.046702  0.018181      2.000000
 -0.130363  0.001868  0.018181      2.000000
 -0.108636  0.005604  0.018181      2.000000
 -0.086909  0.009340  0.018181      2.000000
 -0.065182  0.013077  0.018181      2.000000
 -0.043454  0.016813  0.018181      2.000000
 -0.021727  0.020549  0.018181      2.000000
  0.000000  0.048570  0.018181      1.000000
  0.021727  0.052307  0.018181      2.000000
  0.043454  0.056043  0.018181      2.000000
  0.065182  0.059779  0.018181      2.000000
  0.086909  0.063515  0.018181      2.000000
  0.108636  0.067251  0.018181      2.000000
  0.130363  0.070987  0.018181      2.000000
 


--------------------------------------------------------------------------------------------------------




 Dimension of arrays:
   k-points           NKPTS =     54   k-points in BZ     NKDIM =     54   number of bands    NBANDS=     68
   number of dos      NEDOS =    301   number of ions     NIONS =     24
   non local maximal  LDIM  =      4   non local SUM 2l+1 LMDIM =      8
   total plane-waves  NPLWV = 192000
   max r-space proj   IRMAX =   2772   max aug-charges    IRDMAX=   6603
   dimension x,y,z NGX =    20 NGY =   60 NGZ =  160
   dimension x,y,z NGXF=    40 NGYF=  120 NGZF=  320
   support grid    NGXF=    40 NGYF=  120 NGZF=  320
   ions per type =              12  12
 NGX,Y,Z   is equivalent  to a cutoff of   9.39,  9.55,  9.67 a.u.
 NGXF,Y,Z  is equivalent  to a cutoff of  18.78, 19.10, 19.34 a.u.


 I would recommend the setting:
   dimension x,y,z NGX =    20 NGY =   59 NGZ =  155
 SYSTEM =  unknown system                          
 POSCAR =  Si12                                    

 Startparameter for this run:
   NWRITE =      2    write-flag & timer
   PREC   = accura    normal or accurate (medium, high low for compatibility)
   ISTART =      0    job   : 0-new  1-cont  2-samecut
   ICHARG =      2    charge: 1-file 2-atom 10-const
   ISPIN  =      1    spin polarized calculation?
   LNONCOLLINEAR =      F non collinear calculations
   LSORBIT =      F    spin-orbit coupling
   INIWAV =      1    electr: 0-lowe 1-rand  2-diag
   LASPH  =      F    aspherical Exc in radial PAW
   METAGGA=      F    non-selfconsistent MetaGGA calc.

 Electronic Relaxation 1
   ENCUT  =  300.0 eV  22.05 Ry    4.70 a.u.   5.00 14.75 38.84*2*pi/ulx,y,z
   ENINI  =  300.0     initial cutoff
   ENAUG  =  342.9 eV  augmentation charge cutoff
   NELM   =     60;   NELMIN=  2; NELMDL= -5     # of ELM steps 
   EDIFF  = 0.1E-05   stopping-criterion for ELM
   LREAL  =      T    real-space projection
   NLSPLINE    = F    spline interpolate recip. space projectors
   LCOMPAT=      F    compatible to vasp.4.4
   GGA_COMPAT  = T    GGA compatible to vasp.4.4-vasp.4.6
   LMAXPAW     = -100 max onsite density
   LMAXMIX     =    2 max onsite mixed and CHGCAR
   VOSKOWN=      0    Vosko Wilk Nusair interpolation
   ROPT   =   -0.00025  -0.00025
 Ionic relaxation
   EDIFFG = 0.1E-04   stopping-criterion for IOM
   NSW    =      0    number of steps for IOM
   NBLOCK =      1;   KBLOCK =      1    inner block; outer block 
   IBRION =     -1    ionic relax: 0-MD 1-quasi-New 2-CG
   NFREE  =      1    steps in history (QN), initial steepest desc. (CG)
   ISIF   =      3    stress and relaxation
   IWAVPR =     10    prediction:  0-non 1-charg 2-wave 3-comb
   ISYM   =      2    0-nonsym 1-usesym 2-fastsym
   LCORR  =      T    Harris-Foulkes like correction to forces

   POTIM  = 0.5000    time-step for ionic-motion
   TEIN   =    0.0    initial temperature
   TEBEG  =    0.0;   TEEND  =   0.0 temperature during run
   SMASS  =  -3.00    Nose mass-parameter (am)
   estimated Nose-frequenzy (Omega)   =  0.10E-29 period in steps =****** mass=  -0.286E-27a.u.
   SCALEE = 1.0000    scale energy and forces
   NPACO  =    256;   APACO  = 16.0  distance and # of slots for P.C.
   PSTRESS=    0.0 pullay stress

  Mass of Ions in am
   POMASS =  30.97 28.09
  Ionic Valenz
   ZVAL   =   5.00  4.00
  Atomic Wigner-Seitz radii
   RWIGS  =  -1.00 -1.00
  virtual crystal weights 
   VCA    =   1.00  1.00
   NELECT =     108.0000    total number of electrons
   NUPDOWN=      -1.0000    fix difference up-down

 DOS related values:
   EMIN   =  10.00;   EMAX   =-10.00  energy-range for DOS
   EFERMI =   0.00
   ISMEAR =     0;   SIGMA  =   0.10  broadening in eV -4-tet -1-fermi 0-gaus

 Electronic relaxation 2 (details)
   IALGO  =     38    algorithm
   LDIAG  =      T    sub-space diagonalisation (order eigenvalues)
   LSUBROT=      F    optimize rotation matrix (better conditioning)
   TURBO    =      0    0=normal 1=particle mesh
   IRESTART =      0    0=no restart 2=restart with 2 vectors
   NREBOOT  =      0    no. of reboots
   NMIN     =      0    reboot dimension
   EREF     =   0.00    reference energy to select bands
   IMIX   =      4    mixing-type and parameters
     AMIX     =   0.40;   BMIX     =  1.00
     AMIX_MAG =   1.60;   BMIX_MAG =  1.00
     AMIN     =   0.10
     WC   =   100.;   INIMIX=   1;  MIXPRE=   1;  MAXMIX= -45

 Intra band minimization:
   WEIMIN = 0.0000     energy-eigenvalue tresh-hold
   EBREAK =  0.37E-08  absolut break condition
   DEPER  =   0.30     relativ break condition  

   TIME   =   0.40     timestep for ELM

  volume/ion in A,a.u.               =      41.76       281.83
  Fermi-wavevector in a.u.,A,eV,Ry     =   0.779018  1.472130  8.256946  0.606868
  Thomas-Fermi vector in A             =   1.882034
 
 Write flags
   LWAVE  =      F    write WAVECAR
   LCHARG =      F    write CHGCAR
   LVTOT  =      F    write LOCPOT, total local potential
   LVHAR  =      F    write LOCPOT, Hartree potential only
   LELF   =      F    write electronic localiz. function (ELF)
   LORBIT =      0    0 simple, 1 ext, 2 COOP (PROOUT)


 Dipole corrections
   LMONO  =      F    monopole corrections only (constant potential shift)
   LDIPOL =      F    correct potential (dipole corrections)
   IDIPOL =      0    1-x, 2-y, 3-z, 4-all directions 
   EPSILON=  1.0000000 bulk dielectric constant

 Exchange correlation treatment:
   GGA     =    BO    GGA type
   LEXCH   =    42    internal setting for exchange type
   VOSKOWN=      0    Vosko Wilk Nusair interpolation
   LHFCALC =     F    Hartree Fock is set to
   LHFONE  =     F    Hartree Fock one center treatment
   AEXX    =    0.0000 exact exchange contribution

 vdW DFT:
   LUSE_VDW   =     T    switch on vdW DFT
   Zab_VDW    =-.8491    correlation parameter
   PARAM1     =0.1833
   PARAM2     =0.2200
   PARAM3     =0.0000

 Linear response parameters
   LEPSILON=     F    determine dielectric tensor
   LRPA    =     F    only Hartree local field effects (RPA)
   LNABLA  =     F    use nabla operator in PAW spheres
   LVEL    =     F    velocity operator in full k-point grid
   LINTERFAST=   F  fast interpolation
   KINTER  =     0    interpolate to denser k-point grid
   CSHIFT  =0.1000    complex shift for real part using Kramers Kronig
   OMEGAMAX=  -1.0    maximum frequency
   DEG_THRESHOLD= 0.2000000E-02 threshold for treating states as degnerate
   RTIME   =    0.100 relaxation time in fs

 Orbital magnetization related:
   ORBITALMAG=     F  switch on orbital magnetization
   LCHIMAG   =     F  perturbation theory with respect to B field
   DQ        =  0.001000  dq finite difference perturbation B field



--------------------------------------------------------------------------------------------------------


 Static calculation
 charge density and potential will be updated during run
 non-spin polarized calculation
 Variant of blocked Davidson
 Davidson routine will perform the subspace rotation
 perform sub-space diagonalisation
    after iterative eigenvector-optimisation
 modified Broyden-mixing scheme, WC =      100.0
 initial mixing is a Kerker type mixing with AMIX =  0.4000 and BMIX =      1.0000
 Hartree-type preconditioning will be used
 using additional bands           14
 real space projection scheme for non local part
 use partial core corrections
 calculate Harris-corrections to forces 
   (improved forces if not selfconsistent)
 use gradient corrections 
 use of overlap-Matrix (Vanderbilt PP)
 Gauss-broadening in eV      SIGMA  =   0.10


--------------------------------------------------------------------------------------------------------


  energy-cutoff  :      300.00
  volume of cell :     1002.32
      direct lattice vectors                 reciprocal lattice vectors
     3.540400000  0.000000000  0.000000000     0.282453960  0.048570342  0.000000000
    -1.770200000 10.294348000  0.000000000     0.000000000  0.097140683  0.000000000
     0.000000000  0.000000000 27.501429000     0.000000000  0.000000000  0.036361747

  length of vectors
     3.540400000 10.445439617 27.501429000     0.286599577  0.097140683  0.036361747


 
 k-points in units of 2pi/SCALE and weight: pymatgen generated KPOINTS with grid den
   0.00000000  0.00000000  0.00000000       0.010
   0.02172723  0.00373618  0.00000000       0.019
   0.04345446  0.00747236  0.00000000       0.019
   0.06518168  0.01120854  0.00000000       0.019
   0.08690891  0.01494472  0.00000000       0.019
   0.10863614  0.01868090  0.00000000       0.019
   0.13036337  0.02241708  0.00000000       0.019
   0.00000000  0.02428517  0.00000000       0.019
   0.02172723  0.02802135  0.00000000       0.019
   0.04345446  0.03175753  0.00000000       0.019
   0.06518168  0.03549371  0.00000000       0.019
   0.08690891  0.03922989  0.00000000       0.019
   0.10863614  0.04296607  0.00000000       0.019
   0.13036337  0.04670225  0.00000000       0.019
  -0.13036337  0.00186809  0.00000000       0.019
  -0.10863614  0.00560427  0.00000000       0.019
  -0.08690891  0.00934045  0.00000000       0.019
  -0.06518168  0.01307663  0.00000000       0.019
  -0.04345446  0.01681281  0.00000000       0.019
  -0.02172723  0.02054899  0.00000000       0.019
   0.00000000  0.04857034  0.00000000       0.010
   0.02172723  0.05230652  0.00000000       0.019
   0.04345446  0.05604270  0.00000000       0.019
   0.06518168  0.05977888  0.00000000       0.019
   0.08690891  0.06351506  0.00000000       0.019
   0.10863614  0.06725124  0.00000000       0.019
   0.13036337  0.07098742  0.00000000       0.019
   0.00000000  0.00000000  0.01818087       0.010
   0.02172723  0.00373618  0.01818087       0.019
   0.04345446  0.00747236  0.01818087       0.019
   0.06518168  0.01120854  0.01818087       0.019
   0.08690891  0.01494472  0.01818087       0.019
   0.10863614  0.01868090  0.01818087       0.019
   0.13036337  0.02241708  0.01818087       0.019
   0.00000000  0.02428517  0.01818087       0.019
   0.02172723  0.02802135  0.01818087       0.019
   0.04345446  0.03175753  0.01818087       0.019
   0.06518168  0.03549371  0.01818087       0.019
   0.08690891  0.03922989  0.01818087       0.019
   0.10863614  0.04296607  0.01818087       0.019
   0.13036337  0.04670225  0.01818087       0.019
  -0.13036337  0.00186809  0.01818087       0.019
  -0.10863614  0.00560427  0.01818087       0.019
  -0.08690891  0.00934045  0.01818087       0.019
  -0.06518168  0.01307663  0.01818087       0.019
  -0.04345446  0.01681281  0.01818087       0.019
  -0.02172723  0.02054899  0.01818087       0.019
   0.00000000  0.04857034  0.01818087       0.010
   0.02172723  0.05230652  0.01818087       0.019
   0.04345446  0.05604270  0.01818087       0.019
   0.06518168  0.05977888  0.01818087       0.019
   0.08690891  0.06351506  0.01818087       0.019
   0.10863614  0.06725124  0.01818087       0.019
   0.13036337  0.07098742  0.01818087       0.019
 
 k-points in reciprocal lattice and weights: pymatgen generated KPOINTS with grid den
   0.00000000  0.00000000  0.00000000       0.010
   0.07692308 -0.00000000  0.00000000       0.019
   0.15384615 -0.00000000  0.00000000       0.019
   0.23076923 -0.00000000  0.00000000       0.019
   0.30769231 -0.00000000  0.00000000       0.019
   0.38461538 -0.00000000  0.00000000       0.019
   0.46153846 -0.00000000  0.00000000       0.019
   0.00000000  0.25000000  0.00000000       0.019
   0.07692308  0.25000000  0.00000000       0.019
   0.15384615  0.25000000  0.00000000       0.019
   0.23076923  0.25000000  0.00000000       0.019
   0.30769231  0.25000000  0.00000000       0.019
   0.38461538  0.25000000  0.00000000       0.019
   0.46153846  0.25000000  0.00000000       0.019
  -0.46153846  0.25000000  0.00000000       0.019
  -0.38461538  0.25000000  0.00000000       0.019
  -0.30769231  0.25000000  0.00000000       0.019
  -0.23076923  0.25000000  0.00000000       0.019
  -0.15384615  0.25000000  0.00000000       0.019
  -0.07692308  0.25000000  0.00000000       0.019
   0.00000000  0.50000000  0.00000000       0.010
   0.07692308  0.50000000  0.00000000       0.019
   0.15384615  0.50000000  0.00000000       0.019
   0.23076923  0.50000000  0.00000000       0.019
   0.30769231  0.50000000  0.00000000       0.019
   0.38461538  0.50000000  0.00000000       0.019
   0.46153846  0.50000000  0.00000000       0.019
   0.00000000  0.00000000  0.50000000       0.010
   0.07692308 -0.00000000  0.50000000       0.019
   0.15384615 -0.00000000  0.50000000       0.019
   0.23076923 -0.00000000  0.50000000       0.019
   0.30769231 -0.00000000  0.50000000       0.019
   0.38461538 -0.00000000  0.50000000       0.019
   0.46153846 -0.00000000  0.50000000       0.019
   0.00000000  0.25000000  0.50000000       0.019
   0.07692308  0.25000000  0.50000000       0.019
   0.15384615  0.25000000  0.50000000       0.019
   0.23076923  0.25000000  0.50000000       0.019
   0.30769231  0.25000000  0.50000000       0.019
   0.38461538  0.25000000  0.50000000       0.019
   0.46153846  0.25000000  0.50000000       0.019
  -0.46153846  0.25000000  0.50000000       0.019
  -0.38461538  0.25000000  0.50000000       0.019
  -0.30769231  0.25000000  0.50000000       0.019
  -0.23076923  0.25000000  0.50000000       0.019
  -0.15384615  0.25000000  0.50000000       0.019
  -0.07692308  0.25000000  0.50000000       0.019
   0.00000000  0.50000000  0.50000000       0.010
   0.07692308  0.50000000  0.50000000       0.019
   0.15384615  0.50000000  0.50000000       0.019
   0.23076923  0.50000000  0.50000000       0.019
   0.30769231  0.50000000  0.50000000       0.019
   0.38461538  0.50000000  0.50000000       0.019
   0.46153846  0.50000000  0.50000000       0.019
 
 position of ions in fractional coordinates (direct lattice) 
   0.11402300  0.22804500  0.23316207
   0.21402300  0.52804500  0.51499159
   0.45808900  0.91617900  0.20939482
   0.55808900  0.21617900  0.49122434
   0.31085400  0.62170900  0.08414979
   0.31085400  0.62170900  0.36597930
   0.99923000  0.99846000  0.08631254
   0.99923000  0.99846000  0.36814206
   0.65492700  0.30985400  0.06041748
   0.65492700  0.30985400  0.34224700
   0.76973800  0.53947500  0.20725292
   0.86973800  0.83947500  0.48908244
   0.93971600  0.87943300  0.15783749
   0.03971600  0.17943300  0.43966701
   0.20515200  0.41030300  0.18578822
   0.30515200  0.71030300  0.46761774
   0.20184900  0.40369900  0.09969156
   0.20184900  0.40369900  0.38152107
   0.56380500  0.12761000  0.10779021
   0.56380500  0.12761000  0.38961973
   0.56710600  0.13421200  0.19387616
   0.66710600  0.43421200  0.47570568
   0.82923400  0.65846800  0.13571444
   0.92923400  0.95846800  0.41754396
 
 position of ions in cartesian coordinates  (Angst):
   0.00000177  2.34757459  6.41229012
  -0.17701823  5.43587899 14.16300462
  -0.00000177  9.43146546  5.75865686
   1.59317823  2.22542186 13.50937136
  -0.00000177  6.40008880  2.31423934
  -0.00000177  6.40008880 10.06495384
   1.77020000 10.27849470  2.37371832
   1.77020000 10.27849470 10.12443282
   1.77020000  3.18974491  1.66156717
   1.77020000  3.18974491  9.41228167
   1.77020177  5.55354339  5.69975143
   1.59318177  8.64184779 13.45046593
   1.77019823  9.05318934  4.34075665
  -0.17702177  1.84714574 12.09147115
   0.00000177  4.22380187  5.10944151
  -0.17701823  7.31210627 12.86015601
  -0.00000177  4.15581799  2.74166024
  -0.00000177  4.15581799 10.49237474
   1.77020000  1.31366175  2.96438477
   1.77020000  1.31366175 10.71509927
   1.77020000  1.38162503  5.33187152
   1.59318000  4.46992943 13.08258602
   1.77020000  6.77849874  3.73234107
   1.59318000  9.86680314 11.48305557
 


--------------------------------------------------------------------------------------------------------


 k-point  1 :   0.0000 0.0000 0.0000  plane waves:   11717
 k-point  2 :   0.0769-0.0000 0.0000  plane waves:   11762
 k-point  3 :   0.1538-0.0000 0.0000  plane waves:   11805
 k-point  4 :   0.2308-0.0000 0.0000  plane waves:   11824
 k-point  5 :   0.3077-0.0000 0.0000  plane waves:   11875
 k-point  6 :   0.3846-0.0000 0.0000  plane waves:   11864
 k-point  7 :   0.4615-0.0000 0.0000  plane waves:   11883
 k-point  8 :   0.0000 0.2500 0.0000  plane waves:   11683
 k-point  9 :   0.0769 0.2500 0.0000  plane waves:   11756
 k-point 10 :   0.1538 0.2500 0.0000  plane waves:   11807
 k-point 11 :   0.2308 0.2500 0.0000  plane waves:   11853
 k-point 12 :   0.3077 0.2500 0.0000  plane waves:   11866
 k-point 13 :   0.3846 0.2500 0.0000  plane waves:   11889
 k-point 14 :   0.4615 0.2500 0.0000  plane waves:   11885
 k-point 15 :  -0.4615 0.2500 0.0000  plane waves:   11886
 k-point 16 :  -0.3846 0.2500 0.0000  plane waves:   11867
 k-point 17 :  -0.3077 0.2500 0.0000  plane waves:   11849
 k-point 18 :  -0.2308 0.2500 0.0000  plane waves:   11827
 k-point 19 :  -0.1538 0.2500 0.0000  plane waves:   11801
 k-point 20 :  -0.0769 0.2500 0.0000  plane waves:   11757
 k-point 21 :   0.0000 0.5000 0.0000  plane waves:   11710
 k-point 22 :   0.0769 0.5000 0.0000  plane waves:   11762
 k-point 23 :   0.1538 0.5000 0.0000  plane waves:   11782
 k-point 24 :   0.2308 0.5000 0.0000  plane waves:   11841
 k-point 25 :   0.3077 0.5000 0.0000  plane waves:   11876
 k-point 26 :   0.3846 0.5000 0.0000  plane waves:   11889
 k-point 27 :   0.4615 0.5000 0.0000  plane waves:   11881
 k-point 28 :   0.0000 0.0000 0.5000  plane waves:   11698
 k-point 29 :   0.0769-0.0000 0.5000  plane waves:   11752
 k-point 30 :   0.1538-0.0000 0.5000  plane waves:   11800
 k-point 31 :   0.2308-0.0000 0.5000  plane waves:   11834
 k-point 32 :   0.3077-0.0000 0.5000  plane waves:   11850
 k-point 33 :   0.3846-0.0000 0.5000  plane waves:   11888
 k-point 34 :   0.4615-0.0000 0.5000  plane waves:   11896
 k-point 35 :   0.0000 0.2500 0.5000  plane waves:   11714
 k-point 36 :   0.0769 0.2500 0.5000  plane waves:   11754
 k-point 37 :   0.1538 0.2500 0.5000  plane waves:   11802
 k-point 38 :   0.2308 0.2500 0.5000  plane waves:   11840
 k-point 39 :   0.3077 0.2500 0.5000  plane waves:   11858
 k-point 40 :   0.3846 0.2500 0.5000  plane waves:   11896
 k-point 41 :   0.4615 0.2500 0.5000  plane waves:   11886
 k-point 42 :  -0.4615 0.2500 0.5000  plane waves:   11852
 k-point 43 :  -0.3846 0.2500 0.5000  plane waves:   11838
 k-point 44 :  -0.3077 0.2500 0.5000  plane waves:   11842
 k-point 45 :  -0.2308 0.2500 0.5000  plane waves:   11840
 k-point 46 :  -0.1538 0.2500 0.5000  plane waves:   11804
 k-point 47 :  -0.0769 0.2500 0.5000  plane waves:   11748
 k-point 48 :   0.0000 0.5000 0.5000  plane waves:   11724
 k-point 49 :   0.0769 0.5000 0.5000  plane waves:   11748
 k-point 50 :   0.1538 0.5000 0.5000  plane waves:   11814
 k-point 51 :   0.2308 0.5000 0.5000  plane waves:   11832
 k-point 52 :   0.3077 0.5000 0.5000  plane waves:   11868
 k-point 53 :   0.3846 0.5000 0.5000  plane waves:   11892
 k-point 54 :   0.4615 0.5000 0.5000  plane waves:   11878

 maximum and minimum number of plane-waves per node :      5964     5832

 maximum number of plane-waves:     11896
 maximum index in each direction: 
   IXMAX=    5   IYMAX=   14   IZMAX=   38
   IXMIN=   -5   IYMIN=  -15   IZMIN=  -39

 WARNING: aliasing errors must be expected set NGX to  22 to avoid them
 NGY is ok and might be reduce to  60
 NGZ is ok and might be reduce to 156
 aliasing errors are usually negligible using standard VASP settings
 and one can safely disregard these warnings

 real space projection operators:
  total allocation   :       3793.25 KBytes
  max/ min on nodes  :       1899.38       1893.88


 parallel 3D FFT for wavefunctions:
    minimum data exchange during FFTs selected (reduces bandwidth)
 parallel 3D FFT for charge:
    minimum data exchange during FFTs selected (reduces bandwidth)


 total amount of memory used by VASP on root node   146493. kBytes
========================================================================

   base      :      30000. kBytes
   nonlr-proj:       3452. kBytes
   fftplans  :       9347. kBytes
   grid      :      14649. kBytes
   one-center:         36. kBytes
   wavefun   :      89009. kBytes
 
     INWAV:  cpu time    0.00: real time    0.00
 Broyden mixing: mesh for mixing (old mesh)
   NGX =  9   NGY = 29   NGZ = 77
  (NGX  = 40   NGY  =120   NGZ  =320)
  gives a total of  20097 points

 initial charge density was supplied:
 charge density of overlapping atoms calculated
 number of electron     108.0000000 magnetization 
 keeping initial charge density in first step


--------------------------------------------------------------------------------------------------------


 Maximum index for non-local projection operator         1333
 Maximum index for augmentation-charges          822 (set IRDMAX)


--------------------------------------------------------------------------------------------------------


 First call to EWALD:  gamma=   0.177
 Maximum number of real-space cells 7x 3x 1
 Maximum number of reciprocal cells 1x 3x 7

 FEWALD executed in parallel
    FEWALD:  cpu time    0.00: real time    0.00


----------------------------------------- Iteration    1(   1)  ---------------------------------------


vdW kernel read from vdw_kernel.bindat
  0.0000  0.2424  0.5071  0.7962  1.1119  1.4567  1.8333  2.2446  2.6937  3.1842
  3.7199  4.3049  4.9438  5.6415  6.4036  7.2358  8.1446  9.1372 10.2212 11.4050
 12.6979 14.1099 15.6519 17.3360 19.1751 21.1837 23.3773 25.7729 28.3892 31.2465
 34.3669 37.7748 41.4965 45.5611 50.0000
 
    POTLOK:  cpu time   16.28: real time   16.34
    SETDIJ:  cpu time    0.01: real time    0.01
     EDDAV:  cpu time   64.34: real time   64.36
       DOS:  cpu time    0.01: real time    0.01
    --------------------------------------------
      LOOP:  cpu time   80.65: real time   80.73

 eigenvalue-minimisations  :  7360
 total energy-change (2. order) : 0.5107290E+03  (-0.2872341E+04)
 number of electron     108.0000000 magnetization 
 augmentation part      108.0000000 magnetization 

 Free energy of the ion-electron system (eV)
  ---------------------------------------------------
  alpha Z        PSCENC =        36.80884744
  Ewald energy   TEWEN  =     11991.61499626
  -Hartree energ DENC   =    -15014.43987599
  -exchange      EXHF   =         0.00000000
  -V(xc)+E(xc)   XCENC  =       -87.27590223
  PAW double counting   =      1056.43050070     -732.41190547
  entropy T*S    EENTRO =        -0.04051312
  eigenvalues    EBANDS =       -93.99844166
  atomic energy  EATOM  =      3354.04126044
  ---------------------------------------------------
  free energy    TOTEN  =       510.72896638 eV

  energy without entropy =      510.76947950  energy(sigma->0) =      510.74922294


--------------------------------------------------------------------------------------------------------




----------------------------------------- Iteration    1(   2)  ---------------------------------------


     EDDAV:  cpu time   82.32: real time   82.35
       DOS:  cpu time    0.01: real time    0.01
    --------------------------------------------
      LOOP:  cpu time   82.33: real time   82.36

 eigenvalue-minimisations  :  9868
 total energy-change (2. order) :-0.5657865E+03  (-0.5512547E+03)
 number of electron     108.0000000 magnetization 
 augmentation part      108.0000000 magnetization 

 Free energy of the ion-electron system (eV)
  ---------------------------------------------------
  alpha Z        PSCENC =        36.80884744
  Ewald energy   TEWEN  =     11991.61499626
  -Hartree energ DENC   =    -15014.43987599
  -exchange      EXHF   =         0.00000000
  -V(xc)+E(xc)   XCENC  =       -87.27590223
  PAW double counting   =      1056.43050070     -732.41190547
  entropy T*S    EENTRO =        -0.02552274
  eigenvalues    EBANDS =      -659.79995803
  atomic energy  EATOM  =      3354.04126044
  ---------------------------------------------------
  free energy    TOTEN  =       -55.05755961 eV

  energy without entropy =      -55.03203687  energy(sigma->0) =      -55.04479824


--------------------------------------------------------------------------------------------------------




----------------------------------------- Iteration    1(   3)  ---------------------------------------


     EDDAV:  cpu time   75.05: real time   75.07
       DOS:  cpu time    0.01: real time    0.01
    --------------------------------------------
      LOOP:  cpu time   75.06: real time   75.08

 eigenvalue-minimisations  :  8884
 total energy-change (2. order) :-0.5859361E+02  (-0.5772986E+02)
 number of electron     108.0000000 magnetization 
 augmentation part      108.0000000 magnetization 

 Free energy of the ion-electron system (eV)
  ---------------------------------------------------
  alpha Z        PSCENC =        36.80884744
  Ewald energy   TEWEN  =     11991.61499626
  -Hartree energ DENC   =    -15014.43987599
  -exchange      EXHF   =         0.00000000
  -V(xc)+E(xc)   XCENC  =       -87.27590223
  PAW double counting   =      1056.43050070     -732.41190547
  entropy T*S    EENTRO =        -0.01960098
  eigenvalues    EBANDS =      -718.39948865
  atomic energy  EATOM  =      3354.04126044
  ---------------------------------------------------
  free energy    TOTEN  =      -113.65116847 eV

  energy without entropy =     -113.63156750  energy(sigma->0) =     -113.64136798


--------------------------------------------------------------------------------------------------------




----------------------------------------- Iteration    1(   4)  ---------------------------------------


     EDDAV:  cpu time   90.62: real time   90.64
       DOS:  cpu time    0.01: real time    0.01
    --------------------------------------------
      LOOP:  cpu time   90.64: real time   90.66

 eigenvalue-minimisations  : 11416
 total energy-change (2. order) :-0.2878991E+01  (-0.2862194E+01)
 number of electron     108.0000000 magnetization 
 augmentation part      108.0000000 magnetization 

 Free energy of the ion-electron system (eV)
  ---------------------------------------------------
  alpha Z        PSCENC =        36.80884744
  Ewald energy   TEWEN  =     11991.61499626
  -Hartree energ DENC   =    -15014.43987599
  -exchange      EXHF   =         0.00000000
  -V(xc)+E(xc)   XCENC  =       -87.27590223
  PAW double counting   =      1056.43050070     -732.41190547
  entropy T*S    EENTRO =        -0.02153283
  eigenvalues    EBANDS =      -721.27654774
  atomic energy  EATOM  =      3354.04126044
  ---------------------------------------------------
  free energy    TOTEN  =      -116.53015942 eV

  energy without entropy =     -116.50862658  energy(sigma->0) =     -116.51939300


--------------------------------------------------------------------------------------------------------




----------------------------------------- Iteration    1(   5)  ---------------------------------------


     EDDAV:  cpu time   83.38: real time   83.40
       DOS:  cpu time    0.01: real time    0.01
    CHARGE:  cpu time    4.26: real time    4.26
    MIXING:  cpu time    0.01: real time    0.01
    --------------------------------------------
      LOOP:  cpu time   87.67: real time   87.69

 eigenvalue-minimisations  :  9920
 total energy-change (2. order) :-0.4675445E-01  (-0.4669492E-01)
 number of electron     107.9999996 magnetization 
 augmentation part       -9.7404626 magnetization 

 Broyden mixing:
  rms(total) = 0.13044E+01    rms(broyden)= 0.13041E+01
  rms(prec ) = 0.14084E+01
  weight for this iteration     100.00

 Free energy of the ion-electron system (eV)
  ---------------------------------------------------
  alpha Z        PSCENC =        36.80884744
  Ewald energy   TEWEN  =     11991.61499626
  -Hartree energ DENC   =    -15014.43987599
  -exchange      EXHF   =         0.00000000
  -V(xc)+E(xc)   XCENC  =       -87.27590223
  PAW double counting   =      1056.43050070     -732.41190547
  entropy T*S    EENTRO =        -0.02167891
  eigenvalues    EBANDS =      -721.32315612
  atomic energy  EATOM  =      3354.04126044
  ---------------------------------------------------
  free energy    TOTEN  =      -116.57691387 eV

  energy without entropy =     -116.55523496  energy(sigma->0) =     -116.56607441


--------------------------------------------------------------------------------------------------------




----------------------------------------- Iteration    1(   6)  ---------------------------------------


    POTLOK:  cpu time   14.74: real time   14.75
    SETDIJ:  cpu time    0.01: real time    0.01
     EDDAV:  cpu time   82.10: real time   82.11
       DOS:  cpu time    0.01: real time    0.01
    CHARGE:  cpu time    4.18: real time    4.18
    MIXING:  cpu time    0.01: real time    0.01
    --------------------------------------------
      LOOP:  cpu time  101.06: real time  101.09

 eigenvalue-minimisations  :  9660
 total energy-change (2. order) : 0.5018651E+01  (-0.1718638E+01)
 number of electron     107.9999997 magnetization 
 augmentation part       -9.5542071 magnetization 

 Broyden mixing:
  rms(total) = 0.66272E+00    rms(broyden)= 0.66270E+00
  rms(prec ) = 0.72560E+00
  weight for this iteration     100.00

 eigenvalues of (default mixing * dielectric matrix)
  average eigenvalue GAMMA=   1.5136
  1.5136

 Free energy of the ion-electron system (eV)
  ---------------------------------------------------
  alpha Z        PSCENC =        36.80884744
  Ewald energy   TEWEN  =     11991.61499626
  -Hartree energ DENC   =    -15067.44457613
  -exchange      EXHF   =         0.00000000
  -V(xc)+E(xc)   XCENC  =       -83.87148470
  PAW double counting   =      1131.49126491     -809.58704422
  entropy T*S    EENTRO =        -0.02727144
  eigenvalues    EBANDS =      -664.58425524
  atomic energy  EATOM  =      3354.04126044
  ---------------------------------------------------
  free energy    TOTEN  =      -111.55826266 eV

  energy without entropy =     -111.53099122  energy(sigma->0) =     -111.54462694


--------------------------------------------------------------------------------------------------------




----------------------------------------- Iteration    1(   7)  ---------------------------------------


    POTLOK:  cpu time   14.75: real time   14.76
    SETDIJ:  cpu time    0.01: real time    0.01
     EDDAV:  cpu time   73.73: real time   73.75
       DOS:  cpu time    0.01: real time    0.01
    CHARGE:  cpu time    4.19: real time    4.19
    MIXING:  cpu time    0.01: real time    0.01
    --------------------------------------------
      LOOP:  cpu time   92.72: real time   92.74

 eigenvalue-minimisations  :  8348
 total energy-change (2. order) : 0.3503437E-02  (-0.1570771E+01)
 number of electron     107.9999996 magnetization 
 augmentation part       -9.4608436 magnetization 

 Broyden mixing:
  rms(total) = 0.33029E+00    rms(broyden)= 0.33022E+00
  rms(prec ) = 0.37023E+00
  weight for this iteration     100.00

 eigenvalues of (default mixing * dielectric matrix)
  average eigenvalue GAMMA=   1.1281
  1.5916  0.6647

 Free energy of the ion-electron system (eV)
  ---------------------------------------------------
  alpha Z        PSCENC =        36.80884744
  Ewald energy   TEWEN  =     11991.61499626
  -Hartree energ DENC   =    -15086.19888687
  -exchange      EXHF   =         0.00000000
  -V(xc)+E(xc)   XCENC  =       -81.47393095
  PAW double counting   =      1175.69105077     -854.98665424
  entropy T*S    EENTRO =        -0.01413953
  eigenvalues    EBANDS =      -647.03730256
  atomic energy  EATOM  =      3354.04126044
  ---------------------------------------------------
  free energy    TOTEN  =      -111.55475922 eV

  energy without entropy =     -111.54061970  energy(sigma->0) =     -111.54768946


--------------------------------------------------------------------------------------------------------




----------------------------------------- Iteration    1(   8)  ---------------------------------------


    POTLOK:  cpu time   14.75: real time   14.76
    SETDIJ:  cpu time    0.01: real time    0.01
     EDDAV:  cpu time   74.51: real time   74.53
       DOS:  cpu time    0.01: real time    0.01
    CHARGE:  cpu time    4.18: real time    4.18
    MIXING:  cpu time    0.01: real time    0.01
    --------------------------------------------
      LOOP:  cpu time   93.49: real time   93.51

 eigenvalue-minimisations  :  8600
 total energy-change (2. order) : 0.1189252E+00  (-0.1569481E+00)
 number of electron     107.9999996 magnetization 
 augmentation part       -9.4369814 magnetization 

 Broyden mixing:
  rms(total) = 0.18565E+00    rms(broyden)= 0.18563E+00
  rms(prec ) = 0.19792E+00
  weight for this iteration     100.00

 eigenvalues of (default mixing * dielectric matrix)
  average eigenvalue GAMMA=   1.4009
  1.9790  1.4971  0.7265

 Free energy of the ion-electron system (eV)
  ---------------------------------------------------
  alpha Z        PSCENC =        36.80884744
  Ewald energy   TEWEN  =     11991.61499626
  -Hartree energ DENC   =    -15097.11009515
  -exchange      EXHF   =         0.00000000
  -V(xc)+E(xc)   XCENC  =       -80.48127389
  PAW double counting   =      1189.48317488     -869.16747108
  entropy T*S    EENTRO =        -0.02011205
  eigenvalues    EBANDS =      -636.60516091
  atomic energy  EATOM  =      3354.04126044
  ---------------------------------------------------
  free energy    TOTEN  =      -111.43583405 eV

  energy without entropy =     -111.41572200  energy(sigma->0) =     -111.42577803


--------------------------------------------------------------------------------------------------------




----------------------------------------- Iteration    1(   9)  ---------------------------------------


    POTLOK:  cpu time   14.76: real time   14.76
    SETDIJ:  cpu time    0.01: real time    0.01
     EDDAV:  cpu time   76.99: real time   77.01
       DOS:  cpu time    0.01: real time    0.01
    CHARGE:  cpu time    4.15: real time    4.15
    MIXING:  cpu time    0.01: real time    0.01
    --------------------------------------------
      LOOP:  cpu time   95.94: real time   95.96

 eigenvalue-minimisations  :  8996
 total energy-change (2. order) : 0.2754332E-01  (-0.4541507E-01)
 number of electron     107.9999996 magnetization 
 augmentation part       -9.4424184 magnetization 

 Broyden mixing:
  rms(total) = 0.66613E-01    rms(broyden)= 0.66603E-01
  rms(prec ) = 0.77557E-01
  weight for this iteration     100.00

 eigenvalues of (default mixing * dielectric matrix)
  average eigenvalue GAMMA=   1.3739
  2.4711  1.4582  0.7832  0.7832

 Free energy of the ion-electron system (eV)
  ---------------------------------------------------
  alpha Z        PSCENC =        36.80884744
  Ewald energy   TEWEN  =     11991.61499626
  -Hartree energ DENC   =    -15108.70017441
  -exchange      EXHF   =         0.00000000
  -V(xc)+E(xc)   XCENC  =       -79.74681362
  PAW double counting   =      1194.01575765     -873.84139979
  entropy T*S    EENTRO =        -0.02360031
  eigenvalues    EBANDS =      -625.57716440
  atomic energy  EATOM  =      3354.04126044
  ---------------------------------------------------
  free energy    TOTEN  =      -111.40829073 eV

  energy without entropy =     -111.38469042  energy(sigma->0) =     -111.39649058


--------------------------------------------------------------------------------------------------------




----------------------------------------- Iteration    1(  10)  ---------------------------------------


    POTLOK:  cpu time   14.77: real time   14.78
    SETDIJ:  cpu time    0.01: real time    0.01
     EDDAV:  cpu time   78.92: real time   78.94
       DOS:  cpu time    0.01: real time    0.01
    CHARGE:  cpu time    4.21: real time    4.21
    MIXING:  cpu time    0.01: real time    0.01
    --------------------------------------------
      LOOP:  cpu time   97.95: real time   97.97

 eigenvalue-minimisations  :  9016
 total energy-change (2. order) :-0.1871630E-03  (-0.1370285E-01)
 number of electron     107.9999996 magnetization 
 augmentation part       -9.4437765 magnetization 

 Broyden mixing:
  rms(total) = 0.34081E-01    rms(broyden)= 0.34077E-01
  rms(prec ) = 0.38516E-01
  weight for this iteration     100.00

 eigenvalues of (default mixing * dielectric matrix)
  average eigenvalue GAMMA=   1.2700
  2.5538  1.1051  1.1051  0.7930  0.7930

 Free energy of the ion-electron system (eV)
  ---------------------------------------------------
  alpha Z        PSCENC =        36.80884744
  Ewald energy   TEWEN  =     11991.61499626
  -Hartree energ DENC   =    -15110.15427528
  -exchange      EXHF   =         0.00000000
  -V(xc)+E(xc)   XCENC  =       -79.41906843
  PAW double counting   =      1195.81969365     -875.69533090
  entropy T*S    EENTRO =        -0.02407175
  eigenvalues    EBANDS =      -624.40052934
  atomic energy  EATOM  =      3354.04126044
  ---------------------------------------------------
  free energy    TOTEN  =      -111.40847789 eV

  energy without entropy =     -111.38440614  energy(sigma->0) =     -111.39644202


--------------------------------------------------------------------------------------------------------




----------------------------------------- Iteration    1(  11)  ---------------------------------------


    POTLOK:  cpu time   14.75: real time   14.76
    SETDIJ:  cpu time    0.01: real time    0.01
     EDDAV:  cpu time   84.17: real time   84.19
       DOS:  cpu time    0.01: real time    0.01
    CHARGE:  cpu time    4.19: real time    4.19
    MIXING:  cpu time    0.01: real time    0.01
    --------------------------------------------
      LOOP:  cpu time  103.16: real time  103.18

 eigenvalue-minimisations  :  9032
 total energy-change (2. order) : 0.6244258E-02  (-0.2272381E-02)
 number of electron     107.9999996 magnetization 
 augmentation part       -9.4415168 magnetization 

 Broyden mixing:
  rms(total) = 0.17430E-01    rms(broyden)= 0.17429E-01
  rms(prec ) = 0.19249E-01
  weight for this iteration     100.00

 eigenvalues of (default mixing * dielectric matrix)
  average eigenvalue GAMMA=   1.3019
  2.5777  1.4081  1.4081  0.8988  0.7593  0.7593

 Free energy of the ion-electron system (eV)
  ---------------------------------------------------
  alpha Z        PSCENC =        36.80884744
  Ewald energy   TEWEN  =     11991.61499626
  -Hartree energ DENC   =    -15112.01860384
  -exchange      EXHF   =         0.00000000
  -V(xc)+E(xc)   XCENC  =       -79.33457431
  PAW double counting   =      1196.27327473     -876.15969458
  entropy T*S    EENTRO =        -0.02306487
  eigenvalues    EBANDS =      -622.60467493
  atomic energy  EATOM  =      3354.04126044
  ---------------------------------------------------
  free energy    TOTEN  =      -111.40223364 eV

  energy without entropy =     -111.37916877  energy(sigma->0) =     -111.39070120


--------------------------------------------------------------------------------------------------------




----------------------------------------- Iteration    1(  12)  ---------------------------------------


    POTLOK:  cpu time   14.67: real time   14.70
    SETDIJ:  cpu time    0.01: real time    0.01
     EDDAV:  cpu time   78.51: real time   78.53
       DOS:  cpu time    0.01: real time    0.01
    CHARGE:  cpu time    4.19: real time    4.19
    MIXING:  cpu time    0.01: real time    0.02
    --------------------------------------------
      LOOP:  cpu time   97.41: real time   97.47

 eigenvalue-minimisations  :  9008
 total energy-change (2. order) : 0.6122844E-02  (-0.1129783E-02)
 number of electron     107.9999996 magnetization 
 augmentation part       -9.4398214 magnetization 

 Broyden mixing:
  rms(total) = 0.88138E-02    rms(broyden)= 0.88108E-02
  rms(prec ) = 0.10269E-01
  weight for this iteration     100.00

 eigenvalues of (default mixing * dielectric matrix)
  average eigenvalue GAMMA=   1.3203
  2.6424  1.7906  1.2442  1.2442  0.7208  0.8000  0.8000

 Free energy of the ion-electron system (eV)
  ---------------------------------------------------
  alpha Z        PSCENC =        36.80884744
  Ewald energy   TEWEN  =     11991.61499626
  -Hartree energ DENC   =    -15113.51821495
  -exchange      EXHF   =         0.00000000
  -V(xc)+E(xc)   XCENC  =       -79.30721263
  PAW double counting   =      1195.55776902     -875.42617160
  entropy T*S    EENTRO =        -0.02318848
  eigenvalues    EBANDS =      -621.14419630
  atomic energy  EATOM  =      3354.04126044
  ---------------------------------------------------
  free energy    TOTEN  =      -111.39611079 eV

  energy without entropy =     -111.37292231  energy(sigma->0) =     -111.38451655


--------------------------------------------------------------------------------------------------------




----------------------------------------- Iteration    1(  13)  ---------------------------------------


    POTLOK:  cpu time   14.66: real time   14.68
    SETDIJ:  cpu time    0.01: real time    0.01
     EDDAV:  cpu time   77.45: real time   77.47
       DOS:  cpu time    0.01: real time    0.01
    CHARGE:  cpu time    4.19: real time    4.19
    MIXING:  cpu time    0.02: real time    0.02
    --------------------------------------------
      LOOP:  cpu time   96.34: real time   96.38

 eigenvalue-minimisations  :  8696
 total energy-change (2. order) : 0.5942770E-02  (-0.2155999E-03)
 number of electron     107.9999996 magnetization 
 augmentation part       -9.4411791 magnetization 

 Broyden mixing:
  rms(total) = 0.34277E-02    rms(broyden)= 0.34270E-02
  rms(prec ) = 0.48141E-02
  weight for this iteration     100.00

 eigenvalues of (default mixing * dielectric matrix)
  average eigenvalue GAMMA=   1.3357
  2.7054  2.1784  1.1574  1.1574  1.1504  0.7297  0.8034  0.8034

 Free energy of the ion-electron system (eV)
  ---------------------------------------------------
  alpha Z        PSCENC =        36.80884744
  Ewald energy   TEWEN  =     11991.61499626
  -Hartree energ DENC   =    -15114.27443739
  -exchange      EXHF   =         0.00000000
  -V(xc)+E(xc)   XCENC  =       -79.30652217
  PAW double counting   =      1194.47409967     -874.31489634
  entropy T*S    EENTRO =        -0.02317445
  eigenvalues    EBANDS =      -620.41034148
  atomic energy  EATOM  =      3354.04126044
  ---------------------------------------------------
  free energy    TOTEN  =      -111.39016802 eV

  energy without entropy =     -111.36699357  energy(sigma->0) =     -111.37858080


--------------------------------------------------------------------------------------------------------




----------------------------------------- Iteration    1(  14)  ---------------------------------------


    POTLOK:  cpu time   14.74: real time   14.74
    SETDIJ:  cpu time    0.01: real time    0.01
     EDDAV:  cpu time   76.68: real time   76.70
       DOS:  cpu time    0.01: real time    0.01
    CHARGE:  cpu time    4.16: real time    4.16
    MIXING:  cpu time    0.01: real time    0.02
    --------------------------------------------
      LOOP:  cpu time   95.62: real time   95.65

 eigenvalue-minimisations  :  8984
 total energy-change (2. order) : 0.3307709E-02  (-0.4699065E-04)
 number of electron     107.9999996 magnetization 
 augmentation part       -9.4412303 magnetization 

 Broyden mixing:
  rms(total) = 0.18718E-02    rms(broyden)= 0.18715E-02
  rms(prec ) = 0.30815E-02
  weight for this iteration     100.00

 eigenvalues of (default mixing * dielectric matrix)
  average eigenvalue GAMMA=   1.3495
  2.7549  2.2660  1.4623  1.1691  1.1691  0.9458  0.7551  0.8116  0.8116

 Free energy of the ion-electron system (eV)
  ---------------------------------------------------
  alpha Z        PSCENC =        36.80884744
  Ewald energy   TEWEN  =     11991.61499626
  -Hartree energ DENC   =    -15115.24770210
  -exchange      EXHF   =         0.00000000
  -V(xc)+E(xc)   XCENC  =       -79.30115891
  PAW double counting   =      1193.99848364     -873.82719958
  entropy T*S    EENTRO =        -0.02314122
  eigenvalues    EBANDS =      -619.45124630
  atomic energy  EATOM  =      3354.04126044
  ---------------------------------------------------
  free energy    TOTEN  =      -111.38686031 eV

  energy without entropy =     -111.36371910  energy(sigma->0) =     -111.37528970


--------------------------------------------------------------------------------------------------------




----------------------------------------- Iteration    1(  15)  ---------------------------------------


    POTLOK:  cpu time   14.66: real time   14.66
    SETDIJ:  cpu time    0.01: real time    0.01
     EDDAV:  cpu time   80.89: real time   80.91
       DOS:  cpu time    0.01: real time    0.01
    CHARGE:  cpu time    4.19: real time    4.19
    MIXING:  cpu time    0.01: real time    0.02
    --------------------------------------------
      LOOP:  cpu time   99.77: real time   99.81

 eigenvalue-minimisations  :  9440
 total energy-change (2. order) : 0.1160060E-02  (-0.9189124E-05)
 number of electron     107.9999996 magnetization 
 augmentation part       -9.4408853 magnetization 

 Broyden mixing:
  rms(total) = 0.11259E-02    rms(broyden)= 0.11259E-02
  rms(prec ) = 0.20504E-02
  weight for this iteration     100.00

 eigenvalues of (default mixing * dielectric matrix)
  average eigenvalue GAMMA=   1.4336
  3.0590  2.6264  1.7804  1.1668  1.1668  1.0760  1.0760  0.7474  0.8184  0.8184

 Free energy of the ion-electron system (eV)
  ---------------------------------------------------
  alpha Z        PSCENC =        36.80884744
  Ewald energy   TEWEN  =     11991.61499626
  -Hartree energ DENC   =    -15116.12487879
  -exchange      EXHF   =         0.00000000
  -V(xc)+E(xc)   XCENC  =       -79.29492644
  PAW double counting   =      1193.87813670     -873.70413885
  entropy T*S    EENTRO =        -0.02319810
  eigenvalues    EBANDS =      -618.58179893
  atomic energy  EATOM  =      3354.04126044
  ---------------------------------------------------
  free energy    TOTEN  =      -111.38570025 eV

  energy without entropy =     -111.36250215  energy(sigma->0) =     -111.37410120


--------------------------------------------------------------------------------------------------------




----------------------------------------- Iteration    1(  16)  ---------------------------------------


    POTLOK:  cpu time   14.62: real time   14.63
    SETDIJ:  cpu time    0.01: real time    0.01
     EDDAV:  cpu time   70.45: real time   70.47
       DOS:  cpu time    0.01: real time    0.01
    CHARGE:  cpu time    4.18: real time    4.18
    MIXING:  cpu time    0.02: real time    0.02
    --------------------------------------------
      LOOP:  cpu time   89.30: real time   89.33

 eigenvalue-minimisations  :  8152
 total energy-change (2. order) : 0.5989188E-03  (-0.8314814E-05)
 number of electron     107.9999996 magnetization 
 augmentation part       -9.4406838 magnetization 

 Broyden mixing:
  rms(total) = 0.72562E-03    rms(broyden)= 0.72559E-03
  rms(prec ) = 0.11919E-02
  weight for this iteration     100.00

 eigenvalues of (default mixing * dielectric matrix)
  average eigenvalue GAMMA=   1.5334
  3.6930  2.6486  2.1081  1.6855  1.1668  1.1668  1.0072  1.0072  0.7493  0.8173
  0.8173

 Free energy of the ion-electron system (eV)
  ---------------------------------------------------
  alpha Z        PSCENC =        36.80884744
  Ewald energy   TEWEN  =     11991.61499626
  -Hartree energ DENC   =    -15117.19115924
  -exchange      EXHF   =         0.00000000
  -V(xc)+E(xc)   XCENC  =       -79.28924236
  PAW double counting   =      1193.76537771     -873.58867875
  entropy T*S    EENTRO =        -0.02319437
  eigenvalues    EBANDS =      -617.52330847
  atomic energy  EATOM  =      3354.04126044
  ---------------------------------------------------
  free energy    TOTEN  =      -111.38510133 eV

  energy without entropy =     -111.36190696  energy(sigma->0) =     -111.37350415


--------------------------------------------------------------------------------------------------------




----------------------------------------- Iteration    1(  17)  ---------------------------------------


    POTLOK:  cpu time   14.71: real time   14.72
    SETDIJ:  cpu time    0.01: real time    0.01
     EDDAV:  cpu time   72.32: real time   72.34
       DOS:  cpu time    0.01: real time    0.01
    CHARGE:  cpu time    5.25: real time    5.25
    MIXING:  cpu time    0.02: real time    0.02
    --------------------------------------------
      LOOP:  cpu time   92.32: real time   92.35

 eigenvalue-minimisations  :  8152
 total energy-change (2. order) :-0.5591063E-03  (-0.1302299E-04)
 number of electron     107.9999996 magnetization 
 augmentation part       -9.4406638 magnetization 

 Broyden mixing:
  rms(total) = 0.50473E-03    rms(broyden)= 0.50468E-03
  rms(prec ) = 0.72454E-03
  weight for this iteration     100.00

 eigenvalues of (default mixing * dielectric matrix)
  average eigenvalue GAMMA=   1.6237
  4.7891  2.7200  2.3594  1.6227  1.4017  1.1566  1.1566  0.7489  0.8167  0.8167
  0.9479  0.9479

 Free energy of the ion-electron system (eV)
  ---------------------------------------------------
  alpha Z        PSCENC =        36.80884744
  Ewald energy   TEWEN  =     11991.61499626
  -Hartree energ DENC   =    -15117.85612855
  -exchange      EXHF   =         0.00000000
  -V(xc)+E(xc)   XCENC  =       -79.28565333
  PAW double counting   =      1193.77934558     -873.60300016
  entropy T*S    EENTRO =        -0.02320434
  eigenvalues    EBANDS =      -616.86212379
  atomic energy  EATOM  =      3354.04126044
  ---------------------------------------------------
  free energy    TOTEN  =      -111.38566044 eV

  energy without entropy =     -111.36245610  energy(sigma->0) =     -111.37405827


--------------------------------------------------------------------------------------------------------




----------------------------------------- Iteration    1(  18)  ---------------------------------------


    POTLOK:  cpu time   14.82: real time   14.82
    SETDIJ:  cpu time    0.02: real time    0.02
     EDDAV:  cpu time   79.46: real time   79.48
       DOS:  cpu time    0.01: real time    0.01
    CHARGE:  cpu time    4.67: real time    4.67
    MIXING:  cpu time    0.02: real time    0.02
    --------------------------------------------
      LOOP:  cpu time   98.99: real time   99.02

 eigenvalue-minimisations  :  8536
 total energy-change (2. order) :-0.2767554E-03  (-0.1158921E-04)
 number of electron     107.9999996 magnetization 
 augmentation part       -9.4406112 magnetization 

 Broyden mixing:
  rms(total) = 0.28832E-03    rms(broyden)= 0.28830E-03
  rms(prec ) = 0.43150E-03
  weight for this iteration     100.00

 eigenvalues of (default mixing * dielectric matrix)
  average eigenvalue GAMMA=   1.6714
  5.5763  2.8099  2.4491  1.8998  1.1438  1.1438  1.3556  0.7502  0.8167  0.8167
  1.0523  0.9801  0.9339

 Free energy of the ion-electron system (eV)
  ---------------------------------------------------
  alpha Z        PSCENC =        36.80884744
  Ewald energy   TEWEN  =     11991.61499626
  -Hartree energ DENC   =    -15118.19454023
  -exchange      EXHF   =         0.00000000
  -V(xc)+E(xc)   XCENC  =       -79.28388257
  PAW double counting   =      1193.80765761     -873.63193661
  entropy T*S    EENTRO =        -0.02320107
  eigenvalues    EBANDS =      -616.52513848
  atomic energy  EATOM  =      3354.04126044
  ---------------------------------------------------
  free energy    TOTEN  =      -111.38593720 eV

  energy without entropy =     -111.36273613  energy(sigma->0) =     -111.37433666


--------------------------------------------------------------------------------------------------------




----------------------------------------- Iteration    1(  19)  ---------------------------------------


    POTLOK:  cpu time   14.80: real time   14.82
    SETDIJ:  cpu time    0.01: real time    0.02
     EDDAV:  cpu time   78.55: real time   78.58
       DOS:  cpu time    0.01: real time    0.01
    CHARGE:  cpu time    4.67: real time    4.67
    MIXING:  cpu time    0.02: real time    0.02
    --------------------------------------------
      LOOP:  cpu time   98.07: real time   98.11

 eigenvalue-minimisations  :  8296
 total energy-change (2. order) :-0.8505856E-04  (-0.3341612E-05)
 number of electron     107.9999996 magnetization 
 augmentation part       -9.4405816 magnetization 

 Broyden mixing:
  rms(total) = 0.17342E-03    rms(broyden)= 0.17340E-03
  rms(prec ) = 0.28473E-03
  weight for this iteration     100.00

 eigenvalues of (default mixing * dielectric matrix)
  average eigenvalue GAMMA=   1.7382
  6.2541  2.9191  2.5094  2.0746  1.4897  1.4897  1.1489  1.1489  0.7503  0.8131
  0.8131  1.0075  1.0075  0.9095

 Free energy of the ion-electron system (eV)
  ---------------------------------------------------
  alpha Z        PSCENC =        36.80884744
  Ewald energy   TEWEN  =     11991.61499626
  -Hartree energ DENC   =    -15118.36106154
  -exchange      EXHF   =         0.00000000
  -V(xc)+E(xc)   XCENC  =       -79.28311046
  PAW double counting   =      1193.81886209     -873.64334179
  entropy T*S    EENTRO =        -0.02320245
  eigenvalues    EBANDS =      -616.35927226
  atomic energy  EATOM  =      3354.04126044
  ---------------------------------------------------
  free energy    TOTEN  =      -111.38602225 eV

  energy without entropy =     -111.36281981  energy(sigma->0) =     -111.37442103


--------------------------------------------------------------------------------------------------------




----------------------------------------- Iteration    1(  20)  ---------------------------------------


    POTLOK:  cpu time   14.80: real time   14.81
    SETDIJ:  cpu time    0.01: real time    0.01
     EDDAV:  cpu time   68.32: real time   68.34
       DOS:  cpu time    0.01: real time    0.01
    CHARGE:  cpu time    4.78: real time    4.78
    MIXING:  cpu time    0.02: real time    0.02
    --------------------------------------------
      LOOP:  cpu time   87.95: real time   87.98

 eigenvalue-minimisations  :  6864
 total energy-change (2. order) :-0.3354158E-04  (-0.1787430E-05)
 number of electron     107.9999996 magnetization 
 augmentation part       -9.4405854 magnetization 

 Broyden mixing:
  rms(total) = 0.11566E-03    rms(broyden)= 0.11565E-03
  rms(prec ) = 0.18969E-03
  weight for this iteration     100.00

 eigenvalues of (default mixing * dielectric matrix)
  average eigenvalue GAMMA=   1.7632
  6.6528  3.0826  2.6536  2.0575  1.8840  1.1393  1.1393  1.2675  1.2675  0.7503
  0.8152  0.8152  0.9700  0.9770  0.9770

 Free energy of the ion-electron system (eV)
  ---------------------------------------------------
  alpha Z        PSCENC =        36.80884744
  Ewald energy   TEWEN  =     11991.61499626
  -Hartree energ DENC   =    -15118.46706266
  -exchange      EXHF   =         0.00000000
  -V(xc)+E(xc)   XCENC  =       -79.28293526
  PAW double counting   =      1193.81633160     -873.64070578
  entropy T*S    EENTRO =        -0.02320289
  eigenvalues    EBANDS =      -616.25358496
  atomic energy  EATOM  =      3354.04126044
  ---------------------------------------------------
  free energy    TOTEN  =      -111.38605580 eV

  energy without entropy =     -111.36285291  energy(sigma->0) =     -111.37445435


--------------------------------------------------------------------------------------------------------




----------------------------------------- Iteration    1(  21)  ---------------------------------------


    POTLOK:  cpu time   14.84: real time   14.88
    SETDIJ:  cpu time    0.01: real time    0.02
     EDDAV:  cpu time   68.46: real time   68.48
       DOS:  cpu time    0.01: real time    0.01
    CHARGE:  cpu time    4.68: real time    4.68
    MIXING:  cpu time    0.02: real time    0.02
    --------------------------------------------
      LOOP:  cpu time   88.03: real time   88.09

 eigenvalue-minimisations  :  6936
 total energy-change (2. order) :-0.3629412E-04  (-0.2585504E-05)
 number of electron     107.9999996 magnetization 
 augmentation part       -9.4405771 magnetization 

 Broyden mixing:
  rms(total) = 0.82387E-04    rms(broyden)= 0.82382E-04
  rms(prec ) = 0.12368E-03
  weight for this iteration     100.00

 eigenvalues of (default mixing * dielectric matrix)
  average eigenvalue GAMMA=   1.8094
  6.9341  3.4747  2.7192  2.3994  1.8135  1.4328  1.4328  1.1495  1.1495  0.7504
  0.8150  0.8150  1.0708  1.0708  0.9326  0.9899

 Free energy of the ion-electron system (eV)
  ---------------------------------------------------
  alpha Z        PSCENC =        36.80884744
  Ewald energy   TEWEN  =     11991.61499626
  -Hartree energ DENC   =    -15118.52448379
  -exchange      EXHF   =         0.00000000
  -V(xc)+E(xc)   XCENC  =       -79.28280775
  PAW double counting   =      1193.81808615     -873.64250389
  entropy T*S    EENTRO =        -0.02320472
  eigenvalues    EBANDS =      -616.19628223
  atomic energy  EATOM  =      3354.04126044
  ---------------------------------------------------
  free energy    TOTEN  =      -111.38609209 eV

  energy without entropy =     -111.36288737  energy(sigma->0) =     -111.37448973


--------------------------------------------------------------------------------------------------------




----------------------------------------- Iteration    1(  22)  ---------------------------------------


    POTLOK:  cpu time   14.78: real time   14.78
    SETDIJ:  cpu time    0.01: real time    0.01
     EDDAV:  cpu time   68.80: real time   68.82
       DOS:  cpu time    0.01: real time    0.01
    CHARGE:  cpu time    4.75: real time    4.75
    MIXING:  cpu time    0.02: real time    0.02
    --------------------------------------------
      LOOP:  cpu time   88.38: real time   88.41

 eigenvalue-minimisations  :  6920
 total energy-change (2. order) : 0.2980070E-04  (-0.2048405E-05)
 number of electron     107.9999996 magnetization 
 augmentation part       -9.4405866 magnetization 

 Broyden mixing:
  rms(total) = 0.53144E-04    rms(broyden)= 0.53138E-04
  rms(prec ) = 0.71825E-04
  weight for this iteration     100.00

 eigenvalues of (default mixing * dielectric matrix)
  average eigenvalue GAMMA=   1.8986
  7.1650  4.7834  2.8308  2.4863  1.8596  1.8596  1.3415  1.3415  1.1466  1.1466
  0.7504  0.8142  0.8142  0.9926  0.9926  1.0257  0.9254

 Free energy of the ion-electron system (eV)
  ---------------------------------------------------
  alpha Z        PSCENC =        36.80884744
  Ewald energy   TEWEN  =     11991.61499626
  -Hartree energ DENC   =    -15118.54633355
  -exchange      EXHF   =         0.00000000
  -V(xc)+E(xc)   XCENC  =       -79.28299577
  PAW double counting   =      1193.81296424     -873.63726254
  entropy T*S    EENTRO =        -0.02320338
  eigenvalues    EBANDS =      -616.17433545
  atomic energy  EATOM  =      3354.04126044
  ---------------------------------------------------
  free energy    TOTEN  =      -111.38606229 eV

  energy without entropy =     -111.36285891  energy(sigma->0) =     -111.37446060


--------------------------------------------------------------------------------------------------------




----------------------------------------- Iteration    1(  23)  ---------------------------------------


    POTLOK:  cpu time   14.77: real time   14.79
    SETDIJ:  cpu time    0.02: real time    0.02
     EDDAV:  cpu time   63.96: real time   63.98
       DOS:  cpu time    0.01: real time    0.01
    CHARGE:  cpu time    4.70: real time    4.70
    MIXING:  cpu time    0.02: real time    0.02
    --------------------------------------------
      LOOP:  cpu time   83.49: real time   83.53

 eigenvalue-minimisations  :  6288
 total energy-change (2. order) : 0.6369836E-04  (-0.9629612E-06)
 number of electron     107.9999996 magnetization 
[...]
     31      -4.1452      2.00000
     32      -4.0276      2.00000
     33      -3.7648      2.00000
     34      -3.5689      2.00000
     35      -3.3535      2.00000
     36      -3.2536      2.00000
     37      -3.1535      2.00000
     38      -3.0891      2.00000
     39      -2.9060      2.00000
     40      -2.6930      2.00000
     41      -2.5681      2.00000
     42      -2.5174      2.00000
     43      -2.4099      2.00000
     44      -2.0382      2.00000
     45      -1.9875      2.00000
     46      -1.9296      2.00000
     47      -1.7936      2.00000
     48      -1.4389      2.00000
     49      -1.3020      2.00000
     50      -1.0655      2.00000
     51      -1.0076      2.00000
     52      -0.5856      2.00000
     53      -0.3606      2.00000
     54      -0.3359      2.00000
     55       0.3506      0.00002
     56       0.6936      0.00000
     57       0.9678      0.00000
     58       1.4047      0.00000
     59       1.5572      0.00000
     60       1.6539      0.00000
     61       2.1827      0.00000
     62       2.2546      0.00000
     63       2.5325      0.00000
     64       2.6600      0.00000
     65       2.6999      0.00000
     66       3.0151      0.00000
     67       3.0908      0.00000
     68       3.2393      0.00000

 k-point    52 :       0.3077    0.5000    0.5000
  band No.  band energies     occupation 
      1     -14.6507      2.00000
      2     -12.5375      2.00000
      3     -12.1901      2.00000
      4     -12.1345      2.00000
      5     -11.6768      2.00000
      6     -11.5821      2.00000
      7     -11.2234      2.00000
      8     -11.0390      2.00000
      9     -10.8370      2.00000
     10     -10.7103      2.00000
     11     -10.4208      2.00000
     12      -9.6669      2.00000
     13      -8.9499      2.00000
     14      -8.8564      2.00000
     15      -8.3218      2.00000
     16      -7.8035      2.00000
     17      -7.3445      2.00000
     18      -7.0912      2.00000
     19      -6.9955      2.00000
     20      -6.4802      2.00000
     21      -6.4421      2.00000
     22      -6.2107      2.00000
     23      -6.0380      2.00000
     24      -5.9515      2.00000
     25      -5.3932      2.00000
     26      -5.3832      2.00000
     27      -5.0481      2.00000
     28      -4.9265      2.00000
     29      -4.5187      2.00000
     30      -4.4453      2.00000
     31      -4.3425      2.00000
     32      -4.1621      2.00000
     33      -4.1031      2.00000
     34      -3.7706      2.00000
     35      -3.2989      2.00000
     36      -3.2366      2.00000
     37      -3.1147      2.00000
     38      -3.0195      2.00000
     39      -2.9523      2.00000
     40      -2.8792      2.00000
     41      -2.6261      2.00000
     42      -2.5589      2.00000
     43      -2.3943      2.00000
     44      -2.2500      2.00000
     45      -2.0912      2.00000
     46      -1.9693      2.00000
     47      -1.9081      2.00000
     48      -1.7678      2.00000
     49      -1.5126      2.00000
     50      -1.3334      2.00000
     51      -1.1489      2.00000
     52      -0.9114      2.00000
     53      -0.7359      2.00000
     54      -0.5566      2.00000
     55       0.0767      0.65651
     56       0.2834      0.00075
     57       0.5867      0.00000
     58       1.2681      0.00000
     59       1.3446      0.00000
     60       1.5120      0.00000
     61       2.1313      0.00000
     62       2.2306      0.00000
     63       2.3559      0.00000
     64       2.4310      0.00000
     65       2.5243      0.00000
     66       2.7564      0.00000
     67       2.9324      0.00000
     68       3.0878      0.00000

 k-point    53 :       0.3846    0.5000    0.5000
  band No.  band energies     occupation 
      1     -14.3578      2.00000
      2     -12.0611      2.00000
      3     -11.7876      2.00000
      4     -11.6925      2.00000
      5     -11.2824      2.00000
      6     -11.2452      2.00000
      7     -10.8627      2.00000
      8     -10.7937      2.00000
      9     -10.6452      2.00000
     10     -10.5227      2.00000
     11     -10.4879      2.00000
     12      -9.7402      2.00000
     13      -9.1366      2.00000
     14      -8.9338      2.00000
     15      -8.6756      2.00000
     16      -8.2779      2.00000
     17      -7.6547      2.00000
     18      -7.6378      2.00000
     19      -7.4125      2.00000
     20      -6.9554      2.00000
     21      -6.7551      2.00000
     22      -6.7289      2.00000
     23      -6.6781      2.00000
     24      -6.2248      2.00000
     25      -5.6222      2.00000
     26      -5.3287      2.00000
     27      -5.0516      2.00000
     28      -4.7021      2.00000
     29      -4.5624      2.00000
     30      -4.3844      2.00000
     31      -4.1545      2.00000
     32      -4.1216      2.00000
     33      -4.0588      2.00000
     34      -3.7257      2.00000
     35      -3.5567      2.00000
     36      -3.2818      2.00000
     37      -3.2227      2.00000
     38      -3.1557      2.00000
     39      -2.9676      2.00000
     40      -2.9000      2.00000
     41      -2.8515      2.00000
     42      -2.6080      2.00000
     43      -2.4283      2.00000
     44      -2.3519      2.00000
     45      -2.2653      2.00000
     46      -2.1147      2.00000
     47      -2.0643      2.00000
     48      -1.8672      2.00000
     49      -1.7815      2.00000
     50      -1.4821      2.00000
     51      -1.4126      2.00000
     52      -1.0808      2.00000
     53      -0.9243      2.00000
     54      -0.6355      2.00000
     55      -0.1657      1.99714
     56       0.1695      0.07873
     57       0.3718      0.00000
     58       1.2432      0.00000
     59       1.3030      0.00000
     60       1.4957      0.00000
     61       1.7954      0.00000
     62       2.0492      0.00000
     63       2.1087      0.00000
     64       2.2838      0.00000
     65       2.3126      0.00000
     66       2.6152      0.00000
     67       2.7258      0.00000
     68       2.8256      0.00000

 k-point    54 :       0.4615    0.5000    0.5000
  band No.  band energies     occupation 
      1     -14.1578      2.00000
      2     -11.5925      2.00000
      3     -11.5161      2.00000
      4     -11.1938      2.00000
      5     -10.9795      2.00000
      6     -10.9070      2.00000
      7     -10.8756      2.00000
      8     -10.7473      2.00000
      9     -10.6504      2.00000
     10     -10.6152      2.00000
     11     -10.5284      2.00000
     12      -9.7718      2.00000
     13      -9.3344      2.00000
     14      -8.9205      2.00000
     15      -8.6909      2.00000
     16      -8.4680      2.00000
     17      -8.1460      2.00000
     18      -7.7660      2.00000
     19      -7.5889      2.00000
     20      -7.4459      2.00000
     21      -7.3188      2.00000
     22      -7.1947      2.00000
     23      -7.0535      2.00000
     24      -6.1273      2.00000
     25      -5.4824      2.00000
     26      -5.1774      2.00000
     27      -4.9692      2.00000
     28      -4.5073      2.00000
     29      -4.4085      2.00000
     30      -4.2951      2.00000
     31      -4.1177      2.00000
     32      -3.9876      2.00000
     33      -3.9253      2.00000
     34      -3.7937      2.00000
     35      -3.6015      2.00000
     36      -3.5506      2.00000
     37      -3.3603      2.00000
     38      -3.2795      2.00000
     39      -3.1812      2.00000
     40      -3.0423      2.00000
     41      -2.9846      2.00000
     42      -2.7207      2.00000
     43      -2.4602      2.00000
     44      -2.4137      2.00000
     45      -2.3367      2.00000
     46      -2.1749      2.00000
     47      -2.1313      2.00000
     48      -1.9109      2.00000
     49      -1.7217      2.00000
     50      -1.5516      2.00000
     51      -1.4949      2.00000
     52      -1.2191      2.00000
     53      -1.0098      2.00000
     54      -0.7104      2.00000
     55      -0.2336      1.99992
     56       0.1620      0.09868
     57       0.2646      0.00192
     58       1.1677      0.00000
     59       1.3252      0.00000
     60       1.5637      0.00000
     61       1.6097      0.00000
     62       1.8394      0.00000
     63       2.0180      0.00000
     64       2.2601      0.00000
     65       2.3330      0.00000
     66       2.4405      0.00000
     67       2.6065      0.00000
     68       2.7154      0.00000


--------------------------------------------------------------------------------------------------------


 soft charge-density along one line, spin component           1
         0         1         2         3         4         5         6         7         8         9
 total charge-density along one line
 
 pseudopotential strength for first ion, spin component:           1
 29.785   0.008  -0.001  -0.023   0.000  -0.000  -0.001   0.000
  0.008   0.009   0.000  -0.000  -0.000  -0.000   0.000   0.000
 -0.001   0.000   6.550  -0.001  -0.000  -0.003   0.000   0.000
 -0.023  -0.000  -0.001   6.545  -0.000   0.000  -0.002   0.000
  0.000  -0.000  -0.000  -0.000   6.550   0.000   0.000  -0.003
 -0.000  -0.000  -0.003   0.000   0.000   0.015  -0.000  -0.000
 -0.001   0.000   0.000  -0.002   0.000  -0.000   0.015  -0.000
  0.000   0.000   0.000   0.000  -0.003  -0.000  -0.000   0.015
 total augmentation occupancy for first ion, spin component:           1
  1.815  -0.353   0.005   0.253  -0.000   0.004   0.116   0.000
 -0.353   1.286   0.020   0.856  -0.000   0.003  -0.433   0.000
  0.005   0.020   1.143   0.009  -0.000  -0.502   0.014   0.000
  0.253   0.856   0.009   1.286  -0.000   0.014  -0.416   0.000
 -0.000  -0.000  -0.000  -0.000   1.145   0.000   0.000  -0.526
  0.004   0.003  -0.502   0.014   0.000   0.290  -0.015  -0.000
  0.116  -0.433   0.014  -0.416   0.000  -0.015   0.226  -0.000
  0.000   0.000   0.000   0.000  -0.526  -0.000  -0.000   0.324


------------------------ aborting loop because EDIFF is reached ----------------------------------------


    CHARGE:  cpu time    4.61: real time    4.61
    FORLOC:  cpu time    0.06: real time    0.06
    FORNL :  cpu time   21.24: real time   21.25
    STRESS:  cpu time   63.82: real time   63.84
    FORCOR:  cpu time   14.85: real time   14.86
    FORHAR:  cpu time    0.15: real time    0.15
    MIXING:  cpu time    0.02: real time    0.02
    OFIELD:  cpu time    0.00: real time    0.00

  FORCE on cell =-STRESS in cart. coord.  units (eV):
  Direction    XX          YY          ZZ          XY          YZ          ZX
  --------------------------------------------------------------------------------------
  Alpha Z    36.80885    36.80885    36.80885
  Ewald   14424.42478 13935.49105-16368.30836     1.88952   -48.70294    -9.54740
  Hartree 14949.00775 14592.86151-14423.30324    -1.42772    -6.77203    -1.31060
  E(xc)    -358.43289  -358.51029  -358.20578    -0.06557     0.21850     0.12522
  Local  -30934.10577-30102.20747 29220.87344     1.64739    39.08744     7.79881
  n-local  1160.47829  1164.79489  1184.63890     2.19822   -10.01073    -2.93766
  augment  -203.35560  -204.96694  -205.51634     0.13372    -1.10777    -0.07599
  Kinetic   928.28773   946.80847   989.38069    -2.21428     9.30874    -2.72312
  Fock        0.00000     0.00000     0.00000     0.00000     0.00000     0.00000
  -------------------------------------------------------------------------------------
  Total       3.11313    11.08007    76.36818     2.16129   -17.97880    -8.67075
  in kB       4.97625    17.71114   122.07214     3.45475   -28.73855   -13.85992
  external pressure =       48.25 kB  Pullay stress =        0.00 kB


 VOLUME and BASIS-vectors are now :
 -----------------------------------------------------------------------------
  energy-cutoff  :      300.00
  volume of cell :     1002.32
      direct lattice vectors                 reciprocal lattice vectors
     3.540400000  0.000000000  0.000000000     0.282453960  0.048570342  0.000000000
    -1.770200000 10.294348000  0.000000000     0.000000000  0.097140683  0.000000000
     0.000000000  0.000000000 27.501429000     0.000000000  0.000000000  0.036361747

  length of vectors
     3.540400000 10.445439617 27.501429000     0.286599577  0.097140683  0.036361747


 FORCES acting on ions
    electron-ion (+dipol)            ewald-force                    non-local-force                 convergence-correction
 -----------------------------------------------------------------------------------------------
   -.171E-01 0.426E+01 0.311E+02   0.468E-02 -.412E+01 -.266E+02   0.140E-01 -.146E+00 -.446E+01   0.279E-08 0.483E-05 -.438E-07
   0.327E+00 -.159E+02 -.558E+03   -.129E+00 0.165E+02 0.562E+03   -.219E+00 -.343E+00 -.368E+01   -.458E-06 0.118E-04 0.716E-05
   0.318E-02 0.661E+02 0.506E+02   -.286E-02 -.677E+02 -.463E+02   0.666E-03 0.157E+01 -.421E+01   -.234E-07 0.402E-05 0.422E-06
   0.108E+01 0.349E+02 -.561E+03   -.353E+00 -.359E+02 0.564E+03   -.660E+00 0.189E+01 -.182E+01   0.922E-06 0.595E-05 0.165E-04
   -.829E-03 -.571E+02 0.526E+03   0.860E-04 0.587E+02 -.530E+03   0.116E-03 -.154E+01 0.428E+01   -.340E-07 -.973E-05 -.832E-05
   -.209E+00 -.673E+02 -.866E+02   0.252E+00 0.698E+02 0.822E+02   -.222E+00 -.225E+01 0.581E+01   -.233E-06 -.238E-05 0.111E-04
   -.174E-03 0.541E+02 0.526E+03   0.222E-04 -.560E+02 -.531E+03   -.586E-03 0.193E+01 0.417E+01   -.106E-07 0.958E-05 -.465E-05
   -.127E+02 0.823E+02 0.343E+02   0.145E+02 -.799E+02 -.431E+02   0.568E+01 0.109E+02 -.479E+02   -.717E-05 -.375E-04 0.666E-04
   -.352E-04 0.151E+01 0.572E+03   -.860E-04 -.172E+01 -.577E+03   0.139E-02 0.205E+00 0.477E+01   -.185E-07 -.151E-05 -.242E-04
   0.420E+00 -.389E+02 -.132E+02   -.380E+00 0.383E+02 0.102E+02   -.196E+00 0.974E+00 0.235E+01   0.101E-05 0.249E-04 -.355E-05
   0.152E-02 -.650E+02 0.560E+02   0.434E-04 0.670E+02 -.518E+02   -.119E-02 -.193E+01 -.405E+01   -.892E-08 -.525E-05 0.297E-05
   0.125E+00 -.186E+02 -.510E+03   -.459E-02 0.207E+02 0.514E+03   -.335E-01 -.200E+01 -.410E+01   0.628E-06 -.912E-05 0.720E-05
   -.559E-02 0.320E+02 0.209E+03   0.129E-03 -.341E+02 -.209E+03   0.797E-02 0.212E+01 0.310E+00   0.903E-08 0.444E-05 0.155E-05
   -.732E+01 -.121E+02 -.310E+03   0.543E+01 0.916E+01 0.306E+03   0.278E+01 0.517E+01 0.774E+01   0.819E-06 -.179E-04 -.193E-05
   -.340E-03 -.138E+02 0.138E+03   0.119E-03 0.141E+02 -.140E+03   -.206E-02 -.258E+00 0.252E+01   0.201E-08 -.486E-05 0.135E-05
   0.561E+00 -.438E+01 -.289E+03   -.530E+00 0.376E+01 0.290E+03   0.473E-01 0.804E-03 -.262E+01   -.279E-06 -.701E-05 0.107E-04
   0.164E-03 -.557E+01 0.346E+03   0.741E-04 0.604E+01 -.343E+03   -.227E-03 -.466E+00 -.253E+01   0.574E-08 -.466E-05 -.710E-05
   0.376E+00 -.529E+02 -.140E+03   -.221E+00 0.546E+02 0.138E+03   -.155E-02 -.135E+01 0.184E+01   -.379E-06 0.125E-04 -.106E-05
   -.121E-03 0.964E+01 0.336E+03   -.176E-04 -.988E+01 -.333E+03   -.242E-02 0.227E+00 -.247E+01   -.230E-08 0.349E-05 -.469E-05
   0.966E+01 0.176E+02 -.125E+03   -.876E+01 -.135E+02 0.127E+03   -.168E+01 -.375E+01 -.376E+01   0.274E-05 -.322E-04 0.658E-05
   0.103E-01 0.105E+02 0.129E+03   -.766E-03 -.109E+02 -.131E+03   -.865E-02 0.421E+00 0.255E+01   -.104E-07 0.342E-05 0.674E-06
   -.112E+01 -.243E+02 -.325E+03   0.780E+00 0.232E+02 0.325E+03   0.478E-01 0.594E+00 -.230E+00   0.177E-06 0.182E-04 0.134E-04
   0.499E-04 -.310E+02 0.253E+03   -.743E-04 0.331E+02 -.253E+03   0.187E-02 -.213E+01 -.365E+00   0.614E-08 -.360E-05 0.810E-06
   0.108E+02 0.105E+03 -.301E+03   -.106E+02 -.101E+03 0.298E+03   -.751E+01 -.203E+02 0.573E+02   0.286E-05 -.193E-05 -.257E-04
 -----------------------------------------------------------------------------------------------
   0.197E+01 0.105E+02 -.114E+02   -.107E-13 0.426E-13 0.000E+00   -.196E+01 -.105E+02 0.114E+02   0.543E-06 -.345E-04 0.659E-04
 
 
 POSITION                                       TOTAL-FORCE (eV/Angst)
 -----------------------------------------------------------------------------------
      0.00000      2.34757      6.41229         0.001260     -0.005282      0.013952
     -0.17702      5.43588     14.16300        -0.020603      0.218833      0.012311
     -0.00000      9.43147      5.75866         0.000734     -0.019184      0.085991
      1.59318      2.22542     13.50937         0.064894      0.875970      0.949011
     -0.00000      6.40009      2.31424        -0.000878     -0.004141      0.003659
     -0.00000      6.40009     10.06495        -0.179509      0.291946      1.406037
      1.77020     10.27849      2.37372        -0.000989      0.011924      0.003174
      1.77020     10.27849     10.12443         7.457572     13.357459    -56.659340
      1.77020      3.18974      1.66157         0.001016     -0.000684      0.015761
      1.77020      3.18974      9.41228        -0.155773      0.438416     -0.742644
      1.77020      5.55354      5.69975         0.000113      0.004788      0.096336
      1.59318      8.64185     13.45047         0.086626      0.019806     -0.593891
      1.77020      9.05319      4.34076         0.002262     -0.002993      0.015904
     -0.17702      1.84715     12.09147         0.889221      2.195104      3.645087
      0.00000      4.22380      5.10944        -0.002532      0.015261      0.044952
     -0.17702      7.31211     12.86016         0.078057     -0.613778     -1.311213
     -0.00000      4.15582      2.74166        -0.000240      0.003333     -0.021937
     -0.00000      4.15582     10.49237         0.153735      0.355980      0.252288
      1.77020      1.31366      2.96438        -0.002813     -0.004965     -0.042454
      1.77020      1.31366     10.71510        -0.783026      0.358076     -2.012416
      1.77020      1.38163      5.33187         0.000643     -0.032988      0.045200
      1.59318      4.46993     13.08259        -0.291680     -0.548250     -0.060241
      1.77020      6.77850      3.73234         0.001594      0.009841     -0.001091
      1.59318      9.86680     11.48306        -7.299688    -16.924470     54.855566
 -----------------------------------------------------------------------------------
    total drift:                                0.006022     -0.000061      0.004827


--------------------------------------------------------------------------------------------------------



  FREE ENERGIE OF THE ION-ELECTRON SYSTEM (eV)
  ---------------------------------------------------
  free  energy   TOTEN  =      -111.38594803 eV

  energy  without entropy=     -111.36274403  energy(sigma->0) =     -111.37434603
 


--------------------------------------------------------------------------------------------------------


    POTLOK:  cpu time   14.83: real time   14.83


--------------------------------------------------------------------------------------------------------


     LOOP+:  cpu time 2568.08: real time 2569.04
    4ORBIT:  cpu time    0.00: real time    0.00

 total amount of memory used by VASP on root node   146493. kBytes
========================================================================

   base      :      30000. kBytes
   nonlr-proj:       3452. kBytes
   fftplans  :       9347. kBytes
   grid      :      14649. kBytes
   one-center:         36. kBytes
   wavefun   :      89009. kBytes
 
  
  
 General timing and accounting informations for this job:
 ========================================================
  
                  Total CPU time used (sec):     2584.864
                            User time (sec):     2547.105
                          System time (sec):       37.759
                         Elapsed time (sec):     2587.058
  
                   Maximum memory used (kb):      335172.
                   Average memory used (kb):           0.
  
                          Minor page faults:      8021201
                          Major page faults:           19
                 Voluntary context switches:         1999
