    2    2    1    1
  0.5449325E+02  0.2508453E-09  0.2508454E-09  0.2000000E-08  0.5000000E-15
  1.000000000000000E-004
  CAR 
 unknown system                          
      8     96      8
 
  0.0000000E+00  0.0000000E+00  0.0000000E+00  0.3460208E-02
    1      -24.694042   1.000000
    2      -10.964152   1.000000
    3       -6.840074   1.000000
    4       -6.839981   1.000000
    5        0.450448   0.000000
    6        1.253147   0.000000
    7        1.524374   0.000000
    8        2.882100   0.000000
 
  0.5882353E-01  0.0000000E+00  0.0000000E+00  0.2076125E-01
    1      -24.621796   1.000000
    2      -10.865581   1.000000
    3       -7.148143   1.000000
    4       -6.980834   1.000000
    5        0.565596   0.000000
    6        1.360252   0.000000
    7        1.635205   0.000000
    8        2.994608   0.000000
 
  0.1176471E+00  0.0000000E+00  0.0000000E+00  0.2076125E-01
    1      -24.406976   1.000000
    2      -10.571895   1.000000
    3       -7.991660   1.000000
    4       -7.360609   1.000000
    5        0.904106   0.000000
    6        1.680415   0.000000
    7        1.966877   0.000000
    8        3.328442   0.000000
 
  0.1764706E+00  0.0000000E+00  0.0000000E+00  0.2076125E-01
    1      -24.055837   1.000000
    2      -10.089789   1.000000
    3       -9.191751   1.000000
    4       -7.880856   1.000000
    5        1.454589   0.000000
    6        2.208655   0.000000
    7        2.517910   0.000000
    8        3.876614   0.000000
 
  0.2352941E+00  0.0000000E+00  0.0000000E+00  0.2076125E-01
    1      -23.581349   1.000000
    2      -10.568068   1.000000
    3       -9.433484   1.000000
    4       -8.439584   1.000000
    5        2.209258   0.000000
    6        2.976939   0.000000
    7        3.287091   0.000000
    8        4.631388   0.000000
 
  0.2941176E+00  0.0000000E+00  0.0000000E+00  0.2076125E-01
    1      -23.007976   1.000000
    2      -11.972329   1.000000
    3       -8.957830   1.000000
    4       -8.631316   1.000000
    5        3.158826   0.000000
    6        3.892144   0.000000
    7        4.272720   0.000000
    8        5.575102   0.000000
 
  0.3529412E+00  0.0000000E+00  0.0000000E+00  0.2076125E-01
    1      -22.382987   1.000000
    2      -13.275955   1.000000
    3       -9.382588   1.000000
    4       -7.741665   1.000000
    5        2.911813   0.000000
    6        4.293027   0.000000
    7        5.373900   0.000000
    8        5.476983   0.000000
 
  0.4117647E+00  0.0000000E+00  0.0000000E+00  0.2076125E-01
    1      -21.798836   1.000000
    2      -14.336053   1.000000
    3       -9.681043   1.000000
    4       -6.888246   1.000000
    5        1.773414   0.000000
    6        5.542312   0.000000
    7        6.698702   0.000000
    8        6.887245   0.000000
 
  0.4705882E+00  0.0000000E+00  0.0000000E+00  0.2076125E-01
    1      -21.418396   1.000000
    2      -14.961006   1.000000
    3       -9.834527   1.000000
    4       -6.313966   1.000000
    5        1.008856   0.000000
    6        5.952639   0.000000
    7        8.164591   0.000000
    8        8.286994   0.000000
 
  0.5882353E-01  0.5882353E-01  0.0000000E+00  0.2076125E-01
    1      -24.478226   1.000000
    2      -10.669428   1.000000
    3       -7.703521   1.000000
    4       -7.261550   1.000000
    5        0.792482   0.000000
    6        1.573923   0.000000
    7        1.856476   0.000000
    8        3.217941   0.000000
 
  0.1176471E+00  0.5882353E-01  0.0000000E+00  0.4152249E-01
    1      -24.195118   1.000000
    2      -10.281362   1.000000
    3       -8.682406   1.000000
    4       -7.754976   1.000000
    5        1.237519   0.000000
    6        1.998424   0.000000
    7        2.297950   0.000000
    8        3.660024   0.000000
 
  0.1764706E+00  0.5882353E-01  0.0000000E+00  0.4152249E-01
    1      -23.781705   1.000000
    2       -9.931735   1.000000
    3       -9.711410   1.000000
    4       -8.334218   1.000000
    5        1.891866   0.000000
    6        2.657948   0.000000
    7        2.958397   0.000000
    8        4.313940   0.000000
 
  0.2352941E+00  0.5882353E-01  0.0000000E+00  0.4152249E-01
    1      -23.255930   1.000000
    2      -11.295682   1.000000
    3       -8.979740   1.000000
    4       -8.900820   1.000000
    5        2.748408   0.000000
    6        3.498067   0.000000
    7        3.836645   0.000000
    8        5.171815   0.000000
 
  0.2941176E+00  0.5882353E-01  0.0000000E+00  0.4152249E-01
    1      -22.651861   1.000000
    2      -12.636370   1.000000
    3       -9.389999   1.000000
    4       -8.127019   1.000000
    5        3.402596   0.000000
    6        3.802205   0.000000
    7        4.934606   0.000000
    8        4.940009   0.000000
 
  0.3529412E+00  0.5882353E-01  0.0000000E+00  0.4152249E-01
    1      -22.035709   1.000000
    2      -13.818866   1.000000
    3       -9.761814   1.000000
    4       -7.238068   1.000000
    5        2.322257   0.000000
    6        5.018621   0.000000
    7        6.073211   0.000000
    8        6.242391   0.000000
 
  0.4117647E+00  0.5882353E-01  0.0000000E+00  0.4152249E-01
    1      -21.533068   1.000000
    2      -14.676003   1.000000
    3       -9.993006   1.000000
    4       -6.489855   1.000000
    5        1.324196   0.000000
    6        6.001301   0.000000
    7        7.622703   0.000000
    8        7.538567   0.000000
 
  0.4705882E+00  0.5882353E-01  0.0000000E+00  0.2076125E-01
    1      -21.329357   1.000000
    2      -15.000196   1.000000
    3      -10.071310   1.000000
    4       -6.177427   1.000000
    5        0.916391   0.000000
    6        6.288764   0.000000
    7        9.207552   0.000000
    8        9.330062   0.000000
 
  0.1176471E+00  0.1176471E+00  0.0000000E+00  0.2076125E-01
    1      -23.849269   1.000000
    2       -9.804914   1.000000
    3       -9.634818   1.000000
    4       -8.383655   1.000000
    5        1.787656   0.000000
    6        2.538837   0.000000
    7        2.849083   0.000000
    8        4.209473   0.000000
 
  0.1764706E+00  0.1176471E+00  0.0000000E+00  0.4152249E-01
    1      -23.382790   1.000000
    2      -10.780672   1.000000
    3       -9.157283   1.000000
    4       -9.064090   1.000000
    5        2.547611   0.000000
    6        3.293215   0.000000
    7        3.619277   0.000000
    8        4.971771   0.000000
 
  0.2352941E+00  0.1176471E+00  0.0000000E+00  0.4152249E-01
    1      -22.820794   1.000000
    2      -12.018487   1.000000
    3       -9.669461   1.000000
    4       -8.367546   1.000000
    5        3.511800   0.000000
    6        3.642090   0.000000
    7        4.609817   0.000000
    8        4.799439   0.000000
 
  0.2941176E+00  0.1176471E+00  0.0000000E+00  0.4152249E-01
    1      -22.211071   1.000000
    2      -13.211300   1.000000
    3      -10.146192   1.000000
    4       -7.494500   1.000000
    5        2.840057   0.000000
    6        4.669304   0.000000
    7        5.667053   0.000000
    8        5.815048   0.000000
 
  0.3529412E+00  0.1176471E+00  0.0000000E+00  0.4152249E-01
    1      -21.645167   1.000000
    2      -14.199486   1.000000
    3      -10.472478   1.000000
    4       -6.660775   1.000000
    5        1.768125   0.000000
    6        5.997306   0.000000
    7        7.003273   0.000000
    8        7.236935   0.000000
 
  0.4117647E+00  0.1176471E+00  0.0000000E+00  0.4152249E-01
    1      -21.279654   1.000000
    2      -14.785504   1.000000
    3      -10.637873   1.000000
    4       -6.102633   1.000000
    5        1.053093   0.000000
    6        6.932067   0.000000
    7        8.651828   0.000000
    8        8.590649   0.000000
 
  0.1764706E+00  0.1764706E+00  0.0000000E+00  0.2076125E-01
    1      -22.878288   1.000000
    2      -11.712781   1.000000
    3       -9.872729   1.000000
    4       -8.449175   1.000000
    5        3.417756   0.000000
    6        4.071390   0.000000
    7        4.499914   0.000000
    8        5.708526   0.000000
 
  0.2352941E+00  0.1764706E+00  0.0000000E+00  0.4152249E-01
    1      -22.303764   1.000000
    2      -12.704909   1.000000
    3      -10.570331   1.000000
    4       -7.629364   1.000000
    5        3.161685   0.000000
    6        4.487692   0.000000
    7        5.474903   0.000000
    8        5.600230   0.000000
 
  0.2941176E+00  0.1764706E+00  0.0000000E+00  0.4152249E-01
    1      -21.725695   1.000000
    2      -13.651903   1.000000
    3      -11.071457   1.000000
    4       -6.782812   1.000000
    5        2.174215   0.000000
    6        5.750071   0.000000
    7        6.676294   0.000000
    8        6.915576   0.000000
 
  0.3529412E+00  0.1764706E+00  0.0000000E+00  0.4152249E-01
    1      -21.262660   1.000000
    2      -14.367937   1.000000
    3      -11.367104   1.000000
    4       -6.079009   1.000000
    5        1.323352   0.000000
    6        7.187935   0.000000
    7        8.186585   0.000000
    8        8.453207   0.000000
 
  0.4117647E+00  0.1764706E+00  0.0000000E+00  0.2076125E-01
    1      -21.078027   1.000000
    2      -14.642129   1.000000
    3      -11.464582   1.000000
    4       -5.788370   1.000000
    5        0.975651   0.000000
    6        8.066921   0.000000
    7       10.041191   0.000000
    8        9.964343   0.000000
 
  0.2352941E+00  0.2352941E+00  0.0000000E+00  0.2076125E-01
    1      -21.754839   1.000000
    2      -13.351731   1.000000
    3      -11.397949   1.000000
    4       -6.826824   1.000000
    5        2.343316   0.000000
    6        5.663649   0.000000
    7        6.565561   0.000000
    8        6.809011   0.000000
 
  0.2941176E+00  0.2352941E+00  0.0000000E+00  0.4152249E-01
    1      -21.260870   1.000000
    2      -13.924846   1.000000
    3      -11.988994   1.000000
    4       -6.078077   1.000000
    5        1.544713   0.000000
    6        7.034538   0.000000
    7        7.958788   0.000000
    8        8.242280   0.000000
 
  0.3529412E+00  0.2352941E+00  0.0000000E+00  0.4152249E-01
    1      -20.952791   1.000000
    2      -14.289955   1.000000
    3      -12.281796   1.000000
    4       -5.590228   1.000001
    5        1.023141   0.000000
    6        8.683248   0.000000
    7        9.432989   0.000000
    8        9.935219   0.000000
 
  0.2941176E+00  0.2941176E+00  0.0000000E+00  0.2076125E-01
    1      -20.911043   1.000000
    2      -14.015635   1.000000
    3      -12.719442   1.000000
    4       -5.523728   1.000082
    5        1.063780   0.000000
    6        8.599069   0.000000
    7        9.372403   0.000000
    8        9.827602   0.000000
 
  0.3529412E+00  0.2941176E+00  0.0000000E+00  0.2076125E-01
    1      -20.778447   1.000000
    2      -14.002152   1.000000
    3      -13.028377   1.000000
    4       -5.305618   0.999915
    5        0.875876   0.000000
    6        8.426021   0.000000
    7       10.998037   0.000000
    8       11.319905   0.000000
 
  0.0000000E+00  0.0000000E+00  0.0000000E+00  0.0000000E+00
    1      -24.693936   1.000000
    2      -10.963746   1.000000
    3       -6.839982   1.000000
    4       -6.839555   1.000000
    5        1.084378   0.000000
    6        1.257765   0.000000
    7        2.480589   0.000000
    8        3.974499   0.000000
 
  0.2500000E-01  0.0000000E+00  0.0000000E+00  0.0000000E+00
    1      -24.680860   1.000000
    2      -10.945940   1.000000
    3       -6.892976   1.000000
    4       -6.869441   1.000000
    5        1.105812   0.000000
    6        1.276690   0.000000
    7        2.499921   0.000000
    8        4.012855   0.000000
 
  0.5000000E-01  0.0000000E+00  0.0000000E+00  0.0000000E+00
    1      -24.641716   1.000000
    2      -10.892581   1.000000
    3       -7.061394   1.000000
    4       -6.945024   1.000000
    5        1.160517   0.000000
    6        1.334061   0.000000
    7        2.557237   0.000000
    8        4.071304   0.000000
 
  0.7500000E-01  0.0000000E+00  0.0000000E+00  0.0000000E+00
    1      -24.576662   1.000000
    2      -10.803766   1.000000
    3       -7.332207   1.000000
    4       -7.066134   1.000000
    5        1.264863   0.000000
    6        1.430555   0.000000
    7        2.654109   0.000000
    8        4.716683   0.000000
 
  0.1000000E+00  0.0000000E+00  0.0000000E+00  0.0000000E+00
    1      -24.486027   1.000000
    2      -10.679882   1.000000
    3       -7.691713   1.000000
    4       -7.227388   1.000000
    5        1.341895   0.000000
    6        1.566078   0.000000
    7        2.787817   0.000000
    8        4.540369   0.000000
 
  0.1250000E+00  0.0000000E+00  0.0000000E+00  0.0000000E+00
    1      -24.370270   1.000000
    2      -10.521440   1.000000
    3       -8.125777   1.000000
    4       -7.420338   1.000000
    5        1.567212   0.000000
    6        1.739175   0.000000
    7        2.960784   0.000000
    8        4.596510   0.000000
 
  0.1500000E+00  0.0000000E+00  0.0000000E+00  0.0000000E+00
    1      -24.230013   1.000000
    2      -10.329109   1.000000
    3       -8.619555   1.000000
    4       -7.636321   1.000000
    5        1.798726   0.000000
    6        1.948640   0.000000
    7        3.169393   0.000000
    8        4.908433   0.000000
 
  0.1750000E+00  0.0000000E+00  0.0000000E+00  0.0000000E+00
    1      -24.066121   1.000000
    2      -10.103795   1.000000
    3       -9.158823   1.000000
    4       -7.866982   1.000000
    5        2.039709   0.000000
    6        2.194415   0.000000
    7        3.413188   0.000000
    8        5.333387   0.000000
 
  0.2000000E+00  0.0000000E+00  0.0000000E+00  0.0000000E+00
    1      -23.879746   1.000000
    2       -9.846772   1.000000
    3       -9.730138   1.000000
    4       -8.104774   1.000000
    5        2.365683   0.000000
    6        2.474214   0.000000
    7        3.689464   0.000000
    8        5.591561   0.000000
 
  0.2250000E+00  0.0000000E+00  0.0000000E+00  0.0000000E+00
    1      -23.672352   1.000000
    2      -10.321375   1.000000
    3       -9.559721   1.000000
    4       -8.342831   1.000000
    5        2.725957   0.000000
    6        2.770329   0.000000
    7        3.990250   0.000000
    8        5.688823   0.000000
 
  0.2500000E+00  0.0000000E+00  0.0000000E+00  0.0000000E+00
    1      -23.445885   1.000000
    2      -10.921661   1.000000
    3       -9.244846   1.000000
    4       -8.575418   1.000000
    5        3.109588   0.000000
    6        3.132905   0.000000
    7        4.294539   0.000000
    8        5.665119   0.000000
 
  0.2750000E+00  0.0000000E+00  0.0000000E+00  0.0000000E+00
    1      -23.202863   1.000000
    2      -11.520853   1.000000
    3       -8.905160   1.000000
    4       -8.797546   1.000000
    5        3.419778   0.000000
    6        3.509257   0.000000
    7        4.533402   0.000000
    8        5.561646   0.000000
 
  0.3000000E+00  0.0000000E+00  0.0000000E+00  0.0000000E+00
    1      -22.946660   1.000000
    2      -12.109341   1.000000
    3       -9.005145   1.000000
    4       -8.544783   1.000000
    5        3.580851   0.000000
    6        3.956687   0.000000
    7        4.652291   0.000000
    8        5.670710   0.000000
 
  0.3250000E+00  0.0000000E+00  0.0000000E+00  0.0000000E+00
    1      -22.681780   1.000000
    2      -12.677528   1.000000
    3       -9.194902   1.000000
    4       -8.169332   1.000000
    5        3.393598   0.000000
    6        4.434208   0.000000
    7        4.896132   0.000000
    8        6.020245   0.000000
 
  0.3500000E+00  0.0000000E+00  0.0000000E+00  0.0000000E+00
    1      -22.414241   1.000000
    2      -13.215224   1.000000
    3       -9.364125   1.000000
    4       -7.786614   1.000000
    5        2.968923   0.000000
    6        4.928432   0.000000
    7        5.320031   0.000000
    8        6.488509   0.000000
 
  0.3750000E+00  0.0000000E+00  0.0000000E+00  0.0000000E+00
    1      -22.152003   1.000000
    2      -13.711060   1.000000
    3       -9.510565   1.000000
    4       -7.407367   1.000000
    5        2.474449   0.000000
    6        5.476460   0.000000
    7        5.837888   0.000000
    8        7.023126   0.000000
 
  0.4000000E+00  0.0000000E+00  0.0000000E+00  0.0000000E+00
    1      -21.905593   1.000000
    2      -14.151912   1.000000
    3       -9.632511   1.000000
    4       -7.046364   1.000000
    5        1.987172   0.000000
    6        6.118685   0.000000
    7        6.414493   0.000000
    8        7.606435   0.000000
 
  0.4250000E+00  0.0000000E+00  0.0000000E+00  0.0000000E+00
    1      -21.688282   1.000000
    2      -14.522439   1.000000
    3       -9.728652   1.000000
    4       -6.723292   1.000000
    5        1.551699   0.000000
    6        6.743804   0.000000
    7        7.036509   0.000000
    8        8.230858   0.000000
 
  0.4500000E+00  0.0000000E+00  0.0000000E+00  0.0000000E+00
    1      -21.515625   1.000000
    2      -14.805545   1.000000
    3       -9.798008   1.000000
    4       -6.462635   1.000000
    5        1.204673   0.000000
    6        7.372581   0.000000
    7        7.693046   0.000000
    8        8.890724   0.000000
 
  0.4750000E+00  0.0000000E+00  0.0000000E+00  0.0000000E+00
    1      -21.403625   1.000000
    2      -14.984285   1.000000
    3       -9.839924   1.000000
    4       -6.291289   1.000000
    5        0.979224   0.000000
    6        8.066988   0.000000
    7        8.377483   0.000000
    8        9.557969   0.000000
 
  0.5000000E+00  0.0000000E+00  0.0000000E+00  0.0000000E+00
    1      -21.364659   1.000000
    2      -15.045536   1.000000
    3       -9.853917   1.000000
    4       -6.231216   1.000000
    5        0.900831   0.000000
    6        8.929582   0.000000
    7        8.740478   0.000000
    8        9.602983   0.000000
 
  0.5000000E+00  0.0000000E+00  0.0000000E+00  0.0000000E+00
    1      -21.364659   1.000000
    2      -15.045536   1.000000
    3       -9.853917   1.000000
    4       -6.231216   1.000000
    5        0.900831   0.000000
    6        8.929582   0.000000
    7        8.740478   0.000000
    8        9.602983   0.000000
 
  0.4916667E+00  0.1666667E-01  0.0000000E+00  0.0000000E+00
    1      -21.361800   1.000000
    2      -15.041889   1.000000
    3       -9.871804   1.000000
    4       -6.226866   1.000000
    5        0.902145   0.000000
    6        8.934009   0.000000
    7        8.774276   0.000000
    8        9.616259   0.000000
 
  0.4833333E+00  0.3333333E-01  0.0000000E+00  0.0000000E+00
    1      -21.353236   1.000000
    2      -15.030961   1.000000
    3       -9.925040   1.000000
    4       -6.213833   1.000000
    5        0.906039   0.000000
    6        8.943993   0.000000
    7        8.764873   0.000000
    8        9.692846   0.000000
 
  0.4750000E+00  0.5000000E-01  0.0000000E+00  0.0000000E+00
    1      -21.339057   1.000000
    2      -15.012758   1.000000
    3      -10.012179   1.000000
    4       -6.192242   1.000000
    5        0.912287   0.000000
    6        8.964187   0.000000
    7        8.811404   0.000000
    8        9.723036   0.000000
 
  0.4666667E+00  0.6666667E-01  0.0000000E+00  0.0000000E+00
    1      -21.319439   1.000000
    2      -14.987308   1.000000
    3      -10.131077   1.000000
    4       -6.162308   1.000000
    5        0.920517   0.000000
    6        8.989635   0.000000
    7        8.922408   0.000000
    8        9.764698   0.000000
 
  0.4583333E+00  0.8333333E-01  0.0000000E+00  0.0000000E+00
    1      -21.294573   1.000000
    2      -14.954626   1.000000
    3      -10.278706   1.000000
    4       -6.124298   1.000000
    5        0.930230   0.000000
    6        9.015261   0.000000
    7        8.894619   0.000000
    8        9.811880   0.000000
 
  0.4500000E+00  0.1000000E+00  0.0000000E+00  0.0000000E+00
    1      -21.264792   1.000000
    2      -14.914771   1.000000
    3      -10.451804   1.000000
    4       -6.078625   1.000000
    5        0.940771   0.000000
    6        9.044442   0.000000
    7        9.166984   0.000000
    8        9.865406   0.000000
 
  0.4416667E+00  0.1166667E+00  0.0000000E+00  0.0000000E+00
    1      -21.230457   1.000000
    2      -14.867795   1.000000
    3      -10.646612   1.000000
    4       -6.025766   1.000000
    5        0.951381   0.000000
    6        9.070604   0.000000
    7        9.258286   0.000000
    8        9.925489   0.000000
 
  0.4333333E+00  0.1333333E+00  0.0000000E+00  0.0000000E+00
    1      -21.192044   1.000000
    2      -14.813772   1.000000
    3      -10.859237   1.000000
    4       -5.966392   1.000000
    5        0.961154   0.000000
    6        9.085972   0.000000
    7        9.361044   0.000000
    8        9.992813   0.000000
 
  0.4250000E+00  0.1500000E+00  0.0000000E+00  0.0000000E+00
    1      -21.150129   1.000000
    2      -14.752818   1.000000
    3      -11.085817   1.000000
    4       -5.901260   1.000000
    5        0.969113   0.000000
    6        9.084236   0.000000
    7        9.475739   0.000000
    8       10.068802   0.000000
 
  0.4166667E+00  0.1666667E+00  0.0000000E+00  0.0000000E+00
    1      -21.105364   1.000000
    2      -14.685071   1.000000
    3      -11.322367   1.000000
    4       -5.831302   1.000000
    5        0.974297   0.000000
    6        9.059343   0.000000
    7        9.688744   0.000000
    8       10.155634   0.000000
 
  0.4083333E+00  0.1833333E+00  0.0000000E+00  0.0000000E+00
    1      -21.058545   1.000000
    2      -14.610738   1.000000
    3      -11.564974   1.000000
    4       -5.757671   1.000000
    5        0.975786   0.000000
    6        9.008000   0.000000
    7        9.826127   0.000000
    8       10.221791   0.000000
 
  0.4000000E+00  0.2000000E+00  0.0000000E+00  0.0000000E+00
    1      -21.010597   1.000000
    2      -14.530089   1.000000
    3      -11.809799   1.000000
    4       -5.681762   1.000000
    5        0.972746   0.000000
    6        8.931928   0.000000
    7        9.975049   0.000000
    8       10.338502   0.000000
 
  0.3916667E+00  0.2166667E+00  0.0000000E+00  0.0000000E+00
    1      -20.962585   1.000000
    2      -14.443559   1.000000
    3      -12.052963   1.000000
    4       -5.605207   1.000000
    5        0.964662   0.000000
    6        8.837651   0.000000
    7       10.135206   0.000000
    8       10.502031   0.000000
 
  0.3833333E+00  0.2333333E+00  0.0000000E+00  0.0000000E+00
    1      -20.915746   1.000000
    2      -14.351805   1.000000
    3      -12.290470   1.000000
    4       -5.529961   1.000062
    5        0.951443   0.000000
    6        8.734589   0.000000
    7       10.306230   0.000000
    8       10.650025   0.000000
 
  0.3750000E+00  0.2500000E+00  0.0000000E+00  0.0000000E+00
    1      -20.871445   1.000000
    2      -14.255899   1.000000
    3      -12.517950   1.000000
    4       -5.458219   1.002120
    5        0.933613   0.000000
    6        8.632657   0.000000
    7       10.491316   0.000000
    8       10.810020   0.000000
 
  0.3666667E+00  0.2666667E+00  0.0000000E+00  0.0000000E+00
    1      -20.831246   1.000000
    2      -14.157749   1.000000
    3      -12.730398   1.000000
    4       -5.392602   1.018233
    5        0.912377   0.000000
    6        8.540419   0.000000
    7       10.607821   0.000000
    8       10.993423   0.000000
 
  0.3583333E+00  0.2833333E+00  0.0000000E+00  0.0000000E+00
    1      -20.796810   1.000000
    2      -14.060942   1.000000
    3      -12.921102   1.000000
    4       -5.335984   1.034338
    5        0.889828   0.000000
    6        8.464428   0.000000
    7       10.836598   0.000000
    8       11.182649   0.000000
 
  0.3500000E+00  0.3000000E+00  0.0000000E+00  0.0000000E+00
    1      -20.769942   1.000000
    2      -13.972658   1.000000
    3      -13.079904   1.000000
    4       -5.291150   0.958977
    5        0.868885   0.000000
    6        8.408964   0.000000
    7       11.091097   0.000000
    8       11.396431   0.000000
 
  0.3416667E+00  0.3166667E+00  0.0000000E+00  0.0000000E+00
    1      -20.752520   1.000000
    2      -13.906778   1.000000
    3      -13.190052   1.000000
    4       -5.262524   0.817271
    5        0.853190   0.000000
    6        8.376045   0.000000
    7       11.455977   0.000000
    8       11.672836   0.000000
 
  0.3333333E+00  0.3333333E+00  0.0000000E+00  0.0000000E+00
    1      -20.746311   1.000000
    2      -13.882213   1.000000
    3      -13.229913   1.000000
    4       -5.252183   0.745500
    5        0.846993   0.000000
    6        8.365508   0.000000
    7       11.721332   0.000000
    8       12.008123   0.000000
 
  0.3333333E+00  0.3333333E+00  0.0000000E+00  0.0000000E+00
    1      -20.746311   1.000000
    2      -13.882213   1.000000
    3      -13.229913   1.000000
    4       -5.252183   0.745500
    5        0.846993   0.000000
    6        8.365508   0.000000
    7       11.721332   0.000000
    8       12.008123   0.000000
 
  0.3166667E+00  0.3166667E+00  0.0000000E+00  0.0000000E+00
    1      -20.774225   1.000000
    2      -13.945752   1.000000
    3      -13.100874   1.000000
    4       -5.298728   0.981905
    5        0.880247   0.000000
    6        8.398118   0.000000
    7       10.463168   0.000000
    8       11.006500   0.000000
 
  0.3000000E+00  0.3000000E+00  0.0000000E+00  0.0000000E+00
    1      -20.863852   1.000000
    2      -14.011632   1.000000
    3      -12.830247   1.000000
    4       -5.446711   1.003422
    5        0.998357   0.000000
    6        8.440030   0.000000
    7        9.427112   0.000000
    8       10.179430   0.000000
 
  0.2833333E+00  0.2833333E+00  0.0000000E+00  0.0000000E+00
    1      -21.018251   1.000000
    2      -13.989713   1.000000
    3      -12.502953   1.000000
    4       -5.696536   1.000000
    5        1.216961   0.000000
    6        8.308486   0.000000
    7        8.678312   0.000000
    8        9.516877   0.000000
 
  0.2666667E+00  0.2666667E+00  0.0000000E+00  0.0000000E+00
    1      -21.232359   1.000000
    2      -13.861560   1.000000
    3      -12.141916   1.000000
    4       -6.034054   1.000000
    5        1.534562   0.000000
    6        7.823841   0.000000
    7        7.904763   0.000000
    8        8.971395   0.000000
 
  0.2500000E+00  0.2500000E+00  0.0000000E+00  0.0000000E+00
    1      -21.494728   1.000000
    2      -13.631017   1.000000
    3      -11.755655   1.000000
    4       -6.436689   1.000000
    5        1.936564   0.000000
    6        6.980171   0.000000
    7        7.161029   0.000000
    8        8.339699   0.000000
 
  0.2333333E+00  0.2333333E+00  0.0000000E+00  0.0000000E+00
    1      -21.790931   1.000000
    2      -13.309682   1.000000
    3      -11.349237   1.000000
    4       -6.880392   1.000000
    5        2.400225   0.000000
    6        6.218160   0.000000
    7        6.478596   0.000000
    8        7.660179   0.000000
 
  0.2166667E+00  0.2166667E+00  0.0000000E+00  0.0000000E+00
    1      -22.106700   1.000000
    2      -12.911332   1.000000
    3      -10.927060   1.000000
    4       -7.344005   1.000000
    5        2.894076   0.000000
    6        5.550154   0.000000
    7        5.833542   0.000000
    8        7.007973   0.000000
 
  0.2000000E+00  0.2000000E+00  0.0000000E+00  0.0000000E+00
    1      -22.429624   1.000000
    2      -12.449446   1.000000
    3      -10.493712   1.000000
    4       -7.810495   1.000000
    5        3.363269   0.000000
    6        4.881146   0.000000
    7        5.264455   0.000000
    8        6.414572   0.000000
 
  0.1833333E+00  0.1833333E+00  0.0000000E+00  0.0000000E+00
    1      -22.749409   1.000000
    2      -11.936302   1.000000
    3      -10.054188   1.000000
    4       -8.266674   1.000000
    5        3.673529   0.000000
    6        4.299918   0.000000
    7        4.852406   0.000000
    8        5.919562   0.000000
 
  0.1666667E+00  0.1666667E+00  0.0000000E+00  0.0000000E+00
    1      -23.058059   1.000000
    2      -11.383379   1.000000
    3       -9.614239   1.000000
    4       -8.702544   1.000000
    5        3.594105   0.000000
    6        3.755559   0.000000
    7        4.669788   0.000000
    8        5.645775   0.000000
 
  0.1500000E+00  0.1500000E+00  0.0000000E+00  0.0000000E+00
    1      -23.349460   1.000000
    2      -10.801792   1.000000
    3       -9.180419   1.000000
    4       -9.110765   1.000000
    5        3.248781   0.000000
    6        3.295550   0.000000
    7        4.422300   0.000000
    8        5.686264   0.000000
 
  0.1333333E+00  0.1333333E+00  0.0000000E+00  0.0000000E+00
    1      -23.618901   1.000000
    2      -10.202949   1.000000
    3       -9.485788   1.000000
    4       -8.759978   1.000000
    5        2.715232   0.000000
    6        2.858744   0.000000
    7        4.068611   0.000000
    8        5.731597   0.000000
 
  0.1166667E+00  0.1166667E+00  0.0000000E+00  0.0000000E+00
    1      -23.862796   1.000000
    2       -9.823499   1.000000
    3       -9.599466   1.000000
    4       -8.360892   1.000000
    5        2.378147   0.000000
    6        2.499210   0.000000
    7        3.715184   0.000000
    8        5.618661   0.000000
 
  0.1000000E+00  0.1000000E+00  0.0000000E+00  0.0000000E+00
    1      -24.078478   1.000000
    2      -10.120859   1.000000
    3       -9.006091   1.000000
    4       -7.991725   1.000000
    5        2.031123   0.000000
    6        2.175246   0.000000
    7        3.395265   0.000000
    8        5.350528   0.000000
 
  0.8333333E-01  0.8333333E-01  0.0000000E+00  0.0000000E+00
    1      -24.263819   1.000000
    2      -10.375537   1.000000
    3       -8.440174   1.000000
    4       -7.660922   1.000000
    5        1.721439   0.000000
    6        1.897617   0.000000
    7        3.119318   0.000000
    8        4.853556   0.000000
 