<?xml version="1.0" encoding="ISO-8859-1"?>
<modeling>
 <generator>
  <i name="program" type="string">vasp </i>
  <i name="version" type="string">5.4.1  </i>
  <i name="subversion" type="string">24Jun15 (build May 10 2016 14:18:23) complex                          parallel </i>
  <i name="platform" type="string">IFC91_ompi </i>
  <i name="date" type="string">2016 12 09 </i>
  <i name="time" type="string">14:58:04 </i>
 </generator>
 <incar>
  <i type="string" name="PREC">accurate</i>
  <i type="string" name="ALGO"> Fast</i>
  <i type="int" name="ISPIN">     2</i>
  <i type="int" name="IBRION">     2</i>
  <i name="EDIFF">      0.00010000</i>
  <i type="int" name="NSW">     0</i>
  <i type="int" name="ISIF">     3</i>
  <i name="ENCUT">    500.00000000</i>
  <v name="MAGMOM">      6.00000000      0.50000000      0.50000000      6.00000000      0.50000000      0.50000000</v>
  <i type="string" name="LREAL"> Auto</i>
  <i type="int" name="ISMEAR">     1</i>
  <i name="SIGMA">      0.10000000</i>
  <i type="logical" name="LWAVE"> F  </i>
  <i type="logical" name="LCHARG"> F  </i>
  <i type="logical" name="LVTOT"> T  </i>
  <i type="logical" name="LVHAR"> T  </i>
  <i type="logical" name="LAECHG"> F  </i>
  <v type="int" name="KPOINT_BSE">    -1     0     0     0</v>
  <i type="string" name="GGA"> Bo</i>
  <i name="PARAM1">      0.18333333</i>
  <i name="PARAM2">      0.22000000</i>
  <i type="logical" name="LUSE_VDW"> T  </i>
  <i name="AGGAC">      0.00000000</i>
 </incar>
 <kpoints>
  <generation param="Gamma">
   <v type="int" name="divisions">      13       13        1 </v>
   <v name="usershift">      0.00000000       0.00000000       0.00000000 </v>
   <v name="genvec1">      0.07692308       0.00000000       0.00000000 </v>
   <v name="genvec2">      0.00000000       0.07692308       0.00000000 </v>
   <v name="genvec3">      0.00000000       0.00000000       1.00000000 </v>
   <v name="shift">      0.00000000       0.00000000       0.00000000 </v>
  </generation>
  <varray name="kpointlist" >
   <v>       0.00000000       0.00000000       0.00000000 </v>
   <v>       0.07692308      -0.00000000       0.00000000 </v>
   <v>       0.15384615       0.00000000       0.00000000 </v>
   <v>       0.23076923       0.00000000       0.00000000 </v>
   <v>       0.30769231      -0.00000000       0.00000000 </v>
   <v>       0.38461538       0.00000000       0.00000000 </v>
   <v>       0.46153846       0.00000000       0.00000000 </v>
   <v>       0.00000000       0.07692308       0.00000000 </v>
   <v>       0.07692308       0.07692308       0.00000000 </v>
   <v>       0.15384615       0.07692308       0.00000000 </v>
   <v>       0.23076923       0.07692308       0.00000000 </v>
   <v>       0.30769231       0.07692308       0.00000000 </v>
   <v>       0.38461538       0.07692308       0.00000000 </v>
   <v>       0.46153846       0.07692308       0.00000000 </v>
   <v>       0.00000000       0.15384615       0.00000000 </v>
   <v>       0.07692308       0.15384615       0.00000000 </v>
   <v>       0.15384615       0.15384615       0.00000000 </v>
   <v>       0.23076923       0.15384615       0.00000000 </v>
   <v>       0.30769231       0.15384615       0.00000000 </v>
   <v>       0.38461538       0.15384615       0.00000000 </v>
   <v>      -0.07692308       0.15384615       0.00000000 </v>
   <v>       0.00000000       0.23076923       0.00000000 </v>
   <v>       0.07692308       0.23076923       0.00000000 </v>
   <v>       0.15384615       0.23076923       0.00000000 </v>
   <v>       0.23076923       0.23076923       0.00000000 </v>
   <v>       0.30769231       0.23076923       0.00000000 </v>
   <v>       0.38461538       0.23076923       0.00000000 </v>
   <v>      -0.15384615       0.23076923       0.00000000 </v>
   <v>       0.00000000       0.30769231       0.00000000 </v>
   <v>       0.07692308       0.30769231       0.00000000 </v>
   <v>       0.15384615       0.30769231       0.00000000 </v>
   <v>       0.23076923       0.30769231       0.00000000 </v>
   <v>       0.30769231       0.30769231       0.00000000 </v>
   <v>      -0.23076923       0.30769231       0.00000000 </v>
   <v>      -0.15384615       0.30769231       0.00000000 </v>
   <v>       0.00000000       0.38461538       0.00000000 </v>
   <v>       0.07692308       0.38461538       0.00000000 </v>
   <v>       0.15384615       0.38461538       0.00000000 </v>
   <v>       0.23076923       0.38461538       0.00000000 </v>
   <v>       0.30769231       0.38461538       0.00000000 </v>
   <v>      -0.30769231       0.38461538       0.00000000 </v>
   <v>      -0.23076923       0.38461538       0.00000000 </v>
   <v>       0.00000000       0.46153846       0.00000000 </v>
   <v>       0.07692308       0.46153846       0.00000000 </v>
   <v>       0.15384615       0.46153846       0.00000000 </v>
   <v>       0.23076923       0.46153846       0.00000000 </v>
   <v>      -0.38461538       0.46153846       0.00000000 </v>
   <v>      -0.30769231       0.46153846       0.00000000 </v>
   <v>      -0.23076923       0.46153846       0.00000000 </v>
  </varray>
  <varray name="weights" >
   <v>       0.00591716 </v>
   <v>       0.01183432 </v>
   <v>       0.01183432 </v>
   <v>       0.01183432 </v>
   <v>       0.01183432 </v>
   <v>       0.01183432 </v>
   <v>       0.01183432 </v>
   <v>       0.02366864 </v>
   <v>       0.02366864 </v>
   <v>       0.02366864 </v>
   <v>       0.02366864 </v>
   <v>       0.02366864 </v>
   <v>       0.02366864 </v>
   <v>       0.01183432 </v>
   <v>       0.02366864 </v>
   <v>       0.02366864 </v>
   <v>       0.02366864 </v>
   <v>       0.02366864 </v>
   <v>       0.02366864 </v>
   <v>       0.02366864 </v>
   <v>       0.01183432 </v>
   <v>       0.02366864 </v>
   <v>       0.02366864 </v>
   <v>       0.02366864 </v>
   <v>       0.02366864 </v>
   <v>       0.02366864 </v>
   <v>       0.01183432 </v>
   <v>       0.02366864 </v>
   <v>       0.02366864 </v>
   <v>       0.02366864 </v>
   <v>       0.02366864 </v>
   <v>       0.02366864 </v>
   <v>       0.02366864 </v>
   <v>       0.02366864 </v>
   <v>       0.01183432 </v>
   <v>       0.02366864 </v>
   <v>       0.02366864 </v>
   <v>       0.02366864 </v>
   <v>       0.02366864 </v>
   <v>       0.01183432 </v>
   <v>       0.02366864 </v>
   <v>       0.02366864 </v>
   <v>       0.02366864 </v>
   <v>       0.02366864 </v>
   <v>       0.02366864 </v>
   <v>       0.02366864 </v>
   <v>       0.02366864 </v>
   <v>       0.02366864 </v>
   <v>       0.01183432 </v>
  </varray>
 </kpoints>
 <parameters>
  <separator name="general" >
   <i type="string" name="SYSTEM">unknown system</i>
   <i type="logical" name="LCOMPAT"> F  </i>
  </separator>
  <separator name="electronic" >
   <i type="string" name="PREC">accura</i>
   <i name="ENMAX">    500.00000000</i>
   <i name="ENAUG">    392.42700000</i>
   <i name="EDIFF">      0.00010000</i>
   <i type="int" name="IALGO">    68</i>
   <i type="int" name="IWAVPR">    10</i>
   <i type="int" name="NBANDS">    36</i>
   <i name="NELECT">     48.00000000</i>
   <i type="int" name="TURBO">     0</i>
   <i type="int" name="IRESTART">     0</i>
   <i type="int" name="NREBOOT">     0</i>
   <i type="int" name="NMIN">     0</i>
   <i name="EREF">      0.00000000</i>
   <separator name="electronic smearing" >
    <i type="int" name="ISMEAR">     1</i>
    <i name="SIGMA">      0.10000000</i>
    <i name="KSPACING">      0.50000000</i>
    <i type="logical" name="KGAMMA"> T  </i>
   </separator>
   <separator name="electronic projectors" >
    <i type="logical" name="LREAL"> T  </i>
    <v name="ROPT">     -0.00025000     -0.00025000     -0.00025000     -0.00025000</v>
    <i type="int" name="LMAXPAW">  -100</i>
    <i type="int" name="LMAXMIX">     2</i>
    <i type="logical" name="NLSPLINE"> F  </i>
   </separator>
   <separator name="electronic startup" >
    <i type="int" name="ISTART">     0</i>
    <i type="int" name="ICHARG">     2</i>
    <i type="int" name="INIWAV">     1</i>
   </separator>
   <separator name="electronic spin" >
    <i type="int" name="ISPIN">     2</i>
    <i type="logical" name="LNONCOLLINEAR"> F  </i>
    <v name="MAGMOM">      6.00000000      0.50000000      0.50000000      6.00000000      0.50000000      0.50000000</v>
    <i name="NUPDOWN">     -1.00000000</i>
    <i type="logical" name="LSORBIT"> F  </i>
    <v name="SAXIS">      0.00000000      0.00000000      1.00000000</v>
    <i type="logical" name="LSPIRAL"> F  </i>
    <v name="QSPIRAL">      0.00000000      0.00000000      0.00000000</v>
    <i type="logical" name="LZEROZ"> F  </i>
   </separator>
   <separator name="electronic exchange-correlation" >
    <i type="logical" name="LASPH"> F  </i>
    <i type="logical" name="LMETAGGA"> F  </i>
   </separator>
   <separator name="electronic convergence" >
    <i type="int" name="NELM">    60</i>
    <i type="int" name="NELMDL">     0</i>
    <i type="int" name="NELMIN">     2</i>
    <i name="ENINI">    500.00000000</i>
    <separator name="electronic convergence detail" >
     <i type="logical" name="LDIAG"> T  </i>
     <i type="logical" name="LSUBROT"> F  </i>
     <i name="WEIMIN">      0.00000000</i>
     <i name="EBREAK">      0.00000069</i>
     <i name="DEPER">      0.30000000</i>
     <i type="int" name="NRMM">     4</i>
     <i name="TIME">      0.40000000</i>
    </separator>
   </separator>
   <separator name="electronic mixer" >
    <i name="AMIX">      0.40000000</i>
    <i name="BMIX">      1.00000000</i>
    <i name="AMIN">      0.10000000</i>
    <i name="AMIX_MAG">      1.60000000</i>
    <i name="BMIX_MAG">      1.00000000</i>
    <separator name="electronic mixer details" >
     <i type="int" name="IMIX">     4</i>
     <i type="logical" name="MIXFIRST"> F  </i>
     <i type="int" name="MAXMIX">   -45</i>
     <i name="WC">    100.00000000</i>
     <i type="int" name="INIMIX">     1</i>
     <i type="int" name="MIXPRE">     1</i>
     <i type="int" name="MREMOVE">     5</i>
    </separator>
   </separator>
   <separator name="electronic dipolcorrection" >
    <i type="logical" name="LDIPOL"> F  </i>
    <i type="logical" name="LMONO"> F  </i>
    <i type="int" name="IDIPOL">     0</i>
    <i name="EPSILON">      1.00000000</i>
    <v name="DIPOL">   -100.00000000   -100.00000000   -100.00000000</v>
    <i name="EFIELD">      0.00000000</i>
   </separator>
  </separator>
  <separator name="grids" >
   <i type="int" name="NGX">    24</i>
   <i type="int" name="NGY">    24</i>
   <i type="int" name="NGZ">   180</i>
   <i type="int" name="NGXF">    48</i>
   <i type="int" name="NGYF">    48</i>
   <i type="int" name="NGZF">   360</i>
   <i type="logical" name="ADDGRID"> F  </i>
  </separator>
  <separator name="ionic" >
   <i type="int" name="NSW">     0</i>
   <i type="int" name="IBRION">    -1</i>
   <i type="int" name="ISIF">     3</i>
   <i name="PSTRESS">      0.00000000</i>
   <i name="EDIFFG">      0.00100000</i>
   <i type="int" name="NFREE">     1</i>
   <i name="POTIM">      0.50000000</i>
   <i name="SMASS">     -3.00000000</i>
   <i name="SCALEE">      1.00000000</i>
  </separator>
  <separator name="ionic md" >
   <i name="TEBEG">      0.00010000</i>
   <i name="TEEND">      0.00010000</i>
   <i type="int" name="NBLOCK">     1</i>
   <i type="int" name="KBLOCK">     1</i>
   <i type="int" name="NPACO">   256</i>
   <i name="APACO">     16.00000000</i>
  </separator>
  <separator name="symmetry" >
   <i type="int" name="ISYM">     2</i>
   <i name="SYMPREC">      0.00001000</i>
  </separator>
  <separator name="dos" >
   <i type="logical" name="LORBIT"> F  </i>
   <v name="RWIGS">     -1.00000000     -1.00000000     -1.00000000     -1.00000000</v>
   <i type="int" name="NEDOS">   301</i>
   <i name="EMIN">     10.00000000</i>
   <i name="EMAX">    -10.00000000</i>
   <i name="EFERMI">      0.00000000</i>
  </separator>
  <separator name="writing" >
   <i type="int" name="NWRITE">     2</i>
   <i type="logical" name="LWAVE"> F  </i>
   <i type="logical" name="LCHARG"> F  </i>
   <i type="logical" name="LPARD"> F  </i>
   <i type="logical" name="LVTOT"> F  </i>
   <i type="logical" name="LVHAR"> T  </i>
   <i type="logical" name="LELF"> F  </i>
   <i type="logical" name="LOPTICS"> F  </i>
   <v name="STM">      0.00000000      0.00000000      0.00000000      0.00000000      0.00000000      0.00000000      0.00000000</v>
  </separator>
  <separator name="performance" >
   <i type="int" name="NPAR">     4</i>
   <i type="int" name="NSIM">     4</i>
   <i type="int" name="NBLK">    -1</i>
   <i type="logical" name="LPLANE"> T  </i>
   <i type="logical" name="LSCALAPACK"> T  </i>
   <i type="logical" name="LSCAAWARE"> F  </i>
   <i type="logical" name="LSCALU"> F  </i>
   <i type="logical" name="LASYNC"> F  </i>
   <i type="logical" name="LORBITALREAL"> F  </i>
  </separator>
  <separator name="miscellaneous" >
   <i type="int" name="IDIOT">     3</i>
   <i type="logical" name="LMUSIC"> F  </i>
   <v name="POMASS">     95.94000000     32.06600000     95.94000000     32.06600000</v>
   <v name="DARWINR">      0.00000000      0.00000000      0.00000000      0.00000000</v>
   <v name="DARWINV">      1.00000000      1.00000000      1.00000000      1.00000000</v>
   <i type="logical" name="LCORR"> T  </i>
  </separator>
  <i type="logical" name="GGA_COMPAT"> T  </i>
  <i type="logical" name="LBERRY"> F  </i>
  <i type="int" name="ICORELEVEL">     0</i>
  <i type="logical" name="LDAU"> F  </i>
  <i type="int" name="I_CONSTRAINED_M">     0</i>
  <separator name="electronic exchange-correlation" >
   <i type="string" name="GGA">BO</i>
   <i type="int" name="VOSKOWN">     0</i>
   <i type="logical" name="LHFCALC"> F  </i>
   <i type="string" name="PRECFOCK"></i>
   <i type="logical" name="LSYMGRAD"> F  </i>
   <i type="logical" name="LHFONE"> F  </i>
   <i type="logical" name="LRHFCALC"> F  </i>
   <i type="logical" name="LTHOMAS"> F  </i>
   <i type="logical" name="LMODELHF"> F  </i>
   <i name="ENCUT4O">     -1.00000000</i>
   <i type="int" name="EXXOEP">     0</i>
   <i type="int" name="FOURORBIT">     0</i>
   <i name="AEXX">      0.00000000</i>
   <i name="HFALPHA">      0.00000000</i>
   <i name="MCALPHA">      0.00000000</i>
   <i name="ALDAX">      1.00000000</i>
   <i name="AGGAX">      1.00000000</i>
   <i name="ALDAC">      1.00000000</i>
   <i name="AGGAC">      0.00000000</i>
   <i type="int" name="NKREDX">     1</i>
   <i type="int" name="NKREDY">     1</i>
   <i type="int" name="NKREDZ">     1</i>
   <i type="logical" name="SHIFTRED"> F  </i>
   <i type="logical" name="ODDONLY"> F  </i>
   <i type="logical" name="EVENONLY"> F  </i>
   <i type="int" name="LMAXFOCK">     0</i>
   <i type="int" name="NMAXFOCKAE">     0</i>
   <i type="logical" name="LFOCKAEDFT"> F  </i>
   <i name="HFSCREEN">      0.00000000</i>
   <i name="HFSCREENC">      0.00000000</i>
   <i type="int" name="NBANDSGWLOW">     0</i>
  </separator>
  <separator name="vdW DFT" >
   <i type="logical" name="LUSE_VDW"> T  </i>
   <i name="Zab_VDW">     -0.84910000</i>
   <i name="PARAM1">      0.18333333</i>
   <i name="PARAM2">      0.22000000</i>
   <i name="PARAM3">      0.00000000</i>
  </separator>
  <separator name="model GW" >
   <i type="int" name="MODEL_GW">     0</i>
   <i name="MODEL_EPS0">     20.39722663</i>
   <i name="MODEL_ALPHA">      1.00000000</i>
  </separator>
  <separator name="linear response parameters" >
   <i type="logical" name="LEPSILON"> F  </i>
   <i type="logical" name="LRPA"> F  </i>
   <i type="logical" name="LNABLA"> F  </i>
   <i type="logical" name="LVEL"> F  </i>
   <i type="int" name="KINTER">     0</i>
   <i name="CSHIFT">      0.10000000</i>
   <i name="OMEGAMAX">     -1.00000000</i>
   <i name="DEG_THRESHOLD">      0.00200000</i>
  </separator>
  <separator name="orbital magnetization" >
   <i type="logical" name="NUCIND"> F  </i>
   <v name="MAGPOS">      0.00000000      0.00000000      0.00000000</v>
   <i type="logical" name="LNICSALL"> T  </i>
   <i type="logical" name="ORBITALMAG"> F  </i>
   <i type="logical" name="LMAGBLOCH"> F  </i>
   <i type="logical" name="LCHIMAG"> F  </i>
   <i type="logical" name="LGAUGE"> T  </i>
   <i type="int" name="MAGATOM">     0</i>
   <v name="MAGDIPOL">      0.00000000      0.00000000      0.00000000</v>
   <v name="AVECCONST">      0.00000000      0.00000000      0.00000000</v>
  </separator>
  <separator name="response functions" >
   <i type="logical" name="LADDER"> F  </i>
   <i type="logical" name="LFXC"> F  </i>
   <i type="logical" name="LHARTREE"> T  </i>
   <i type="int" name="IBSE">     0</i>
   <v type="int" name="KPOINT">    -1     0     0     0</v>
   <i type="logical" name="LTCTE"> F  </i>
   <i type="logical" name="LTETE"> F  </i>
   <i type="logical" name="LTRIPLET"> F  </i>
   <i type="logical" name="LFXCEPS"> F  </i>
   <i type="logical" name="LFXHEG"> F  </i>
   <i type="int" name="NATURALO">     0</i>
   <i type="logical" name="L2ORDER"> F  </i>
   <i type="logical" name="LUSEW"> F  </i>
   <i name="ENCUTGW">     -2.00000000</i>
   <i name="ENCUTGWSOFT">     -2.00000000</i>
   <i name="ENCUTLF">     -1.00000000</i>
   <i type="int" name="LMAXMP2">    -1</i>
   <i name="SCISSOR">      0.00000000</i>
   <i type="int" name="NOMEGA">     0</i>
   <i type="int" name="NOMEGAR">     0</i>
   <i type="int" name="NBANDSGW">    -1</i>
   <i type="int" name="NBANDSO">    -1</i>
   <i type="int" name="NBANDSV">    -1</i>
   <i type="int" name="NELM">     1</i>
   <i type="int" name="NELMHF">     1</i>
   <i type="int" name="DIM">     3</i>
   <i type="int" name="ANTIRES">     0</i>
   <i name="OMEGAMAX">    -30.00000000</i>
   <i name="OMEGAMIN">    -30.00000000</i>
   <i name="OMEGATL">   -200.00000000</i>
   <i type="int" name="OMEGAGRID">     0</i>
   <i name="CSHIFT">     -0.10000000</i>
   <i type="logical" name="SELFENERGY"> F  </i>
   <i type="logical" name="LSPECTRAL"> F  </i>
   <i type="logical" name="LSPECTRALGW"> F  </i>
   <i type="logical" name="LSINGLES"> F  </i>
   <i type="logical" name="LFERMIGW"> F  </i>
   <i type="logical" name="ODDONLYGW"> F  </i>
   <i type="logical" name="EVENONLYGW"> F  </i>
   <i type="int" name="NKREDLFX">     1</i>
   <i type="int" name="NKREDLFY">     1</i>
   <i type="int" name="NKREDLFZ">     1</i>
   <i type="int" name="MAXMEM">  1800</i>
   <i type="int" name="TELESCOPE">     0</i>
   <i type="int" name="TAUPAR">     1</i>
   <i type="int" name="OMEGAPAR">    -1</i>
   <i name="LAMBDA">      1.00000000</i>
  </separator>
  <separator name="External order field" >
   <i name="OFIELD_KAPPA">      0.00000000</i>
   <v name="OFIELD_K">      0.00000000      0.00000000      0.00000000</v>
   <i name="OFIELD_Q6_NEAR">      0.00000000</i>
   <i name="OFIELD_Q6_FAR">      0.00000000</i>
   <i name="OFIELD_A">      0.00000000</i>
  </separator>
 </parameters>
 <atominfo>
  <atoms>       6 </atoms>
  <types>       4 </types>
  <array name="atoms" >
   <dimension dim="1">ion</dimension>
   <field type="string">element</field>
   <field type="int">atomtype</field>
   <set>
    <rc><c>Mo</c><c>   1</c></rc>
    <rc><c>S </c><c>   2</c></rc>
    <rc><c>S </c><c>   2</c></rc>
    <rc><c>Mo</c><c>   3</c></rc>
    <rc><c>S </c><c>   4</c></rc>
    <rc><c>S </c><c>   4</c></rc>
   </set>
  </array>
  <array name="atomtypes" >
   <dimension dim="1">type</dimension>
   <field type="int">atomspertype</field>
   <field type="string">element</field>
   <field>mass</field>
   <field>valence</field>
   <field type="string">pseudopotential</field>
   <set>
    <rc><c>   1</c><c>Mo</c><c>     95.94000000</c><c>     12.00000000</c><c> PAW_PBE Mo_pv 08Apr2002                </c></rc>
    <rc><c>   2</c><c>S </c><c>     32.06600000</c><c>      6.00000000</c><c>  PAW_PBE S 17Jan2003                   </c></rc>
    <rc><c>   1</c><c>Mo</c><c>     95.94000000</c><c>     12.00000000</c><c> PAW_PBE Mo_pv 08Apr2002                </c></rc>
    <rc><c>   2</c><c>S </c><c>     32.06600000</c><c>      6.00000000</c><c>  PAW_PBE S 17Jan2003                   </c></rc>
   </set>
  </array>
 </atominfo>
 <structure name="initialpos" >
  <crystal>
   <varray name="basis" >
    <v>       3.19031700       0.00000000       0.00000000 </v>
    <v>      -1.59515800       2.76289700       0.00000000 </v>
    <v>       0.00000000       0.00000000      23.14049200 </v>
   </varray>
   <i name="volume">    203.97226633 </i>
   <varray name="rec_basis" >
    <v>       0.31344848       0.18096941       0.00000000 </v>
    <v>       0.00000000       0.36193894       0.00000000 </v>
    <v>       0.00000000       0.00000000       0.04321429 </v>
   </varray>
  </crystal>
  <varray name="positions" >
   <v>       0.66666700       0.33333300       0.06785900 </v>
   <v>       0.33333300       0.66666700       0.00000000 </v>
   <v>       0.33333300       0.66666700       0.13571500 </v>
   <v>       0.80952414       0.90476157       0.35482300 </v>
   <v>       0.47619014       0.23809557       0.28696500 </v>
   <v>       0.47619014       0.23809557       0.42267900 </v>
  </varray>
 </structure>
 <calculation>
  <scstep>
   <time name="dav">   33.51   33.54</time>
   <time name="total">   43.82   43.87</time>
   <energy>
    <i name="alphaZ">    104.15310261 </i>
    <i name="ewald">   7698.97301423 </i>
    <i name="hartreedc"> -11109.03089613 </i>
    <i name="XCdc">    128.46244833 </i>
    <i name="pawpsdc">   2252.92270536 </i>
    <i name="pawaedc">  -2205.68654582 </i>
    <i name="eentropy">      0.00024635 </i>
    <i name="bandstr">   -161.80336510 </i>
    <i name="atom">   3688.31848598 </i>
    <i name="e_fr_energy">    396.30919580 </i>
    <i name="e_wo_entrp">    396.30894945 </i>
    <i name="e_0_energy">    396.30911369 </i>
   </energy>
  </scstep>
  <scstep>
   <time name="dav">   36.36   36.38</time>
   <time name="total">   36.36   36.39</time>
   <energy>
    <i name="e_fr_energy">     -1.87520862 </i>
    <i name="e_wo_entrp">     -1.87414595 </i>
    <i name="e_0_energy">     -1.87485440 </i>
   </energy>
  </scstep>
  <scstep>
   <time name="dav">   37.53   37.56</time>
   <time name="total">   37.54   37.57</time>
   <energy>
    <i name="e_fr_energy">    -32.97939899 </i>
    <i name="e_wo_entrp">    -32.98028205 </i>
    <i name="e_0_energy">    -32.97969334 </i>
   </energy>
  </scstep>
  <scstep>
   <time name="dav">   35.57   35.60</time>
   <time name="total">   35.58   35.65</time>
   <energy>
    <i name="e_fr_energy">    -33.85019713 </i>
    <i name="e_wo_entrp">    -33.85160018 </i>
    <i name="e_0_energy">    -33.85066481 </i>
   </energy>
  </scstep>
  <scstep>
   <time name="dav">   37.28   37.30</time>
   <time name="total">   40.15   40.18</time>
   <energy>
    <i name="e_fr_energy">    -33.87721322 </i>
    <i name="e_wo_entrp">    -33.87864319 </i>
    <i name="e_0_energy">    -33.87768987 </i>
   </energy>
  </scstep>
  <scstep>
   <time name="diag">    6.78    6.78</time>
   <time name="diis">   24.19   24.21</time>
   <time name="orth">    0.23    0.23</time>
   <time name="total">   44.02   44.06</time>
   <energy>
    <i name="e_fr_energy">    -29.98467842 </i>
    <i name="e_wo_entrp">    -29.98417784 </i>
    <i name="e_0_energy">    -29.98451156 </i>
   </energy>
  </scstep>
  <scstep>
   <time name="diag">    6.78    6.79</time>
   <time name="diis">   24.51   24.53</time>
   <time name="orth">    0.23    0.23</time>
   <time name="total">   44.30   44.34</time>
   <energy>
    <i name="e_fr_energy">    -33.36744270 </i>
    <i name="e_wo_entrp">    -33.36800348 </i>
    <i name="e_0_energy">    -33.36762962 </i>
   </energy>
  </scstep>
  <scstep>
   <time name="diag">    6.79    6.79</time>
   <time name="diis">   23.79   23.80</time>
   <time name="orth">    0.23    0.23</time>
   <time name="total">   43.55   43.59</time>
   <energy>
    <i name="e_fr_energy">    -34.41420130 </i>
    <i name="e_wo_entrp">    -34.41436705 </i>
    <i name="e_0_energy">    -34.41425655 </i>
   </energy>
  </scstep>
  <scstep>
   <time name="diag">    6.77    6.78</time>
   <time name="diis">   24.13   24.15</time>
   <time name="orth">    0.23    0.23</time>
   <time name="total">   43.95   43.99</time>
   <energy>
    <i name="e_fr_energy">    -36.66516083 </i>
    <i name="e_wo_entrp">    -36.66532926 </i>
    <i name="e_0_energy">    -36.66521697 </i>
   </energy>
  </scstep>
  <scstep>
   <time name="diag">    6.76    6.77</time>
   <time name="diis">   22.23   22.25</time>
   <time name="orth">    0.23    0.23</time>
   <time name="total">   42.00   42.03</time>
   <energy>
    <i name="e_fr_energy">    -38.89623058 </i>
    <i name="e_wo_entrp">    -38.89639785 </i>
    <i name="e_0_energy">    -38.89628634 </i>
   </energy>
  </scstep>
  <scstep>
   <time name="diag">    6.79    6.80</time>
   <time name="diis">   23.19   23.21</time>
   <time name="orth">    0.23    0.23</time>
   <time name="total">   43.04   43.08</time>
   <energy>
    <i name="e_fr_energy">    -39.36417785 </i>
    <i name="e_wo_entrp">    -39.36450578 </i>
    <i name="e_0_energy">    -39.36428716 </i>
   </energy>
  </scstep>
  <scstep>
   <time name="diag">    6.77    6.78</time>
   <time name="diis">   23.56   23.58</time>
   <time name="orth">    0.23    0.23</time>
   <time name="total">   43.38   43.41</time>
   <energy>
    <i name="e_fr_energy">    -39.40746960 </i>
    <i name="e_wo_entrp">    -39.40780135 </i>
    <i name="e_0_energy">    -39.40758018 </i>
   </energy>
  </scstep>
  <scstep>
   <time name="diag">    6.80    6.80</time>
   <time name="diis">   25.99   26.01</time>
   <time name="orth">    0.24    0.24</time>
   <time name="total">   45.98   46.01</time>
   <energy>
    <i name="e_fr_energy">    -39.42271851 </i>
    <i name="e_wo_entrp">    -39.42305347 </i>
    <i name="e_0_energy">    -39.42283017 </i>
   </energy>
  </scstep>
  <scstep>
   <time name="diag">    6.96    6.97</time>
   <time name="diis">   26.34   26.36</time>
   <time name="orth">    0.24    0.24</time>
   <time name="total">   46.50   46.54</time>
   <energy>
    <i name="e_fr_energy">    -39.42726248 </i>
    <i name="e_wo_entrp">    -39.42759774 </i>
    <i name="e_0_energy">    -39.42737424 </i>
   </energy>
  </scstep>
  <scstep>
   <time name="diag">    7.02    7.03</time>
   <time name="diis">   22.47   22.48</time>
   <time name="orth">    0.24    0.24</time>
   <time name="total">   42.74   42.77</time>
   <energy>
    <i name="e_fr_energy">    -39.42713148 </i>
    <i name="e_wo_entrp">    -39.42746671 </i>
    <i name="e_0_energy">    -39.42724322 </i>
   </energy>
  </scstep>
  <scstep>
   <time name="diag">    7.01    7.02</time>
   <time name="diis">   18.62   18.63</time>
   <time name="orth">    0.24    0.24</time>
   <time name="total">   35.78   35.81</time>
   <energy>
    <i name="alphaZ">    104.15310261 </i>
    <i name="ewald">   7698.97301423 </i>
    <i name="hartreedc"> -11093.35454223 </i>
    <i name="XCdc">    122.66189279 </i>
    <i name="pawpsdc">   2398.77716656 </i>
    <i name="pawaedc">  -2360.94901172 </i>
    <i name="eentropy">      0.00033529 </i>
    <i name="bandstr">   -598.00758550 </i>
    <i name="atom">   3688.31848598 </i>
    <i name="e_fr_energy">    -39.42714199 </i>
    <i name="e_wo_entrp">    -39.42747728 </i>
    <i name="e_0_energy">    -39.42725375 </i>
   </energy>
  </scstep>
  <structure>
   <crystal>
    <varray name="basis" >
     <v>       3.19031700       0.00000000       0.00000000 </v>
     <v>      -1.59515800       2.76289700       0.00000000 </v>
     <v>       0.00000000       0.00000000      23.14049200 </v>
    </varray>
    <i name="volume">    203.97226633 </i>
    <varray name="rec_basis" >
     <v>       0.31344848       0.18096941       0.00000000 </v>
     <v>       0.00000000       0.36193894       0.00000000 </v>
     <v>       0.00000000       0.00000000       0.04321429 </v>
    </varray>
   </crystal>
   <varray name="positions" >
    <v>       0.66666700       0.33333300       0.06785900 </v>
    <v>       0.33333300       0.66666700       0.00000000 </v>
    <v>       0.33333300       0.66666700       0.13571500 </v>
    <v>       0.80952414       0.90476157       0.35482300 </v>
    <v>       0.47619014       0.23809557       0.28696500 </v>
    <v>       0.47619014       0.23809557       0.42267900 </v>
   </varray>
  </structure>
  <varray name="forces" >
   <v>      -0.00119047      -0.00068732      -0.00001294 </v>
   <v>       0.00161163       0.00093047      -0.05599224 </v>
   <v>      -0.00801943      -0.00463002       0.12855259 </v>
   <v>       0.00249359       0.00143967       0.00029055 </v>
   <v>       0.00403051       0.00232701      -0.13636325 </v>
   <v>       0.00107418       0.00062018       0.06352529 </v>
  </varray>
  <varray name="stress" >
   <v>       3.34216130      -0.22452970       0.21707933 </v>
   <v>      -0.22452970       3.60143030       0.12533086 </v>
   <v>       0.21707916       0.12533076      -0.81417734 </v>
  </varray>
  <energy>
   <i name="e_fr_energy">    -39.42714199 </i>
   <i name="e_wo_entrp">    -39.42725375 </i>
   <i name="e_0_energy">      0.00033529 </i>
  </energy>
  <time name="totalsc">  738.08  738.76</time>
  <eigenvalues>
   <array>
    <dimension dim="1">band</dimension>
    <dimension dim="2">kpoint</dimension>
    <dimension dim="3">spin</dimension>
    <field>eigene</field>
    <field>occ</field>
    <set>
     <set comment="spin 1">
      <set comment="kpoint 1">
       <r>  -34.9815    1.0000 </r>
       <r>  -34.9700    1.0000 </r>
       <r>  -34.7908    1.0000 </r>
       <r>  -34.7907    1.0000 </r>
       <r>  -34.7795    1.0000 </r>
       <r>  -34.7795    1.0000 </r>
       <r>  -13.9609    1.0000 </r>
       <r>  -13.9048    1.0000 </r>
       <r>  -12.6943    1.0000 </r>
       <r>  -12.6018    1.0000 </r>
       <r>   -5.6696    1.0000 </r>
       <r>   -5.3853    1.0000 </r>
       <r>   -2.6123    1.0000 </r>
       <r>   -2.6119    1.0000 </r>
       <r>   -2.5996    1.0000 </r>
       <r>   -2.5992    1.0000 </r>
       <r>   -2.1575    1.0000 </r>
       <r>   -1.5198    1.0000 </r>
       <r>   -1.5182    1.0000 </r>
       <r>   -1.5057    1.0000 </r>
       <r>   -1.5041    1.0000 </r>
       <r>   -1.4639    1.0000 </r>
       <r>   -0.2059    1.0000 </r>
       <r>    0.2233    0.7942 </r>
       <r>    2.6994   -0.0000 </r>
       <r>    2.7125   -0.0000 </r>
       <r>    2.7263   -0.0000 </r>
       <r>    2.7355   -0.0000 </r>
       <r>    2.8806   -0.0000 </r>
       <r>    2.8948   -0.0000 </r>
       <r>    2.9090   -0.0000 </r>
       <r>    2.9270   -0.0000 </r>
       <r>    5.3662    0.0000 </r>
       <r>    5.6859    0.0000 </r>
       <r>    6.2623    0.0000 </r>
       <r>    6.5837    0.0000 </r>
      </set>
      <set comment="kpoint 2">
       <r>  -34.9774    1.0000 </r>
       <r>  -34.9659    1.0000 </r>
       <r>  -34.8120    1.0000 </r>
       <r>  -34.8007    1.0000 </r>
       <r>  -34.7957    1.0000 </r>
       <r>  -34.7843    1.0000 </r>
       <r>  -13.8742    1.0000 </r>
       <r>  -13.8183    1.0000 </r>
       <r>  -12.6578    1.0000 </r>
       <r>  -12.5674    1.0000 </r>
       <r>   -5.5705    1.0000 </r>
       <r>   -5.2864    1.0000 </r>
       <r>   -2.7990    1.0000 </r>
       <r>   -2.7863    1.0000 </r>
       <r>   -2.5217    1.0000 </r>
       <r>   -2.5084    1.0000 </r>
       <r>   -2.4443    1.0000 </r>
       <r>   -2.0598    1.0000 </r>
       <r>   -1.6575    1.0000 </r>
       <r>   -1.6414    1.0000 </r>
       <r>   -1.3485    1.0000 </r>
       <r>   -1.0559    1.0000 </r>
       <r>   -0.2278    1.0000 </r>
       <r>    0.1507    1.0327 </r>
       <r>    2.5908   -0.0000 </r>
       <r>    2.6210   -0.0000 </r>
       <r>    2.6502   -0.0000 </r>
       <r>    2.7337   -0.0000 </r>
       <r>    2.7771   -0.0000 </r>
       <r>    2.8261   -0.0000 </r>
       <r>    2.8541   -0.0000 </r>
       <r>    2.8912   -0.0000 </r>
       <r>    5.4983    0.0000 </r>
       <r>    5.8313    0.0000 </r>
       <r>    6.5837    0.0000 </r>
       <r>    6.9557    0.0000 </r>
      </set>
      <set comment="kpoint 3">
       <r>  -34.9660    1.0000 </r>
       <r>  -34.9545    1.0000 </r>
       <r>  -34.8705    1.0000 </r>
       <r>  -34.8592    1.0000 </r>
       <r>  -34.8091    1.0000 </r>
       <r>  -34.7977    1.0000 </r>
       <r>  -13.6257    1.0000 </r>
       <r>  -13.5705    1.0000 </r>
       <r>  -12.5530    1.0000 </r>
       <r>  -12.4689    1.0000 </r>
       <r>   -5.3104    1.0000 </r>
       <r>   -5.0322    1.0000 </r>
       <r>   -3.2507    1.0000 </r>
       <r>   -3.2326    1.0000 </r>
       <r>   -2.9450    1.0000 </r>
       <r>   -2.6751    1.0000 </r>
       <r>   -2.2666    1.0000 </r>
       <r>   -2.2522    1.0000 </r>
       <r>   -1.9929    1.0000 </r>
       <r>   -1.9759    1.0000 </r>
       <r>   -1.2683    1.0000 </r>
       <r>   -0.9217    1.0000 </r>
       <r>   -0.3606    1.0000 </r>
       <r>   -0.1178    1.0000 </r>
       <r>    2.1752   -0.0000 </r>
       <r>    2.3750   -0.0000 </r>
       <r>    2.5062   -0.0000 </r>
       <r>    2.5536   -0.0000 </r>
       <r>    2.6035   -0.0000 </r>
       <r>    2.6407   -0.0000 </r>
       <r>    3.1940    0.0000 </r>
       <r>    3.2385    0.0000 </r>
       <r>    5.8506    0.0000 </r>
       <r>    6.1826    0.0000 </r>
       <r>    6.9553    0.0000 </r>
       <r>    7.8288    0.0000 </r>
      </set>
      <set comment="kpoint 4">
       <r>  -34.9519    1.0000 </r>
       <r>  -34.9499    1.0000 </r>
       <r>  -34.9408    1.0000 </r>
       <r>  -34.9383    1.0000 </r>
       <r>  -34.8279    1.0000 </r>
       <r>  -34.8166    1.0000 </r>
       <r>  -13.2507    1.0000 </r>
       <r>  -13.1970    1.0000 </r>
       <r>  -12.3957    1.0000 </r>
       <r>  -12.3213    1.0000 </r>
       <r>   -5.0467    1.0000 </r>
       <r>   -4.8154    1.0000 </r>
       <r>   -3.7207    1.0000 </r>
       <r>   -3.6551    1.0000 </r>
       <r>   -3.4775    1.0000 </r>
       <r>   -3.2923    1.0000 </r>
       <r>   -2.3886    1.0000 </r>
       <r>   -2.3706    1.0000 </r>
       <r>   -1.8984    1.0000 </r>
       <r>   -1.8812    1.0000 </r>
       <r>   -1.4486    1.0000 </r>
       <r>   -1.1044    1.0000 </r>
       <r>   -0.6819    1.0000 </r>
       <r>   -0.5595    1.0000 </r>
       <r>    1.9489   -0.0000 </r>
       <r>    2.2493   -0.0000 </r>
       <r>    2.3057   -0.0000 </r>
       <r>    2.3529   -0.0000 </r>
       <r>    2.7019   -0.0000 </r>
       <r>    2.9164   -0.0000 </r>
       <r>    3.5714    0.0000 </r>
       <r>    3.6283    0.0000 </r>
       <r>    6.3867    0.0000 </r>
       <r>    6.6767    0.0000 </r>
       <r>    7.3891    0.0000 </r>
       <r>    8.1674    0.0000 </r>
      </set>
      <set comment="kpoint 5">
       <r>  -35.0372    1.0000 </r>
       <r>  -35.0260    1.0000 </r>
       <r>  -34.9328    1.0000 </r>
       <r>  -34.9213    1.0000 </r>
       <r>  -34.8478    1.0000 </r>
       <r>  -34.8365    1.0000 </r>
       <r>  -12.8108    1.0000 </r>
       <r>  -12.7604    1.0000 </r>
       <r>  -12.2142    1.0000 </r>
       <r>  -12.1512    1.0000 </r>
       <r>   -5.1019    1.0000 </r>
       <r>   -4.9834    1.0000 </r>
       <r>   -4.0520    1.0000 </r>
       <r>   -3.9089    1.0000 </r>
       <r>   -3.8699    1.0000 </r>
       <r>   -3.7193    1.0000 </r>
       <r>   -2.7442    1.0000 </r>
       <r>   -2.7255    1.0000 </r>
       <r>   -1.7274    1.0000 </r>
       <r>   -1.5055    1.0000 </r>
       <r>   -1.4821    1.0000 </r>
       <r>   -1.3944    1.0000 </r>
       <r>   -0.9749    1.0000 </r>
       <r>   -0.8840    1.0000 </r>
       <r>    2.0475   -0.0000 </r>
       <r>    2.1411   -0.0000 </r>
       <r>    2.1797   -0.0000 </r>
       <r>    2.3282   -0.0000 </r>
       <r>    3.1061    0.0000 </r>
       <r>    3.3666    0.0000 </r>
       <r>    3.8687    0.0000 </r>
       <r>    3.9414    0.0000 </r>
       <r>    7.0496    0.0000 </r>
       <r>    7.2414    0.0000 </r>
       <r>    7.8298    0.0000 </r>
       <r>    8.0368    0.0000 </r>
      </set>
      <set comment="kpoint 6">
       <r>  -35.1070    1.0000 </r>
       <r>  -35.0957    1.0000 </r>
       <r>  -34.9185    1.0000 </r>
       <r>  -34.9070    1.0000 </r>
       <r>  -34.8643    1.0000 </r>
       <r>  -34.8529    1.0000 </r>
       <r>  -12.4004    1.0000 </r>
       <r>  -12.3547    1.0000 </r>
       <r>  -12.0493    1.0000 </r>
       <r>  -11.9974    1.0000 </r>
       <r>   -5.4213    1.0000 </r>
       <r>   -5.3521    1.0000 </r>
       <r>   -4.4719    1.0000 </r>
       <r>   -4.3645    1.0000 </r>
       <r>   -3.9650    1.0000 </r>
       <r>   -3.7877    1.0000 </r>
       <r>   -3.0042    1.0000 </r>
       <r>   -2.9851    1.0000 </r>
       <r>   -1.9425    1.0000 </r>
       <r>   -1.6197    1.0000 </r>
       <r>   -1.1919    1.0000 </r>
       <r>   -1.1595    1.0000 </r>
       <r>   -0.9321    1.0000 </r>
       <r>   -0.8207    1.0000 </r>
       <r>    2.1018   -0.0000 </r>
       <r>    2.1275   -0.0000 </r>
       <r>    2.3138   -0.0000 </r>
       <r>    2.5031   -0.0000 </r>
       <r>    3.4868    0.0000 </r>
       <r>    3.7651    0.0000 </r>
       <r>    4.0524    0.0000 </r>
       <r>    4.1394    0.0000 </r>
       <r>    6.7847    0.0000 </r>
       <r>    7.2010    0.0000 </r>
       <r>    7.6899    0.0000 </r>
       <r>    7.9545    0.0000 </r>
      </set>
      <set comment="kpoint 7">
       <r>  -35.1460    1.0000 </r>
       <r>  -35.1348    1.0000 </r>
       <r>  -34.9105    1.0000 </r>
       <r>  -34.8989    1.0000 </r>
       <r>  -34.8735    1.0000 </r>
       <r>  -34.8622    1.0000 </r>
       <r>  -12.1435    1.0000 </r>
       <r>  -12.1019    1.0000 </r>
       <r>  -11.9487    1.0000 </r>
       <r>  -11.9043    1.0000 </r>
       <r>   -5.6629    1.0000 </r>
       <r>   -5.6028    1.0000 </r>
       <r>   -4.7240    1.0000 </r>
       <r>   -4.6300    1.0000 </r>
       <r>   -4.0675    1.0000 </r>
       <r>   -3.8993    1.0000 </r>
       <r>   -3.1403    1.0000 </r>
       <r>   -3.1209    1.0000 </r>
       <r>   -2.0473    1.0000 </r>
       <r>   -1.7319    1.0000 </r>
       <r>   -1.0277    1.0000 </r>
       <r>   -0.9882    1.0000 </r>
       <r>   -0.7155    1.0000 </r>
       <r>   -0.5881    1.0000 </r>
       <r>    2.1318   -0.0000 </r>
       <r>    2.1482   -0.0000 </r>
       <r>    2.5643   -0.0000 </r>
       <r>    2.6578   -0.0000 </r>
       <r>    3.6839    0.0000 </r>
       <r>    3.9740    0.0000 </r>
       <r>    4.1352    0.0000 </r>
       <r>    4.2306    0.0000 </r>
       <r>    5.9945    0.0000 </r>
       <r>    6.5564    0.0000 </r>
       <r>    7.9463    0.0000 </r>
       <r>    8.0157    0.0000 </r>
      </set>
      <set comment="kpoint 8">
       <r>  -34.9774    1.0000 </r>
       <r>  -34.9659    1.0000 </r>
       <r>  -34.8121    1.0000 </r>
       <r>  -34.8008    1.0000 </r>
       <r>  -34.7956    1.0000 </r>
       <r>  -34.7843    1.0000 </r>
       <r>  -13.8741    1.0000 </r>
       <r>  -13.8184    1.0000 </r>
       <r>  -12.6576    1.0000 </r>
       <r>  -12.5676    1.0000 </r>
       <r>   -5.5702    1.0000 </r>
       <r>   -5.2866    1.0000 </r>
       <r>   -2.7991    1.0000 </r>
       <r>   -2.7861    1.0000 </r>
       <r>   -2.5212    1.0000 </r>
       <r>   -2.5089    1.0000 </r>
       <r>   -2.4453    1.0000 </r>
       <r>   -2.0598    1.0000 </r>
       <r>   -1.6559    1.0000 </r>
       <r>   -1.6430    1.0000 </r>
       <r>   -1.3384    1.0000 </r>
       <r>   -1.0640    1.0000 </r>
       <r>   -0.2264    1.0000 </r>
       <r>    0.1441    1.0349 </r>
       <r>    2.6062   -0.0000 </r>
       <r>    2.6198   -0.0000 </r>
       <r>    2.6629   -0.0000 </r>
       <r>    2.7078   -0.0000 </r>
       <r>    2.7987   -0.0000 </r>
       <r>    2.8181   -0.0000 </r>
       <r>    2.8601   -0.0000 </r>
       <r>    2.8753   -0.0000 </r>
       <r>    5.4984    0.0000 </r>
       <r>    5.8310    0.0000 </r>
       <r>    6.5850    0.0000 </r>
       <r>    6.9574    0.0000 </r>
      </set>
      <set comment="kpoint 9">
       <r>  -34.9697    1.0000 </r>
       <r>  -34.9581    1.0000 </r>
       <r>  -34.8509    1.0000 </r>
       <r>  -34.8397    1.0000 </r>
       <r>  -34.8057    1.0000 </r>
       <r>  -34.7944    1.0000 </r>
       <r>  -13.7064    1.0000 </r>
       <r>  -13.6511    1.0000 </r>
       <r>  -12.5868    1.0000 </r>
       <r>  -12.5011    1.0000 </r>
       <r>   -5.3886    1.0000 </r>
       <r>   -5.1076    1.0000 </r>
       <r>   -3.1123    1.0000 </r>
       <r>   -3.0997    1.0000 </r>
       <r>   -2.7831    1.0000 </r>
       <r>   -2.4737    1.0000 </r>
       <r>   -2.3533    1.0000 </r>
       <r>   -2.3405    1.0000 </r>
       <r>   -1.9691    1.0000 </r>
       <r>   -1.9559    1.0000 </r>
       <r>   -1.1852    1.0000 </r>
       <r>   -0.8766    1.0000 </r>
       <r>   -0.3026    1.0000 </r>
       <r>   -0.0277    1.0002 </r>
       <r>    2.3037   -0.0000 </r>
       <r>    2.4315   -0.0000 </r>
       <r>    2.4705   -0.0000 </r>
       <r>    2.5566   -0.0000 </r>
       <r>    2.6352   -0.0000 </r>
       <r>    2.6559   -0.0000 </r>
       <r>    3.1370    0.0000 </r>
       <r>    3.1576    0.0000 </r>
       <r>    5.7382    0.0000 </r>
       <r>    6.0754    0.0000 </r>
       <r>    6.9140    0.0000 </r>
       <r>    7.6079    0.0000 </r>
      </set>
      <set comment="kpoint 10">
       <r>  -34.9559    1.0000 </r>
       <r>  -34.9444    1.0000 </r>
       <r>  -34.9185    1.0000 </r>
       <r>  -34.9073    1.0000 </r>
       <r>  -34.8242    1.0000 </r>
       <r>  -34.8129    1.0000 </r>
       <r>  -13.3941    1.0000 </r>
       <r>  -13.3399    1.0000 </r>
       <r>  -12.4552    1.0000 </r>
       <r>  -12.3774    1.0000 </r>
       <r>   -5.1095    1.0000 </r>
       <r>   -4.8488    1.0000 </r>
       <r>   -3.5573    1.0000 </r>
       <r>   -3.5277    1.0000 </r>
       <r>   -3.2191    1.0000 </r>
       <r>   -2.9935    1.0000 </r>
       <r>   -2.4538    1.0000 </r>
       <r>   -2.4313    1.0000 </r>
       <r>   -2.0698    1.0000 </r>
       <r>   -2.0552    1.0000 </r>
       <r>   -1.1715    1.0000 </r>
       <r>   -0.8773    1.0000 </r>
       <r>   -0.5361    1.0000 </r>
       <r>   -0.3911    1.0000 </r>
       <r>    1.9607   -0.0000 </r>
       <r>    2.1942   -0.0000 </r>
       <r>    2.4122   -0.0000 </r>
       <r>    2.4186   -0.0000 </r>
       <r>    2.4831   -0.0000 </r>
       <r>    2.6426   -0.0000 </r>
       <r>    3.5511    0.0000 </r>
       <r>    3.5660    0.0000 </r>
       <r>    6.1834    0.0000 </r>
       <r>    6.4999    0.0000 </r>
       <r>    7.2342    0.0000 </r>
       <r>    8.2318    0.0000 </r>
      </set>
      <set comment="kpoint 11">
       <r>  -34.9988    1.0000 </r>
       <r>  -34.9876    1.0000 </r>
       <r>  -34.9393    1.0000 </r>
       <r>  -34.9278    1.0000 </r>
       <r>  -34.8466    1.0000 </r>
       <r>  -34.8353    1.0000 </r>
       <r>  -12.9844    1.0000 </r>
       <r>  -12.9329    1.0000 </r>
       <r>  -12.2838    1.0000 </r>
       <r>  -12.2167    1.0000 </r>
       <r>   -4.9858    1.0000 </r>
       <r>   -4.8185    1.0000 </r>
       <r>   -3.8692    1.0000 </r>
       <r>   -3.7490    1.0000 </r>
       <r>   -3.7111    1.0000 </r>
       <r>   -3.5844    1.0000 </r>
       <r>   -2.8482    1.0000 </r>
       <r>   -2.7942    1.0000 </r>
       <r>   -1.7877    1.0000 </r>
       <r>   -1.7699    1.0000 </r>
       <r>   -1.3907    1.0000 </r>
       <r>   -1.1191    1.0000 </r>
       <r>   -0.8408    1.0000 </r>
       <r>   -0.7683    1.0000 </r>
       <r>    1.8621   -0.0000 </r>
       <r>    2.0668   -0.0000 </r>
       <r>    2.2960   -0.0000 </r>
       <r>    2.3750   -0.0000 </r>
       <r>    2.7610   -0.0000 </r>
       <r>    2.9571   -0.0000 </r>
       <r>    3.9108    0.0000 </r>
       <r>    3.9239    0.0000 </r>
       <r>    6.8020    0.0000 </r>
       <r>    7.0520    0.0000 </r>
       <r>    7.7794    0.0000 </r>
       <r>    8.3844    0.0000 </r>
      </set>
      <set comment="kpoint 12">
       <r>  -35.0735    1.0000 </r>
       <r>  -35.0622    1.0000 </r>
       <r>  -34.9236    1.0000 </r>
       <r>  -34.9121    1.0000 </r>
       <r>  -34.8676    1.0000 </r>
       <r>  -34.8563    1.0000 </r>
       <r>  -12.5540    1.0000 </r>
       <r>  -12.5068    1.0000 </r>
       <r>  -12.1068    1.0000 </r>
       <r>  -12.0512    1.0000 </r>
       <r>   -5.2095    1.0000 </r>
       <r>   -5.1255    1.0000 </r>
       <r>   -4.2853    1.0000 </r>
       <r>   -4.1876    1.0000 </r>
       <r>   -3.8852    1.0000 </r>
       <r>   -3.7094    1.0000 </r>
       <r>   -3.0618    1.0000 </r>
       <r>   -3.0069    1.0000 </r>
       <r>   -1.7021    1.0000 </r>
       <r>   -1.6253    1.0000 </r>
       <r>   -1.6016    1.0000 </r>
       <r>   -1.4238    1.0000 </r>
       <r>   -0.8625    1.0000 </r>
       <r>   -0.8070    1.0000 </r>
       <r>    1.9738   -0.0000 </r>
       <r>    2.1016   -0.0000 </r>
       <r>    2.3305   -0.0000 </r>
       <r>    2.4420   -0.0000 </r>
       <r>    3.1872    0.0000 </r>
       <r>    3.3722    0.0000 </r>
       <r>    4.1128    0.0000 </r>
       <r>    4.1412    0.0000 </r>
       <r>    7.3468    0.0000 </r>
       <r>    7.5328    0.0000 </r>
       <r>    7.6001    0.0000 </r>
       <r>    8.0886    0.0000 </r>
      </set>
      <set comment="kpoint 13">
       <r>  -35.1258    1.0000 </r>
       <r>  -35.1146    1.0000 </r>
       <r>  -34.9124    1.0000 </r>
       <r>  -34.9009    1.0000 </r>
       <r>  -34.8825    1.0000 </r>
       <r>  -34.8712    1.0000 </r>
       <r>  -12.2124    1.0000 </r>
       <r>  -12.1701    1.0000 </r>
       <r>  -11.9696    1.0000 </r>
       <r>  -11.9236    1.0000 </r>
       <r>   -5.4932    1.0000 </r>
       <r>   -5.4312    1.0000 </r>
       <r>   -4.6727    1.0000 </r>
       <r>   -4.5941    1.0000 </r>
       <r>   -3.9899    1.0000 </r>
       <r>   -3.8162    1.0000 </r>
       <r>   -3.1494    1.0000 </r>
       <r>   -3.1129    1.0000 </r>
       <r>   -1.9368    1.0000 </r>
       <r>   -1.6635    1.0000 </r>
       <r>   -1.4804    1.0000 </r>
       <r>   -1.4574    1.0000 </r>
       <r>   -0.6518    1.0000 </r>
       <r>   -0.5768    1.0000 </r>
       <r>    2.1180   -0.0000 </r>
       <r>    2.1714   -0.0000 </r>
       <r>    2.5034   -0.0000 </r>
       <r>    2.6041   -0.0000 </r>
       <r>    3.5837    0.0000 </r>
       <r>    3.7274    0.0000 </r>
       <r>    4.1114    0.0000 </r>
       <r>    4.1860    0.0000 </r>
       <r>    6.4054    0.0000 </r>
       <r>    6.9496    0.0000 </r>
       <r>    8.1017    0.0000 </r>
       <r>    8.2639    0.0000 </r>
      </set>
      <set comment="kpoint 14">
       <r>  -35.1446    1.0000 </r>
       <r>  -35.1334    1.0000 </r>
       <r>  -34.9084    1.0000 </r>
       <r>  -34.8969    1.0000 </r>
       <r>  -34.8879    1.0000 </r>
       <r>  -34.8765    1.0000 </r>
       <r>  -12.0796    1.0000 </r>
       <r>  -12.0396    1.0000 </r>
       <r>  -11.9168    1.0000 </r>
       <r>  -11.8749    1.0000 </r>
       <r>   -5.6112    1.0000 </r>
       <r>   -5.5523    1.0000 </r>
       <r>   -4.8156    1.0000 </r>
       <r>   -4.7411    1.0000 </r>
       <r>   -4.0586    1.0000 </r>
       <r>   -3.8908    1.0000 </r>
       <r>   -3.1694    1.0000 </r>
       <r>   -3.1439    1.0000 </r>
       <r>   -2.0266    1.0000 </r>
       <r>   -1.7464    1.0000 </r>
       <r>   -1.4157    1.0000 </r>
       <r>   -1.3875    1.0000 </r>
       <r>   -0.5216    1.0000 </r>
       <r>   -0.4306    1.0000 </r>
       <r>    2.1520   -0.0000 </r>
       <r>    2.1729   -0.0000 </r>
       <r>    2.6487   -0.0000 </r>
       <r>    2.7255   -0.0000 </r>
       <r>    3.8175    0.0000 </r>
       <r>    3.9061    0.0000 </r>
       <r>    4.0016    0.0000 </r>
       <r>    4.1277    0.0000 </r>
       <r>    5.9657    0.0000 </r>
       <r>    6.5718    0.0000 </r>
       <r>    8.3830    0.0000 </r>
       <r>    8.4184    0.0000 </r>
      </set>
      <set comment="kpoint 15">
       <r>  -34.9660    1.0000 </r>
       <r>  -34.9545    1.0000 </r>
       <r>  -34.8706    1.0000 </r>
       <r>  -34.8592    1.0000 </r>
       <r>  -34.8090    1.0000 </r>
       <r>  -34.7977    1.0000 </r>
       <r>  -13.6253    1.0000 </r>
       <r>  -13.5708    1.0000 </r>
       <r>  -12.5523    1.0000 </r>
       <r>  -12.4697    1.0000 </r>
       <r>   -5.3093    1.0000 </r>
       <r>   -5.0331    1.0000 </r>
       <r>   -3.2480    1.0000 </r>
       <r>   -3.2351    1.0000 </r>
       <r>   -2.9460    1.0000 </r>
       <r>   -2.6756    1.0000 </r>
       <r>   -2.2658    1.0000 </r>
       <r>   -2.2531    1.0000 </r>
       <r>   -1.9913    1.0000 </r>
       <r>   -1.9777    1.0000 </r>
       <r>   -1.2413    1.0000 </r>
       <r>   -0.9429    1.0000 </r>
       <r>   -0.3540    1.0000 </r>
       <r>   -0.1427    1.0000 </r>
       <r>    2.2025   -0.0000 </r>
       <r>    2.3717   -0.0000 </r>
       <r>    2.5141   -0.0000 </r>
       <r>    2.5665   -0.0000 </r>
       <r>    2.5916   -0.0000 </r>
       <r>    2.6236   -0.0000 </r>
       <r>    3.2055    0.0000 </r>
       <r>    3.2260    0.0000 </r>
       <r>    5.8508    0.0000 </r>
       <r>    6.1811    0.0000 </r>
       <r>    7.0174    0.0000 </r>
       <r>    7.8538    0.0000 </r>
      </set>
      <set comment="kpoint 16">
       <r>  -34.9559    1.0000 </r>
       <r>  -34.9444    1.0000 </r>
       <r>  -34.9185    1.0000 </r>
       <r>  -34.9073    1.0000 </r>
       <r>  -34.8242    1.0000 </r>
       <r>  -34.8129    1.0000 </r>
       <r>  -13.3937    1.0000 </r>
       <r>  -13.3403    1.0000 </r>
       <r>  -12.4546    1.0000 </r>
       <r>  -12.3781    1.0000 </r>
       <r>   -5.1090    1.0000 </r>
       <r>   -4.8492    1.0000 </r>
       <r>   -3.5509    1.0000 </r>
       <r>   -3.5342    1.0000 </r>
       <r>   -3.2186    1.0000 </r>
       <r>   -2.9948    1.0000 </r>
       <r>   -2.4544    1.0000 </r>
       <r>   -2.4297    1.0000 </r>
       <r>   -2.0692    1.0000 </r>
       <r>   -2.0559    1.0000 </r>
       <r>   -1.1523    1.0000 </r>
       <r>   -0.8916    1.0000 </r>
       <r>   -0.5308    1.0000 </r>
       <r>   -0.4096    1.0000 </r>
       <r>    1.9706   -0.0000 </r>
       <r>    2.1945   -0.0000 </r>
       <r>    2.4074   -0.0000 </r>
       <r>    2.4330   -0.0000 </r>
       <r>    2.4772   -0.0000 </r>
       <r>    2.6390   -0.0000 </r>
       <r>    3.5486    0.0000 </r>
       <r>    3.5670    0.0000 </r>
       <r>    6.1837    0.0000 </r>
       <r>    6.4981    0.0000 </r>
       <r>    7.2470    0.0000 </r>
       <r>    8.3140    0.0000 </r>
      </set>
      <set comment="kpoint 17">
       <r>  -34.9806    1.0000 </r>
       <r>  -34.9694    1.0000 </r>
       <r>  -34.9417    1.0000 </r>
       <r>  -34.9301    1.0000 </r>
       <r>  -34.8506    1.0000 </r>
       <r>  -34.8393    1.0000 </r>
       <r>  -13.0450    1.0000 </r>
       <r>  -12.9940    1.0000 </r>
       <r>  -12.3072    1.0000 </r>
       <r>  -12.2399    1.0000 </r>
       <r>   -4.9373    1.0000 </r>
       <r>   -4.7428    1.0000 </r>
       <r>   -3.7995    1.0000 </r>
       <r>   -3.7237    1.0000 </r>
       <r>   -3.5109    1.0000 </r>
       <r>   -3.3877    1.0000 </r>
       <r>   -3.0832    1.0000 </r>
       <r>   -2.9857    1.0000 </r>
       <r>   -1.9386    1.0000 </r>
       <r>   -1.9236    1.0000 </r>
       <r>   -1.1328    1.0000 </r>
       <r>   -0.9256    1.0000 </r>
       <r>   -0.7693    1.0000 </r>
       <r>   -0.7208    1.0000 </r>
       <r>    1.7707   -0.0000 </r>
       <r>    1.9974   -0.0000 </r>
       <r>    2.3349   -0.0000 </r>
       <r>    2.4107   -0.0000 </r>
       <r>    2.5293   -0.0000 </r>
       <r>    2.7226   -0.0000 </r>
       <r>    3.9466    0.0000 </r>
       <r>    3.9849    0.0000 </r>
       <r>    6.7207    0.0000 </r>
       <r>    6.9913    0.0000 </r>
       <r>    7.7449    0.0000 </r>
       <r>    8.5966    0.0000 </r>
      </set>
      <set comment="kpoint 18">
       <r>  -35.0434    1.0000 </r>
       <r>  -35.0322    1.0000 </r>
       <r>  -34.9265    1.0000 </r>
       <r>  -34.9149    1.0000 </r>
       <r>  -34.8809    1.0000 </r>
       <r>  -34.8696    1.0000 </r>
       <r>  -12.6391    1.0000 </r>
       <r>  -12.5920    1.0000 </r>
       <r>  -12.1358    1.0000 </r>
       <r>  -12.0795    1.0000 </r>
       <r>   -5.0142    1.0000 </r>
       <r>   -4.9102    1.0000 </r>
       <r>   -4.0894    1.0000 </r>
       <r>   -4.0383    1.0000 </r>
       <r>   -3.7886    1.0000 </r>
       <r>   -3.6350    1.0000 </r>
       <r>   -3.2998    1.0000 </r>
       <r>   -3.1534    1.0000 </r>
       <r>   -2.0648    1.0000 </r>
       <r>   -2.0446    1.0000 </r>
       <r>   -1.3535    1.0000 </r>
       <r>   -1.1727    1.0000 </r>
       <r>   -0.8253    1.0000 </r>
       <r>   -0.8051    1.0000 </r>
       <r>    1.8003   -0.0000 </r>
       <r>    2.0509   -0.0000 </r>
       <r>    2.4015   -0.0000 </r>
       <r>    2.4534   -0.0000 </r>
       <r>    2.7973   -0.0000 </r>
       <r>    2.9698   -0.0000 </r>
       <r>    4.1994    0.0000 </r>
       <r>    4.2704    0.0000 </r>
       <r>    7.3953    0.0000 </r>
       <r>    7.5787    0.0000 </r>
       <r>    8.1510    0.0000 </r>
       <r>    8.4799    0.0000 </r>
      </set>
      <set comment="kpoint 19">
       <r>  -35.0941    1.0000 </r>
       <r>  -35.0828    1.0000 </r>
       <r>  -34.9139    1.0000 </r>
       <r>  -34.9069    1.0000 </r>
       <r>  -34.9023    1.0000 </r>
       <r>  -34.8956    1.0000 </r>
       <r>  -12.2652    1.0000 </r>
       <r>  -12.2235    1.0000 </r>
       <r>  -11.9789    1.0000 </r>
       <r>  -11.9330    1.0000 </r>
       <r>   -5.2155    1.0000 </r>
       <r>   -5.1474    1.0000 </r>
       <r>   -4.6317    1.0000 </r>
       <r>   -4.5906    1.0000 </r>
       <r>   -3.8231    1.0000 </r>
       <r>   -3.6475    1.0000 </r>
       <r>   -3.2711    1.0000 </r>
       <r>   -3.1492    1.0000 </r>
       <r>   -2.1996    1.0000 </r>
       <r>   -2.1637    1.0000 </r>
       <r>   -1.6942    1.0000 </r>
       <r>   -1.5112    1.0000 </r>
       <r>   -0.6556    1.0000 </r>
       <r>   -0.6247    1.0000 </r>
       <r>    2.0225   -0.0000 </r>
       <r>    2.2253   -0.0000 </r>
       <r>    2.5192   -0.0000 </r>
       <r>    2.5621   -0.0000 </r>
       <r>    3.1627    0.0000 </r>
       <r>    3.2706    0.0000 </r>
       <r>    4.2553    0.0000 </r>
       <r>    4.3886    0.0000 </r>
       <r>    7.0536    0.0000 </r>
       <r>    7.5349    0.0000 </r>
       <r>    8.1929    0.0000 </r>
       <r>    8.5017    0.0000 </r>
      </set>
      <set comment="kpoint 20">
       <r>  -35.1222    1.0000 </r>
       <r>  -35.1110    1.0000 </r>
       <r>  -34.9218    1.0000 </r>
       <r>  -34.9104    1.0000 </r>
       <r>  -34.9067    1.0000 </r>
       <r>  -34.8952    1.0000 </r>
       <r>  -12.0347    1.0000 </r>
       <r>  -11.9972    1.0000 </r>
       <r>  -11.8824    1.0000 </r>
       <r>  -11.8435    1.0000 </r>
       <r>   -5.3474    1.0000 </r>
       <r>   -5.2894    1.0000 </r>
       <r>   -4.9399    1.0000 </r>
       <r>   -4.8990    1.0000 </r>
       <r>   -3.9631    1.0000 </r>
       <r>   -3.7932    1.0000 </r>
       <r>   -3.1836    1.0000 </r>
       <r>   -3.0954    1.0000 </r>
       <r>   -2.1983    1.0000 </r>
       <r>   -2.1501    1.0000 </r>
       <r>   -1.9582    1.0000 </r>
       <r>   -1.7568    1.0000 </r>
       <r>   -0.4346    1.0000 </r>
       <r>   -0.3763    1.0000 </r>
       <r>    2.0698   -0.0000 </r>
       <r>    2.1234   -0.0000 </r>
       <r>    2.7642   -0.0000 </r>
       <r>    2.8780   -0.0000 </r>
       <r>    3.4440    0.0000 </r>
       <r>    3.4791    0.0000 </r>
       <r>    4.1750    0.0000 </r>
       <r>    4.3936    0.0000 </r>
       <r>    6.3033    0.0000 </r>
       <r>    6.9351    0.0000 </r>
       <r>    8.8163    0.0000 </r>
       <r>    8.9481    0.0000 </r>
      </set>
      <set comment="kpoint 21">
       <r>  -34.9697    1.0000 </r>
       <r>  -34.9581    1.0000 </r>
       <r>  -34.8510    1.0000 </r>
       <r>  -34.8397    1.0000 </r>
       <r>  -34.8056    1.0000 </r>
       <r>  -34.7944    1.0000 </r>
       <r>  -13.7061    1.0000 </r>
       <r>  -13.6514    1.0000 </r>
       <r>  -12.5863    1.0000 </r>
       <r>  -12.5016    1.0000 </r>
       <r>   -5.3877    1.0000 </r>
       <r>   -5.1083    1.0000 </r>
       <r>   -3.1130    1.0000 </r>
       <r>   -3.0987    1.0000 </r>
       <r>   -2.7850    1.0000 </r>
       <r>   -2.4721    1.0000 </r>
       <r>   -2.3531    1.0000 </r>
       <r>   -2.3407    1.0000 </r>
       <r>   -1.9687    1.0000 </r>
       <r>   -1.9559    1.0000 </r>
       <r>   -1.1704    1.0000 </r>
       <r>   -0.8888    1.0000 </r>
       <r>   -0.2985    1.0000 </r>
       <r>   -0.0443    1.0001 </r>
       <r>    2.3248   -0.0000 </r>
       <r>    2.4333   -0.0000 </r>
       <r>    2.4797   -0.0000 </r>
       <r>    2.5411   -0.0000 </r>
       <r>    2.6335   -0.0000 </r>
       <r>    2.6518   -0.0000 </r>
       <r>    3.1383    0.0000 </r>
       <r>    3.1560    0.0000 </r>
       <r>    5.7383    0.0000 </r>
       <r>    6.0749    0.0000 </r>
       <r>    6.9921    0.0000 </r>
       <r>    7.6141    0.0000 </r>
      </set>
      <set comment="kpoint 22">
       <r>  -34.9520    1.0000 </r>
       <r>  -34.9499    1.0000 </r>
       <r>  -34.9407    1.0000 </r>
       <r>  -34.9384    1.0000 </r>
       <r>  -34.8278    1.0000 </r>
       <r>  -34.8166    1.0000 </r>
       <r>  -13.2494    1.0000 </r>
       <r>  -13.1981    1.0000 </r>
       <r>  -12.3939    1.0000 </r>
       <r>  -12.3233    1.0000 </r>
       <r>   -5.0458    1.0000 </r>
       <r>   -4.8158    1.0000 </r>
       <r>   -3.7012    1.0000 </r>
       <r>   -3.6744    1.0000 </r>
       <r>   -3.4753    1.0000 </r>
       <r>   -3.2964    1.0000 </r>
       <r>   -2.3867    1.0000 </r>
       <r>   -2.3724    1.0000 </r>
       <r>   -1.8969    1.0000 </r>
       <r>   -1.8831    1.0000 </r>
       <r>   -1.3985    1.0000 </r>
       <r>   -1.1459    1.0000 </r>
       <r>   -0.6666    1.0000 </r>
       <r>   -0.5986    1.0000 </r>
       <r>    1.9675   -0.0000 </r>
       <r>    2.2480   -0.0000 </r>
       <r>    2.3158   -0.0000 </r>
       <r>    2.3434   -0.0000 </r>
       <r>    2.7123   -0.0000 </r>
       <r>    2.9061   -0.0000 </r>
       <r>    3.5847    0.0000 </r>
       <r>    3.6145    0.0000 </r>
       <r>    6.3864    0.0000 </r>
       <r>    6.6710    0.0000 </r>
       <r>    7.3977    0.0000 </r>
       <r>    8.1928    0.0000 </r>
      </set>
      <set comment="kpoint 23">
       <r>  -34.9989    1.0000 </r>
       <r>  -34.9876    1.0000 </r>
       <r>  -34.9393    1.0000 </r>
       <r>  -34.9278    1.0000 </r>
       <r>  -34.8465    1.0000 </r>
       <r>  -34.8353    1.0000 </r>
       <r>  -12.9829    1.0000 </r>
       <r>  -12.9340    1.0000 </r>
       <r>  -12.2819    1.0000 </r>
       <r>  -12.2188    1.0000 </r>
       <r>   -4.9863    1.0000 </r>
       <r>   -4.8184    1.0000 </r>
       <r>   -3.8502    1.0000 </r>
       <r>   -3.7717    1.0000 </r>
       <r>   -3.7024    1.0000 </r>
       <r>   -3.5885    1.0000 </r>
       <r>   -2.8491    1.0000 </r>
       <r>   -2.7933    1.0000 </r>
       <r>   -1.7872    1.0000 </r>
       <r>   -1.7717    1.0000 </r>
       <r>   -1.3470    1.0000 </r>
       <r>   -1.1556    1.0000 </r>
       <r>   -0.8304    1.0000 </r>
       <r>   -0.7956    1.0000 </r>
       <r>    1.8622   -0.0000 </r>
       <r>    2.0748   -0.0000 </r>
       <r>    2.2931   -0.0000 </r>
       <r>    2.3827   -0.0000 </r>
       <r>    2.7536   -0.0000 </r>
       <r>    2.9665   -0.0000 </r>
       <r>    3.9010    0.0000 </r>
       <r>    3.9292    0.0000 </r>
       <r>    6.8048    0.0000 </r>
       <r>    7.0440    0.0000 </r>
       <r>    7.8094    0.0000 </r>
       <r>    8.4693    0.0000 </r>
      </set>
      <set comment="kpoint 24">
       <r>  -35.0435    1.0000 </r>
       <r>  -35.0322    1.0000 </r>
       <r>  -34.9265    1.0000 </r>
       <r>  -34.9149    1.0000 </r>
       <r>  -34.8809    1.0000 </r>
       <r>  -34.8696    1.0000 </r>
       <r>  -12.6378    1.0000 </r>
       <r>  -12.5930    1.0000 </r>
       <r>  -12.1344    1.0000 </r>
       <r>  -12.0811    1.0000 </r>
       <r>   -5.0145    1.0000 </r>
       <r>   -4.9109    1.0000 </r>
       <r>   -4.0896    1.0000 </r>
       <r>   -4.0461    1.0000 </r>
       <r>   -3.7564    1.0000 </r>
       <r>   -3.6516    1.0000 </r>
       <r>   -3.3028    1.0000 </r>
       <r>   -3.1581    1.0000 </r>
       <r>   -2.0655    1.0000 </r>
       <r>   -2.0448    1.0000 </r>
       <r>   -1.3251    1.0000 </r>
       <r>   -1.1980    1.0000 </r>
       <r>   -0.8236    1.0000 </r>
       <r>   -0.8116    1.0000 </r>
       <r>    1.7964   -0.0000 </r>
       <r>    2.0513   -0.0000 </r>
       <r>    2.4044   -0.0000 </r>
       <r>    2.4573   -0.0000 </r>
       <r>    2.7821   -0.0000 </r>
       <r>    2.9869   -0.0000 </r>
       <r>    4.2075    0.0000 </r>
       <r>    4.2592    0.0000 </r>
       <r>    7.3955    0.0000 </r>
       <r>    7.5761    0.0000 </r>
       <r>    8.2727    0.0000 </r>
       <r>    8.3961    0.0000 </r>
      </set>
      <set comment="kpoint 25">
       <r>  -35.0759    1.0000 </r>
       <r>  -35.0647    1.0000 </r>
       <r>  -34.9225    1.0000 </r>
       <r>  -34.9144    1.0000 </r>
       <r>  -34.9111    1.0000 </r>
       <r>  -34.9028    1.0000 </r>
       <r>  -12.2837    1.0000 </r>
       <r>  -12.2445    1.0000 </r>
       <r>  -11.9800    1.0000 </r>
       <r>  -11.9370    1.0000 </r>
       <r>   -5.0689    1.0000 </r>
       <r>   -4.9955    1.0000 </r>
       <r>   -4.6106    1.0000 </r>
       <r>   -4.5933    1.0000 </r>
       <r>   -3.6495    1.0000 </r>
       <r>   -3.5224    1.0000 </r>
       <r>   -3.3323    1.0000 </r>
       <r>   -3.1799    1.0000 </r>
       <r>   -2.5908    1.0000 </r>
       <r>   -2.5756    1.0000 </r>
       <r>   -1.5448    1.0000 </r>
       <r>   -1.4437    1.0000 </r>
       <r>   -0.6781    1.0000 </r>
       <r>   -0.6625    1.0000 </r>
       <r>    1.9668   -0.0000 </r>
       <r>    2.2328   -0.0000 </r>
       <r>    2.5374   -0.0000 </r>
       <r>    2.5561   -0.0000 </r>
       <r>    2.9282   -0.0000 </r>
       <r>    3.0799    0.0000 </r>
       <r>    4.3791    0.0000 </r>
       <r>    4.4717    0.0000 </r>
       <r>    7.6163    0.0000 </r>
       <r>    7.7915    0.0000 </r>
       <r>    8.2405    0.0000 </r>
       <r>    8.5223    0.0000 </r>
      </set>
      <set comment="kpoint 26">
       <r>  -35.0928    1.0000 </r>
       <r>  -35.0815    1.0000 </r>
       <r>  -34.9580    1.0000 </r>
       <r>  -34.9467    1.0000 </r>
       <r>  -34.9058    1.0000 </r>
       <r>  -34.8942    1.0000 </r>
       <r>  -12.0116    1.0000 </r>
       <r>  -11.9781    1.0000 </r>
       <r>  -11.8586    1.0000 </r>
       <r>  -11.8242    1.0000 </r>
       <r>   -5.0604    1.0000 </r>
       <r>   -5.0231    1.0000 </r>
       <r>   -5.0086    1.0000 </r>
       <r>   -4.9765    1.0000 </r>
       <r>   -3.7481    1.0000 </r>
       <r>   -3.5963    1.0000 </r>
       <r>   -3.1816    1.0000 </r>
       <r>   -3.0559    1.0000 </r>
       <r>   -2.9471    1.0000 </r>
       <r>   -2.9010    1.0000 </r>
       <r>   -1.8824    1.0000 </r>
       <r>   -1.7697    1.0000 </r>
       <r>   -0.4130    1.0000 </r>
       <r>   -0.3889    1.0000 </r>
       <r>    1.9560   -0.0000 </r>
       <r>    2.0338   -0.0000 </r>
       <r>    2.8422   -0.0000 </r>
       <r>    2.9786   -0.0000 </r>
       <r>    3.0907    0.0000 </r>
       <r>    3.1790    0.0000 </r>
       <r>    4.4660    0.0000 </r>
       <r>    4.6104    0.0000 </r>
       <r>    6.8895    0.0000 </r>
       <r>    7.4019    0.0000 </r>
       <r>    8.3863    0.0000 </r>
       <r>    8.5957    0.0000 </r>
      </set>
      <set comment="kpoint 27">
       <r>  -35.0971    1.0000 </r>
       <r>  -35.0859    1.0000 </r>
       <r>  -34.9725    1.0000 </r>
       <r>  -34.9612    1.0000 </r>
       <r>  -34.9027    1.0000 </r>
       <r>  -34.8911    1.0000 </r>
       <r>  -11.9086    1.0000 </r>
       <r>  -11.8777    1.0000 </r>
       <r>  -11.8114    1.0000 </r>
       <r>  -11.7808    1.0000 </r>
       <r>   -5.1896    1.0000 </r>
       <r>   -5.1670    1.0000 </r>
       <r>   -4.9851    1.0000 </r>
       <r>   -4.9363    1.0000 </r>
       <r>   -3.9137    1.0000 </r>
       <r>   -3.7572    1.0000 </r>
       <r>   -3.0707    1.0000 </r>
       <r>   -3.0325    1.0000 </r>
       <r>   -2.9448    1.0000 </r>
       <r>   -2.9272    1.0000 </r>
       <r>   -2.0700    1.0000 </r>
       <r>   -1.9426    1.0000 </r>
       <r>   -0.2452    1.0000 </r>
       <r>   -0.2065    1.0000 </r>
       <r>    1.8374   -0.0000 </r>
       <r>    1.8586   -0.0000 </r>
       <r>    3.0397    0.0000 </r>
       <r>    3.1297    0.0000 </r>
       <r>    3.1831    0.0000 </r>
       <r>    3.2982    0.0000 </r>
       <r>    4.4950    0.0000 </r>
       <r>    4.6625    0.0000 </r>
       <r>    6.5123    0.0000 </r>
       <r>    7.1533    0.0000 </r>
       <r>    8.2512    0.0000 </r>
       <r>    8.7022    0.0000 </r>
      </set>
      <set comment="kpoint 28">
       <r>  -34.9559    1.0000 </r>
       <r>  -34.9444    1.0000 </r>
       <r>  -34.9186    1.0000 </r>
       <r>  -34.9073    1.0000 </r>
       <r>  -34.8241    1.0000 </r>
       <r>  -34.8129    1.0000 </r>
       <r>  -13.3931    1.0000 </r>
       <r>  -13.3407    1.0000 </r>
       <r>  -12.4537    1.0000 </r>
       <r>  -12.3790    1.0000 </r>
       <r>   -5.1081    1.0000 </r>
       <r>   -4.8498    1.0000 </r>
       <r>   -3.5487    1.0000 </r>
       <r>   -3.5363    1.0000 </r>
       <r>   -3.2201    1.0000 </r>
       <r>   -2.9934    1.0000 </r>
       <r>   -2.4512    1.0000 </r>
       <r>   -2.4323    1.0000 </r>
       <r>   -2.0691    1.0000 </r>
       <r>   -2.0560    1.0000 </r>
       <r>   -1.1358    1.0000 </r>
       <r>   -0.9052    1.0000 </r>
       <r>   -0.5247    1.0000 </r>
       <r>   -0.4274    1.0000 </r>
       <r>    1.9779   -0.0000 </r>
       <r>    2.1961   -0.0000 </r>
       <r>    2.4079   -0.0000 </r>
       <r>    2.4261   -0.0000 </r>
       <r>    2.4881   -0.0000 </r>
       <r>    2.6325   -0.0000 </r>
       <r>    3.5459    0.0000 </r>
       <r>    3.5713    0.0000 </r>
       <r>    6.1857    0.0000 </r>
       <r>    6.4976    0.0000 </r>
       <r>    7.2387    0.0000 </r>
       <r>    8.2356    0.0000 </r>
      </set>
      <set comment="kpoint 29">
       <r>  -35.0373    1.0000 </r>
       <r>  -35.0260    1.0000 </r>
       <r>  -34.9328    1.0000 </r>
       <r>  -34.9213    1.0000 </r>
       <r>  -34.8477    1.0000 </r>
       <r>  -34.8365    1.0000 </r>
       <r>  -12.8077    1.0000 </r>
       <r>  -12.7629    1.0000 </r>
       <r>  -12.2104    1.0000 </r>
       <r>  -12.1555    1.0000 </r>
       <r>   -5.1014    1.0000 </r>
       <r>   -4.9860    1.0000 </r>
       <r>   -4.0375    1.0000 </r>
       <r>   -3.9242    1.0000 </r>
       <r>   -3.8323    1.0000 </r>
       <r>   -3.7554    1.0000 </r>
       <r>   -2.7422    1.0000 </r>
       <r>   -2.7274    1.0000 </r>
       <r>   -1.6562    1.0000 </r>
       <r>   -1.5029    1.0000 </r>
       <r>   -1.4872    1.0000 </r>
       <r>   -1.4587    1.0000 </r>
       <r>   -0.9590    1.0000 </r>
       <r>   -0.9193    1.0000 </r>
       <r>    2.0584   -0.0000 </r>
       <r>    2.1484   -0.0000 </r>
       <r>    2.1728   -0.0000 </r>
       <r>    2.3299   -0.0000 </r>
       <r>    3.1264    0.0000 </r>
       <r>    3.3468    0.0000 </r>
       <r>    3.8842    0.0000 </r>
       <r>    3.9256    0.0000 </r>
       <r>    7.0518    0.0000 </r>
       <r>    7.2268    0.0000 </r>
       <r>    7.9056    0.0000 </r>
       <r>    7.9689    0.0000 </r>
      </set>
      <set comment="kpoint 30">
       <r>  -35.0736    1.0000 </r>
       <r>  -35.0622    1.0000 </r>
       <r>  -34.9236    1.0000 </r>
       <r>  -34.9121    1.0000 </r>
       <r>  -34.8676    1.0000 </r>
       <r>  -34.8563    1.0000 </r>
       <r>  -12.5502    1.0000 </r>
       <r>  -12.5098    1.0000 </r>
       <r>  -12.1026    1.0000 </r>
       <r>  -12.0562    1.0000 </r>
       <r>   -5.2068    1.0000 </r>
       <r>   -5.1308    1.0000 </r>
       <r>   -4.2750    1.0000 </r>
       <r>   -4.2031    1.0000 </r>
       <r>   -3.8304    1.0000 </r>
       <r>   -3.7540    1.0000 </r>
       <r>   -3.0635    1.0000 </r>
       <r>   -3.0076    1.0000 </r>
       <r>   -1.6708    1.0000 </r>
       <r>   -1.6136    1.0000 </r>
       <r>   -1.5871    1.0000 </r>
       <r>   -1.4808    1.0000 </r>
       <r>   -0.8517    1.0000 </r>
       <r>   -0.8295    1.0000 </r>
       <r>    1.9666   -0.0000 </r>
       <r>    2.1069   -0.0000 </r>
       <r>    2.3350   -0.0000 </r>
       <r>    2.4461   -0.0000 </r>
       <r>    3.1777    0.0000 </r>
       <r>    3.3920    0.0000 </r>
       <r>    4.1112    0.0000 </r>
       <r>    4.1324    0.0000 </r>
       <r>    7.4018    0.0000 </r>
       <r>    7.5241    0.0000 </r>
       <r>    7.6776    0.0000 </r>
       <r>    8.0784    0.0000 </r>
      </set>
      <set comment="kpoint 31">
       <r>  -35.0941    1.0000 </r>
       <r>  -35.0828    1.0000 </r>
       <r>  -34.9139    1.0000 </r>
       <r>  -34.9068    1.0000 </r>
       <r>  -34.9023    1.0000 </r>
       <r>  -34.8955    1.0000 </r>
       <r>  -12.2609    1.0000 </r>
       <r>  -12.2267    1.0000 </r>
       <r>  -11.9749    1.0000 </r>
       <r>  -11.9381    1.0000 </r>
       <r>   -5.2112    1.0000 </r>
       <r>   -5.1536    1.0000 </r>
       <r>   -4.6258    1.0000 </r>
       <r>   -4.6016    1.0000 </r>
       <r>   -3.7563    1.0000 </r>
       <r>   -3.6976    1.0000 </r>
       <r>   -3.2714    1.0000 </r>
       <r>   -3.1601    1.0000 </r>
       <r>   -2.2177    1.0000 </r>
       <r>   -2.1505    1.0000 </r>
       <r>   -1.6352    1.0000 </r>
       <r>   -1.5638    1.0000 </r>
       <r>   -0.6495    1.0000 </r>
       <r>   -0.6361    1.0000 </r>
       <r>    2.0211   -0.0000 </r>
       <r>    2.2188   -0.0000 </r>
       <r>    2.5230   -0.0000 </r>
       <r>    2.5629   -0.0000 </r>
       <r>    3.1252    0.0000 </r>
       <r>    3.3129    0.0000 </r>
       <r>    4.3028    0.0000 </r>
       <r>    4.3383    0.0000 </r>
       <r>    7.2392    0.0000 </r>
       <r>    7.3968    0.0000 </r>
       <r>    8.3336    0.0000 </r>
       <r>    8.4188    0.0000 </r>
      </set>
      <set comment="kpoint 32">
       <r>  -35.0928    1.0000 </r>
       <r>  -35.0815    1.0000 </r>
       <r>  -34.9580    1.0000 </r>
       <r>  -34.9467    1.0000 </r>
       <r>  -34.9058    1.0000 </r>
       <r>  -34.8942    1.0000 </r>
       <r>  -12.0080    1.0000 </r>
       <r>  -11.9805    1.0000 </r>
       <r>  -11.8560    1.0000 </r>
       <r>  -11.8281    1.0000 </r>
       <r>   -5.0493    1.0000 </r>
       <r>   -5.0237    1.0000 </r>
       <r>   -5.0130    1.0000 </r>
       <r>   -4.9867    1.0000 </r>
       <r>   -3.6825    1.0000 </r>
       <r>   -3.6517    1.0000 </r>
       <r>   -3.1778    1.0000 </r>
       <r>   -3.0655    1.0000 </r>
       <r>   -2.9681    1.0000 </r>
       <r>   -2.8840    1.0000 </r>
       <r>   -1.8530    1.0000 </r>
       <r>   -1.7960    1.0000 </r>
       <r>   -0.4083    1.0000 </r>
       <r>   -0.3949    1.0000 </r>
       <r>    1.9567   -0.0000 </r>
       <r>    2.0321   -0.0000 </r>
       <r>    2.8491   -0.0000 </r>
       <r>    2.9715   -0.0000 </r>
       <r>    3.0684    0.0000 </r>
       <r>    3.1942    0.0000 </r>
       <r>    4.5040    0.0000 </r>
       <r>    4.5726    0.0000 </r>
       <r>    7.1073    0.0000 </r>
       <r>    7.2292    0.0000 </r>
       <r>    8.2762    0.0000 </r>
       <r>    8.6113    0.0000 </r>
      </set>
      <set comment="kpoint 33">
       <r>  -35.0727    1.0000 </r>
       <r>  -35.0614    1.0000 </r>
       <r>  -35.0063    1.0000 </r>
       <r>  -34.9950    1.0000 </r>
       <r>  -34.9012    1.0000 </r>
       <r>  -34.8897    1.0000 </r>
       <r>  -11.8599    1.0000 </r>
       <r>  -11.8371    1.0000 </r>
       <r>  -11.7822    1.0000 </r>
       <r>  -11.7600    1.0000 </r>
       <r>   -5.2845    1.0000 </r>
       <r>   -5.2693    1.0000 </r>
       <r>   -4.6960    1.0000 </r>
       <r>   -4.6515    1.0000 </r>
       <r>   -3.8294    1.0000 </r>
       <r>   -3.8079    1.0000 </r>
       <r>   -3.4729    1.0000 </r>
       <r>   -3.4151    1.0000 </r>
       <r>   -2.9440    1.0000 </r>
       <r>   -2.8683    1.0000 </r>
       <r>   -2.1426    1.0000 </r>
       <r>   -2.0589    1.0000 </r>
       <r>   -0.1401    1.0000 </r>
       <r>   -0.1224    1.0000 </r>
       <r>    1.6889   -0.0000 </r>
       <r>    1.7057   -0.0000 </r>
       <r>    2.9590   -0.0000 </r>
       <r>    3.0334    0.0000 </r>
       <r>    3.2923    0.0000 </r>
       <r>    3.4043    0.0000 </r>
       <r>    4.6770    0.0000 </r>
       <r>    4.7574    0.0000 </r>
       <r>    6.9540    0.0000 </r>
       <r>    7.2659    0.0000 </r>
       <r>    7.8533    0.0000 </r>
       <r>    7.9809    0.0000 </r>
      </set>
      <set comment="kpoint 34">
       <r>  -34.9989    1.0000 </r>
       <r>  -34.9876    1.0000 </r>
       <r>  -34.9393    1.0000 </r>
       <r>  -34.9278    1.0000 </r>
       <r>  -34.8465    1.0000 </r>
       <r>  -34.8353    1.0000 </r>
       <r>  -12.9821    1.0000 </r>
       <r>  -12.9347    1.0000 </r>
       <r>  -12.2808    1.0000 </r>
       <r>  -12.2200    1.0000 </r>
       <r>   -4.9863    1.0000 </r>
       <r>   -4.8183    1.0000 </r>
       <r>   -3.8436    1.0000 </r>
       <r>   -3.7777    1.0000 </r>
       <r>   -3.7014    1.0000 </r>
       <r>   -3.5908    1.0000 </r>
       <r>   -2.8461    1.0000 </r>
       <r>   -2.7947    1.0000 </r>
       <r>   -1.7869    1.0000 </r>
       <r>   -1.7704    1.0000 </r>
       <r>   -1.3318    1.0000 </r>
       <r>   -1.1731    1.0000 </r>
       <r>   -0.8260    1.0000 </r>
       <r>   -0.8052    1.0000 </r>
       <r>    1.8680   -0.0000 </r>
       <r>    2.0710   -0.0000 </r>
       <r>    2.2943   -0.0000 </r>
       <r>    2.3800   -0.0000 </r>
       <r>    2.7689   -0.0000 </r>
       <r>    2.9521   -0.0000 </r>
       <r>    3.9031    0.0000 </r>
       <r>    3.9296    0.0000 </r>
       <r>    6.8044    0.0000 </r>
       <r>    7.0442    0.0000 </r>
       <r>    7.7903    0.0000 </r>
       <r>    8.3498    0.0000 </r>
      </set>
      <set comment="kpoint 35">
       <r>  -34.9807    1.0000 </r>
       <r>  -34.9694    1.0000 </r>
       <r>  -34.9417    1.0000 </r>
       <r>  -34.9301    1.0000 </r>
       <r>  -34.8505    1.0000 </r>
       <r>  -34.8392    1.0000 </r>
       <r>  -13.0434    1.0000 </r>
       <r>  -12.9953    1.0000 </r>
       <r>  -12.3051    1.0000 </r>
       <r>  -12.2423    1.0000 </r>
       <r>   -4.9376    1.0000 </r>
       <r>   -4.7420    1.0000 </r>
       <r>   -3.7825    1.0000 </r>
       <r>   -3.7431    1.0000 </r>
       <r>   -3.5091    1.0000 </r>
       <r>   -3.3870    1.0000 </r>
       <r>   -3.0761    1.0000 </r>
       <r>   -2.9919    1.0000 </r>
       <r>   -1.9401    1.0000 </r>
       <r>   -1.9217    1.0000 </r>
       <r>   -1.0937    1.0000 </r>
       <r>   -0.9586    1.0000 </r>
       <r>   -0.7610    1.0000 </r>
       <r>   -0.7480    1.0000 </r>
       <r>    1.7767   -0.0000 </r>
       <r>    1.9963   -0.0000 </r>
       <r>    2.3379   -0.0000 </r>
       <r>    2.4072   -0.0000 </r>
       <r>    2.5386   -0.0000 </r>
       <r>    2.7179   -0.0000 </r>
       <r>    3.9497    0.0000 </r>
       <r>    3.9828    0.0000 </r>
       <r>    6.7191    0.0000 </r>
       <r>    6.9889    0.0000 </r>
       <r>    7.7602    0.0000 </r>
       <r>    8.7298    0.0000 </r>
      </set>
      <set comment="kpoint 36">
       <r>  -35.1071    1.0000 </r>
       <r>  -35.0958    1.0000 </r>
       <r>  -34.9185    1.0000 </r>
       <r>  -34.9070    1.0000 </r>
       <r>  -34.8642    1.0000 </r>
       <r>  -34.8529    1.0000 </r>
       <r>  -12.3935    1.0000 </r>
       <r>  -12.3600    1.0000 </r>
       <r>  -12.0424    1.0000 </r>
       <r>  -12.0059    1.0000 </r>
       <r>   -5.4134    1.0000 </r>
       <r>   -5.3635    1.0000 </r>
       <r>   -4.4523    1.0000 </r>
       <r>   -4.3864    1.0000 </r>
       <r>   -3.9033    1.0000 </r>
       <r>   -3.8447    1.0000 </r>
       <r>   -3.0022    1.0000 </r>
       <r>   -2.9870    1.0000 </r>
       <r>   -1.8472    1.0000 </r>
       <r>   -1.7137    1.0000 </r>
       <r>   -1.1865    1.0000 </r>
       <r>   -1.1650    1.0000 </r>
       <r>   -0.9175    1.0000 </r>
       <r>   -0.8532    1.0000 </r>
       <r>    2.1057   -0.0000 </r>
       <r>    2.1238   -0.0000 </r>
       <r>    2.3220   -0.0000 </r>
       <r>    2.5042   -0.0000 </r>
       <r>    3.5380    0.0000 </r>
       <r>    3.7124    0.0000 </r>
       <r>    4.0700    0.0000 </r>
       <r>    4.1215    0.0000 </r>
       <r>    6.9394    0.0000 </r>
       <r>    7.0950    0.0000 </r>
       <r>    7.6820    0.0000 </r>
       <r>    7.9530    0.0000 </r>
      </set>
      <set comment="kpoint 37">
       <r>  -35.1259    1.0000 </r>
       <r>  -35.1146    1.0000 </r>
       <r>  -34.9124    1.0000 </r>
       <r>  -34.9009    1.0000 </r>
       <r>  -34.8824    1.0000 </r>
       <r>  -34.8712    1.0000 </r>
       <r>  -12.2035    1.0000 </r>
       <r>  -12.1765    1.0000 </r>
       <r>  -11.9618    1.0000 </r>
       <r>  -11.9338    1.0000 </r>
       <r>   -5.4815    1.0000 </r>
       <r>   -5.4462    1.0000 </r>
       <r>   -4.6540    1.0000 </r>
       <r>   -4.6164    1.0000 </r>
       <r>   -3.9217    1.0000 </r>
       <r>   -3.8748    1.0000 </r>
       <r>   -3.1489    1.0000 </r>
       <r>   -3.1162    1.0000 </r>
       <r>   -1.8478    1.0000 </r>
       <r>   -1.7573    1.0000 </r>
       <r>   -1.4979    1.0000 </r>
       <r>   -1.4360    1.0000 </r>
       <r>   -0.6319    1.0000 </r>
       <r>   -0.6099    1.0000 </r>
       <r>    2.1167   -0.0000 </r>
       <r>    2.1685   -0.0000 </r>
       <r>    2.5101   -0.0000 </r>
       <r>    2.6016   -0.0000 </r>
       <r>    3.5810    0.0000 </r>
       <r>    3.7540    0.0000 </r>
       <r>    4.1300    0.0000 </r>
       <r>    4.1471    0.0000 </r>
       <r>    6.6004    0.0000 </r>
       <r>    6.7820    0.0000 </r>
       <r>    8.0833    0.0000 </r>
       <r>    8.2692    0.0000 </r>
      </set>
      <set comment="kpoint 38">
       <r>  -35.1223    1.0000 </r>
       <r>  -35.1110    1.0000 </r>
       <r>  -34.9217    1.0000 </r>
       <r>  -34.9104    1.0000 </r>
       <r>  -34.9067    1.0000 </r>
       <r>  -34.8952    1.0000 </r>
       <r>  -12.0243    1.0000 </r>
       <r>  -12.0042    1.0000 </r>
       <r>  -11.8748    1.0000 </r>
       <r>  -11.8545    1.0000 </r>
       <r>   -5.3334    1.0000 </r>
       <r>   -5.3063    1.0000 </r>
       <r>   -4.9307    1.0000 </r>
       <r>   -4.9127    1.0000 </r>
       <r>   -3.8903    1.0000 </r>
       <r>   -3.8513    1.0000 </r>
       <r>   -3.1670    1.0000 </r>
       <r>   -3.1197    1.0000 </r>
       <r>   -2.2210    1.0000 </r>
       <r>   -2.1389    1.0000 </r>
       <r>   -1.8790    1.0000 </r>
       <r>   -1.8258    1.0000 </r>
       <r>   -0.4175    1.0000 </r>
[...]
       <r>    -2.1977     1.4687    18.4030 </r>
       <r>    -2.0357     3.1951    18.9207 </r>
       <r>    -1.8737     3.7765    19.5325 </r>
       <r>    -1.7116     3.4719    20.0950 </r>
       <r>    -1.5496     2.9624    20.5750 </r>
       <r>    -1.3876     3.1940    21.0925 </r>
       <r>    -1.2256     1.6773    21.3642 </r>
       <r>    -1.0636     2.2665    21.7315 </r>
       <r>    -0.9016     1.7322    22.0121 </r>
       <r>    -0.7395     3.6684    22.6064 </r>
       <r>    -0.5775     2.9482    23.0841 </r>
       <r>    -0.4155     2.1068    23.4254 </r>
       <r>    -0.2535     1.9241    23.7372 </r>
       <r>    -0.0915     1.0669    23.9100 </r>
       <r>     0.0706     0.3145    23.9610 </r>
       <r>     0.2326     0.2264    23.9977 </r>
       <r>     0.3946     0.0153    24.0002 </r>
       <r>     0.5566    -0.0009    24.0000 </r>
       <r>     0.7186    -0.0000    24.0000 </r>
       <r>     0.8807    -0.0000    24.0000 </r>
       <r>     1.0427    -0.0000    24.0000 </r>
       <r>     1.2047    -0.0000    24.0000 </r>
       <r>     1.3667    -0.0000    24.0000 </r>
       <r>     1.5287    -0.0090    23.9985 </r>
       <r>     1.6908     0.1730    24.0266 </r>
       <r>     1.8528     1.2202    24.2243 </r>
       <r>     2.0148     2.7410    24.6684 </r>
       <r>     2.1768     5.3347    25.5327 </r>
       <r>     2.3388     3.5107    26.1015 </r>
       <r>     2.5008     4.9420    26.9022 </r>
       <r>     2.6629     4.9676    27.7070 </r>
       <r>     2.8249     3.3022    28.2420 </r>
       <r>     2.9869     2.9728    28.7237 </r>
       <r>     3.1489     2.5994    29.1448 </r>
       <r>     3.3109     2.5704    29.5613 </r>
       <r>     3.4730     1.5834    29.8178 </r>
       <r>     3.6350     2.1080    30.1594 </r>
       <r>     3.7970     0.9381    30.3114 </r>
       <r>     3.9590     1.9797    30.6321 </r>
       <r>     4.1210     2.0258    30.9603 </r>
       <r>     4.2831     2.9940    31.4454 </r>
       <r>     4.4451     1.5662    31.6991 </r>
       <r>     4.6071     1.1696    31.8887 </r>
       <r>     4.7691     0.6270    31.9902 </r>
       <r>     4.9311     0.0635    32.0005 </r>
       <r>     5.0932    -0.0033    32.0000 </r>
       <r>     5.2552    -0.0015    31.9997 </r>
       <r>     5.4172     0.0350    32.0054 </r>
       <r>     5.5792     0.2140    32.0401 </r>
       <r>     5.7412     0.1465    32.0638 </r>
       <r>     5.9032     0.5275    32.1493 </r>
       <r>     6.0653     0.2330    32.1871 </r>
       <r>     6.2273     0.9058    32.3338 </r>
       <r>     6.3893     0.7694    32.4585 </r>
       <r>     6.5513     1.0163    32.6231 </r>
       <r>     6.7133     1.1835    32.8149 </r>
       <r>     6.8754     1.3437    33.0326 </r>
       <r>     7.0374     1.9211    33.3438 </r>
       <r>     7.1994     1.4366    33.5766 </r>
       <r>     7.3614     1.6284    33.8404 </r>
       <r>     7.5234     1.4915    34.0821 </r>
       <r>     7.6855     1.5770    34.3376 </r>
       <r>     7.8475     1.2984    34.5479 </r>
       <r>     8.0095     1.2508    34.7506 </r>
       <r>     8.1715     1.5012    34.9938 </r>
       <r>     8.3335     2.2763    35.3626 </r>
       <r>     8.4956     1.5513    35.6140 </r>
       <r>     8.6576     1.1465    35.7997 </r>
       <r>     8.8196     0.6765    35.9093 </r>
       <r>     8.9816     0.4294    35.9789 </r>
       <r>     9.1436     0.1367    36.0010 </r>
       <r>     9.3057    -0.0064    36.0000 </r>
       <r>     9.4677    -0.0000    36.0000 </r>
       <r>     9.6297    -0.0000    36.0000 </r>
       <r>     9.7917     0.0000    36.0000 </r>
       <r>     9.9537     0.0000    36.0000 </r>
       <r>    10.1157     0.0000    36.0000 </r>
       <r>    10.2778     0.0000    36.0000 </r>
       <r>    10.4398     0.0000    36.0000 </r>
       <r>    10.6018     0.0000    36.0000 </r>
       <r>    10.7638     0.0000    36.0000 </r>
       <r>    10.9258     0.0000    36.0000 </r>
       <r>    11.0879     0.0000    36.0000 </r>
       <r>    11.2499     0.0000    36.0000 </r>
      </set>
      <set comment="spin 2">
       <r>   -37.3559     0.0000     0.0000 </r>
       <r>   -37.1938     0.0000     0.0000 </r>
       <r>   -37.0318     0.0000     0.0000 </r>
       <r>   -36.8698     0.0000     0.0000 </r>
       <r>   -36.7078     0.0000     0.0000 </r>
       <r>   -36.5458     0.0000     0.0000 </r>
       <r>   -36.3837     0.0000     0.0000 </r>
       <r>   -36.2217     0.0000     0.0000 </r>
       <r>   -36.0597    -0.0000    -0.0000 </r>
       <r>   -35.8977    -0.0000    -0.0000 </r>
       <r>   -35.7357    -0.0000    -0.0000 </r>
       <r>   -35.5736    -0.0000    -0.0000 </r>
       <r>   -35.4116    -0.0007    -0.0001 </r>
       <r>   -35.2496    -0.1832    -0.0298 </r>
       <r>   -35.0876     4.0152     0.6207 </r>
       <r>   -34.9256    14.9372     3.0408 </r>
       <r>   -34.7635    18.2207     5.9929 </r>
       <r>   -34.6015     0.0729     6.0048 </r>
       <r>   -34.4395    -0.0293     6.0000 </r>
       <r>   -34.2775    -0.0000     6.0000 </r>
       <r>   -34.1155    -0.0000     6.0000 </r>
       <r>   -33.9534     0.0000     6.0000 </r>
       <r>   -33.7914     0.0000     6.0000 </r>
       <r>   -33.6294     0.0000     6.0000 </r>
       <r>   -33.4674     0.0000     6.0000 </r>
       <r>   -33.3054     0.0000     6.0000 </r>
       <r>   -33.1434     0.0000     6.0000 </r>
       <r>   -32.9813     0.0000     6.0000 </r>
       <r>   -32.8193     0.0000     6.0000 </r>
       <r>   -32.6573     0.0000     6.0000 </r>
       <r>   -32.4953     0.0000     6.0000 </r>
       <r>   -32.3333     0.0000     6.0000 </r>
       <r>   -32.1712     0.0000     6.0000 </r>
       <r>   -32.0092     0.0000     6.0000 </r>
       <r>   -31.8472     0.0000     6.0000 </r>
       <r>   -31.6852     0.0000     6.0000 </r>
       <r>   -31.5232     0.0000     6.0000 </r>
       <r>   -31.3611     0.0000     6.0000 </r>
       <r>   -31.1991     0.0000     6.0000 </r>
       <r>   -31.0371     0.0000     6.0000 </r>
       <r>   -30.8751     0.0000     6.0000 </r>
       <r>   -30.7131     0.0000     6.0000 </r>
       <r>   -30.5510     0.0000     6.0000 </r>
       <r>   -30.3890     0.0000     6.0000 </r>
       <r>   -30.2270     0.0000     6.0000 </r>
       <r>   -30.0650     0.0000     6.0000 </r>
       <r>   -29.9030     0.0000     6.0000 </r>
       <r>   -29.7410     0.0000     6.0000 </r>
       <r>   -29.5789     0.0000     6.0000 </r>
       <r>   -29.4169     0.0000     6.0000 </r>
       <r>   -29.2549     0.0000     6.0000 </r>
       <r>   -29.0929     0.0000     6.0000 </r>
       <r>   -28.9309     0.0000     6.0000 </r>
       <r>   -28.7688     0.0000     6.0000 </r>
       <r>   -28.6068     0.0000     6.0000 </r>
       <r>   -28.4448     0.0000     6.0000 </r>
       <r>   -28.2828     0.0000     6.0000 </r>
       <r>   -28.1208     0.0000     6.0000 </r>
       <r>   -27.9587     0.0000     6.0000 </r>
       <r>   -27.7967     0.0000     6.0000 </r>
       <r>   -27.6347     0.0000     6.0000 </r>
       <r>   -27.4727     0.0000     6.0000 </r>
       <r>   -27.3107     0.0000     6.0000 </r>
       <r>   -27.1486     0.0000     6.0000 </r>
       <r>   -26.9866     0.0000     6.0000 </r>
       <r>   -26.8246     0.0000     6.0000 </r>
       <r>   -26.6626     0.0000     6.0000 </r>
       <r>   -26.5006     0.0000     6.0000 </r>
       <r>   -26.3386     0.0000     6.0000 </r>
       <r>   -26.1765     0.0000     6.0000 </r>
       <r>   -26.0145     0.0000     6.0000 </r>
       <r>   -25.8525     0.0000     6.0000 </r>
       <r>   -25.6905     0.0000     6.0000 </r>
       <r>   -25.5285     0.0000     6.0000 </r>
       <r>   -25.3664     0.0000     6.0000 </r>
       <r>   -25.2044     0.0000     6.0000 </r>
       <r>   -25.0424     0.0000     6.0000 </r>
       <r>   -24.8804     0.0000     6.0000 </r>
       <r>   -24.7184     0.0000     6.0000 </r>
       <r>   -24.5563     0.0000     6.0000 </r>
       <r>   -24.3943     0.0000     6.0000 </r>
       <r>   -24.2323     0.0000     6.0000 </r>
       <r>   -24.0703     0.0000     6.0000 </r>
       <r>   -23.9083     0.0000     6.0000 </r>
       <r>   -23.7462     0.0000     6.0000 </r>
       <r>   -23.5842     0.0000     6.0000 </r>
       <r>   -23.4222     0.0000     6.0000 </r>
       <r>   -23.2602     0.0000     6.0000 </r>
       <r>   -23.0982     0.0000     6.0000 </r>
       <r>   -22.9362     0.0000     6.0000 </r>
       <r>   -22.7741     0.0000     6.0000 </r>
       <r>   -22.6121     0.0000     6.0000 </r>
       <r>   -22.4501     0.0000     6.0000 </r>
       <r>   -22.2881     0.0000     6.0000 </r>
       <r>   -22.1261     0.0000     6.0000 </r>
       <r>   -21.9640     0.0000     6.0000 </r>
       <r>   -21.8020     0.0000     6.0000 </r>
       <r>   -21.6400     0.0000     6.0000 </r>
       <r>   -21.4780     0.0000     6.0000 </r>
       <r>   -21.3160     0.0000     6.0000 </r>
       <r>   -21.1539     0.0000     6.0000 </r>
       <r>   -20.9919     0.0000     6.0000 </r>
       <r>   -20.8299     0.0000     6.0000 </r>
       <r>   -20.6679     0.0000     6.0000 </r>
       <r>   -20.5059     0.0000     6.0000 </r>
       <r>   -20.3438     0.0000     6.0000 </r>
       <r>   -20.1818     0.0000     6.0000 </r>
       <r>   -20.0198     0.0000     6.0000 </r>
       <r>   -19.8578     0.0000     6.0000 </r>
       <r>   -19.6958     0.0000     6.0000 </r>
       <r>   -19.5337     0.0000     6.0000 </r>
       <r>   -19.3717     0.0000     6.0000 </r>
       <r>   -19.2097     0.0000     6.0000 </r>
       <r>   -19.0477     0.0000     6.0000 </r>
       <r>   -18.8857     0.0000     6.0000 </r>
       <r>   -18.7237     0.0000     6.0000 </r>
       <r>   -18.5616     0.0000     6.0000 </r>
       <r>   -18.3996     0.0000     6.0000 </r>
       <r>   -18.2376     0.0000     6.0000 </r>
       <r>   -18.0756     0.0000     6.0000 </r>
       <r>   -17.9136     0.0000     6.0000 </r>
       <r>   -17.7515     0.0000     6.0000 </r>
       <r>   -17.5895     0.0000     6.0000 </r>
       <r>   -17.4275     0.0000     6.0000 </r>
       <r>   -17.2655     0.0000     6.0000 </r>
       <r>   -17.1035     0.0000     6.0000 </r>
       <r>   -16.9414     0.0000     6.0000 </r>
       <r>   -16.7794     0.0000     6.0000 </r>
       <r>   -16.6174     0.0000     6.0000 </r>
       <r>   -16.4554     0.0000     6.0000 </r>
       <r>   -16.2934     0.0000     6.0000 </r>
       <r>   -16.1313     0.0000     6.0000 </r>
       <r>   -15.9693     0.0000     6.0000 </r>
       <r>   -15.8073     0.0000     6.0000 </r>
       <r>   -15.6453     0.0000     6.0000 </r>
       <r>   -15.4833     0.0000     6.0000 </r>
       <r>   -15.3213     0.0000     6.0000 </r>
       <r>   -15.1592     0.0000     6.0000 </r>
       <r>   -14.9972     0.0000     6.0000 </r>
       <r>   -14.8352    -0.0000     6.0000 </r>
       <r>   -14.6732    -0.0000     6.0000 </r>
       <r>   -14.5112    -0.0000     6.0000 </r>
       <r>   -14.3491    -0.0000     6.0000 </r>
       <r>   -14.1871    -0.0001     6.0000 </r>
       <r>   -14.0251    -0.0063     5.9990 </r>
       <r>   -13.8631     0.2330     6.0367 </r>
       <r>   -13.7011     0.4429     6.1085 </r>
       <r>   -13.5390     0.6612     6.2156 </r>
       <r>   -13.3770     0.4234     6.2842 </r>
       <r>   -13.2150     0.7754     6.4098 </r>
       <r>   -13.0530     0.2979     6.4581 </r>
       <r>   -12.8910     1.1269     6.6407 </r>
       <r>   -12.7289     0.4214     6.7090 </r>
       <r>   -12.5669     1.6295     6.9730 </r>
       <r>   -12.4049     2.2831     7.3429 </r>
       <r>   -12.2429     2.7330     7.7857 </r>
       <r>   -12.0809     3.8964     8.4170 </r>
       <r>   -11.9189     5.5499     9.3162 </r>
       <r>   -11.7568     4.0570     9.9735 </r>
       <r>   -11.5948     0.1765    10.0021 </r>
       <r>   -11.4328    -0.0127    10.0000 </r>
       <r>   -11.2708    -0.0000    10.0000 </r>
       <r>   -11.1088    -0.0000    10.0000 </r>
       <r>   -10.9467     0.0000    10.0000 </r>
       <r>   -10.7847     0.0000    10.0000 </r>
       <r>   -10.6227     0.0000    10.0000 </r>
       <r>   -10.4607     0.0000    10.0000 </r>
       <r>   -10.2987     0.0000    10.0000 </r>
       <r>   -10.1366     0.0000    10.0000 </r>
       <r>    -9.9746     0.0000    10.0000 </r>
       <r>    -9.8126     0.0000    10.0000 </r>
       <r>    -9.6506     0.0000    10.0000 </r>
       <r>    -9.4886     0.0000    10.0000 </r>
       <r>    -9.3265     0.0000    10.0000 </r>
       <r>    -9.1645     0.0000    10.0000 </r>
       <r>    -9.0025     0.0000    10.0000 </r>
       <r>    -8.8405     0.0000    10.0000 </r>
       <r>    -8.6785     0.0000    10.0000 </r>
       <r>    -8.5165     0.0000    10.0000 </r>
       <r>    -8.3544     0.0000    10.0000 </r>
       <r>    -8.1924     0.0000    10.0000 </r>
       <r>    -8.0304     0.0000    10.0000 </r>
       <r>    -7.8684     0.0000    10.0000 </r>
       <r>    -7.7064     0.0000    10.0000 </r>
       <r>    -7.5443     0.0000    10.0000 </r>
       <r>    -7.3823     0.0000    10.0000 </r>
       <r>    -7.2203     0.0000    10.0000 </r>
       <r>    -7.0583     0.0000    10.0000 </r>
       <r>    -6.8963     0.0000    10.0000 </r>
       <r>    -6.7342     0.0000    10.0000 </r>
       <r>    -6.5722    -0.0000    10.0000 </r>
       <r>    -6.4102    -0.0000    10.0000 </r>
       <r>    -6.2482    -0.0000    10.0000 </r>
       <r>    -6.0862    -0.0000    10.0000 </r>
       <r>    -5.9241    -0.0002    10.0000 </r>
       <r>    -5.7621    -0.0230     9.9962 </r>
       <r>    -5.6001     0.5787    10.0900 </r>
       <r>    -5.4381     1.2644    10.2949 </r>
       <r>    -5.2761     2.1374    10.6412 </r>
       <r>    -5.1140     2.8166    11.0975 </r>
       <r>    -4.9520     4.7672    11.8699 </r>
       <r>    -4.7900     2.7951    12.3227 </r>
       <r>    -4.6280     2.3388    12.7017 </r>
       <r>    -4.4660     1.5209    12.9481 </r>
       <r>    -4.3040     0.3952    13.0121 </r>
       <r>    -4.1419     0.7537    13.1342 </r>
       <r>    -3.9799     1.6217    13.3970 </r>
       <r>    -3.8179     3.9450    14.0362 </r>
       <r>    -3.6559     5.0451    14.8536 </r>
       <r>    -3.4939     2.7160    15.2936 </r>
       <r>    -3.3318     1.1446    15.4790 </r>
       <r>    -3.1698     3.3507    16.0219 </r>
       <r>    -3.0078     5.4111    16.8986 </r>
       <r>    -2.8458     3.1451    17.4082 </r>
       <r>    -2.6838     1.7505    17.6918 </r>
       <r>    -2.5217     0.9318    17.8428 </r>
       <r>    -2.3597     1.9914    18.1654 </r>
       <r>    -2.1977     1.4716    18.4039 </r>
       <r>    -2.0357     3.1980    18.9220 </r>
       <r>    -1.8737     3.7767    19.5339 </r>
       <r>    -1.7116     3.4697    20.0961 </r>
       <r>    -1.5496     2.9642    20.5763 </r>
       <r>    -1.3876     3.1914    21.0934 </r>
       <r>    -1.2256     1.6755    21.3649 </r>
       <r>    -1.0636     2.2669    21.7321 </r>
       <r>    -0.9016     1.7389    22.0139 </r>
       <r>    -0.7395     3.6602    22.6069 </r>
       <r>    -0.5775     2.9493    23.0847 </r>
       <r>    -0.4155     2.1071    23.4261 </r>
       <r>    -0.2535     1.9221    23.7375 </r>
       <r>    -0.0915     1.0652    23.9101 </r>
       <r>     0.0706     0.3140    23.9610 </r>
       <r>     0.2326     0.2264    23.9977 </r>
       <r>     0.3946     0.0153    24.0002 </r>
       <r>     0.5566    -0.0009    24.0000 </r>
       <r>     0.7186    -0.0000    24.0000 </r>
       <r>     0.8807    -0.0000    24.0000 </r>
       <r>     1.0427    -0.0000    24.0000 </r>
       <r>     1.2047    -0.0000    24.0000 </r>
       <r>     1.3667    -0.0000    24.0000 </r>
       <r>     1.5287    -0.0090    23.9985 </r>
       <r>     1.6908     0.1734    24.0266 </r>
       <r>     1.8528     1.2197    24.2242 </r>
       <r>     2.0148     2.7458    24.6691 </r>
       <r>     2.1768     5.3395    25.5342 </r>
       <r>     2.3388     3.5091    26.1028 </r>
       <r>     2.5008     4.9439    26.9038 </r>
       <r>     2.6629     4.9622    27.7077 </r>
       <r>     2.8249     3.3020    28.2427 </r>
       <r>     2.9869     2.9728    28.7244 </r>
       <r>     3.1489     2.6003    29.1457 </r>
       <r>     3.3109     2.5681    29.5618 </r>
       <r>     3.4730     1.5827    29.8182 </r>
       <r>     3.6350     2.1073    30.1596 </r>
       <r>     3.7970     0.9379    30.3116 </r>
       <r>     3.9590     1.9810    30.6326 </r>
       <r>     4.1210     2.0275    30.9611 </r>
       <r>     4.2831     2.9925    31.4459 </r>
       <r>     4.4451     1.5645    31.6994 </r>
       <r>     4.6071     1.1696    31.8889 </r>
       <r>     4.7691     0.6260    31.9903 </r>
       <r>     4.9311     0.0632    32.0005 </r>
       <r>     5.0932    -0.0033    32.0000 </r>
       <r>     5.2552    -0.0015    31.9998 </r>
       <r>     5.4172     0.0281    32.0043 </r>
       <r>     5.5792     0.2162    32.0393 </r>
       <r>     5.7412     0.1170    32.0583 </r>
       <r>     5.9032     0.4483    32.1309 </r>
       <r>     6.0653     0.2621    32.1734 </r>
       <r>     6.2273     0.8402    32.3095 </r>
       <r>     6.3893     0.9670    32.4662 </r>
       <r>     6.5513     0.8777    32.6084 </r>
       <r>     6.7133     1.2056    32.8037 </r>
       <r>     6.8754     1.7756    33.0914 </r>
       <r>     7.0374     1.2409    33.2924 </r>
       <r>     7.1994     1.9625    33.6104 </r>
       <r>     7.3614     1.4049    33.8380 </r>
       <r>     7.5234     1.3525    34.0572 </r>
       <r>     7.6855     2.0105    34.3829 </r>
       <r>     7.8475     1.3215    34.5970 </r>
       <r>     8.0095     0.8065    34.7277 </r>
       <r>     8.1715     1.4663    34.9652 </r>
       <r>     8.3335     2.6575    35.3958 </r>
       <r>     8.4956     1.7614    35.6812 </r>
       <r>     8.6576     0.6579    35.7878 </r>
       <r>     8.8196     0.7151    35.9037 </r>
       <r>     8.9816     0.4508    35.9767 </r>
       <r>     9.1436     0.1489    36.0008 </r>
       <r>     9.3057    -0.0050    36.0000 </r>
       <r>     9.4677    -0.0001    36.0000 </r>
       <r>     9.6297    -0.0000    36.0000 </r>
       <r>     9.7917    -0.0000    36.0000 </r>
       <r>     9.9537     0.0000    36.0000 </r>
       <r>    10.1157     0.0000    36.0000 </r>
       <r>    10.2778     0.0000    36.0000 </r>
       <r>    10.4398     0.0000    36.0000 </r>
       <r>    10.6018     0.0000    36.0000 </r>
       <r>    10.7638     0.0000    36.0000 </r>
       <r>    10.9258     0.0000    36.0000 </r>
       <r>    11.0879     0.0000    36.0000 </r>
       <r>    11.2499     0.0000    36.0000 </r>
      </set>
     </set>
    </array>
   </total>
  </dos>
 </calculation>
 <structure name="finalpos" >
  <crystal>
   <varray name="basis" >
    <v>       3.19031700       0.00000000       0.00000000 </v>
    <v>      -1.59515800       2.76289700       0.00000000 </v>
    <v>       0.00000000       0.00000000      23.14049200 </v>
   </varray>
   <i name="volume">    203.97226633 </i>
   <varray name="rec_basis" >
    <v>       0.31344848       0.18096941       0.00000000 </v>
    <v>       0.00000000       0.36193894       0.00000000 </v>
    <v>       0.00000000       0.00000000       0.04321429 </v>
   </varray>
  </crystal>
  <varray name="positions" >
   <v>       0.66666700       0.33333300       0.06785900 </v>
   <v>       0.33333300       0.66666700       0.00000000 </v>
   <v>       0.33333300       0.66666700       0.13571500 </v>
   <v>       0.80952414       0.90476157       0.35482300 </v>
   <v>       0.47619014       0.23809557       0.28696500 </v>
   <v>       0.47619014       0.23809557       0.42267900 </v>
  </varray>
 </structure>
</modeling>
