<?xml version="1.0" encoding="ISO-8859-1"?>
<modeling>
 <generator>
  <i name="program" type="string">vasp </i>
  <i name="version" type="string">5.4.1  </i>
  <i name="subversion" type="string">24Jun15 (build May 10 2016 14:18:23) complex                          parallel </i>
  <i name="platform" type="string">IFC91_ompi </i>
  <i name="date" type="string">2016 12 09 </i>
  <i name="time" type="string">14:59:17 </i>
 </generator>
 <incar>
  <i type="string" name="PREC">accurate</i>
  <i type="string" name="ALGO"> Fast</i>
  <i type="int" name="ISPIN">     2</i>
  <i type="int" name="IBRION">     2</i>
  <i name="EDIFF">      0.00010000</i>
  <i type="int" name="NSW">     0</i>
  <i type="int" name="ISIF">     3</i>
  <i name="ENCUT">    500.00000000</i>
  <v name="MAGMOM">      6.00000000      0.50000000      0.50000000      6.00000000      0.50000000      0.50000000</v>
  <i type="string" name="LREAL"> Auto</i>
  <i type="int" name="ISMEAR">     1</i>
  <i name="SIGMA">      0.10000000</i>
  <i type="logical" name="LWAVE"> F  </i>
  <i type="logical" name="LCHARG"> F  </i>
  <i type="logical" name="LVTOT"> T  </i>
  <i type="logical" name="LVHAR"> T  </i>
  <i type="logical" name="LAECHG"> F  </i>
  <v type="int" name="KPOINT_BSE">    -1     0     0     0</v>
  <i type="string" name="GGA"> Bo</i>
  <i name="PARAM1">      0.18333333</i>
  <i name="PARAM2">      0.22000000</i>
  <i type="logical" name="LUSE_VDW"> T  </i>
  <i name="AGGAC">      0.00000000</i>
 </incar>
 <kpoints>
  <generation param="Gamma">
   <v type="int" name="divisions">      13       13        1 </v>
   <v name="usershift">      0.00000000       0.00000000       0.00000000 </v>
   <v name="genvec1">      0.07692308       0.00000000       0.00000000 </v>
   <v name="genvec2">      0.00000000       0.07692308       0.00000000 </v>
   <v name="genvec3">      0.00000000       0.00000000       1.00000000 </v>
   <v name="shift">      0.00000000       0.00000000       0.00000000 </v>
  </generation>
  <varray name="kpointlist" >
   <v>       0.00000000       0.00000000       0.00000000 </v>
   <v>       0.07692308      -0.00000000       0.00000000 </v>
   <v>       0.15384615       0.00000000       0.00000000 </v>
   <v>       0.23076923       0.00000000       0.00000000 </v>
   <v>       0.30769231      -0.00000000       0.00000000 </v>
   <v>       0.38461538       0.00000000       0.00000000 </v>
   <v>       0.46153846       0.00000000       0.00000000 </v>
   <v>       0.00000000       0.07692308       0.00000000 </v>
   <v>       0.07692308       0.07692308       0.00000000 </v>
   <v>       0.15384615       0.07692308       0.00000000 </v>
   <v>       0.23076923       0.07692308       0.00000000 </v>
   <v>       0.30769231       0.07692308       0.00000000 </v>
   <v>       0.38461538       0.07692308       0.00000000 </v>
   <v>       0.46153846       0.07692308       0.00000000 </v>
   <v>      -0.46153846       0.07692308       0.00000000 </v>
   <v>      -0.38461538       0.07692308       0.00000000 </v>
   <v>      -0.30769231       0.07692308       0.00000000 </v>
   <v>      -0.23076923       0.07692308       0.00000000 </v>
   <v>      -0.15384615       0.07692308       0.00000000 </v>
   <v>      -0.07692308       0.07692308       0.00000000 </v>
   <v>       0.00000000       0.15384615       0.00000000 </v>
   <v>       0.07692308       0.15384615       0.00000000 </v>
   <v>       0.15384615       0.15384615       0.00000000 </v>
   <v>       0.23076923       0.15384615       0.00000000 </v>
   <v>       0.30769231       0.15384615       0.00000000 </v>
   <v>       0.38461538       0.15384615       0.00000000 </v>
   <v>       0.46153846       0.15384615       0.00000000 </v>
   <v>      -0.46153846       0.15384615       0.00000000 </v>
   <v>      -0.38461538       0.15384615       0.00000000 </v>
   <v>      -0.30769231       0.15384615       0.00000000 </v>
   <v>      -0.23076923       0.15384615       0.00000000 </v>
   <v>      -0.15384615       0.15384615       0.00000000 </v>
   <v>      -0.07692308       0.15384615       0.00000000 </v>
   <v>       0.00000000       0.23076923       0.00000000 </v>
   <v>       0.07692308       0.23076923       0.00000000 </v>
   <v>       0.15384615       0.23076923       0.00000000 </v>
   <v>       0.23076923       0.23076923       0.00000000 </v>
   <v>       0.30769231       0.23076923       0.00000000 </v>
   <v>       0.38461538       0.23076923       0.00000000 </v>
   <v>       0.46153846       0.23076923       0.00000000 </v>
   <v>      -0.46153846       0.23076923       0.00000000 </v>
   <v>      -0.38461538       0.23076923       0.00000000 </v>
   <v>      -0.30769231       0.23076923       0.00000000 </v>
   <v>      -0.23076923       0.23076923       0.00000000 </v>
   <v>      -0.15384615       0.23076923       0.00000000 </v>
   <v>      -0.07692308       0.23076923       0.00000000 </v>
   <v>       0.00000000       0.30769231       0.00000000 </v>
   <v>       0.07692308       0.30769231       0.00000000 </v>
   <v>       0.15384615       0.30769231       0.00000000 </v>
   <v>       0.23076923       0.30769231       0.00000000 </v>
   <v>       0.30769231       0.30769231       0.00000000 </v>
   <v>       0.38461538       0.30769231       0.00000000 </v>
   <v>       0.46153846       0.30769231       0.00000000 </v>
   <v>      -0.46153846       0.30769231       0.00000000 </v>
   <v>      -0.38461538       0.30769231       0.00000000 </v>
   <v>      -0.30769231       0.30769231       0.00000000 </v>
   <v>      -0.23076923       0.30769231       0.00000000 </v>
   <v>      -0.15384615       0.30769231       0.00000000 </v>
   <v>      -0.07692308       0.30769231       0.00000000 </v>
   <v>       0.00000000       0.38461538       0.00000000 </v>
   <v>       0.07692308       0.38461538       0.00000000 </v>
   <v>       0.15384615       0.38461538       0.00000000 </v>
   <v>       0.23076923       0.38461538       0.00000000 </v>
   <v>       0.30769231       0.38461538       0.00000000 </v>
   <v>       0.38461538       0.38461538       0.00000000 </v>
   <v>       0.46153846       0.38461538       0.00000000 </v>
   <v>      -0.46153846       0.38461538       0.00000000 </v>
   <v>      -0.38461538       0.38461538       0.00000000 </v>
   <v>      -0.30769231       0.38461538       0.00000000 </v>
   <v>      -0.23076923       0.38461538       0.00000000 </v>
   <v>      -0.15384615       0.38461538       0.00000000 </v>
   <v>      -0.07692308       0.38461538       0.00000000 </v>
   <v>       0.00000000       0.46153846       0.00000000 </v>
   <v>       0.07692308       0.46153846       0.00000000 </v>
   <v>       0.15384615       0.46153846       0.00000000 </v>
   <v>       0.23076923       0.46153846       0.00000000 </v>
   <v>       0.30769231       0.46153846       0.00000000 </v>
   <v>       0.38461538       0.46153846       0.00000000 </v>
   <v>       0.46153846       0.46153846       0.00000000 </v>
   <v>      -0.46153846       0.46153846       0.00000000 </v>
   <v>      -0.38461538       0.46153846       0.00000000 </v>
   <v>      -0.30769231       0.46153846       0.00000000 </v>
   <v>      -0.23076923       0.46153846       0.00000000 </v>
   <v>      -0.15384615       0.46153846       0.00000000 </v>
   <v>      -0.07692308       0.46153846       0.00000000 </v>
  </varray>
  <varray name="weights" >
   <v>       0.00591716 </v>
   <v>       0.01183432 </v>
   <v>       0.01183432 </v>
   <v>       0.01183432 </v>
   <v>       0.01183432 </v>
   <v>       0.01183432 </v>
   <v>       0.01183432 </v>
   <v>       0.01183432 </v>
   <v>       0.01183432 </v>
   <v>       0.01183432 </v>
   <v>       0.01183432 </v>
   <v>       0.01183432 </v>
   <v>       0.01183432 </v>
   <v>       0.01183432 </v>
   <v>       0.01183432 </v>
   <v>       0.01183432 </v>
   <v>       0.01183432 </v>
   <v>       0.01183432 </v>
   <v>       0.01183432 </v>
   <v>       0.01183432 </v>
   <v>       0.01183432 </v>
   <v>       0.01183432 </v>
   <v>       0.01183432 </v>
   <v>       0.01183432 </v>
   <v>       0.01183432 </v>
   <v>       0.01183432 </v>
   <v>       0.01183432 </v>
   <v>       0.01183432 </v>
   <v>       0.01183432 </v>
   <v>       0.01183432 </v>
   <v>       0.01183432 </v>
   <v>       0.01183432 </v>
   <v>       0.01183432 </v>
   <v>       0.01183432 </v>
   <v>       0.01183432 </v>
   <v>       0.01183432 </v>
   <v>       0.01183432 </v>
   <v>       0.01183432 </v>
   <v>       0.01183432 </v>
   <v>       0.01183432 </v>
   <v>       0.01183432 </v>
   <v>       0.01183432 </v>
   <v>       0.01183432 </v>
   <v>       0.01183432 </v>
   <v>       0.01183432 </v>
   <v>       0.01183432 </v>
   <v>       0.01183432 </v>
   <v>       0.01183432 </v>
   <v>       0.01183432 </v>
   <v>       0.01183432 </v>
   <v>       0.01183432 </v>
   <v>       0.01183432 </v>
   <v>       0.01183432 </v>
   <v>       0.01183432 </v>
   <v>       0.01183432 </v>
   <v>       0.01183432 </v>
   <v>       0.01183432 </v>
   <v>       0.01183432 </v>
   <v>       0.01183432 </v>
   <v>       0.01183432 </v>
   <v>       0.01183432 </v>
   <v>       0.01183432 </v>
   <v>       0.01183432 </v>
   <v>       0.01183432 </v>
   <v>       0.01183432 </v>
   <v>       0.01183432 </v>
   <v>       0.01183432 </v>
   <v>       0.01183432 </v>
   <v>       0.01183432 </v>
   <v>       0.01183432 </v>
   <v>       0.01183432 </v>
   <v>       0.01183432 </v>
   <v>       0.01183432 </v>
   <v>       0.01183432 </v>
   <v>       0.01183432 </v>
   <v>       0.01183432 </v>
   <v>       0.01183432 </v>
   <v>       0.01183432 </v>
   <v>       0.01183432 </v>
   <v>       0.01183432 </v>
   <v>       0.01183432 </v>
   <v>       0.01183432 </v>
   <v>       0.01183432 </v>
   <v>       0.01183432 </v>
   <v>       0.01183432 </v>
  </varray>
 </kpoints>
 <parameters>
  <separator name="general" >
   <i type="string" name="SYSTEM">unknown system</i>
   <i type="logical" name="LCOMPAT"> F  </i>
  </separator>
  <separator name="electronic" >
   <i type="string" name="PREC">accura</i>
   <i name="ENMAX">    500.00000000</i>
   <i name="ENAUG">    392.42700000</i>
   <i name="EDIFF">      0.00010000</i>
   <i type="int" name="IALGO">    68</i>
   <i type="int" name="IWAVPR">    10</i>
   <i type="int" name="NBANDS">    36</i>
   <i name="NELECT">     48.00000000</i>
   <i type="int" name="TURBO">     0</i>
   <i type="int" name="IRESTART">     0</i>
   <i type="int" name="NREBOOT">     0</i>
   <i type="int" name="NMIN">     0</i>
   <i name="EREF">      0.00000000</i>
   <separator name="electronic smearing" >
    <i type="int" name="ISMEAR">     1</i>
    <i name="SIGMA">      0.10000000</i>
    <i name="KSPACING">      0.50000000</i>
    <i type="logical" name="KGAMMA"> T  </i>
   </separator>
   <separator name="electronic projectors" >
    <i type="logical" name="LREAL"> T  </i>
    <v name="ROPT">     -0.00025000     -0.00025000     -0.00025000     -0.00025000</v>
    <i type="int" name="LMAXPAW">  -100</i>
    <i type="int" name="LMAXMIX">     2</i>
    <i type="logical" name="NLSPLINE"> F  </i>
   </separator>
   <separator name="electronic startup" >
    <i type="int" name="ISTART">     0</i>
    <i type="int" name="ICHARG">     2</i>
    <i type="int" name="INIWAV">     1</i>
   </separator>
   <separator name="electronic spin" >
    <i type="int" name="ISPIN">     2</i>
    <i type="logical" name="LNONCOLLINEAR"> F  </i>
    <v name="MAGMOM">      6.00000000      0.50000000      0.50000000      6.00000000      0.50000000      0.50000000</v>
    <i name="NUPDOWN">     -1.00000000</i>
    <i type="logical" name="LSORBIT"> F  </i>
    <v name="SAXIS">      0.00000000      0.00000000      1.00000000</v>
    <i type="logical" name="LSPIRAL"> F  </i>
    <v name="QSPIRAL">      0.00000000      0.00000000      0.00000000</v>
    <i type="logical" name="LZEROZ"> F  </i>
   </separator>
   <separator name="electronic exchange-correlation" >
    <i type="logical" name="LASPH"> F  </i>
    <i type="logical" name="LMETAGGA"> F  </i>
   </separator>
   <separator name="electronic convergence" >
    <i type="int" name="NELM">    60</i>
    <i type="int" name="NELMDL">     0</i>
    <i type="int" name="NELMIN">     2</i>
    <i name="ENINI">    500.00000000</i>
    <separator name="electronic convergence detail" >
     <i type="logical" name="LDIAG"> T  </i>
     <i type="logical" name="LSUBROT"> F  </i>
     <i name="WEIMIN">      0.00000000</i>
     <i name="EBREAK">      0.00000069</i>
     <i name="DEPER">      0.30000000</i>
     <i type="int" name="NRMM">     4</i>
     <i name="TIME">      0.40000000</i>
    </separator>
   </separator>
   <separator name="electronic mixer" >
    <i name="AMIX">      0.40000000</i>
    <i name="BMIX">      1.00000000</i>
    <i name="AMIN">      0.10000000</i>
    <i name="AMIX_MAG">      1.60000000</i>
    <i name="BMIX_MAG">      1.00000000</i>
    <separator name="electronic mixer details" >
     <i type="int" name="IMIX">     4</i>
     <i type="logical" name="MIXFIRST"> F  </i>
     <i type="int" name="MAXMIX">   -45</i>
     <i name="WC">    100.00000000</i>
     <i type="int" name="INIMIX">     1</i>
     <i type="int" name="MIXPRE">     1</i>
     <i type="int" name="MREMOVE">     5</i>
    </separator>
   </separator>
   <separator name="electronic dipolcorrection" >
    <i type="logical" name="LDIPOL"> F  </i>
    <i type="logical" name="LMONO"> F  </i>
    <i type="int" name="IDIPOL">     0</i>
    <i name="EPSILON">      1.00000000</i>
    <v name="DIPOL">   -100.00000000   -100.00000000   -100.00000000</v>
    <i name="EFIELD">      0.00000000</i>
   </separator>
  </separator>
  <separator name="grids" >
   <i type="int" name="NGX">    24</i>
   <i type="int" name="NGY">    24</i>
   <i type="int" name="NGZ">   180</i>
   <i type="int" name="NGXF">    48</i>
   <i type="int" name="NGYF">    48</i>
   <i type="int" name="NGZF">   360</i>
   <i type="logical" name="ADDGRID"> F  </i>
  </separator>
  <separator name="ionic" >
   <i type="int" name="NSW">     0</i>
   <i type="int" name="IBRION">    -1</i>
   <i type="int" name="ISIF">     3</i>
   <i name="PSTRESS">      0.00000000</i>
   <i name="EDIFFG">      0.00100000</i>
   <i type="int" name="NFREE">     1</i>
   <i name="POTIM">      0.50000000</i>
   <i name="SMASS">     -3.00000000</i>
   <i name="SCALEE">      1.00000000</i>
  </separator>
  <separator name="ionic md" >
   <i name="TEBEG">      0.00010000</i>
   <i name="TEEND">      0.00010000</i>
   <i type="int" name="NBLOCK">     1</i>
   <i type="int" name="KBLOCK">     1</i>
   <i type="int" name="NPACO">   256</i>
   <i name="APACO">     16.00000000</i>
  </separator>
  <separator name="symmetry" >
   <i type="int" name="ISYM">     2</i>
   <i name="SYMPREC">      0.00001000</i>
  </separator>
  <separator name="dos" >
   <i type="logical" name="LORBIT"> F  </i>
   <v name="RWIGS">     -1.00000000     -1.00000000     -1.00000000     -1.00000000</v>
   <i type="int" name="NEDOS">   301</i>
   <i name="EMIN">     10.00000000</i>
   <i name="EMAX">    -10.00000000</i>
   <i name="EFERMI">      0.00000000</i>
  </separator>
  <separator name="writing" >
   <i type="int" name="NWRITE">     2</i>
   <i type="logical" name="LWAVE"> F  </i>
   <i type="logical" name="LCHARG"> F  </i>
   <i type="logical" name="LPARD"> F  </i>
   <i type="logical" name="LVTOT"> F  </i>
   <i type="logical" name="LVHAR"> T  </i>
   <i type="logical" name="LELF"> F  </i>
   <i type="logical" name="LOPTICS"> F  </i>
   <v name="STM">      0.00000000      0.00000000      0.00000000      0.00000000      0.00000000      0.00000000      0.00000000</v>
  </separator>
  <separator name="performance" >
   <i type="int" name="NPAR">     4</i>
   <i type="int" name="NSIM">     4</i>
   <i type="int" name="NBLK">    -1</i>
   <i type="logical" name="LPLANE"> T  </i>
   <i type="logical" name="LSCALAPACK"> T  </i>
   <i type="logical" name="LSCAAWARE"> F  </i>
   <i type="logical" name="LSCALU"> F  </i>
   <i type="logical" name="LASYNC"> F  </i>
   <i type="logical" name="LORBITALREAL"> F  </i>
  </separator>
  <separator name="miscellaneous" >
   <i type="int" name="IDIOT">     3</i>
   <i type="logical" name="LMUSIC"> F  </i>
   <v name="POMASS">     95.94000000     32.06600000     95.94000000     32.06600000</v>
   <v name="DARWINR">      0.00000000      0.00000000      0.00000000      0.00000000</v>
   <v name="DARWINV">      1.00000000      1.00000000      1.00000000      1.00000000</v>
   <i type="logical" name="LCORR"> T  </i>
  </separator>
  <i type="logical" name="GGA_COMPAT"> T  </i>
  <i type="logical" name="LBERRY"> F  </i>
  <i type="int" name="ICORELEVEL">     0</i>
  <i type="logical" name="LDAU"> F  </i>
  <i type="int" name="I_CONSTRAINED_M">     0</i>
  <separator name="electronic exchange-correlation" >
   <i type="string" name="GGA">BO</i>
   <i type="int" name="VOSKOWN">     0</i>
   <i type="logical" name="LHFCALC"> F  </i>
   <i type="string" name="PRECFOCK"></i>
   <i type="logical" name="LSYMGRAD"> F  </i>
   <i type="logical" name="LHFONE"> F  </i>
   <i type="logical" name="LRHFCALC"> F  </i>
   <i type="logical" name="LTHOMAS"> F  </i>
   <i type="logical" name="LMODELHF"> F  </i>
   <i name="ENCUT4O">     -1.00000000</i>
   <i type="int" name="EXXOEP">     0</i>
   <i type="int" name="FOURORBIT">     0</i>
   <i name="AEXX">      0.00000000</i>
   <i name="HFALPHA">      0.00000000</i>
   <i name="MCALPHA">      0.00000000</i>
   <i name="ALDAX">      1.00000000</i>
   <i name="AGGAX">      1.00000000</i>
   <i name="ALDAC">      1.00000000</i>
   <i name="AGGAC">      0.00000000</i>
   <i type="int" name="NKREDX">     1</i>
   <i type="int" name="NKREDY">     1</i>
   <i type="int" name="NKREDZ">     1</i>
   <i type="logical" name="SHIFTRED"> F  </i>
   <i type="logical" name="ODDONLY"> F  </i>
   <i type="logical" name="EVENONLY"> F  </i>
   <i type="int" name="LMAXFOCK">     0</i>
   <i type="int" name="NMAXFOCKAE">     0</i>
   <i type="logical" name="LFOCKAEDFT"> F  </i>
   <i name="HFSCREEN">      0.00000000</i>
   <i name="HFSCREENC">      0.00000000</i>
   <i type="int" name="NBANDSGWLOW">     0</i>
  </separator>
  <separator name="vdW DFT" >
   <i type="logical" name="LUSE_VDW"> T  </i>
   <i name="Zab_VDW">     -0.84910000</i>
   <i name="PARAM1">      0.18333333</i>
   <i name="PARAM2">      0.22000000</i>
   <i name="PARAM3">      0.00000000</i>
  </separator>
  <separator name="model GW" >
   <i type="int" name="MODEL_GW">     0</i>
   <i name="MODEL_EPS0">     20.39722663</i>
   <i name="MODEL_ALPHA">      1.00000000</i>
  </separator>
  <separator name="linear response parameters" >
   <i type="logical" name="LEPSILON"> F  </i>
   <i type="logical" name="LRPA"> F  </i>
   <i type="logical" name="LNABLA"> F  </i>
   <i type="logical" name="LVEL"> F  </i>
   <i type="int" name="KINTER">     0</i>
   <i name="CSHIFT">      0.10000000</i>
   <i name="OMEGAMAX">     -1.00000000</i>
   <i name="DEG_THRESHOLD">      0.00200000</i>
  </separator>
  <separator name="orbital magnetization" >
   <i type="logical" name="NUCIND"> F  </i>
   <v name="MAGPOS">      0.00000000      0.00000000      0.00000000</v>
   <i type="logical" name="LNICSALL"> T  </i>
   <i type="logical" name="ORBITALMAG"> F  </i>
   <i type="logical" name="LMAGBLOCH"> F  </i>
   <i type="logical" name="LCHIMAG"> F  </i>
   <i type="logical" name="LGAUGE"> T  </i>
   <i type="int" name="MAGATOM">     0</i>
   <v name="MAGDIPOL">      0.00000000      0.00000000      0.00000000</v>
   <v name="AVECCONST">      0.00000000      0.00000000      0.00000000</v>
  </separator>
  <separator name="response functions" >
   <i type="logical" name="LADDER"> F  </i>
   <i type="logical" name="LFXC"> F  </i>
   <i type="logical" name="LHARTREE"> T  </i>
   <i type="int" name="IBSE">     0</i>
   <v type="int" name="KPOINT">    -1     0     0     0</v>
   <i type="logical" name="LTCTE"> F  </i>
   <i type="logical" name="LTETE"> F  </i>
   <i type="logical" name="LTRIPLET"> F  </i>
   <i type="logical" name="LFXCEPS"> F  </i>
   <i type="logical" name="LFXHEG"> F  </i>
   <i type="int" name="NATURALO">     0</i>
   <i type="logical" name="L2ORDER"> F  </i>
   <i type="logical" name="LUSEW"> F  </i>
   <i name="ENCUTGW">     -2.00000000</i>
   <i name="ENCUTGWSOFT">     -2.00000000</i>
   <i name="ENCUTLF">     -1.00000000</i>
   <i type="int" name="LMAXMP2">    -1</i>
   <i name="SCISSOR">      0.00000000</i>
   <i type="int" name="NOMEGA">     0</i>
   <i type="int" name="NOMEGAR">     0</i>
   <i type="int" name="NBANDSGW">    -1</i>
   <i type="int" name="NBANDSO">    -1</i>
   <i type="int" name="NBANDSV">    -1</i>
   <i type="int" name="NELM">     1</i>
   <i type="int" name="NELMHF">     1</i>
   <i type="int" name="DIM">     3</i>
   <i type="int" name="ANTIRES">     0</i>
   <i name="OMEGAMAX">    -30.00000000</i>
   <i name="OMEGAMIN">    -30.00000000</i>
   <i name="OMEGATL">   -200.00000000</i>
   <i type="int" name="OMEGAGRID">     0</i>
   <i name="CSHIFT">     -0.10000000</i>
   <i type="logical" name="SELFENERGY"> F  </i>
   <i type="logical" name="LSPECTRAL"> F  </i>
   <i type="logical" name="LSPECTRALGW"> F  </i>
   <i type="logical" name="LSINGLES"> F  </i>
   <i type="logical" name="LFERMIGW"> F  </i>
   <i type="logical" name="ODDONLYGW"> F  </i>
   <i type="logical" name="EVENONLYGW"> F  </i>
   <i type="int" name="NKREDLFX">     1</i>
   <i type="int" name="NKREDLFY">     1</i>
   <i type="int" name="NKREDLFZ">     1</i>
   <i type="int" name="MAXMEM">  1800</i>
   <i type="int" name="TELESCOPE">     0</i>
   <i type="int" name="TAUPAR">     1</i>
   <i type="int" name="OMEGAPAR">    -1</i>
   <i name="LAMBDA">      1.00000000</i>
  </separator>
  <separator name="External order field" >
   <i name="OFIELD_KAPPA">      0.00000000</i>
   <v name="OFIELD_K">      0.00000000      0.00000000      0.00000000</v>
   <i name="OFIELD_Q6_NEAR">      0.00000000</i>
   <i name="OFIELD_Q6_FAR">      0.00000000</i>
   <i name="OFIELD_A">      0.00000000</i>
  </separator>
 </parameters>
 <atominfo>
  <atoms>       6 </atoms>
  <types>       4 </types>
  <array name="atoms" >
   <dimension dim="1">ion</dimension>
   <field type="string">element</field>
   <field type="int">atomtype</field>
   <set>
    <rc><c>Mo</c><c>   1</c></rc>
    <rc><c>S </c><c>   2</c></rc>
    <rc><c>S </c><c>   2</c></rc>
    <rc><c>Mo</c><c>   3</c></rc>
    <rc><c>S </c><c>   4</c></rc>
    <rc><c>S </c><c>   4</c></rc>
   </set>
  </array>
  <array name="atomtypes" >
   <dimension dim="1">type</dimension>
   <field type="int">atomspertype</field>
   <field type="string">element</field>
   <field>mass</field>
   <field>valence</field>
   <field type="string">pseudopotential</field>
   <set>
    <rc><c>   1</c><c>Mo</c><c>     95.94000000</c><c>     12.00000000</c><c> PAW_PBE Mo_pv 08Apr2002                </c></rc>
    <rc><c>   2</c><c>S </c><c>     32.06600000</c><c>      6.00000000</c><c>  PAW_PBE S 17Jan2003                   </c></rc>
    <rc><c>   1</c><c>Mo</c><c>     95.94000000</c><c>     12.00000000</c><c> PAW_PBE Mo_pv 08Apr2002                </c></rc>
    <rc><c>   2</c><c>S </c><c>     32.06600000</c><c>      6.00000000</c><c>  PAW_PBE S 17Jan2003                   </c></rc>
   </set>
  </array>
 </atominfo>
 <structure name="initialpos" >
  <crystal>
   <varray name="basis" >
    <v>       3.19031700       0.00000000       0.00000000 </v>
    <v>      -1.59515800       2.76289700       0.00000000 </v>
    <v>       0.00000000       0.00000000      23.14049200 </v>
   </varray>
   <i name="volume">    203.97226633 </i>
   <varray name="rec_basis" >
    <v>       0.31344848       0.18096941       0.00000000 </v>
    <v>       0.00000000       0.36193894       0.00000000 </v>
    <v>       0.00000000       0.00000000       0.04321429 </v>
   </varray>
  </crystal>
  <varray name="positions" >
   <v>       0.66666700       0.33333300       0.06785900 </v>
   <v>       0.33333300       0.66666700       0.00000000 </v>
   <v>       0.33333300       0.66666700       0.13571500 </v>
   <v>       0.09523843       0.61904729       0.35482300 </v>
   <v>       0.76190443       0.95238129       0.28696500 </v>
   <v>       0.76190443       0.95238129       0.42267900 </v>
  </varray>
 </structure>
 <calculation>
  <scstep>
   <time name="dav">   56.86   56.91</time>
   <time name="total">   67.06   67.13</time>
   <energy>
    <i name="alphaZ">    104.15310261 </i>
    <i name="ewald">   7699.04583333 </i>
    <i name="hartreedc"> -11109.09877559 </i>
    <i name="XCdc">    128.46409968 </i>
    <i name="pawpsdc">   2252.92270536 </i>
    <i name="pawaedc">  -2205.68654582 </i>
    <i name="eentropy">      0.00072068 </i>
    <i name="bandstr">   -159.53594947 </i>
    <i name="atom">   3688.31848598 </i>
    <i name="e_fr_energy">    398.58367677 </i>
    <i name="e_wo_entrp">    398.58295609 </i>
    <i name="e_0_energy">    398.58343654 </i>
   </energy>
  </scstep>
  <scstep>
   <time name="dav">   61.21   61.30</time>
   <time name="total">   61.22   61.31</time>
   <energy>
    <i name="e_fr_energy">     -1.43881427 </i>
    <i name="e_wo_entrp">     -1.43698467 </i>
    <i name="e_0_energy">     -1.43820440 </i>
   </energy>
  </scstep>
  <scstep>
   <time name="dav">   63.61   63.67</time>
   <time name="total">   63.62   63.69</time>
   <energy>
    <i name="e_fr_energy">    -32.96328458 </i>
    <i name="e_wo_entrp">    -32.96381437 </i>
    <i name="e_0_energy">    -32.96346118 </i>
   </energy>
  </scstep>
  <scstep>
   <time name="dav">   61.18   61.24</time>
   <time name="total">   61.19   61.26</time>
   <energy>
    <i name="e_fr_energy">    -33.84552853 </i>
    <i name="e_wo_entrp">    -33.84673139 </i>
    <i name="e_0_energy">    -33.84592948 </i>
   </energy>
  </scstep>
  <scstep>
   <time name="dav">   63.35   63.41</time>
   <time name="total">   68.08   68.15</time>
   <energy>
    <i name="e_fr_energy">    -33.87255567 </i>
    <i name="e_wo_entrp">    -33.87378521 </i>
    <i name="e_0_energy">    -33.87296552 </i>
   </energy>
  </scstep>
  <scstep>
   <time name="diag">   11.54   11.55</time>
   <time name="diis">   41.55   41.59</time>
   <time name="orth">    0.38    0.38</time>
   <time name="total">   68.28   68.34</time>
   <energy>
    <i name="e_fr_energy">    -30.13664427 </i>
    <i name="e_wo_entrp">    -30.13613511 </i>
    <i name="e_0_energy">    -30.13647455 </i>
   </energy>
  </scstep>
  <scstep>
   <time name="diag">   11.60   11.61</time>
   <time name="diis">   41.60   41.65</time>
   <time name="orth">    0.38    0.39</time>
   <time name="total">   68.25   68.33</time>
   <energy>
    <i name="e_fr_energy">    -32.90632772 </i>
    <i name="e_wo_entrp">    -32.90650196 </i>
    <i name="e_0_energy">    -32.90638580 </i>
   </energy>
  </scstep>
  <scstep>
   <time name="diag">   11.66   11.67</time>
   <time name="diis">   41.71   41.76</time>
   <time name="orth">    0.39    0.39</time>
   <time name="total">   68.38   68.46</time>
   <energy>
    <i name="e_fr_energy">    -34.57148601 </i>
    <i name="e_wo_entrp">    -34.57165147 </i>
    <i name="e_0_energy">    -34.57154116 </i>
   </energy>
  </scstep>
  <scstep>
   <time name="diag">   11.66   11.68</time>
   <time name="diis">   40.35   40.40</time>
   <time name="orth">    0.39    0.39</time>
   <time name="total">   67.21   67.30</time>
   <energy>
    <i name="e_fr_energy">    -37.05635220 </i>
    <i name="e_wo_entrp">    -37.05651952 </i>
    <i name="e_0_energy">    -37.05640797 </i>
   </energy>
  </scstep>
  <scstep>
   <time name="diag">   11.69   11.70</time>
   <time name="diis">   38.53   38.55</time>
   <time name="orth">    0.39    0.39</time>
   <time name="total">   65.34   65.39</time>
   <energy>
    <i name="e_fr_energy">    -39.05237034 </i>
    <i name="e_wo_entrp">    -39.05253798 </i>
    <i name="e_0_energy">    -39.05242622 </i>
   </energy>
  </scstep>
  <scstep>
   <time name="diag">   11.56   12.33</time>
   <time name="diis">   39.87   42.57</time>
   <time name="orth">    0.39    0.42</time>
   <time name="total">   66.44   70.90</time>
   <energy>
    <i name="e_fr_energy">    -39.38590745 </i>
    <i name="e_wo_entrp">    -39.38623963 </i>
    <i name="e_0_energy">    -39.38601818 </i>
   </energy>
  </scstep>
  <scstep>
   <time name="diag">   11.51   12.32</time>
   <time name="diis">   39.18   41.85</time>
   <time name="orth">    0.39    0.40</time>
   <time name="total">   65.67   70.22</time>
   <energy>
    <i name="e_fr_energy">    -39.40552568 </i>
    <i name="e_wo_entrp">    -39.40585815 </i>
    <i name="e_0_energy">    -39.40563650 </i>
   </energy>
  </scstep>
  <scstep>
   <time name="diag">   11.60   12.41</time>
   <time name="diis">   43.11   45.96</time>
   <time name="orth">    0.39    0.42</time>
   <time name="total">   69.72   74.39</time>
   <energy>
    <i name="e_fr_energy">    -39.41707271 </i>
    <i name="e_wo_entrp">    -39.41740613 </i>
    <i name="e_0_energy">    -39.41718385 </i>
   </energy>
  </scstep>
  <scstep>
   <time name="diag">   11.56   12.38</time>
   <time name="diis">   40.82   43.16</time>
   <time name="orth">    0.39    0.40</time>
   <time name="total">   67.44   71.56</time>
   <energy>
    <i name="e_fr_energy">    -39.42038882 </i>
    <i name="e_wo_entrp">    -39.42072297 </i>
    <i name="e_0_energy">    -39.42050021 </i>
   </energy>
  </scstep>
  <scstep>
   <time name="diag">   11.58   11.71</time>
   <time name="diis">   36.50   38.33</time>
   <time name="orth">    0.39    0.40</time>
   <time name="total">   63.14   65.79</time>
   <energy>
    <i name="e_fr_energy">    -39.42001469 </i>
    <i name="e_wo_entrp">    -39.42034880 </i>
    <i name="e_0_energy">    -39.42012606 </i>
   </energy>
  </scstep>
  <scstep>
   <time name="diag">   11.55   12.36</time>
   <time name="diis">   28.28   30.23</time>
   <time name="orth">    0.39    0.42</time>
   <time name="total">   54.77   58.65</time>
   <energy>
    <i name="e_fr_energy">    -39.42022812 </i>
    <i name="e_wo_entrp">    -39.42056228 </i>
    <i name="e_0_energy">    -39.42033951 </i>
   </energy>
  </scstep>
  <scstep>
   <time name="diag">   11.50   12.25</time>
   <time name="diis">   27.75   29.66</time>
   <time name="orth">    0.39    0.42</time>
   <time name="total">   54.29   58.09</time>
   <energy>
    <i name="e_fr_energy">    -39.42036934 </i>
    <i name="e_wo_entrp">    -39.42070349 </i>
    <i name="e_0_energy">    -39.42048072 </i>
   </energy>
  </scstep>
  <scstep>
   <time name="diag">   11.61   12.31</time>
   <time name="diis">   26.29   28.08</time>
   <time name="orth">    0.39    0.41</time>
   <time name="total">   52.80   56.35</time>
   <energy>
    <i name="e_fr_energy">    -39.42072959 </i>
    <i name="e_wo_entrp">    -39.42106371 </i>
    <i name="e_0_energy">    -39.42084096 </i>
   </energy>
  </scstep>
  <scstep>
   <time name="diag">   11.56   12.46</time>
   <time name="diis">   25.83   27.48</time>
   <time name="orth">    0.38    0.40</time>
   <time name="total">   52.37   56.06</time>
   <energy>
    <i name="e_fr_energy">    -39.42118257 </i>
    <i name="e_wo_entrp">    -39.42151666 </i>
    <i name="e_0_energy">    -39.42129393 </i>
   </energy>
  </scstep>
  <scstep>
   <time name="diag">   11.57   12.27</time>
   <time name="diis">   26.94   28.54</time>
   <time name="orth">    0.39    0.42</time>
   <time name="total">   53.59   56.50</time>
   <energy>
    <i name="e_fr_energy">    -39.42140646 </i>
    <i name="e_wo_entrp">    -39.42174053 </i>
    <i name="e_0_energy">    -39.42151782 </i>
   </energy>
  </scstep>
  <scstep>
   <time name="diag">   11.55   12.36</time>
   <time name="diis">   26.05   27.80</time>
   <time name="orth">    0.39    0.42</time>
   <time name="total">   47.73   51.01</time>
   <energy>
    <i name="alphaZ">    104.15310261 </i>
    <i name="ewald">   7699.04583333 </i>
    <i name="hartreedc"> -11092.71501969 </i>
    <i name="XCdc">    122.66128033 </i>
    <i name="pawpsdc">   2399.31439833 </i>
    <i name="pawaedc">  -2361.49861810 </i>
    <i name="eentropy">      0.00033406 </i>
    <i name="bandstr">   -598.70123760 </i>
    <i name="atom">   3688.31848598 </i>
    <i name="e_fr_energy">    -39.42144075 </i>
    <i name="e_wo_entrp">    -39.42177482 </i>
    <i name="e_0_energy">    -39.42155211 </i>
   </energy>
  </scstep>
  <structure>
   <crystal>
    <varray name="basis" >
     <v>       3.19031700       0.00000000       0.00000000 </v>
     <v>      -1.59515800       2.76289700       0.00000000 </v>
     <v>       0.00000000       0.00000000      23.14049200 </v>
    </varray>
    <i name="volume">    203.97226633 </i>
    <varray name="rec_basis" >
     <v>       0.31344848       0.18096941       0.00000000 </v>
     <v>       0.00000000       0.36193894       0.00000000 </v>
     <v>       0.00000000       0.00000000       0.04321429 </v>
    </varray>
   </crystal>
   <varray name="positions" >
    <v>       0.66666700       0.33333300       0.06785900 </v>
    <v>       0.33333300       0.66666700       0.00000000 </v>
    <v>       0.33333300       0.66666700       0.13571500 </v>
    <v>       0.09523843       0.61904729       0.35482300 </v>
    <v>       0.76190443       0.95238129       0.28696500 </v>
    <v>       0.76190443       0.95238129       0.42267900 </v>
   </varray>
  </structure>
  <varray name="forces" >
   <v>      -0.00390231      -0.00227570      -0.00297594 </v>
   <v>      -0.00137279       0.00064177      -0.05504666 </v>
   <v>      -0.02124170      -0.01603597       0.10823691 </v>
   <v>       0.00297337       0.00235650       0.00815036 </v>
   <v>       0.02358834       0.01634053      -0.11502846 </v>
   <v>      -0.00004491      -0.00102713       0.05666380 </v>
  </varray>
  <varray name="stress" >
   <v>       3.50530643       0.26895661       0.72231993 </v>
   <v>       0.26895661       3.51834648       0.56992790 </v>
   <v>       0.72231991       0.56992791       0.31188877 </v>
  </varray>
  <energy>
   <i name="e_fr_energy">    -39.42144075 </i>
   <i name="e_wo_entrp">    -39.42155211 </i>
   <i name="e_0_energy">      0.00033406 </i>
  </energy>
  <time name="totalsc"> 1408.18 1461.49</time>
  <eigenvalues>
   <array>
    <dimension dim="1">band</dimension>
    <dimension dim="2">kpoint</dimension>
    <dimension dim="3">spin</dimension>
    <field>eigene</field>
    <field>occ</field>
    <set>
     <set comment="spin 1">
      <set comment="kpoint 1">
       <r>  -34.9961    1.0000 </r>
       <r>  -34.9861    1.0000 </r>
       <r>  -34.8052    1.0000 </r>
       <r>  -34.8051    1.0000 </r>
       <r>  -34.7953    1.0000 </r>
       <r>  -34.7952    1.0000 </r>
       <r>  -13.9755    1.0000 </r>
       <r>  -13.9192    1.0000 </r>
       <r>  -12.7096    1.0000 </r>
       <r>  -12.6159    1.0000 </r>
       <r>   -5.6868    1.0000 </r>
       <r>   -5.3980    1.0000 </r>
       <r>   -2.6255    1.0000 </r>
       <r>   -2.6253    1.0000 </r>
       <r>   -2.6152    1.0000 </r>
       <r>   -2.6151    1.0000 </r>
       <r>   -2.1775    1.0000 </r>
       <r>   -1.5328    1.0000 </r>
       <r>   -1.5317    1.0000 </r>
       <r>   -1.5215    1.0000 </r>
       <r>   -1.5212    1.0000 </r>
       <r>   -1.4737    1.0000 </r>
       <r>   -0.2238    1.0000 </r>
       <r>    0.2145    0.7958 </r>
       <r>    2.6913   -0.0000 </r>
       <r>    2.6970   -0.0000 </r>
       <r>    2.7119   -0.0000 </r>
       <r>    2.7164   -0.0000 </r>
       <r>    2.8721   -0.0000 </r>
       <r>    2.8788   -0.0000 </r>
       <r>    2.8959   -0.0000 </r>
       <r>    2.9040   -0.0000 </r>
       <r>    5.2751    0.0000 </r>
       <r>    5.3946    0.0000 </r>
       <r>    6.3849    0.0000 </r>
       <r>    6.5426    0.0000 </r>
      </set>
      <set comment="kpoint 2">
       <r>  -34.9920    1.0000 </r>
       <r>  -34.9820    1.0000 </r>
       <r>  -34.8265    1.0000 </r>
       <r>  -34.8164    1.0000 </r>
       <r>  -34.8099    1.0000 </r>
       <r>  -34.8001    1.0000 </r>
       <r>  -13.8888    1.0000 </r>
       <r>  -13.8327    1.0000 </r>
       <r>  -12.6728    1.0000 </r>
       <r>  -12.5816    1.0000 </r>
       <r>   -5.5873    1.0000 </r>
       <r>   -5.2993    1.0000 </r>
       <r>   -2.8126    1.0000 </r>
       <r>   -2.8017    1.0000 </r>
       <r>   -2.5347    1.0000 </r>
       <r>   -2.5244    1.0000 </r>
       <r>   -2.4633    1.0000 </r>
       <r>   -2.0727    1.0000 </r>
       <r>   -1.6695    1.0000 </r>
       <r>   -1.6586    1.0000 </r>
       <r>   -1.3564    1.0000 </r>
       <r>   -1.0750    1.0000 </r>
       <r>   -0.2441    1.0000 </r>
       <r>    0.1359    1.0348 </r>
       <r>    2.5909   -0.0000 </r>
       <r>    2.6052   -0.0000 </r>
       <r>    2.6469   -0.0000 </r>
       <r>    2.6955   -0.0000 </r>
       <r>    2.7805   -0.0000 </r>
       <r>    2.8034   -0.0000 </r>
       <r>    2.8463   -0.0000 </r>
       <r>    2.8604   -0.0000 </r>
       <r>    5.4144    0.0000 </r>
       <r>    5.5317    0.0000 </r>
       <r>    6.7408    0.0000 </r>
       <r>    6.9262    0.0000 </r>
      </set>
      <set comment="kpoint 3">
       <r>  -34.9806    1.0000 </r>
       <r>  -34.9706    1.0000 </r>
       <r>  -34.8850    1.0000 </r>
       <r>  -34.8749    1.0000 </r>
       <r>  -34.8233    1.0000 </r>
       <r>  -34.8135    1.0000 </r>
       <r>  -13.6400    1.0000 </r>
       <r>  -13.5851    1.0000 </r>
       <r>  -12.5675    1.0000 </r>
       <r>  -12.4837    1.0000 </r>
       <r>   -5.3266    1.0000 </r>
       <r>   -5.0457    1.0000 </r>
       <r>   -3.2629    1.0000 </r>
       <r>   -3.2495    1.0000 </r>
       <r>   -2.9624    1.0000 </r>
       <r>   -2.6889    1.0000 </r>
       <r>   -2.2795    1.0000 </r>
       <r>   -2.2684    1.0000 </r>
       <r>   -2.0054    1.0000 </r>
       <r>   -1.9929    1.0000 </r>
       <r>   -1.2624    1.0000 </r>
       <r>   -0.9521    1.0000 </r>
       <r>   -0.3718    1.0000 </r>
       <r>   -0.1500    1.0000 </r>
       <r>    2.1856   -0.0000 </r>
       <r>    2.3563   -0.0000 </r>
       <r>    2.4975   -0.0000 </r>
       <r>    2.5474   -0.0000 </r>
       <r>    2.5811   -0.0000 </r>
       <r>    2.6102   -0.0000 </r>
       <r>    3.1885    0.0000 </r>
       <r>    3.2136    0.0000 </r>
       <r>    5.7695    0.0000 </r>
       <r>    5.8806    0.0000 </r>
       <r>    7.4063    0.0000 </r>
       <r>    7.8307    0.0000 </r>
      </set>
      <set comment="kpoint 4">
       <r>  -34.9665    1.0000 </r>
       <r>  -34.9645    1.0000 </r>
       <r>  -34.9567    1.0000 </r>
       <r>  -34.9542    1.0000 </r>
       <r>  -34.8421    1.0000 </r>
       <r>  -34.8323    1.0000 </r>
       <r>  -13.2642    1.0000 </r>
       <r>  -13.2123    1.0000 </r>
       <r>  -12.4092    1.0000 </r>
       <r>  -12.3372    1.0000 </r>
       <r>   -5.0629    1.0000 </r>
       <r>   -4.8290    1.0000 </r>
       <r>   -3.7211    1.0000 </r>
       <r>   -3.6843    1.0000 </r>
       <r>   -3.4907    1.0000 </r>
       <r>   -3.3099    1.0000 </r>
       <r>   -2.4012    1.0000 </r>
       <r>   -2.3872    1.0000 </r>
       <r>   -1.9111    1.0000 </r>
       <r>   -1.8978    1.0000 </r>
       <r>   -1.4226    1.0000 </r>
       <r>   -1.1524    1.0000 </r>
       <r>   -0.6858    1.0000 </r>
       <r>   -0.6051    1.0000 </r>
       <r>    1.9507   -0.0000 </r>
       <r>    2.2336   -0.0000 </r>
       <r>    2.2962   -0.0000 </r>
       <r>    2.3332   -0.0000 </r>
       <r>    2.6943   -0.0000 </r>
       <r>    2.8935   -0.0000 </r>
       <r>    3.5648    0.0000 </r>
       <r>    3.6050    0.0000 </r>
       <r>    6.2851    0.0000 </r>
       <r>    6.3880    0.0000 </r>
       <r>    7.8720    0.0000 </r>
       <r>    8.2970    0.0000 </r>
      </set>
      <set comment="kpoint 5">
       <r>  -35.0517    1.0000 </r>
       <r>  -35.0416    1.0000 </r>
       <r>  -34.9474    1.0000 </r>
       <r>  -34.9373    1.0000 </r>
       <r>  -34.8621    1.0000 </r>
       <r>  -34.8522    1.0000 </r>
       <r>  -12.8226    1.0000 </r>
       <r>  -12.7770    1.0000 </r>
       <r>  -12.2257    1.0000 </r>
       <r>  -12.1693    1.0000 </r>
       <r>   -5.1171    1.0000 </r>
       <r>   -5.0001    1.0000 </r>
       <r>   -4.0548    1.0000 </r>
       <r>   -3.9403    1.0000 </r>
       <r>   -3.8491    1.0000 </r>
       <r>   -3.7647    1.0000 </r>
       <r>   -2.7570    1.0000 </r>
       <r>   -2.7420    1.0000 </r>
       <r>   -1.6826    1.0000 </r>
       <r>   -1.5181    1.0000 </r>
       <r>   -1.4991    1.0000 </r>
       <r>   -1.4643    1.0000 </r>
       <r>   -0.9779    1.0000 </r>
       <r>   -0.9265    1.0000 </r>
       <r>    2.0417   -0.0000 </r>
       <r>    2.1296   -0.0000 </r>
       <r>    2.1618   -0.0000 </r>
       <r>    2.3163   -0.0000 </r>
       <r>    3.1083    0.0000 </r>
       <r>    3.3347    0.0000 </r>
       <r>    3.8613    0.0000 </r>
       <r>    3.9190    0.0000 </r>
       <r>    6.9120    0.0000 </r>
       <r>    6.9959    0.0000 </r>
       <r>    7.9075    0.0000 </r>
       <r>    7.9951    0.0000 </r>
      </set>
      <set comment="kpoint 6">
       <r>  -35.1215    1.0000 </r>
       <r>  -35.1114    1.0000 </r>
       <r>  -34.9331    1.0000 </r>
       <r>  -34.9231    1.0000 </r>
       <r>  -34.8785    1.0000 </r>
       <r>  -34.8687    1.0000 </r>
       <r>  -12.4087    1.0000 </r>
       <r>  -12.3739    1.0000 </r>
       <r>  -12.0577    1.0000 </r>
       <r>  -12.0194    1.0000 </r>
       <r>   -5.4284    1.0000 </r>
       <r>   -5.3780    1.0000 </r>
       <r>   -4.4677    1.0000 </r>
       <r>   -4.4018    1.0000 </r>
       <r>   -3.9257    1.0000 </r>
       <r>   -3.8516    1.0000 </r>
       <r>   -3.0172    1.0000 </r>
       <r>   -3.0015    1.0000 </r>
       <r>   -1.8785    1.0000 </r>
       <r>   -1.7119    1.0000 </r>
       <r>   -1.2038    1.0000 </r>
       <r>   -1.1769    1.0000 </r>
       <r>   -0.9378    1.0000 </r>
       <r>   -0.8594    1.0000 </r>
       <r>    2.0889   -0.0000 </r>
       <r>    2.1109   -0.0000 </r>
       <r>    2.3056   -0.0000 </r>
       <r>    2.4906   -0.0000 </r>
       <r>    3.5204    0.0000 </r>
       <r>    3.7002    0.0000 </r>
       <r>    4.0445    0.0000 </r>
       <r>    4.1174    0.0000 </r>
       <r>    6.8957    0.0000 </r>
       <r>    7.0788    0.0000 </r>
       <r>    7.6549    0.0000 </r>
       <r>    7.8600    0.0000 </r>
      </set>
      <set comment="kpoint 7">
       <r>  -35.1605    1.0000 </r>
       <r>  -35.1504    1.0000 </r>
       <r>  -34.9251    1.0000 </r>
       <r>  -34.9150    1.0000 </r>
       <r>  -34.8878    1.0000 </r>
       <r>  -34.8779    1.0000 </r>
       <r>  -12.1460    1.0000 </r>
       <r>  -12.1248    1.0000 </r>
       <r>  -11.9536    1.0000 </r>
       <r>  -11.9317    1.0000 </r>
       <r>   -5.6609    1.0000 </r>
       <r>   -5.6380    1.0000 </r>
       <r>   -4.7091    1.0000 </r>
       <r>   -4.6778    1.0000 </r>
       <r>   -4.0246    1.0000 </r>
       <r>   -3.9670    1.0000 </r>
       <r>   -3.1533    1.0000 </r>
       <r>   -3.1373    1.0000 </r>
       <r>   -1.9671    1.0000 </r>
       <r>   -1.8402    1.0000 </r>
       <r>   -1.0393    1.0000 </r>
       <r>   -1.0059    1.0000 </r>
       <r>   -0.7125    1.0000 </r>
       <r>   -0.6386    1.0000 </r>
       <r>    2.1181   -0.0000 </r>
       <r>    2.1323   -0.0000 </r>
       <r>    2.5642   -0.0000 </r>
       <r>    2.6310   -0.0000 </r>
       <r>    3.7691    0.0000 </r>
       <r>    3.8640    0.0000 </r>
       <r>    4.1271    0.0000 </r>
       <r>    4.2087    0.0000 </r>
       <r>    6.1705    0.0000 </r>
       <r>    6.3575    0.0000 </r>
       <r>    7.8418    0.0000 </r>
       <r>    8.0046    0.0000 </r>
      </set>
      <set comment="kpoint 8">
       <r>  -34.9920    1.0000 </r>
       <r>  -34.9820    1.0000 </r>
       <r>  -34.8264    1.0000 </r>
       <r>  -34.8165    1.0000 </r>
       <r>  -34.8100    1.0000 </r>
       <r>  -34.8000    1.0000 </r>
       <r>  -13.8888    1.0000 </r>
       <r>  -13.8327    1.0000 </r>
       <r>  -12.6729    1.0000 </r>
       <r>  -12.5815    1.0000 </r>
       <r>   -5.5875    1.0000 </r>
       <r>   -5.2992    1.0000 </r>
       <r>   -2.8125    1.0000 </r>
       <r>   -2.8018    1.0000 </r>
       <r>   -2.5346    1.0000 </r>
       <r>   -2.5247    1.0000 </r>
       <r>   -2.4627    1.0000 </r>
       <r>   -2.0727    1.0000 </r>
       <r>   -1.6692    1.0000 </r>
       <r>   -1.6590    1.0000 </r>
       <r>   -1.3607    1.0000 </r>
       <r>   -1.0715    1.0000 </r>
       <r>   -0.2447    1.0000 </r>
       <r>    0.1387    1.0341 </r>
       <r>    2.5839   -0.0000 </r>
       <r>    2.6044   -0.0000 </r>
       <r>    2.6388   -0.0000 </r>
       <r>    2.7061   -0.0000 </r>
       <r>    2.7879   -0.0000 </r>
       <r>    2.8007   -0.0000 </r>
       <r>    2.8471   -0.0000 </r>
       <r>    2.8582   -0.0000 </r>
       <r>    5.4143    0.0000 </r>
       <r>    5.5318    0.0000 </r>
       <r>    6.7408    0.0000 </r>
       <r>    6.9257    0.0000 </r>
      </set>
      <set comment="kpoint 9">
       <r>  -34.9842    1.0000 </r>
       <r>  -34.9742    1.0000 </r>
       <r>  -34.8654    1.0000 </r>
       <r>  -34.8554    1.0000 </r>
       <r>  -34.8200    1.0000 </r>
       <r>  -34.8101    1.0000 </r>
       <r>  -13.7210    1.0000 </r>
       <r>  -13.6656    1.0000 </r>
       <r>  -12.6017    1.0000 </r>
       <r>  -12.5154    1.0000 </r>
       <r>   -5.4053    1.0000 </r>
       <r>   -5.1207    1.0000 </r>
       <r>   -3.1272    1.0000 </r>
       <r>   -3.1138    1.0000 </r>
       <r>   -2.8013    1.0000 </r>
       <r>   -2.4857    1.0000 </r>
       <r>   -2.3666    1.0000 </r>
       <r>   -2.3563    1.0000 </r>
       <r>   -1.9830    1.0000 </r>
       <r>   -1.9710    1.0000 </r>
       <r>   -1.1959    1.0000 </r>
       <r>   -0.8945    1.0000 </r>
       <r>   -0.3175    1.0000 </r>
       <r>   -0.0464    1.0001 </r>
       <r>    2.2999   -0.0000 </r>
       <r>    2.4178   -0.0000 </r>
       <r>    2.4588   -0.0000 </r>
       <r>    2.5364   -0.0000 </r>
       <r>    2.6158   -0.0000 </r>
       <r>    2.6401   -0.0000 </r>
       <r>    3.1214    0.0000 </r>
       <r>    3.1434    0.0000 </r>
       <r>    5.6617    0.0000 </r>
       <r>    5.7735    0.0000 </r>
       <r>    7.2557    0.0000 </r>
       <r>    7.6289    0.0000 </r>
      </set>
      <set comment="kpoint 10">
       <r>  -34.9705    1.0000 </r>
       <r>  -34.9605    1.0000 </r>
       <r>  -34.9330    1.0000 </r>
       <r>  -34.9229    1.0000 </r>
       <r>  -34.8385    1.0000 </r>
       <r>  -34.8286    1.0000 </r>
       <r>  -13.4081    1.0000 </r>
       <r>  -13.3549    1.0000 </r>
       <r>  -12.4692    1.0000 </r>
       <r>  -12.3926    1.0000 </r>
       <r>   -5.1256    1.0000 </r>
       <r>   -4.8625    1.0000 </r>
       <r>   -3.5678    1.0000 </r>
       <r>   -3.5467    1.0000 </r>
       <r>   -3.2356    1.0000 </r>
       <r>   -3.0073    1.0000 </r>
       <r>   -2.4693    1.0000 </r>
       <r>   -2.4436    1.0000 </r>
       <r>   -2.0831    1.0000 </r>
       <r>   -2.0710    1.0000 </r>
       <r>   -1.1651    1.0000 </r>
       <r>   -0.9083    1.0000 </r>
       <r>   -0.5452    1.0000 </r>
       <r>   -0.4278    1.0000 </r>
       <r>    1.9582   -0.0000 </r>
       <r>    2.1823   -0.0000 </r>
       <r>    2.3850   -0.0000 </r>
       <r>    2.4204   -0.0000 </r>
       <r>    2.4673   -0.0000 </r>
       <r>    2.6212   -0.0000 </r>
       <r>    3.5224    0.0000 </r>
       <r>    3.5644    0.0000 </r>
       <r>    6.0927    0.0000 </r>
       <r>    6.2026    0.0000 </r>
       <r>    7.7941    0.0000 </r>
       <r>    8.2445    0.0000 </r>
      </set>
      <set comment="kpoint 11">
       <r>  -35.0133    1.0000 </r>
       <r>  -35.0033    1.0000 </r>
       <r>  -34.9539    1.0000 </r>
       <r>  -34.9438    1.0000 </r>
       <r>  -34.8609    1.0000 </r>
       <r>  -34.8510    1.0000 </r>
       <r>  -12.9972    1.0000 </r>
       <r>  -12.9487    1.0000 </r>
       <r>  -12.2963    1.0000 </r>
       <r>  -12.2335    1.0000 </r>
       <r>   -5.0026    1.0000 </r>
       <r>   -4.8321    1.0000 </r>
       <r>   -3.8674    1.0000 </r>
       <r>   -3.7850    1.0000 </r>
       <r>   -3.7170    1.0000 </r>
       <r>   -3.6030    1.0000 </r>
       <r>   -2.8642    1.0000 </r>
       <r>   -2.8063    1.0000 </r>
       <r>   -1.8025    1.0000 </r>
       <r>   -1.7843    1.0000 </r>
       <r>   -1.3645    1.0000 </r>
       <r>   -1.1705    1.0000 </r>
       <r>   -0.8486    1.0000 </r>
       <r>   -0.8065    1.0000 </r>
       <r>    1.8483   -0.0000 </r>
       <r>    2.0606   -0.0000 </r>
       <r>    2.2741   -0.0000 </r>
       <r>    2.3699   -0.0000 </r>
       <r>    2.7459   -0.0000 </r>
       <r>    2.9445   -0.0000 </r>
       <r>    3.8714    0.0000 </r>
       <r>    3.9303    0.0000 </r>
       <r>    6.6881    0.0000 </r>
       <r>    6.7775    0.0000 </r>
       <r>    8.1879    0.0000 </r>
       <r>    8.5129    0.0000 </r>
      </set>
      <set comment="kpoint 12">
       <r>  -35.0880    1.0000 </r>
       <r>  -35.0779    1.0000 </r>
       <r>  -34.9382    1.0000 </r>
       <r>  -34.9282    1.0000 </r>
       <r>  -34.8819    1.0000 </r>
       <r>  -34.8720    1.0000 </r>
       <r>  -12.5644    1.0000 </r>
       <r>  -12.5245    1.0000 </r>
       <r>  -12.1169    1.0000 </r>
       <r>  -12.0709    1.0000 </r>
       <r>   -5.2220    1.0000 </r>
       <r>   -5.1454    1.0000 </r>
       <r>   -4.2888    1.0000 </r>
       <r>   -4.2198    1.0000 </r>
       <r>   -3.8500    1.0000 </r>
       <r>   -3.7643    1.0000 </r>
       <r>   -3.0797    1.0000 </r>
       <r>   -3.0192    1.0000 </r>
       <r>   -1.6785    1.0000 </r>
       <r>   -1.6281    1.0000 </r>
       <r>   -1.6105    1.0000 </r>
       <r>   -1.4958    1.0000 </r>
       <r>   -0.8721    1.0000 </r>
       <r>   -0.8372    1.0000 </r>
       <r>    1.9501   -0.0000 </r>
       <r>    2.0959   -0.0000 </r>
       <r>    2.3185   -0.0000 </r>
       <r>    2.4313   -0.0000 </r>
       <r>    3.1732    0.0000 </r>
       <r>    3.3660    0.0000 </r>
       <r>    4.0719    0.0000 </r>
       <r>    4.1419    0.0000 </r>
       <r>    7.2687    0.0000 </r>
       <r>    7.3783    0.0000 </r>
       <r>    7.5800    0.0000 </r>
       <r>    8.0492    0.0000 </r>
      </set>
      <set comment="kpoint 13">
       <r>  -35.1403    1.0000 </r>
       <r>  -35.1303    1.0000 </r>
       <r>  -34.9270    1.0000 </r>
       <r>  -34.9170    1.0000 </r>
       <r>  -34.8967    1.0000 </r>
       <r>  -34.8869    1.0000 </r>
       <r>  -12.2181    1.0000 </r>
       <r>  -12.1910    1.0000 </r>
       <r>  -11.9764    1.0000 </r>
       <r>  -11.9480    1.0000 </r>
       <r>   -5.4962    1.0000 </r>
       <r>   -5.4613    1.0000 </r>
       <r>   -4.6675    1.0000 </r>
       <r>   -4.6331    1.0000 </r>
       <r>   -3.9452    1.0000 </r>
       <r>   -3.8814    1.0000 </r>
       <r>   -3.1668    1.0000 </r>
       <r>   -3.1269    1.0000 </r>
       <r>   -1.8788    1.0000 </r>
       <r>   -1.7530    1.0000 </r>
       <r>   -1.5087    1.0000 </r>
       <r>   -1.4576    1.0000 </r>
       <r>   -0.6568    1.0000 </r>
       <r>   -0.6127    1.0000 </r>
       <r>    2.0961   -0.0000 </r>
       <r>    2.1604   -0.0000 </r>
       <r>    2.4964   -0.0000 </r>
       <r>    2.5854   -0.0000 </r>
       <r>    3.5779    0.0000 </r>
       <r>    3.7314    0.0000 </r>
       <r>    4.0744    0.0000 </r>
       <r>    4.1673    0.0000 </r>
       <r>    6.5640    0.0000 </r>
       <r>    6.7794    0.0000 </r>
       <r>    8.0201    0.0000 </r>
       <r>    8.2180    0.0000 </r>
      </set>
      <set comment="kpoint 14">
       <r>  -35.1591    1.0000 </r>
       <r>  -35.1490    1.0000 </r>
       <r>  -34.9230    1.0000 </r>
       <r>  -34.9130    1.0000 </r>
       <r>  -34.9021    1.0000 </r>
       <r>  -34.8923    1.0000 </r>
       <r>  -12.0813    1.0000 </r>
       <r>  -12.0629    1.0000 </r>
       <r>  -11.9218    1.0000 </r>
       <r>  -11.9027    1.0000 </r>
       <r>   -5.6078    1.0000 </r>
       <r>   -5.5891    1.0000 </r>
       <r>   -4.8062    1.0000 </r>
       <r>   -4.7838    1.0000 </r>
       <r>   -4.0137    1.0000 </r>
       <r>   -3.9566    1.0000 </r>
       <r>   -3.1830    1.0000 </r>
       <r>   -3.1623    1.0000 </r>
       <r>   -1.9635    1.0000 </r>
       <r>   -1.8410    1.0000 </r>
       <r>   -1.4463    1.0000 </r>
       <r>   -1.3839    1.0000 </r>
       <r>   -0.5187    1.0000 </r>
       <r>   -0.4765    1.0000 </r>
       <r>    2.1386   -0.0000 </r>
       <r>    2.1553   -0.0000 </r>
       <r>    2.6606   -0.0000 </r>
       <r>    2.6800   -0.0000 </r>
       <r>    3.8490    0.0000 </r>
       <r>    3.8906    0.0000 </r>
       <r>    3.9972    0.0000 </r>
       <r>    4.0649    0.0000 </r>
       <r>    6.1696    0.0000 </r>
       <r>    6.3458    0.0000 </r>
       <r>    8.3344    0.0000 </r>
       <r>    8.3804    0.0000 </r>
      </set>
      <set comment="kpoint 15">
       <r>  -35.1403    1.0000 </r>
       <r>  -35.1302    1.0000 </r>
       <r>  -34.9270    1.0000 </r>
       <r>  -34.9170    1.0000 </r>
       <r>  -34.8967    1.0000 </r>
       <r>  -34.8869    1.0000 </r>
       <r>  -12.2188    1.0000 </r>
       <r>  -12.1904    1.0000 </r>
       <r>  -11.9770    1.0000 </r>
       <r>  -11.9472    1.0000 </r>
       <r>   -5.4963    1.0000 </r>
       <r>   -5.4611    1.0000 </r>
       <r>   -4.6687    1.0000 </r>
       <r>   -4.6319    1.0000 </r>
       <r>   -3.9457    1.0000 </r>
       <r>   -3.8807    1.0000 </r>
       <r>   -3.1663    1.0000 </r>
       <r>   -3.1280    1.0000 </r>
       <r>   -1.8849    1.0000 </r>
       <r>   -1.7506    1.0000 </r>
       <r>   -1.5134    1.0000 </r>
       <r>   -1.4476    1.0000 </r>
       <r>   -0.6552    1.0000 </r>
       <r>   -0.6145    1.0000 </r>
       <r>    2.0984   -0.0000 </r>
       <r>    2.1574   -0.0000 </r>
       <r>    2.4951   -0.0000 </r>
       <r>    2.5868   -0.0000 </r>
       <r>    3.5644    0.0000 </r>
       <r>    3.7447    0.0000 </r>
       <r>    4.0796    0.0000 </r>
       <r>    4.1637    0.0000 </r>
       <r>    6.5646    0.0000 </r>
       <r>    6.7789    0.0000 </r>
       <r>    8.0119    0.0000 </r>
       <r>    8.1992    0.0000 </r>
      </set>
      <set comment="kpoint 16">
       <r>  -35.0880    1.0000 </r>
       <r>  -35.0779    1.0000 </r>
       <r>  -34.9382    1.0000 </r>
       <r>  -34.9282    1.0000 </r>
       <r>  -34.8819    1.0000 </r>
       <r>  -34.8721    1.0000 </r>
       <r>  -12.5651    1.0000 </r>
       <r>  -12.5239    1.0000 </r>
       <r>  -12.1176    1.0000 </r>
       <r>  -12.0701    1.0000 </r>
       <r>   -5.2221    1.0000 </r>
       <r>   -5.1453    1.0000 </r>
       <r>   -4.2902    1.0000 </r>
       <r>   -4.2187    1.0000 </r>
       <r>   -3.8519    1.0000 </r>
       <r>   -3.7617    1.0000 </r>
       <r>   -3.0804    1.0000 </r>
       <r>   -3.0197    1.0000 </r>
       <r>   -1.6939    1.0000 </r>
       <r>   -1.6276    1.0000 </r>
       <r>   -1.6067    1.0000 </r>
       <r>   -1.4823    1.0000 </r>
       <r>   -0.8727    1.0000 </r>
       <r>   -0.8362    1.0000 </r>
       <r>    1.9487   -0.0000 </r>
       <r>    2.0957   -0.0000 </r>
       <r>    2.3179   -0.0000 </r>
       <r>    2.4329   -0.0000 </r>
       <r>    3.1618    0.0000 </r>
       <r>    3.3787    0.0000 </r>
       <r>    4.0714    0.0000 </r>
       <r>    4.1415    0.0000 </r>
       <r>    7.2687    0.0000 </r>
       <r>    7.3761    0.0000 </r>
       <r>    7.5847    0.0000 </r>
       <r>    8.0398    0.0000 </r>
      </set>
      <set comment="kpoint 17">
       <r>  -35.0133    1.0000 </r>
       <r>  -35.0033    1.0000 </r>
       <r>  -34.9539    1.0000 </r>
       <r>  -34.9438    1.0000 </r>
       <r>  -34.8609    1.0000 </r>
       <r>  -34.8510    1.0000 </r>
       <r>  -12.9977    1.0000 </r>
       <r>  -12.9483    1.0000 </r>
       <r>  -12.2969    1.0000 </r>
       <r>  -12.2328    1.0000 </r>
       <r>   -5.0026    1.0000 </r>
       <r>   -4.8322    1.0000 </r>
       <r>   -3.8706    1.0000 </r>
       <r>   -3.7822    1.0000 </r>
       <r>   -3.7175    1.0000 </r>
       <r>   -3.6018    1.0000 </r>
       <r>   -2.8658    1.0000 </r>
       <r>   -2.8056    1.0000 </r>
       <r>   -1.8026    1.0000 </r>
       <r>   -1.7851    1.0000 </r>
       <r>   -1.3717    1.0000 </r>
       <r>   -1.1621    1.0000 </r>
       <r>   -0.8500    1.0000 </r>
       <r>   -0.8021    1.0000 </r>
       <r>    1.8451   -0.0000 </r>
       <r>    2.0627   -0.0000 </r>
       <r>    2.2733   -0.0000 </r>
       <r>    2.3715   -0.0000 </r>
       <r>    2.7376   -0.0000 </r>
       <r>    2.9522   -0.0000 </r>
       <r>    3.8713    0.0000 </r>
       <r>    3.9290    0.0000 </r>
       <r>    6.6852    0.0000 </r>
       <r>    6.7775    0.0000 </r>
       <r>    8.1788    0.0000 </r>
       <r>    8.5360    0.0000 </r>
      </set>
      <set comment="kpoint 18">
       <r>  -34.9705    1.0000 </r>
       <r>  -34.9605    1.0000 </r>
       <r>  -34.9330    1.0000 </r>
       <r>  -34.9229    1.0000 </r>
       <r>  -34.8385    1.0000 </r>
       <r>  -34.8287    1.0000 </r>
       <r>  -13.4084    1.0000 </r>
       <r>  -13.3546    1.0000 </r>
       <r>  -12.4696    1.0000 </r>
       <r>  -12.3921    1.0000 </r>
       <r>   -5.1261    1.0000 </r>
       <r>   -4.8621    1.0000 </r>
       <r>   -3.5686    1.0000 </r>
       <r>   -3.5460    1.0000 </r>
       <r>   -3.2347    1.0000 </r>
       <r>   -3.0081    1.0000 </r>
       <r>   -2.4708    1.0000 </r>
       <r>   -2.4425    1.0000 </r>
       <r>   -2.0830    1.0000 </r>
       <r>   -2.0712    1.0000 </r>
       <r>   -1.1735    1.0000 </r>
       <r>   -0.9015    1.0000 </r>
       <r>   -0.5480    1.0000 </r>
       <r>   -0.4184    1.0000 </r>
       <r>    1.9541   -0.0000 </r>
       <r>    2.1814   -0.0000 </r>
       <r>    2.3855   -0.0000 </r>
       <r>    2.4244   -0.0000 </r>
       <r>    2.4605   -0.0000 </r>
       <r>    2.6249   -0.0000 </r>
       <r>    3.5249    0.0000 </r>
       <r>    3.5611    0.0000 </r>
       <r>    6.0925    0.0000 </r>
       <r>    6.2028    0.0000 </r>
       <r>    7.7954    0.0000 </r>
       <r>    8.2512    0.0000 </r>
      </set>
      <set comment="kpoint 19">
       <r>  -34.9842    1.0000 </r>
       <r>  -34.9742    1.0000 </r>
       <r>  -34.8654    1.0000 </r>
       <r>  -34.8554    1.0000 </r>
       <r>  -34.8200    1.0000 </r>
       <r>  -34.8101    1.0000 </r>
       <r>  -13.7211    1.0000 </r>
       <r>  -13.6655    1.0000 </r>
       <r>  -12.6020    1.0000 </r>
       <r>  -12.5152    1.0000 </r>
       <r>   -5.4058    1.0000 </r>
       <r>   -5.1203    1.0000 </r>
       <r>   -3.1268    1.0000 </r>
       <r>   -3.1143    1.0000 </r>
       <r>   -2.8002    1.0000 </r>
       <r>   -2.4866    1.0000 </r>
       <r>   -2.3665    1.0000 </r>
       <r>   -2.3562    1.0000 </r>
       <r>   -1.9829    1.0000 </r>
       <r>   -1.9714    1.0000 </r>
       <r>   -1.2038    1.0000 </r>
       <r>   -0.8881    1.0000 </r>
       <r>   -0.3196    1.0000 </r>
       <r>   -0.0373    1.0002 </r>
       <r>    2.2880   -0.0000 </r>
       <r>    2.4169   -0.0000 </r>
       <r>    2.4542   -0.0000 </r>
       <r>    2.5443   -0.0000 </r>
       <r>    2.6199   -0.0000 </r>
       <r>    2.6399   -0.0000 </r>
       <r>    3.1254    0.0000 </r>
       <r>    3.1394    0.0000 </r>
       <r>    5.6604    0.0000 </r>
       <r>    5.7727    0.0000 </r>
       <r>    7.2714    0.0000 </r>
       <r>    7.5886    0.0000 </r>
      </set>
      <set comment="kpoint 20">
       <r>  -34.9920    1.0000 </r>
       <r>  -34.9820    1.0000 </r>
       <r>  -34.8264    1.0000 </r>
       <r>  -34.8165    1.0000 </r>
       <r>  -34.8100    1.0000 </r>
       <r>  -34.8000    1.0000 </r>
       <r>  -13.8889    1.0000 </r>
       <r>  -13.8326    1.0000 </r>
       <r>  -12.6730    1.0000 </r>
       <r>  -12.5815    1.0000 </r>
       <r>   -5.5877    1.0000 </r>
       <r>   -5.2990    1.0000 </r>
       <r>   -2.8125    1.0000 </r>
       <r>   -2.8018    1.0000 </r>
       <r>   -2.5349    1.0000 </r>
       <r>   -2.5244    1.0000 </r>
       <r>   -2.4621    1.0000 </r>
       <r>   -2.0727    1.0000 </r>
       <r>   -1.6700    1.0000 </r>
       <r>   -1.6582    1.0000 </r>
       <r>   -1.3661    1.0000 </r>
       <r>   -1.0672    1.0000 </r>
       <r>   -0.2454    1.0000 </r>
       <r>    0.1423    1.0326 </r>
       <r>    2.5725   -0.0000 </r>
       <r>    2.6063   -0.0000 </r>
       <r>    2.6338   -0.0000 </r>
       <r>    2.7208   -0.0000 </r>
       <r>    2.7753   -0.0000 </r>
       <r>    2.8068   -0.0000 </r>
       <r>    2.8427   -0.0000 </r>
       <r>    2.8663   -0.0000 </r>
       <r>    5.4144    0.0000 </r>
       <r>    5.5319    0.0000 </r>
       <r>    6.7450    0.0000 </r>
       <r>    6.9252    0.0000 </r>
      </set>
      <set comment="kpoint 21">
       <r>  -34.9806    1.0000 </r>
       <r>  -34.9706    1.0000 </r>
       <r>  -34.8849    1.0000 </r>
       <r>  -34.8750    1.0000 </r>
       <r>  -34.8234    1.0000 </r>
       <r>  -34.8134    1.0000 </r>
       <r>  -13.6402    1.0000 </r>
       <r>  -13.5850    1.0000 </r>
       <r>  -12.5678    1.0000 </r>
       <r>  -12.4833    1.0000 </r>
       <r>   -5.3271    1.0000 </r>
       <r>   -5.0454    1.0000 </r>
       <r>   -3.2639    1.0000 </r>
       <r>   -3.2486    1.0000 </r>
       <r>   -2.9620    1.0000 </r>
       <r>   -2.6887    1.0000 </r>
       <r>   -2.2789    1.0000 </r>
       <r>   -2.2689    1.0000 </r>
       <r>   -2.0044    1.0000 </r>
       <r>   -1.9941    1.0000 </r>
       <r>   -1.2742    1.0000 </r>
       <r>   -0.9428    1.0000 </r>
       <r>   -0.3745    1.0000 </r>
       <r>   -0.1395    1.0000 </r>
       <r>    2.1729   -0.0000 </r>
       <r>    2.3579   -0.0000 </r>
       <r>    2.4918   -0.0000 </r>
       <r>    2.5584   -0.0000 </r>
       <r>    2.5709   -0.0000 </r>
       <r>    2.6198   -0.0000 </r>
       <r>    3.1946    0.0000 </r>
       <r>    3.2072    0.0000 </r>
       <r>    5.7704    0.0000 </r>
       <r>    5.8811    0.0000 </r>
       <r>    7.4165    0.0000 </r>
       <r>    7.8317    0.0000 </r>
      </set>
      <set comment="kpoint 22">
       <r>  -34.9705    1.0000 </r>
       <r>  -34.9605    1.0000 </r>
       <r>  -34.9329    1.0000 </r>
       <r>  -34.9230    1.0000 </r>
       <r>  -34.8385    1.0000 </r>
       <r>  -34.8286    1.0000 </r>
       <r>  -13.4082    1.0000 </r>
       <r>  -13.3547    1.0000 </r>
       <r>  -12.4695    1.0000 </r>
       <r>  -12.3923    1.0000 </r>
       <r>   -5.1258    1.0000 </r>
       <r>   -4.8623    1.0000 </r>
       <r>   -3.5702    1.0000 </r>
       <r>   -3.5443    1.0000 </r>
       <r>   -3.2358    1.0000 </r>
       <r>   -3.0068    1.0000 </r>
       <r>   -2.4681    1.0000 </r>
       <r>   -2.4452    1.0000 </r>
       <r>   -2.0823    1.0000 </r>
       <r>   -2.0718    1.0000 </r>
       <r>   -1.1739    1.0000 </r>
       <r>   -0.9015    1.0000 </r>
       <r>   -0.5476    1.0000 </r>
       <r>   -0.4197    1.0000 </r>
       <r>    1.9538   -0.0000 </r>
       <r>    2.1824   -0.0000 </r>
       <r>    2.3898   -0.0000 </r>
       <r>    2.4123   -0.0000 </r>
       <r>    2.4689   -0.0000 </r>
       <r>    2.6230   -0.0000 </r>
       <r>    3.5287    0.0000 </r>
       <r>    3.5586    0.0000 </r>
       <r>    6.0923    0.0000 </r>
       <r>    6.2032    0.0000 </r>
       <r>    7.7933    0.0000 </r>
       <r>    8.2443    0.0000 </r>
      </set>
      <set comment="kpoint 23">
       <r>  -34.9951    1.0000 </r>
       <r>  -34.9851    1.0000 </r>
       <r>  -34.9562    1.0000 </r>
       <r>  -34.9462    1.0000 </r>
       <r>  -34.8649    1.0000 </r>
       <r>  -34.8550    1.0000 </r>
       <r>  -13.0589    1.0000 </r>
       <r>  -13.0090    1.0000 </r>
       <r>  -12.3210    1.0000 </r>
       <r>  -12.2553    1.0000 </r>
       <r>   -4.9540    1.0000 </r>
       <r>   -4.7560    1.0000 </r>
       <r>   -3.8117    1.0000 </r>
       <r>   -3.7431    1.0000 </r>
       <r>   -3.5249    1.0000 </r>
       <r>   -3.4013    1.0000 </r>
       <r>   -3.0959    1.0000 </r>
       <r>   -3.0012    1.0000 </r>
       <r>   -1.9543    1.0000 </r>
       <r>   -1.9367    1.0000 </r>
       <r>   -1.1395    1.0000 </r>
       <r>   -0.9481    1.0000 </r>
       <r>   -0.7866    1.0000 </r>
       <r>   -0.7387    1.0000 </r>
       <r>    1.7569   -0.0000 </r>
       <r>    1.9842   -0.0000 </r>
       <r>    2.3179   -0.0000 </r>
       <r>    2.3969   -0.0000 </r>
       <r>    2.5184   -0.0000 </r>
       <r>    2.7057   -0.0000 </r>
       <r>    3.9205    0.0000 </r>
       <r>    3.9814    0.0000 </r>
       <r>    6.6101    0.0000 </r>
       <r>    6.7095    0.0000 </r>
       <r>    8.3146    0.0000 </r>
       <r>    8.6066    0.0000 </r>
      </set>
      <set comment="kpoint 24">
       <r>  -35.0579    1.0000 </r>
       <r>  -35.0479    1.0000 </r>
       <r>  -34.9411    1.0000 </r>
       <r>  -34.9310    1.0000 </r>
       <r>  -34.8952    1.0000 </r>
       <r>  -34.8853    1.0000 </r>
       <r>  -12.6513    1.0000 </r>
       <r>  -12.6083    1.0000 </r>
       <r>  -12.1479    1.0000 </r>
       <r>  -12.0968    1.0000 </r>
       <r>   -5.0304    1.0000 </r>
       <r>   -4.9251    1.0000 </r>
       <r>   -4.1032    1.0000 </r>
       <r>   -4.0648    1.0000 </r>
       <r>   -3.7682    1.0000 </r>
       <r>   -3.6663    1.0000 </r>
       <r>   -3.3170    1.0000 </r>
       <r>   -3.1719    1.0000 </r>
       <r>   -2.0839    1.0000 </r>
       <r>   -2.0549    1.0000 </r>
       <r>   -1.3458    1.0000 </r>
       <r>   -1.2121    1.0000 </r>
       <r>   -0.8482    1.0000 </r>
       <r>   -0.8149    1.0000 </r>
       <r>    1.7800   -0.0000 </r>
       <r>    2.0388   -0.0000 </r>
       <r>    2.3881   -0.0000 </r>
       <r>    2.4420   -0.0000 </r>
       <r>    2.7767   -0.0000 </r>
       <r>    2.9628   -0.0000 </r>
       <r>    4.1808    0.0000 </r>
       <r>    4.2571    0.0000 </r>
       <r>    7.2514    0.0000 </r>
       <r>    7.3357    0.0000 </r>
       <r>    8.1585    0.0000 </r>
       <r>    8.5473    0.0000 </r>
      </set>
      <set comment="kpoint 25">
       <r>  -35.1086    1.0000 </r>
       <r>  -35.0985    1.0000 </r>
       <r>  -34.9284    1.0000 </r>
       <r>  -34.9211    1.0000 </r>
       <r>  -34.9184    1.0000 </r>
       <r>  -34.9113    1.0000 </r>
       <r>  -12.2743    1.0000 </r>
       <r>  -12.2420    1.0000 </r>
       <r>  -11.9884    1.0000 </r>
       <r>  -11.9537    1.0000 </r>
       <r>   -5.2261    1.0000 </r>
       <r>   -5.1689    1.0000 </r>
       <r>   -4.6392    1.0000 </r>
       <r>   -4.6182    1.0000 </r>
       <r>   -3.7807    1.0000 </r>
       <r>   -3.7029    1.0000 </r>
       <r>   -3.2870    1.0000 </r>
       <r>   -3.1721    1.0000 </r>
       <r>   -2.2234    1.0000 </r>
       <r>   -2.1716    1.0000 </r>
       <r>   -1.6768    1.0000 </r>
       <r>   -1.5567    1.0000 </r>
       <r>   -0.6690    1.0000 </r>
       <r>   -0.6445    1.0000 </r>
       <r>    2.0011   -0.0000 </r>
       <r>    2.2106   -0.0000 </r>
       <r>    2.5094   -0.0000 </r>
       <r>    2.5456   -0.0000 </r>
       <r>    3.1270    0.0000 </r>
       <r>    3.2785    0.0000 </r>
       <r>    4.2664    0.0000 </r>
       <r>    4.3458    0.0000 </r>
       <r>    7.1797    0.0000 </r>
       <r>    7.3939    0.0000 </r>
       <r>    8.0856    0.0000 </r>
       <r>    8.3699    0.0000 </r>
      </set>
      <set comment="kpoint 26">
       <r>  -35.1367    1.0000 </r>
       <r>  -35.1266    1.0000 </r>
       <r>  -34.9360    1.0000 </r>
       <r>  -34.9262    1.0000 </r>
       <r>  -34.9213    1.0000 </r>
       <r>  -34.9113    1.0000 </r>
       <r>  -12.0393    1.0000 </r>
       <r>  -12.0184    1.0000 </r>
       <r>  -11.8896    1.0000 </r>
       <r>  -11.8683    1.0000 </r>
       <r>   -5.3476    1.0000 </r>
       <r>   -5.3219    1.0000 </r>
       <r>   -4.9455    1.0000 </r>
       <r>   -4.9276    1.0000 </r>
       <r>   -3.9160    1.0000 </r>
       <r>   -3.8558    1.0000 </r>
       <r>   -3.1853    1.0000 </r>
       <r>   -3.1300    1.0000 </r>
       <r>   -2.2332    1.0000 </r>
       <r>   -2.1568    1.0000 </r>
       <r>   -1.9293    1.0000 </r>
       <r>   -1.8031    1.0000 </r>
       <r>   -0.4348    1.0000 </r>
       <r>   -0.4113    1.0000 </r>
       <r>    2.0575   -0.0000 </r>
       <r>    2.1044   -0.0000 </r>
       <r>    2.7695   -0.0000 </r>
       <r>    2.8349   -0.0000 </r>
       <r>    3.3865    0.0000 </r>
       <r>    3.4947    0.0000 </r>
       <r>    4.2373    0.0000 </r>
       <r>    4.3127    0.0000 </r>
       <r>    6.5227    0.0000 </r>
       <r>    6.7232    0.0000 </r>
       <r>    8.7376    0.0000 </r>
       <r>    8.8483    0.0000 </r>
      </set>
      <set comment="kpoint 27">
       <r>  -35.1367    1.0000 </r>
       <r>  -35.1266    1.0000 </r>
       <r>  -34.9360    1.0000 </r>
       <r>  -34.9262    1.0000 </r>
       <r>  -34.9213    1.0000 </r>
       <r>  -34.9113    1.0000 </r>
       <r>  -12.0404    1.0000 </r>
       <r>  -12.0176    1.0000 </r>
       <r>  -11.8904    1.0000 </r>
       <r>  -11.8672    1.0000 </r>
       <r>   -5.3478    1.0000 </r>
       <r>   -5.3215    1.0000 </r>
       <r>   -4.9462    1.0000 </r>
       <r>   -4.9270    1.0000 </r>
       <r>   -3.9162    1.0000 </r>
       <r>   -3.8557    1.0000 </r>
       <r>   -3.1845    1.0000 </r>
       <r>   -3.1314    1.0000 </r>
       <r>   -2.2408    1.0000 </r>
       <r>   -2.1529    1.0000 </r>
       <r>   -1.9265    1.0000 </r>
       <r>   -1.8007    1.0000 </r>
       <r>   -0.4349    1.0000 </r>
       <r>   -0.4115    1.0000 </r>
       <r>    2.0591   -0.0000 </r>
       <r>    2.1028   -0.0000 </r>
       <r>    2.7701   -0.0000 </r>
       <r>    2.8341   -0.0000 </r>
       <r>    3.3701    0.0000 </r>
       <r>    3.5126    0.0000 </r>
       <r>    4.2379    0.0000 </r>
       <r>    4.3121    0.0000 </r>
       <r>    6.5230    0.0000 </r>
       <r>    6.7219    0.0000 </r>
       <r>    8.7506    0.0000 </r>
       <r>    8.8763    0.0000 </r>
      </set>
      <set comment="kpoint 28">
       <r>  -35.1085    1.0000 </r>
       <r>  -35.0985    1.0000 </r>
       <r>  -34.9285    1.0000 </r>
       <r>  -34.9211    1.0000 </r>
       <r>  -34.9184    1.0000 </r>
       <r>  -34.9113    1.0000 </r>
       <r>  -12.2759    1.0000 </r>
       <r>  -12.2407    1.0000 </r>
       <r>  -11.9899    1.0000 </r>
       <r>  -11.9518    1.0000 </r>
       <r>   -5.2261    1.0000 </r>
       <r>   -5.1684    1.0000 </r>
       <r>   -4.6410    1.0000 </r>
       <r>   -4.6163    1.0000 </r>
       <r>   -3.7840    1.0000 </r>
       <r>   -3.7001    1.0000 </r>
       <r>   -3.2882    1.0000 </r>
       <r>   -3.1723    1.0000 </r>
       <r>   -2.2328    1.0000 </r>
       <r>   -2.1650    1.0000 </r>
       <r>   -1.6776    1.0000 </r>
       <r>   -1.5489    1.0000 </r>
       <r>   -0.6690    1.0000 </r>
       <r>   -0.6454    1.0000 </r>
       <r>    2.0033   -0.0000 </r>
       <r>    2.2069   -0.0000 </r>
       <r>    2.5076   -0.0000 </r>
       <r>    2.5484   -0.0000 </r>
       <r>    3.1086    0.0000 </r>
       <r>    3.2995    0.0000 </r>
       <r>    4.2645    0.0000 </r>
       <r>    4.3467    0.0000 </r>
       <r>    7.1858    0.0000 </r>
       <r>    7.3872    0.0000 </r>
       <r>    8.2047    0.0000 </r>
       <r>    8.4321    0.0000 </r>
      </set>
      <set comment="kpoint 29">
       <r>  -35.0579    1.0000 </r>
       <r>  -35.0479    1.0000 </r>
       <r>  -34.9411    1.0000 </r>
       <r>  -34.9310    1.0000 </r>
       <r>  -34.8952    1.0000 </r>
       <r>  -34.8853    1.0000 </r>
       <r>  -12.6526    1.0000 </r>
       <r>  -12.6073    1.0000 </r>
       <r>  -12.1493    1.0000 </r>
       <r>  -12.0952    1.0000 </r>
       <r>   -5.0299    1.0000 </r>
       <r>   -4.9252    1.0000 </r>
       <r>   -4.1048    1.0000 </r>
       <r>   -4.0617    1.0000 </r>
       <r>   -3.7782    1.0000 </r>
       <r>   -3.6589    1.0000 </r>
       <r>   -3.3192    1.0000 </r>
       <r>   -3.1703    1.0000 </r>
       <r>   -2.0828    1.0000 </r>
       <r>   -2.0567    1.0000 </r>
       <r>   -1.3562    1.0000 </r>
       <r>   -1.1966    1.0000 </r>
       <r>   -0.8457    1.0000 </r>
       <r>   -0.8169    1.0000 </r>
       <r>    1.7789   -0.0000 </r>
       <r>    2.0387   -0.0000 </r>
       <r>    2.3868   -0.0000 </r>
       <r>    2.4451   -0.0000 </r>
       <r>    2.7661   -0.0000 </r>
       <r>    2.9728   -0.0000 </r>
       <r>    4.1765    0.0000 </r>
       <r>    4.2601    0.0000 </r>
       <r>    7.2513    0.0000 </r>
       <r>    7.3357    0.0000 </r>
       <r>    8.1959    0.0000 </r>
       <r>    8.6055    0.0000 </r>
      </set>
      <set comment="kpoint 30">
       <r>  -34.9951    1.0000 </r>
       <r>  -34.9851    1.0000 </r>
       <r>  -34.9562    1.0000 </r>
       <r>  -34.9462    1.0000 </r>
       <r>  -34.8649    1.0000 </r>
       <r>  -34.8550    1.0000 </r>
       <r>  -13.0597    1.0000 </r>
       <r>  -13.0083    1.0000 </r>
       <r>  -12.3221    1.0000 </r>
       <r>  -12.2540    1.0000 </r>
       <r>   -4.9538    1.0000 </r>
       <r>   -4.7564    1.0000 </r>
       <r>   -3.8187    1.0000 </r>
       <r>   -3.7347    1.0000 </r>
       <r>   -3.5259    1.0000 </r>
       <r>   -3.4017    1.0000 </r>
       <r>   -3.0995    1.0000 </r>
       <r>   -2.9981    1.0000 </r>
       <r>   -1.9533    1.0000 </r>
       <r>   -1.9379    1.0000 </r>
       <r>   -1.1570    1.0000 </r>
       <r>   -0.9342    1.0000 </r>
       <r>   -0.7882    1.0000 </r>
       <r>   -0.7264    1.0000 </r>
       <r>    1.7536   -0.0000 </r>
       <r>    1.9847   -0.0000 </r>
       <r>    2.3163   -0.0000 </r>
       <r>    2.3991   -0.0000 </r>
       <r>    2.5131   -0.0000 </r>
       <r>    2.7083   -0.0000 </r>
       <r>    3.9203    0.0000 </r>
       <r>    3.9810    0.0000 </r>
       <r>    6.6097    0.0000 </r>
       <r>    6.7105    0.0000 </r>
       <r>    8.3136    0.0000 </r>
       <r>    8.6271    0.0000 </r>
      </set>
      <set comment="kpoint 31">
       <r>  -34.9705    1.0000 </r>
       <r>  -34.9605    1.0000 </r>
       <r>  -34.9329    1.0000 </r>
       <r>  -34.9229    1.0000 </r>
       <r>  -34.8385    1.0000 </r>
       <r>  -34.8286    1.0000 </r>
       <r>  -13.4088    1.0000 </r>
       <r>  -13.3543    1.0000 </r>
       <r>  -12.4702    1.0000 </r>
       <r>  -12.3915    1.0000 </r>
       <r>   -5.1266    1.0000 </r>
       <r>   -4.8618    1.0000 </r>
       <r>   -3.5737    1.0000 </r>
       <r>   -3.5409    1.0000 </r>
       <r>   -3.2352    1.0000 </r>
       <r>   -3.0068    1.0000 </r>
       <r>   -2.4693    1.0000 </r>
       <r>   -2.4450    1.0000 </r>
       <r>   -2.0826    1.0000 </r>
       <r>   -2.0715    1.0000 </r>
       <r>   -1.1918    1.0000 </r>
       <r>   -0.8879    1.0000 </r>
       <r>   -0.5527    1.0000 </r>
       <r>   -0.4007    1.0000 </r>
       <r>    1.9441   -0.0000 </r>
       <r>    2.1813   -0.0000 </r>
       <r>    2.3916   -0.0000 </r>
       <r>    2.4091   -0.0000 </r>
       <r>    2.4661   -0.0000 </r>
       <r>    2.6285   -0.0000 </r>
       <r>    3.5347    0.0000 </r>
       <r>    3.5526    0.0000 </r>
       <r>    6.0917    0.0000 </r>
       <r>    6.2041    0.0000 </r>
       <r>    7.7934    0.0000 </r>
       <r>    8.2487    0.0000 </r>
      </set>
      <set comment="kpoint 32">
       <r>  -34.9806    1.0000 </r>
       <r>  -34.9706    1.0000 </r>
       <r>  -34.8848    1.0000 </r>
       <r>  -34.8749    1.0000 </r>
       <r>  -34.8234    1.0000 </r>
       <r>  -34.8134    1.0000 </r>
       <r>  -13.6405    1.0000 </r>
       <r>  -13.5848    1.0000 </r>
       <r>  -12.5682    1.0000 </r>
       <r>  -12.4829    1.0000 </r>
       <r>   -5.3277    1.0000 </r>
       <r>   -5.0448    1.0000 </r>
       <r>   -3.2653    1.0000 </r>
       <r>   -3.2473    1.0000 </r>
       <r>   -2.9614    1.0000 </r>
       <r>   -2.6885    1.0000 </r>
       <r>   -2.2794    1.0000 </r>
       <r>   -2.2684    1.0000 </r>
       <r>   -2.0053    1.0000 </r>
       <r>   -1.9931    1.0000 </r>
       <r>   -1.2883    1.0000 </r>
       <r>   -0.9320    1.0000 </r>
       <r>   -0.3778    1.0000 </r>
       <r>   -0.1260    1.0000 </r>
       <r>    2.1577   -0.0000 </r>
       <r>    2.3596   -0.0000 </r>
       <r>    2.4878   -0.0000 </r>
       <r>    2.5493   -0.0000 </r>
       <r>    2.5796   -0.0000 </r>
       <r>    2.6290   -0.0000 </r>
       <r>    3.1868    0.0000 </r>
       <r>    3.2154    0.0000 </r>
       <r>    5.7701    0.0000 </r>
       <r>    5.8816    0.0000 </r>
       <r>    7.4222    0.0000 </r>
       <r>    7.8295    0.0000 </r>
      </set>
      <set comment="kpoint 33">
       <r>  -34.9842    1.0000 </r>
       <r>  -34.9742    1.0000 </r>
       <r>  -34.8653    1.0000 </r>
       <r>  -34.8555    1.0000 </r>
       <r>  -34.8201    1.0000 </r>
       <r>  -34.8100    1.0000 </r>
       <r>  -13.7213    1.0000 </r>
       <r>  -13.6654    1.0000 </r>
       <r>  -12.6022    1.0000 </r>
       <r>  -12.5149    1.0000 </r>
       <r>   -5.4062    1.0000 </r>
       <r>   -5.1200    1.0000 </r>
       <r>   -3.1264    1.0000 </r>
       <r>   -3.1147    1.0000 </r>
       <r>   -2.7994    1.0000 </r>
       <r>   -2.4873    1.0000 </r>
       <r>   -2.3664    1.0000 </r>
       <r>   -2.3563    1.0000 </r>
       <r>   -1.9828    1.0000 </r>
       <r>   -1.9718    1.0000 </r>
       <r>   -1.2096    1.0000 </r>
       <r>   -0.8834    1.0000 </r>
       <r>   -0.3211    1.0000 </r>
       <r>   -0.0303    1.0002 </r>
       <r>    2.2784   -0.0000 </r>
       <r>    2.4160   -0.0000 </r>
       <r>    2.4515   -0.0000 </r>
       <r>    2.5526   -0.0000 </r>
       <r>    2.6228   -0.0000 </r>
       <r>    2.6375   -0.0000 </r>
       <r>    3.1257    0.0000 </r>
       <r>    3.1387    0.0000 </r>
       <r>    5.6608    0.0000 </r>
       <r>    5.7724    0.0000 </r>
       <r>    7.2604    0.0000 </r>
       <r>    7.6105    0.0000 </r>
      </set>
      <set comment="kpoint 34">
       <r>  -34.9664    1.0000 </r>
       <r>  -34.9644    1.0000 </r>
       <r>  -34.9565    1.0000 </r>
       <r>  -34.9544    1.0000 </r>
       <r>  -34.8423    1.0000 </r>
       <r>  -34.8322    1.0000 </r>
       <r>  -13.2648    1.0000 </r>
       <r>  -13.2119    1.0000 </r>
       <r>  -12.4099    1.0000 </r>
       <r>  -12.3363    1.0000 </r>
       <r>   -5.0632    1.0000 </r>
       <r>   -4.8288    1.0000 </r>
       <r>   -3.7293    1.0000 </r>
       <r>   -3.6763    1.0000 </r>
       <r>   -3.4915    1.0000 </r>
       <r>   -3.3081    1.0000 </r>
       <r>   -2.3994    1.0000 </r>
       <r>   -2.3890    1.0000 </r>
       <r>   -1.9097    1.0000 </r>
       <r>   -1.8995    1.0000 </r>
       <r>   -1.4450    1.0000 </r>
       <r>   -1.1334    1.0000 </r>
       <r>   -0.6924    1.0000 </r>
       <r>   -0.5883    1.0000 </r>
       <r>    1.9423   -0.0000 </r>
       <r>    2.2338   -0.0000 </r>
       <r>    2.3081   -0.0000 </r>
       <r>    2.3219   -0.0000 </r>
       <r>    2.6899   -0.0000 </r>
[...]
       <r>    -2.2262     1.4963    18.3848 </r>
       <r>    -2.0643     2.9793    18.8673 </r>
       <r>    -1.9023     4.0831    19.5285 </r>
       <r>    -1.7404     3.0092    20.0158 </r>
       <r>    -1.5784     3.1668    20.5287 </r>
       <r>    -1.4165     3.2162    21.0495 </r>
       <r>    -1.2545     1.7664    21.3356 </r>
       <r>    -1.0926     2.3157    21.7106 </r>
       <r>    -0.9306     1.5005    21.9536 </r>
       <r>    -0.7687     3.7580    22.5622 </r>
       <r>    -0.6067     2.9299    23.0367 </r>
       <r>    -0.4448     2.0696    23.3719 </r>
       <r>    -0.2828     2.1897    23.7265 </r>
       <r>    -0.1209     1.0314    23.8936 </r>
       <r>     0.0411     0.4016    23.9586 </r>
       <r>     0.2030     0.2205    23.9943 </r>
       <r>     0.3650     0.0369    24.0003 </r>
       <r>     0.5269    -0.0017    24.0000 </r>
       <r>     0.6889    -0.0000    24.0000 </r>
       <r>     0.8508    -0.0000    24.0000 </r>
       <r>     1.0128    -0.0000    24.0000 </r>
       <r>     1.1747    -0.0000    24.0000 </r>
       <r>     1.3366    -0.0000    24.0000 </r>
       <r>     1.4986    -0.0061    23.9990 </r>
       <r>     1.6605     0.1143    24.0175 </r>
       <r>     1.8225     1.1495    24.2037 </r>
       <r>     1.9844     2.4831    24.6058 </r>
       <r>     2.1464     5.2265    25.4522 </r>
       <r>     2.3083     3.6751    26.0474 </r>
       <r>     2.4703     4.7865    26.8226 </r>
       <r>     2.6322     5.0442    27.6395 </r>
       <r>     2.7942     3.4397    28.1965 </r>
       <r>     2.9561     2.9911    28.6809 </r>
       <r>     3.1181     2.5575    29.0951 </r>
       <r>     3.2800     2.6836    29.5297 </r>
       <r>     3.4420     1.6156    29.7913 </r>
       <r>     3.6039     2.1340    30.1369 </r>
       <r>     3.7659     0.9883    30.2970 </r>
       <r>     3.9278     1.8204    30.5918 </r>
       <r>     4.0898     1.9933    30.9146 </r>
       <r>     4.2517     3.0986    31.4164 </r>
       <r>     4.4137     1.6182    31.6785 </r>
       <r>     4.5756     1.1140    31.8589 </r>
       <r>     4.7376     0.7439    31.9794 </r>
       <r>     4.8995     0.1346    32.0012 </r>
       <r>     5.0615    -0.0073    32.0000 </r>
       <r>     5.2234     0.0016    32.0002 </r>
       <r>     5.3853     0.1035    32.0170 </r>
       <r>     5.5473     0.3248    32.0696 </r>
       <r>     5.7092     0.3007    32.1183 </r>
       <r>     5.8712     0.5384    32.2055 </r>
       <r>     6.0331     0.3423    32.2609 </r>
       <r>     6.1951     0.8037    32.3911 </r>
       <r>     6.3570     0.8607    32.5305 </r>
       <r>     6.5190     0.9391    32.6825 </r>
       <r>     6.6809     0.9651    32.8388 </r>
       <r>     6.8429     1.6918    33.1128 </r>
       <r>     7.0048     1.6537    33.3806 </r>
       <r>     7.1668     0.8577    33.5195 </r>
       <r>     7.3287     1.8860    33.8250 </r>
       <r>     7.4907     1.5895    34.0824 </r>
       <r>     7.6526     1.0793    34.2572 </r>
       <r>     7.8146     0.8568    34.3959 </r>
       <r>     7.9765     1.3647    34.6169 </r>
       <r>     8.1385     2.1145    34.9594 </r>
       <r>     8.3004     2.4428    35.3550 </r>
       <r>     8.4624     1.3591    35.5751 </r>
       <r>     8.6243     1.2671    35.7803 </r>
       <r>     8.7863     0.9062    35.9271 </r>
       <r>     8.9482     0.3675    35.9866 </r>
       <r>     9.1101     0.0868    36.0006 </r>
       <r>     9.2721    -0.0039    36.0000 </r>
       <r>     9.4340    -0.0000    36.0000 </r>
       <r>     9.5960    -0.0000    36.0000 </r>
       <r>     9.7579    -0.0000    36.0000 </r>
       <r>     9.9199     0.0000    36.0000 </r>
       <r>    10.0818     0.0000    36.0000 </r>
       <r>    10.2438     0.0000    36.0000 </r>
       <r>    10.4057     0.0000    36.0000 </r>
       <r>    10.5677     0.0000    36.0000 </r>
       <r>    10.7296     0.0000    36.0000 </r>
       <r>    10.8916     0.0000    36.0000 </r>
       <r>    11.0535     0.0000    36.0000 </r>
       <r>    11.2155     0.0000    36.0000 </r>
      </set>
      <set comment="spin 2">
       <r>   -37.3689     0.0000     0.0000 </r>
       <r>   -37.2070     0.0000     0.0000 </r>
       <r>   -37.0450     0.0000     0.0000 </r>
       <r>   -36.8831     0.0000     0.0000 </r>
       <r>   -36.7211     0.0000     0.0000 </r>
       <r>   -36.5592     0.0000     0.0000 </r>
       <r>   -36.3972     0.0000     0.0000 </r>
       <r>   -36.2353     0.0000     0.0000 </r>
       <r>   -36.0733    -0.0000    -0.0000 </r>
       <r>   -35.9114    -0.0000    -0.0000 </r>
       <r>   -35.7494    -0.0000    -0.0000 </r>
       <r>   -35.5875    -0.0000    -0.0000 </r>
       <r>   -35.4255    -0.0008    -0.0001 </r>
       <r>   -35.2636    -0.1849    -0.0301 </r>
       <r>   -35.1016     4.0503     0.6259 </r>
       <r>   -34.9397    15.0419     3.0619 </r>
       <r>   -34.7777    18.1098     5.9947 </r>
       <r>   -34.6158     0.0615     6.0047 </r>
       <r>   -34.4538    -0.0288     6.0000 </r>
       <r>   -34.2919    -0.0000     6.0000 </r>
       <r>   -34.1299    -0.0000     6.0000 </r>
       <r>   -33.9680     0.0000     6.0000 </r>
       <r>   -33.8061     0.0000     6.0000 </r>
       <r>   -33.6441     0.0000     6.0000 </r>
       <r>   -33.4822     0.0000     6.0000 </r>
       <r>   -33.3202     0.0000     6.0000 </r>
       <r>   -33.1583     0.0000     6.0000 </r>
       <r>   -32.9963     0.0000     6.0000 </r>
       <r>   -32.8344     0.0000     6.0000 </r>
       <r>   -32.6724     0.0000     6.0000 </r>
       <r>   -32.5105     0.0000     6.0000 </r>
       <r>   -32.3485     0.0000     6.0000 </r>
       <r>   -32.1866     0.0000     6.0000 </r>
       <r>   -32.0246     0.0000     6.0000 </r>
       <r>   -31.8627     0.0000     6.0000 </r>
       <r>   -31.7007     0.0000     6.0000 </r>
       <r>   -31.5388     0.0000     6.0000 </r>
       <r>   -31.3768     0.0000     6.0000 </r>
       <r>   -31.2149     0.0000     6.0000 </r>
       <r>   -31.0529     0.0000     6.0000 </r>
       <r>   -30.8910     0.0000     6.0000 </r>
       <r>   -30.7290     0.0000     6.0000 </r>
       <r>   -30.5671     0.0000     6.0000 </r>
       <r>   -30.4051     0.0000     6.0000 </r>
       <r>   -30.2432     0.0000     6.0000 </r>
       <r>   -30.0812     0.0000     6.0000 </r>
       <r>   -29.9193     0.0000     6.0000 </r>
       <r>   -29.7574     0.0000     6.0000 </r>
       <r>   -29.5954     0.0000     6.0000 </r>
       <r>   -29.4335     0.0000     6.0000 </r>
       <r>   -29.2715     0.0000     6.0000 </r>
       <r>   -29.1096     0.0000     6.0000 </r>
       <r>   -28.9476     0.0000     6.0000 </r>
       <r>   -28.7857     0.0000     6.0000 </r>
       <r>   -28.6237     0.0000     6.0000 </r>
       <r>   -28.4618     0.0000     6.0000 </r>
       <r>   -28.2998     0.0000     6.0000 </r>
       <r>   -28.1379     0.0000     6.0000 </r>
       <r>   -27.9759     0.0000     6.0000 </r>
       <r>   -27.8140     0.0000     6.0000 </r>
       <r>   -27.6520     0.0000     6.0000 </r>
       <r>   -27.4901     0.0000     6.0000 </r>
       <r>   -27.3281     0.0000     6.0000 </r>
       <r>   -27.1662     0.0000     6.0000 </r>
       <r>   -27.0042     0.0000     6.0000 </r>
       <r>   -26.8423     0.0000     6.0000 </r>
       <r>   -26.6803     0.0000     6.0000 </r>
       <r>   -26.5184     0.0000     6.0000 </r>
       <r>   -26.3564     0.0000     6.0000 </r>
       <r>   -26.1945     0.0000     6.0000 </r>
       <r>   -26.0325     0.0000     6.0000 </r>
       <r>   -25.8706     0.0000     6.0000 </r>
       <r>   -25.7087     0.0000     6.0000 </r>
       <r>   -25.5467     0.0000     6.0000 </r>
       <r>   -25.3848     0.0000     6.0000 </r>
       <r>   -25.2228     0.0000     6.0000 </r>
       <r>   -25.0609     0.0000     6.0000 </r>
       <r>   -24.8989     0.0000     6.0000 </r>
       <r>   -24.7370     0.0000     6.0000 </r>
       <r>   -24.5750     0.0000     6.0000 </r>
       <r>   -24.4131     0.0000     6.0000 </r>
       <r>   -24.2511     0.0000     6.0000 </r>
       <r>   -24.0892     0.0000     6.0000 </r>
       <r>   -23.9272     0.0000     6.0000 </r>
       <r>   -23.7653     0.0000     6.0000 </r>
       <r>   -23.6033     0.0000     6.0000 </r>
       <r>   -23.4414     0.0000     6.0000 </r>
       <r>   -23.2794     0.0000     6.0000 </r>
       <r>   -23.1175     0.0000     6.0000 </r>
       <r>   -22.9555     0.0000     6.0000 </r>
       <r>   -22.7936     0.0000     6.0000 </r>
       <r>   -22.6316     0.0000     6.0000 </r>
       <r>   -22.4697     0.0000     6.0000 </r>
       <r>   -22.3077     0.0000     6.0000 </r>
       <r>   -22.1458     0.0000     6.0000 </r>
       <r>   -21.9839     0.0000     6.0000 </r>
       <r>   -21.8219     0.0000     6.0000 </r>
       <r>   -21.6600     0.0000     6.0000 </r>
       <r>   -21.4980     0.0000     6.0000 </r>
       <r>   -21.3361     0.0000     6.0000 </r>
       <r>   -21.1741     0.0000     6.0000 </r>
       <r>   -21.0122     0.0000     6.0000 </r>
       <r>   -20.8502     0.0000     6.0000 </r>
       <r>   -20.6883     0.0000     6.0000 </r>
       <r>   -20.5263     0.0000     6.0000 </r>
       <r>   -20.3644     0.0000     6.0000 </r>
       <r>   -20.2024     0.0000     6.0000 </r>
       <r>   -20.0405     0.0000     6.0000 </r>
       <r>   -19.8785     0.0000     6.0000 </r>
       <r>   -19.7166     0.0000     6.0000 </r>
       <r>   -19.5546     0.0000     6.0000 </r>
       <r>   -19.3927     0.0000     6.0000 </r>
       <r>   -19.2307     0.0000     6.0000 </r>
       <r>   -19.0688     0.0000     6.0000 </r>
       <r>   -18.9068     0.0000     6.0000 </r>
       <r>   -18.7449     0.0000     6.0000 </r>
       <r>   -18.5829     0.0000     6.0000 </r>
       <r>   -18.4210     0.0000     6.0000 </r>
       <r>   -18.2590     0.0000     6.0000 </r>
       <r>   -18.0971     0.0000     6.0000 </r>
       <r>   -17.9352     0.0000     6.0000 </r>
       <r>   -17.7732     0.0000     6.0000 </r>
       <r>   -17.6113     0.0000     6.0000 </r>
       <r>   -17.4493     0.0000     6.0000 </r>
       <r>   -17.2874     0.0000     6.0000 </r>
       <r>   -17.1254     0.0000     6.0000 </r>
       <r>   -16.9635     0.0000     6.0000 </r>
       <r>   -16.8015     0.0000     6.0000 </r>
       <r>   -16.6396     0.0000     6.0000 </r>
       <r>   -16.4776     0.0000     6.0000 </r>
       <r>   -16.3157     0.0000     6.0000 </r>
       <r>   -16.1537     0.0000     6.0000 </r>
       <r>   -15.9918     0.0000     6.0000 </r>
       <r>   -15.8298     0.0000     6.0000 </r>
       <r>   -15.6679     0.0000     6.0000 </r>
       <r>   -15.5059     0.0000     6.0000 </r>
       <r>   -15.3440     0.0000     6.0000 </r>
       <r>   -15.1820     0.0000     6.0000 </r>
       <r>   -15.0201     0.0000     6.0000 </r>
       <r>   -14.8581    -0.0000     6.0000 </r>
       <r>   -14.6962    -0.0000     6.0000 </r>
       <r>   -14.5342    -0.0000     6.0000 </r>
       <r>   -14.3723    -0.0000     6.0000 </r>
       <r>   -14.2104    -0.0001     6.0000 </r>
       <r>   -14.0484    -0.0062     5.9990 </r>
       <r>   -13.8865     0.2035     6.0319 </r>
       <r>   -13.7245     0.4411     6.1034 </r>
       <r>   -13.5626     0.6748     6.2127 </r>
       <r>   -13.4006     0.3841     6.2749 </r>
       <r>   -13.2387     0.8049     6.4052 </r>
       <r>   -13.0767     0.2910     6.4523 </r>
       <r>   -12.9148     1.1212     6.6339 </r>
       <r>   -12.7528     0.4357     6.7045 </r>
       <r>   -12.5909     1.4932     6.9463 </r>
       <r>   -12.4289     2.3385     7.3250 </r>
       <r>   -12.2670     2.6023     7.7465 </r>
       <r>   -12.1050     3.8955     8.3773 </r>
       <r>   -11.9431     5.4195     9.2550 </r>
       <r>   -11.7811     4.3221     9.9550 </r>
       <r>   -11.6192     0.2961    10.0029 </r>
       <r>   -11.4572    -0.0179    10.0000 </r>
       <r>   -11.2953    -0.0000    10.0000 </r>
       <r>   -11.1333    -0.0000    10.0000 </r>
       <r>   -10.9714     0.0000    10.0000 </r>
       <r>   -10.8094     0.0000    10.0000 </r>
       <r>   -10.6475     0.0000    10.0000 </r>
       <r>   -10.4855     0.0000    10.0000 </r>
       <r>   -10.3236     0.0000    10.0000 </r>
       <r>   -10.1617     0.0000    10.0000 </r>
       <r>    -9.9997     0.0000    10.0000 </r>
       <r>    -9.8378     0.0000    10.0000 </r>
       <r>    -9.6758     0.0000    10.0000 </r>
       <r>    -9.5139     0.0000    10.0000 </r>
       <r>    -9.3519     0.0000    10.0000 </r>
       <r>    -9.1900     0.0000    10.0000 </r>
       <r>    -9.0280     0.0000    10.0000 </r>
       <r>    -8.8661     0.0000    10.0000 </r>
       <r>    -8.7041     0.0000    10.0000 </r>
       <r>    -8.5422     0.0000    10.0000 </r>
       <r>    -8.3802     0.0000    10.0000 </r>
       <r>    -8.2183     0.0000    10.0000 </r>
       <r>    -8.0563     0.0000    10.0000 </r>
       <r>    -7.8944     0.0000    10.0000 </r>
       <r>    -7.7324     0.0000    10.0000 </r>
       <r>    -7.5705     0.0000    10.0000 </r>
       <r>    -7.4085     0.0000    10.0000 </r>
       <r>    -7.2466     0.0000    10.0000 </r>
       <r>    -7.0846     0.0000    10.0000 </r>
       <r>    -6.9227     0.0000    10.0000 </r>
       <r>    -6.7607     0.0000    10.0000 </r>
       <r>    -6.5988    -0.0000    10.0000 </r>
       <r>    -6.4369    -0.0000    10.0000 </r>
       <r>    -6.2749    -0.0000    10.0000 </r>
       <r>    -6.1130    -0.0000    10.0000 </r>
       <r>    -5.9510    -0.0001    10.0000 </r>
       <r>    -5.7891    -0.0203     9.9967 </r>
       <r>    -5.6271     0.4828    10.0749 </r>
       <r>    -5.4652     1.2427    10.2761 </r>
       <r>    -5.3032     2.0525    10.6085 </r>
       <r>    -5.1413     2.7546    11.0546 </r>
       <r>    -4.9793     4.6444    11.8068 </r>
       <r>    -4.8174     3.0357    12.2984 </r>
       <r>    -4.6554     2.2093    12.6562 </r>
       <r>    -4.4935     1.7924    12.9465 </r>
       <r>    -4.3315     0.3595    13.0047 </r>
       <r>    -4.1696     0.7300    13.1229 </r>
       <r>    -4.0076     1.6226    13.3857 </r>
       <r>    -3.8457     3.6223    13.9723 </r>
       <r>    -3.6837     5.0326    14.7873 </r>
       <r>    -3.5218     2.9662    15.2677 </r>
       <r>    -3.3598     1.1723    15.4576 </r>
       <r>    -3.1979     3.0010    15.9436 </r>
       <r>    -3.0359     5.5218    16.8378 </r>
       <r>    -2.8740     3.3116    17.3741 </r>
       <r>    -2.7120     1.8847    17.6793 </r>
       <r>    -2.5501     0.8831    17.8223 </r>
       <r>    -2.3882     1.9766    18.1425 </r>
       <r>    -2.2262     1.4964    18.3848 </r>
       <r>    -2.0643     2.9796    18.8673 </r>
       <r>    -1.9023     4.0832    19.5286 </r>
       <r>    -1.7404     3.0095    20.0160 </r>
       <r>    -1.5784     3.1663    20.5288 </r>
       <r>    -1.4165     3.2165    21.0497 </r>
       <r>    -1.2545     1.7659    21.3357 </r>
       <r>    -1.0926     2.3158    21.7107 </r>
       <r>    -0.9306     1.5008    21.9538 </r>
       <r>    -0.7687     3.7575    22.5623 </r>
       <r>    -0.6067     2.9300    23.0368 </r>
       <r>    -0.4448     2.0696    23.3719 </r>
       <r>    -0.2828     2.1897    23.7265 </r>
       <r>    -0.1209     1.0313    23.8936 </r>
       <r>     0.0411     0.4016    23.9586 </r>
       <r>     0.2030     0.2205    23.9943 </r>
       <r>     0.3650     0.0369    24.0003 </r>
       <r>     0.5269    -0.0017    24.0000 </r>
       <r>     0.6889    -0.0000    24.0000 </r>
       <r>     0.8508    -0.0000    24.0000 </r>
       <r>     1.0128    -0.0000    24.0000 </r>
       <r>     1.1747    -0.0000    24.0000 </r>
       <r>     1.3366    -0.0000    24.0000 </r>
       <r>     1.4986    -0.0061    23.9990 </r>
       <r>     1.6605     0.1143    24.0175 </r>
       <r>     1.8225     1.1495    24.2037 </r>
       <r>     1.9844     2.4834    24.6059 </r>
       <r>     2.1464     5.2265    25.4523 </r>
       <r>     2.3083     3.6751    26.0475 </r>
       <r>     2.4703     4.7867    26.8227 </r>
       <r>     2.6322     5.0439    27.6395 </r>
       <r>     2.7942     3.4397    28.1966 </r>
       <r>     2.9561     2.9910    28.6810 </r>
       <r>     3.1181     2.5576    29.0952 </r>
       <r>     3.2800     2.6834    29.5297 </r>
       <r>     3.4420     1.6156    29.7914 </r>
       <r>     3.6039     2.1340    30.1370 </r>
       <r>     3.7659     0.9883    30.2970 </r>
       <r>     3.9278     1.8204    30.5918 </r>
       <r>     4.0898     1.9934    30.9147 </r>
       <r>     4.2517     3.0985    31.4164 </r>
       <r>     4.4137     1.6182    31.6785 </r>
       <r>     4.5756     1.1140    31.8589 </r>
       <r>     4.7376     0.7438    31.9794 </r>
       <r>     4.8995     0.1345    32.0012 </r>
       <r>     5.0615    -0.0072    32.0000 </r>
       <r>     5.2234    -0.0010    31.9998 </r>
       <r>     5.3853     0.0773    32.0123 </r>
       <r>     5.5473     0.3280    32.0655 </r>
       <r>     5.7092     0.2866    32.1119 </r>
       <r>     5.8712     0.5432    32.1998 </r>
       <r>     6.0331     0.3513    32.2567 </r>
       <r>     6.1951     0.7618    32.3801 </r>
       <r>     6.3570     0.8859    32.5236 </r>
       <r>     6.5190     0.9655    32.6799 </r>
       <r>     6.6809     0.8712    32.8210 </r>
       <r>     6.8429     1.7549    33.1052 </r>
       <r>     7.0048     1.4563    33.3411 </r>
       <r>     7.1668     0.9072    33.4880 </r>
       <r>     7.3287     1.9573    33.8050 </r>
       <r>     7.4907     1.7086    34.0817 </r>
       <r>     7.6526     1.0640    34.2540 </r>
       <r>     7.8146     0.8474    34.3912 </r>
       <r>     7.9765     1.3741    34.6138 </r>
       <r>     8.1385     1.7816    34.9023 </r>
       <r>     8.3004     2.7977    35.3554 </r>
       <r>     8.4624     1.3184    35.5689 </r>
       <r>     8.6243     0.8969    35.7141 </r>
       <r>     8.7863     0.9289    35.8646 </r>
       <r>     8.9482     0.5498    35.9536 </r>
       <r>     9.1101     0.2983    36.0019 </r>
       <r>     9.2721    -0.0116    36.0000 </r>
       <r>     9.4340    -0.0001    36.0000 </r>
       <r>     9.5960    -0.0000    36.0000 </r>
       <r>     9.7579    -0.0000    36.0000 </r>
       <r>     9.9199     0.0000    36.0000 </r>
       <r>    10.0818     0.0000    36.0000 </r>
       <r>    10.2438     0.0000    36.0000 </r>
       <r>    10.4057     0.0000    36.0000 </r>
       <r>    10.5677     0.0000    36.0000 </r>
       <r>    10.7296     0.0000    36.0000 </r>
       <r>    10.8916     0.0000    36.0000 </r>
       <r>    11.0535     0.0000    36.0000 </r>
       <r>    11.2155     0.0000    36.0000 </r>
      </set>
     </set>
    </array>
   </total>
  </dos>
 </calculation>
 <structure name="finalpos" >
  <crystal>
   <varray name="basis" >
    <v>       3.19031700       0.00000000       0.00000000 </v>
    <v>      -1.59515800       2.76289700       0.00000000 </v>
    <v>       0.00000000       0.00000000      23.14049200 </v>
   </varray>
   <i name="volume">    203.97226633 </i>
   <varray name="rec_basis" >
    <v>       0.31344848       0.18096941       0.00000000 </v>
    <v>       0.00000000       0.36193894       0.00000000 </v>
    <v>       0.00000000       0.00000000       0.04321429 </v>
   </varray>
  </crystal>
  <varray name="positions" >
   <v>       0.66666700       0.33333300       0.06785900 </v>
   <v>       0.33333300       0.66666700       0.00000000 </v>
   <v>       0.33333300       0.66666700       0.13571500 </v>
   <v>       0.09523843       0.61904729       0.35482300 </v>
   <v>       0.76190443       0.95238129       0.28696500 </v>
   <v>       0.76190443       0.95238129       0.42267900 </v>
  </varray>
 </structure>
</modeling>
