 running on    8 total cores
 distrk:  each k-point on    8 cores,    1 groups
 distr:  one band on    2 cores,    4 groups
 using from now: INCAR     
 vasp.5.3.5 31Mar14 (build Oct 29 2014 16:16:03) complex                        
  
 POSCAR found type information on POSCAR  P  Si
 POSCAR found :  2 types and      24 ions
 scaLAPACK will be used

 ----------------------------------------------------------------------------- 
|                                                                             |
|  ADVICE TO THIS USER RUNNING 'VASP/VAMP'   (HEAR YOUR MASTER'S VOICE ...):  |
|                                                                             |
|      You have switched on vdW-DFT.                                          |
|      This routine was written and supplied by Jiri Klimes.                  |
|      We recommed that you carefully read and cite the following             |
|      publication                                                            |
|      J. Klimes, D.R. Bowler, A. Michelides                                  |
|        J. Phys.: Cond Matt. 22 022201 (2010)                                |
|      J. Klimes, D.R. Bowler, A. Michelides                                  |
|        Phys. Rev. B. 83, 195131 (2011)                                      |
|      and references therein.                                                |
|                                                                             |
 ----------------------------------------------------------------------------- 


 ----------------------------------------------------------------------------- 
|                                                                             |
|  ADVICE TO THIS USER RUNNING 'VASP/VAMP'   (HEAR YOUR MASTER'S VOICE ...):  |
|                                                                             |
|      You enforced a specific xc-type in the INCAR file,                     |
|      a different type was found on the POTCAR file                          |
|          I HOPE YOU KNOW, WHAT YOU ARE  DOING                               |
|                                                                             |
 ----------------------------------------------------------------------------- 

 LDA part: xc-table for Pade appr. of Perdew

 ----------------------------------------------------------------------------- 
|                                                                             |
|           W    W    AA    RRRRR   N    N  II  N    N   GGGG   !!!           |
|           W    W   A  A   R    R  NN   N  II  NN   N  G    G  !!!           |
|           W    W  A    A  R    R  N N  N  II  N N  N  G       !!!           |
|           W WW W  AAAAAA  RRRRR   N  N N  II  N  N N  G  GGG   !            |
|           WW  WW  A    A  R   R   N   NN  II  N   NN  G    G                |
|           W    W  A    A  R    R  N    N  II  N    N   GGGG   !!!           |
|                                                                             |
|      The distance between some ions is very small                           |
|      please check the nearest neigbor list in the OUTCAR file               |
|          I HOPE YOU KNOW, WHAT YOU ARE  DOING                               |
|                                                                             |
 ----------------------------------------------------------------------------- 



 VERY BAD NEWS! internal error in subroutine IBZKPT:
 Reciprocal lattice and k-lattice belong to different class of lattices. Often results are still useful...      96


 VERY BAD NEWS! internal error in subroutine IBZKPT:
 Reciprocal lattice and k-lattice belong to different class of lattices. Often results are still useful...      96


 VERY BAD NEWS! internal error in subroutine IBZKPT:
 Reciprocal lattice and k-lattice belong to different class of lattices. Often results are still useful...      96


 VERY BAD NEWS! internal error in subroutine IBZKPT:
 Reciprocal lattice and k-lattice belong to different class of lattices. Often results are still useful...      96


 VERY BAD NEWS! internal error in subroutine IBZKPT:
 Reciprocal lattice and k-lattice belong to different class of lattices. Often results are still useful...      96


 VERY BAD NEWS! internal error in subroutine IBZKPT:
 Reciprocal lattice and k-lattice belong to different class of lattices. Often results are still useful...      96


 VERY BAD NEWS! internal error in subroutine IBZKPT:
 Reciprocal lattice and k-lattice belong to different class of lattices. Often results are still useful...      96


 VERY BAD NEWS! internal error in subroutine IBZKPT:
 Reciprocal lattice and k-lattice belong to different class of lattices. Often results are still useful...      96
 POSCAR, INCAR and KPOINTS ok, starting setup
 WARNING: small aliasing (wrap around) errors must be expected
 FFT: planning ...
 WAVECAR not read
 entering main loop
       N       E                     dE             d eps       ncg     rms          rms(c)
Total vdW correction in eV:     15.9782226
DAV:   1     0.533338340755E+03    0.53334E+03   -0.28757E+04  7376   0.790E+02
DAV:   2    -0.345104858275E+02   -0.56785E+03   -0.55302E+03  9752   0.191E+02
DAV:   3    -0.938161866013E+02   -0.59306E+02   -0.58355E+02  9048   0.636E+01
DAV:   4    -0.969079286182E+02   -0.30917E+01   -0.30659E+01 11888   0.153E+01
DAV:   5    -0.969537127332E+02   -0.45784E-01   -0.45649E-01 10240   0.196E+00    0.136E+01
Total vdW correction in eV:     16.3607894
DAV:   6    -0.913391856332E+02    0.56145E+01   -0.17040E+01  9116   0.127E+01    0.640E+00
Total vdW correction in eV:     16.7391006
DAV:   7    -0.915715748873E+02   -0.23239E+00   -0.11328E+01  8292   0.786E+00    0.335E+00
Total vdW correction in eV:     16.8909269
DAV:   8    -0.915300634939E+02    0.41511E-01   -0.13506E+00  9096   0.342E+00    0.188E+00
Total vdW correction in eV:     17.0326368
DAV:   9    -0.915620812743E+02   -0.32018E-01   -0.65460E-01  9256   0.226E+00    0.105E+00
Total vdW correction in eV:     17.1078414
DAV:  10    -0.915495057836E+02    0.12575E-01   -0.19366E-01  8844   0.140E+00    0.327E-01
Total vdW correction in eV:     17.1345675
DAV:  11    -0.915443207839E+02    0.51850E-02   -0.41458E-02  9640   0.563E-01    0.164E-01
Total vdW correction in eV:     17.1419187
DAV:  12    -0.915337250682E+02    0.10596E-01   -0.55176E-03  9144   0.247E-01    0.768E-02
Total vdW correction in eV:     17.1505159
DAV:  13    -0.915269024745E+02    0.68226E-02   -0.16665E-03  9096   0.126E-01    0.299E-02
Total vdW correction in eV:     17.1551158
DAV:  14    -0.915245650673E+02    0.23374E-02   -0.31311E-04  9504   0.493E-02    0.190E-02
Total vdW correction in eV:     17.1594583
DAV:  15    -0.915230537806E+02    0.15113E-02   -0.11827E-04  9304   0.330E-02    0.979E-03
Total vdW correction in eV:     17.1623221
DAV:  16    -0.915226377963E+02    0.41598E-03   -0.63727E-05  8200   0.224E-02    0.727E-03
Total vdW correction in eV:     17.1641596
DAV:  17    -0.915232939853E+02   -0.65619E-03   -0.11302E-04  8168   0.232E-02    0.347E-03
Total vdW correction in eV:     17.1645951
DAV:  18    -0.915236344705E+02   -0.34049E-03   -0.14876E-04  8192   0.204E-02    0.211E-03
Total vdW correction in eV:     17.1643613
DAV:  19    -0.915237163715E+02   -0.81901E-04   -0.32437E-05  7448   0.115E-02    0.128E-03
Total vdW correction in eV:     17.1641684
DAV:  20    -0.915237535318E+02   -0.37160E-04   -0.11477E-05  6576   0.740E-03    0.895E-04
Total vdW correction in eV:     17.1639899
DAV:  21    -0.915237540298E+02   -0.49794E-06   -0.20094E-05  7200   0.914E-03    0.595E-04
Total vdW correction in eV:     17.1638259
DAV:  22    -0.915236968879E+02    0.57142E-04   -0.16728E-05  7168   0.102E-02    0.370E-04
Total vdW correction in eV:     17.1638004
DAV:  23    -0.915236466342E+02    0.50254E-04   -0.11412E-05  6516   0.989E-03    0.167E-04
Total vdW correction in eV:     17.1638058
DAV:  24    -0.915236209544E+02    0.25680E-04   -0.44660E-06  6432   0.728E-03    0.110E-04
Total vdW correction in eV:     17.1638015
DAV:  25    -0.915236075435E+02    0.13411E-04   -0.65006E-06  6496   0.840E-03    0.511E-05
Total vdW correction in eV:     17.1638021
DAV:  26    -0.915236031369E+02    0.44066E-05   -0.32319E-06  6440   0.631E-03    0.299E-05
Total vdW correction in eV:     17.1638013
DAV:  27    -0.915236039049E+02   -0.76802E-06   -0.32458E-06  6584   0.603E-03
Total vdW correction in eV:     17.1637996
Total vdW correction in eV:     17.1638006
   1 F= -.91523604E+02 E0= -.91505412E+02  d E =-.363841E-01
