<?xml version="1.0" encoding="ISO-8859-1"?>
<modeling>
 <generator>
  <i name="program" type="string">vasp </i>
  <i name="version" type="string">5.3.5  </i>
  <i name="subversion" type="string">31Mar14 (build Oct 29 2014 16:16:03) complex                          parallel </i>
  <i name="platform" type="string">Linux-UFHPC </i>
  <i name="date" type="string">2016 02 09 </i>
  <i name="time" type="string">18:09:41 </i>
 </generator>
 <incar>
  <i type="string" name="PREC">accurate</i>
  <i type="int" name="IBRION">     2</i>
  <i name="EDIFF">      0.00000100</i>
  <i type="int" name="NSW">     0</i>
  <i type="int" name="ISIF">     3</i>
  <i name="ENCUT">    300.00000000</i>
  <i type="string" name="LREAL"> Auto</i>
  <i type="int" name="ISMEAR">     0</i>
  <i name="SIGMA">      0.10000000</i>
  <i type="logical" name="LWAVE"> F  </i>
  <i type="logical" name="LCHARG"> F  </i>
  <i type="logical" name="LAECHG"> F  </i>
  <i type="string" name="GGA"> Bo</i>
  <i name="PARAM1">      0.18333333</i>
  <i name="PARAM2">      0.22000000</i>
  <i type="logical" name="LUSE_VDW"> T  </i>
  <i name="AGGAC">      0.00000000</i>
 </incar>
 <kpoints>
  <generation param="Gamma">
   <v type="int" name="divisions">      13        4        2 </v>
   <v name="usershift">      0.00000000       0.00000000       0.00000000 </v>
   <v name="genvec1">      0.07692308      -0.00000000       0.00000000 </v>
   <v name="genvec2">      0.00000000       0.25000000       0.00000000 </v>
   <v name="genvec3">      0.00000000       0.00000000       0.50000000 </v>
   <v name="shift">      0.00000000       0.00000000       0.00000000 </v>
  </generation>
  <varray name="kpointlist" >
   <v>       0.00000000       0.00000000       0.00000000 </v>
   <v>       0.07692308      -0.00000000       0.00000000 </v>
   <v>       0.15384615      -0.00000000       0.00000000 </v>
   <v>       0.23076923      -0.00000000       0.00000000 </v>
   <v>       0.30769231      -0.00000000       0.00000000 </v>
   <v>       0.38461538      -0.00000000       0.00000000 </v>
   <v>       0.46153846      -0.00000000       0.00000000 </v>
   <v>       0.00000000       0.25000000       0.00000000 </v>
   <v>       0.07692308       0.25000000       0.00000000 </v>
   <v>       0.15384615       0.25000000       0.00000000 </v>
   <v>       0.23076923       0.25000000       0.00000000 </v>
   <v>       0.30769231       0.25000000       0.00000000 </v>
   <v>       0.38461538       0.25000000       0.00000000 </v>
   <v>       0.46153846       0.25000000       0.00000000 </v>
   <v>      -0.46153846       0.25000000       0.00000000 </v>
   <v>      -0.38461538       0.25000000       0.00000000 </v>
   <v>      -0.30769231       0.25000000       0.00000000 </v>
   <v>      -0.23076923       0.25000000       0.00000000 </v>
   <v>      -0.15384615       0.25000000       0.00000000 </v>
   <v>      -0.07692308       0.25000000       0.00000000 </v>
   <v>       0.00000000       0.50000000       0.00000000 </v>
   <v>       0.07692308       0.50000000       0.00000000 </v>
   <v>       0.15384615       0.50000000       0.00000000 </v>
   <v>       0.23076923       0.50000000       0.00000000 </v>
   <v>       0.30769231       0.50000000       0.00000000 </v>
   <v>       0.38461538       0.50000000       0.00000000 </v>
   <v>       0.46153846       0.50000000       0.00000000 </v>
   <v>       0.00000000       0.00000000       0.50000000 </v>
   <v>       0.07692308      -0.00000000       0.50000000 </v>
   <v>       0.15384615      -0.00000000       0.50000000 </v>
   <v>       0.23076923      -0.00000000       0.50000000 </v>
   <v>       0.30769231      -0.00000000       0.50000000 </v>
   <v>       0.38461538      -0.00000000       0.50000000 </v>
   <v>       0.46153846      -0.00000000       0.50000000 </v>
   <v>       0.00000000       0.25000000       0.50000000 </v>
   <v>       0.07692308       0.25000000       0.50000000 </v>
   <v>       0.15384615       0.25000000       0.50000000 </v>
   <v>       0.23076923       0.25000000       0.50000000 </v>
   <v>       0.30769231       0.25000000       0.50000000 </v>
   <v>       0.38461538       0.25000000       0.50000000 </v>
   <v>       0.46153846       0.25000000       0.50000000 </v>
   <v>      -0.46153846       0.25000000       0.50000000 </v>
   <v>      -0.38461538       0.25000000       0.50000000 </v>
   <v>      -0.30769231       0.25000000       0.50000000 </v>
   <v>      -0.23076923       0.25000000       0.50000000 </v>
   <v>      -0.15384615       0.25000000       0.50000000 </v>
   <v>      -0.07692308       0.25000000       0.50000000 </v>
   <v>       0.00000000       0.50000000       0.50000000 </v>
   <v>       0.07692308       0.50000000       0.50000000 </v>
   <v>       0.15384615       0.50000000       0.50000000 </v>
   <v>       0.23076923       0.50000000       0.50000000 </v>
   <v>       0.30769231       0.50000000       0.50000000 </v>
   <v>       0.38461538       0.50000000       0.50000000 </v>
   <v>       0.46153846       0.50000000       0.50000000 </v>
  </varray>
  <varray name="weights" >
   <v>       0.00961538 </v>
   <v>       0.01923077 </v>
   <v>       0.01923077 </v>
   <v>       0.01923077 </v>
   <v>       0.01923077 </v>
   <v>       0.01923077 </v>
   <v>       0.01923077 </v>
   <v>       0.01923077 </v>
   <v>       0.01923077 </v>
   <v>       0.01923077 </v>
   <v>       0.01923077 </v>
   <v>       0.01923077 </v>
   <v>       0.01923077 </v>
   <v>       0.01923077 </v>
   <v>       0.01923077 </v>
   <v>       0.01923077 </v>
   <v>       0.01923077 </v>
   <v>       0.01923077 </v>
   <v>       0.01923077 </v>
   <v>       0.01923077 </v>
   <v>       0.00961538 </v>
   <v>       0.01923077 </v>
   <v>       0.01923077 </v>
   <v>       0.01923077 </v>
   <v>       0.01923077 </v>
   <v>       0.01923077 </v>
   <v>       0.01923077 </v>
   <v>       0.00961538 </v>
   <v>       0.01923077 </v>
   <v>       0.01923077 </v>
   <v>       0.01923077 </v>
   <v>       0.01923077 </v>
   <v>       0.01923077 </v>
   <v>       0.01923077 </v>
   <v>       0.01923077 </v>
   <v>       0.01923077 </v>
   <v>       0.01923077 </v>
   <v>       0.01923077 </v>
   <v>       0.01923077 </v>
   <v>       0.01923077 </v>
   <v>       0.01923077 </v>
   <v>       0.01923077 </v>
   <v>       0.01923077 </v>
   <v>       0.01923077 </v>
   <v>       0.01923077 </v>
   <v>       0.01923077 </v>
   <v>       0.01923077 </v>
   <v>       0.00961538 </v>
   <v>       0.01923077 </v>
   <v>       0.01923077 </v>
   <v>       0.01923077 </v>
   <v>       0.01923077 </v>
   <v>       0.01923077 </v>
   <v>       0.01923077 </v>
  </varray>
 </kpoints>
 <parameters>
  <separator name="general" >
   <i type="string" name="SYSTEM">unknown system</i>
   <i type="logical" name="LCOMPAT"> F  </i>
  </separator>
  <separator name="electronic" >
   <i type="string" name="PREC">accura</i>
   <i name="ENMAX">    300.00000000</i>
   <i name="ENAUG">    342.92400000</i>
   <i name="EDIFF">      0.00000100</i>
   <i type="int" name="IALGO">    38</i>
   <i type="int" name="IWAVPR">    10</i>
   <i type="int" name="NBANDS">    68</i>
   <i name="NELECT">    108.00000000</i>
   <i type="int" name="TURBO">     0</i>
   <i type="int" name="IRESTART">     0</i>
   <i type="int" name="NREBOOT">     0</i>
   <i type="int" name="NMIN">     0</i>
   <i name="EREF">      0.00000000</i>
   <separator name="electronic smearing" >
    <i type="int" name="ISMEAR">     0</i>
    <i name="SIGMA">      0.10000000</i>
    <i name="KSPACING">      0.50000000</i>
    <i type="logical" name="KGAMMA"> T  </i>
   </separator>
   <separator name="electronic projectors" >
    <i type="logical" name="LREAL"> T  </i>
    <v name="ROPT">     -0.00025000     -0.00025000</v>
    <i type="int" name="LMAXPAW">  -100</i>
    <i type="int" name="LMAXMIX">     2</i>
    <i type="logical" name="NLSPLINE"> F  </i>
   </separator>
   <separator name="electronic startup" >
    <i type="int" name="ISTART">     0</i>
    <i type="int" name="ICHARG">     2</i>
    <i type="int" name="INIWAV">     1</i>
   </separator>
   <separator name="electronic spin" >
    <i type="int" name="ISPIN">     1</i>
    <i type="logical" name="LNONCOLLINEAR"> F  </i>
    <v name="MAGMOM">      1.00000000      1.00000000      1.00000000      1.00000000      1.00000000      1.00000000      1.00000000      1.00000000      1.00000000      1.00000000      1.00000000      1.00000000      1.00000000      1.00000000      1.00000000      1.00000000      1.00000000      1.00000000      1.00000000      1.00000000
      1.00000000      1.00000000      1.00000000      1.00000000</v>
    <i name="NUPDOWN">     -1.00000000</i>
    <i type="logical" name="LSORBIT"> F  </i>
    <v name="SAXIS">      0.00000000      0.00000000      1.00000000</v>
    <i type="logical" name="LSPIRAL"> F  </i>
    <v name="QSPIRAL">      0.00000000      0.00000000      0.00000000</v>
    <i type="logical" name="LZEROZ"> F  </i>
   </separator>
   <separator name="electronic exchange-correlation" >
    <i type="logical" name="LASPH"> F  </i>
    <i type="logical" name="LMETAGGA"> F  </i>
   </separator>
   <separator name="electronic convergence" >
    <i type="int" name="NELM">    60</i>
    <i type="int" name="NELMDL">    -5</i>
    <i type="int" name="NELMIN">     2</i>
    <i name="ENINI">    300.00000000</i>
    <separator name="electronic convergence detail" >
     <i type="logical" name="LDIAG"> T  </i>
     <i type="logical" name="LSUBROT"> F  </i>
     <i name="WEIMIN">      0.00000000</i>
     <i name="EBREAK">      0.00000000</i>
     <i name="DEPER">      0.30000000</i>
     <i type="int" name="NRMM">     4</i>
     <i name="TIME">      0.40000000</i>
    </separator>
   </separator>
   <separator name="electronic mixer" >
    <i name="AMIX">      0.40000000</i>
    <i name="BMIX">      1.00000000</i>
    <i name="AMIN">      0.10000000</i>
    <i name="AMIX_MAG">      1.60000000</i>
    <i name="BMIX_MAG">      1.00000000</i>
    <separator name="electronic mixer details" >
     <i type="int" name="IMIX">     4</i>
     <i type="int" name="MAXMIX">   -45</i>
     <i name="WC">    100.00000000</i>
     <i type="int" name="INIMIX">     1</i>
     <i type="int" name="MIXPRE">     1</i>
     <i type="int" name="MREMOVE">     5</i>
    </separator>
   </separator>
   <separator name="electronic dipolcorrection" >
    <i type="logical" name="LDIPOL"> F  </i>
    <i type="logical" name="LMONO"> F  </i>
    <i type="int" name="IDIPOL">     0</i>
    <i name="EPSILON">      1.00000000</i>
    <v name="DIPOL">   -100.00000000   -100.00000000   -100.00000000</v>
    <i name="EFIELD">      0.00000000</i>
   </separator>
  </separator>
  <separator name="grids" >
   <i type="int" name="NGX">    20</i>
   <i type="int" name="NGY">    60</i>
   <i type="int" name="NGZ">   160</i>
   <i type="int" name="NGXF">    40</i>
   <i type="int" name="NGYF">   120</i>
   <i type="int" name="NGZF">   320</i>
   <i type="logical" name="ADDGRID"> F  </i>
  </separator>
  <separator name="ionic" >
   <i type="int" name="NSW">     0</i>
   <i type="int" name="IBRION">    -1</i>
   <i type="int" name="ISIF">     3</i>
   <i name="PSTRESS">      0.00000000</i>
   <i name="EDIFFG">      0.00001000</i>
   <i type="int" name="NFREE">     1</i>
   <i name="POTIM">      0.50000000</i>
   <i name="SMASS">     -3.00000000</i>
   <i name="SCALEE">      1.00000000</i>
  </separator>
  <separator name="ionic md" >
   <i name="TEBEG">      0.00010000</i>
   <i name="TEEND">      0.00010000</i>
   <i type="int" name="NBLOCK">     1</i>
   <i type="int" name="KBLOCK">     1</i>
   <i type="int" name="NPACO">   256</i>
   <i name="APACO">     16.00000000</i>
  </separator>
  <separator name="symmetry" >
   <i type="int" name="ISYM">     2</i>
   <i name="SYMPREC">      0.00001000</i>
  </separator>
  <separator name="dos" >
   <i type="logical" name="LORBIT"> F  </i>
   <v name="RWIGS">     -1.00000000     -1.00000000</v>
   <i type="int" name="NEDOS">   301</i>
   <i name="EMIN">     10.00000000</i>
   <i name="EMAX">    -10.00000000</i>
   <i name="EFERMI">      0.00000000</i>
  </separator>
  <separator name="writing" >
   <i type="int" name="NWRITE">     2</i>
   <i type="logical" name="LWAVE"> F  </i>
   <i type="logical" name="LCHARG"> F  </i>
   <i type="logical" name="LPARD"> F  </i>
   <i type="logical" name="LVTOT"> F  </i>
   <i type="logical" name="LVHAR"> F  </i>
   <i type="logical" name="LELF"> F  </i>
   <i type="logical" name="LOPTICS"> F  </i>
   <v name="STM">      0.00000000      0.00000000      0.00000000      0.00000000      0.00000000      0.00000000      0.00000000</v>
  </separator>
  <separator name="performance" >
   <i type="int" name="NPAR">     4</i>
   <i type="int" name="NSIM">     4</i>
   <i type="int" name="NBLK">    -1</i>
   <i type="logical" name="LPLANE"> T  </i>
   <i type="logical" name="LSCALAPACK"> T  </i>
   <i type="logical" name="LSCAAWARE"> F  </i>
   <i type="logical" name="LSCALU"> F  </i>
   <i type="logical" name="LASYNC"> F  </i>
   <i type="logical" name="LORBITALREAL"> F  </i>
  </separator>
  <separator name="miscellaneous" >
   <i type="int" name="IDIOT">     3</i>
   <i type="logical" name="LMUSIC"> F  </i>
   <v name="POMASS">     30.97400000     28.08500000</v>
   <v name="DARWINR">      0.00000000      0.00000000</v>
   <v name="DARWINV">      1.00000000      1.00000000</v>
   <i type="logical" name="LCORR"> T  </i>
  </separator>
  <i type="logical" name="GGA_COMPAT"> T  </i>
  <i type="logical" name="LBERRY"> F  </i>
  <i type="int" name="ICORELEVEL">     0</i>
  <i type="logical" name="LDAU"> F  </i>
  <i type="int" name="I_CONSTRAINED_M">     0</i>
  <separator name="electronic exchange-correlation" >
   <i type="string" name="GGA">BO</i>
   <i type="int" name="VOSKOWN">     0</i>
   <i type="logical" name="LHFCALC"> F  </i>
   <i type="string" name="PRECFOCK"></i>
   <i type="logical" name="LSYMGRAD"> F  </i>
   <i type="logical" name="LHFONE"> F  </i>
   <i type="logical" name="LRHFCALC"> F  </i>
   <i type="logical" name="LTHOMAS"> F  </i>
   <i type="logical" name="LMODELHF"> F  </i>
   <i name="ENCUT4O">     -1.00000000</i>
   <i type="int" name="EXXOEP">     0</i>
   <i type="int" name="FOURORBIT">     0</i>
   <i name="AEXX">      0.00000000</i>
   <i name="HFALPHA">      0.00000000</i>
   <i name="MCALPHA">      0.00000000</i>
   <i name="ALDAX">      1.00000000</i>
   <i name="AGGAX">      1.00000000</i>
   <i name="ALDAC">      1.00000000</i>
   <i name="AGGAC">      0.00000000</i>
   <i type="int" name="NKREDX">     1</i>
   <i type="int" name="NKREDY">     1</i>
   <i type="int" name="NKREDZ">     1</i>
   <i type="logical" name="SHIFTRED"> F  </i>
   <i type="logical" name="ODDONLY"> F  </i>
   <i type="logical" name="EVENONLY"> F  </i>
   <i type="int" name="LMAXFOCK">     0</i>
   <i type="int" name="NMAXFOCKAE">     0</i>
   <i type="logical" name="LFOCKAEDFT"> F  </i>
   <i name="HFSCREEN">      0.00000000</i>
   <i name="HFSCREENC">      0.00000000</i>
   <i type="int" name="NBANDSGWLOW">     0</i>
  </separator>
  <separator name="vdW DFT" >
   <i type="logical" name="LUSE_VDW"> T  </i>
   <i name="Zab_VDW">     -0.84910000</i>
   <i name="PARAM1">      0.18333333</i>
   <i name="PARAM2">      0.22000000</i>
   <i name="PARAM3">      0.00000000</i>
  </separator>
  <separator name="model GW" >
   <i type="int" name="MODEL_GW">     0</i>
   <i name="MODEL_EPS0">     25.05800243</i>
   <i name="MODEL_ALPHA">      1.00000000</i>
  </separator>
  <separator name="linear response parameters" >
   <i type="logical" name="LEPSILON"> F  </i>
   <i type="logical" name="LRPA"> F  </i>
   <i type="logical" name="LNABLA"> F  </i>
   <i type="logical" name="LVEL"> F  </i>
   <i type="int" name="KINTER">     0</i>
   <i name="CSHIFT">      0.10000000</i>
   <i name="OMEGAMAX">     -1.00000000</i>
   <i name="DEG_THRESHOLD">      0.00200000</i>
  </separator>
  <separator name="orbital magnetization" >
   <i type="logical" name="NUCIND"> F  </i>
   <v name="MAGPOS">      0.00000000      0.00000000      0.00000000</v>
   <i type="logical" name="LNICSALL"> T  </i>
   <i type="logical" name="ORBITALMAG"> F  </i>
   <i type="logical" name="LMAGBLOCH"> F  </i>
   <i type="logical" name="LCHIMAG"> F  </i>
   <i type="logical" name="LGAUGE"> T  </i>
   <i type="int" name="MAGATOM">     0</i>
   <v name="MAGDIPOL">      0.00000000      0.00000000      0.00000000</v>
   <v name="AVECCONST">      0.00000000      0.00000000      0.00000000</v>
  </separator>
  <separator name="response functions" >
   <i type="logical" name="LADDER"> F  </i>
   <i type="logical" name="LFXC"> F  </i>
   <i type="logical" name="LHARTREE"> T  </i>
   <i type="int" name="IBSE">     0</i>
   <i type="logical" name="LTCTE"> F  </i>
   <i type="logical" name="LTETE"> F  </i>
   <i type="logical" name="LTRIPLET"> F  </i>
   <i type="logical" name="LFXCEPS"> F  </i>
   <i type="logical" name="LFXHEG"> F  </i>
   <i type="logical" name="L2ORDER"> F  </i>
   <i type="logical" name="LUSEW"> F  </i>
   <i name="ENCUTGW">     -2.00000000</i>
   <i name="ENCUTGWSOFT">     -2.00000000</i>
   <i name="ENCUTLF">     -1.00000000</i>
   <i type="int" name="LMAXMP2">    -1</i>
   <i name="SCISSOR">      0.00000000</i>
   <i type="int" name="NOMEGA">     0</i>
   <i type="int" name="NOMEGAR">     0</i>
   <i type="int" name="NBANDSGW">    -1</i>
   <i type="int" name="NBANDSO">    -1</i>
   <i type="int" name="NBANDSV">    -1</i>
   <i type="int" name="NELM">     1</i>
   <i type="int" name="DIM">     3</i>
   <i type="int" name="ANTIRES">     0</i>
   <i name="OMEGAMAX">    -30.00000000</i>
   <i name="OMEGAMIN">    -30.00000000</i>
   <i name="OMEGATL">   -200.00000000</i>
   <i type="int" name="OMEGAGRID">     0</i>
   <i name="CSHIFT">     -0.10000000</i>
   <i type="logical" name="SELFENERGY"> F  </i>
   <i type="logical" name="LSPECTRAL"> F  </i>
   <i type="logical" name="ODDONLYGW"> F  </i>
   <i type="logical" name="EVENONLYGW"> F  </i>
   <i type="int" name="NKREDLFX">     1</i>
   <i type="int" name="NKREDLFY">     1</i>
   <i type="int" name="NKREDLFZ">     1</i>
   <i type="int" name="MAXMEM">  1800</i>
   <i type="int" name="TELESCOPE">     0</i>
   <i type="int" name="TAUPAR">     1</i>
  </separator>
  <separator name="External order field" >
   <i name="OFIELD_KAPPA">      0.00000000</i>
   <v name="OFIELD_K">      0.00000000      0.00000000      0.00000000</v>
   <i name="OFIELD_Q6_NEAR">      0.00000000</i>
   <i name="OFIELD_Q6_FAR">      0.00000000</i>
   <i name="OFIELD_A">      0.00000000</i>
  </separator>
 </parameters>
 <atominfo>
  <atoms>      24 </atoms>
  <types>       2 </types>
  <array name="atoms" >
   <dimension dim="1">ion</dimension>
   <field type="string">element</field>
   <field type="int">atomtype</field>
   <set>
    <rc><c>P </c><c>   1</c></rc>
    <rc><c>P </c><c>   1</c></rc>
    <rc><c>P </c><c>   1</c></rc>
    <rc><c>P </c><c>   1</c></rc>
    <rc><c>P </c><c>   1</c></rc>
    <rc><c>P </c><c>   1</c></rc>
    <rc><c>P </c><c>   1</c></rc>
    <rc><c>P </c><c>   1</c></rc>
    <rc><c>P </c><c>   1</c></rc>
    <rc><c>P </c><c>   1</c></rc>
    <rc><c>P </c><c>   1</c></rc>
    <rc><c>P </c><c>   1</c></rc>
    <rc><c>Si</c><c>   2</c></rc>
    <rc><c>Si</c><c>   2</c></rc>
    <rc><c>Si</c><c>   2</c></rc>
    <rc><c>Si</c><c>   2</c></rc>
    <rc><c>Si</c><c>   2</c></rc>
    <rc><c>Si</c><c>   2</c></rc>
    <rc><c>Si</c><c>   2</c></rc>
    <rc><c>Si</c><c>   2</c></rc>
    <rc><c>Si</c><c>   2</c></rc>
    <rc><c>Si</c><c>   2</c></rc>
    <rc><c>Si</c><c>   2</c></rc>
    <rc><c>Si</c><c>   2</c></rc>
   </set>
  </array>
  <array name="atomtypes" >
   <dimension dim="1">type</dimension>
   <field type="int">atomspertype</field>
   <field type="string">element</field>
   <field>mass</field>
   <field>valence</field>
   <field type="string">pseudopotential</field>
   <set>
    <rc><c>  12</c><c>P </c><c>     30.97400000</c><c>      5.00000000</c><c>  PAW_PBE P 17Jan2003                   </c></rc>
    <rc><c>  12</c><c>Si</c><c>     28.08500000</c><c>      4.00000000</c><c> PAW_PBE Si 05Jan2001                   </c></rc>
   </set>
  </array>
 </atominfo>
 <structure name="initialpos" >
  <crystal>
   <varray name="basis" >
    <v>       3.54040000       0.00000000       0.00000000 </v>
    <v>      -1.77020000      10.29434800       0.00000000 </v>
    <v>       0.00000000       0.00000000      27.50142900 </v>
   </varray>
   <i name="volume">   1002.32009712 </i>
   <varray name="rec_basis" >
    <v>       0.28245396       0.04857034       0.00000000 </v>
    <v>       0.00000000       0.09714068       0.00000000 </v>
    <v>       0.00000000       0.00000000       0.03636175 </v>
   </varray>
  </crystal>
  <varray name="positions" >
   <v>       0.11402300       0.22804500       0.23316207 </v>
   <v>       0.61402300       0.72804500       0.51499159 </v>
   <v>       0.45808900       0.91617900       0.20939482 </v>
   <v>       0.95808900       0.41617900       0.49122434 </v>
   <v>       0.31085400       0.62170900       0.08414979 </v>
   <v>       0.31085400       0.62170900       0.36597930 </v>
   <v>       0.99923000       0.99846000       0.08631254 </v>
   <v>       0.99923000       0.99846000       0.36814206 </v>
   <v>       0.65492700       0.30985400       0.06041748 </v>
   <v>       0.65492700       0.30985400       0.34224700 </v>
   <v>       0.76973800       0.53947500       0.20725292 </v>
   <v>       0.26973800       0.03947500       0.48908244 </v>
   <v>       0.93971600       0.87943300       0.15783749 </v>
   <v>       0.43971600       0.37943300       0.43966701 </v>
   <v>       0.20515200       0.41030300       0.18578822 </v>
   <v>       0.70515200       0.91030300       0.46761774 </v>
   <v>       0.20184900       0.40369900       0.09969156 </v>
   <v>       0.20184900       0.40369900       0.38152107 </v>
   <v>       0.56380500       0.12761000       0.10779021 </v>
   <v>       0.56380500       0.12761000       0.38961973 </v>
   <v>       0.56710600       0.13421200       0.19387616 </v>
   <v>       0.06710600       0.63421200       0.47570568 </v>
   <v>       0.82923400       0.65846800       0.13571444 </v>
   <v>       0.32923400       0.15846800       0.41754396 </v>
  </varray>
 </structure>
 <calculation>
  <scstep>
   <time name="dav">   69.98   70.00</time>
   <time name="total">   86.23   86.26</time>
   <energy>
    <i name="alphaZ">     36.80884744 </i>
    <i name="ewald">  12066.15054613 </i>
    <i name="hartreedc"> -15063.70762909 </i>
    <i name="XCdc">    -87.16831281 </i>
    <i name="pawpsdc">   1056.43050070 </i>
    <i name="pawaedc">   -732.41190547 </i>
    <i name="eentropy">     -0.04225081 </i>
    <i name="bandstr">    -96.76271578 </i>
    <i name="atom">   3354.04126044 </i>
    <i name="e_fr_energy">    533.33834075 </i>
    <i name="e_wo_entrp">    533.38059157 </i>
    <i name="e_0_energy">    533.35946616 </i>
   </energy>
  </scstep>
  <scstep>
   <time name="dav">   86.88   86.90</time>
   <time name="total">   86.89   86.91</time>
   <energy>
    <i name="e_fr_energy">    -34.51048583 </i>
    <i name="e_wo_entrp">    -34.48751448 </i>
    <i name="e_0_energy">    -34.49900015 </i>
   </energy>
  </scstep>
  <scstep>
   <time name="dav">   81.68   81.70</time>
   <time name="total">   81.69   81.71</time>
   <energy>
    <i name="e_fr_energy">    -93.81618660 </i>
    <i name="e_wo_entrp">    -93.78520635 </i>
    <i name="e_0_energy">    -93.80069648 </i>
   </energy>
  </scstep>
  <scstep>
   <time name="dav">  102.33  102.36</time>
   <time name="total">  102.35  102.37</time>
   <energy>
    <i name="e_fr_energy">    -96.90792862 </i>
    <i name="e_wo_entrp">    -96.87680406 </i>
    <i name="e_0_energy">    -96.89236634 </i>
   </energy>
  </scstep>
  <scstep>
   <time name="dav">   90.15   90.17</time>
   <time name="total">   94.81   94.83</time>
   <energy>
    <i name="e_fr_energy">    -96.95371273 </i>
    <i name="e_wo_entrp">    -96.92272343 </i>
    <i name="e_0_energy">    -96.93821808 </i>
   </energy>
  </scstep>
  <scstep>
   <time name="dav">   82.75   82.77</time>
   <time name="total">  102.16  102.19</time>
   <energy>
    <i name="e_fr_energy">    -91.33918563 </i>
    <i name="e_wo_entrp">    -91.31499449 </i>
    <i name="e_0_energy">    -91.32709006 </i>
   </energy>
  </scstep>
  <scstep>
   <time name="dav">   76.13   76.14</time>
   <time name="total">   95.55   95.57</time>
   <energy>
    <i name="e_fr_energy">    -91.57157489 </i>
    <i name="e_wo_entrp">    -91.53897281 </i>
    <i name="e_0_energy">    -91.55527385 </i>
   </energy>
  </scstep>
  <scstep>
   <time name="dav">   82.16   82.18</time>
   <time name="total">  101.57  101.59</time>
   <energy>
    <i name="e_fr_energy">    -91.53006349 </i>
    <i name="e_wo_entrp">    -91.49861770 </i>
    <i name="e_0_energy">    -91.51434059 </i>
   </energy>
  </scstep>
  <scstep>
   <time name="dav">   84.33   84.35</time>
   <time name="total">  103.81  103.83</time>
   <energy>
    <i name="e_fr_energy">    -91.56208127 </i>
    <i name="e_wo_entrp">    -91.52881933 </i>
    <i name="e_0_energy">    -91.54545030 </i>
   </energy>
  </scstep>
  <scstep>
   <time name="dav">   83.42   83.44</time>
   <time name="total">  102.96  102.99</time>
   <energy>
    <i name="e_fr_energy">    -91.54950578 </i>
    <i name="e_wo_entrp">    -91.51318285 </i>
    <i name="e_0_energy">    -91.53134431 </i>
   </energy>
  </scstep>
  <scstep>
   <time name="dav">   88.76   88.78</time>
   <time name="total">  108.31  108.34</time>
   <energy>
    <i name="e_fr_energy">    -91.54432078 </i>
    <i name="e_wo_entrp">    -91.50785152 </i>
    <i name="e_0_energy">    -91.52608615 </i>
   </energy>
  </scstep>
  <scstep>
   <time name="dav">   84.89   84.91</time>
   <time name="total">  104.42  104.45</time>
   <energy>
    <i name="e_fr_energy">    -91.53372507 </i>
    <i name="e_wo_entrp">    -91.49728416 </i>
    <i name="e_0_energy">    -91.51550461 </i>
   </energy>
  </scstep>
  <scstep>
   <time name="dav">   84.44   84.46</time>
   <time name="total">  103.92  103.94</time>
   <energy>
    <i name="e_fr_energy">    -91.52690247 </i>
    <i name="e_wo_entrp">    -91.49050490 </i>
    <i name="e_0_energy">    -91.50870369 </i>
   </energy>
  </scstep>
  <scstep>
   <time name="dav">   87.47   87.49</time>
   <time name="total">  106.95  106.97</time>
   <energy>
    <i name="e_fr_energy">    -91.52456507 </i>
    <i name="e_wo_entrp">    -91.48818279 </i>
    <i name="e_0_energy">    -91.50637393 </i>
   </energy>
  </scstep>
  <scstep>
   <time name="dav">   85.75   85.77</time>
   <time name="total">  105.22  105.25</time>
   <energy>
    <i name="e_fr_energy">    -91.52305378 </i>
    <i name="e_wo_entrp">    -91.48667133 </i>
    <i name="e_0_energy">    -91.50486255 </i>
   </energy>
  </scstep>
  <scstep>
   <time name="dav">   74.19   74.21</time>
   <time name="total">   93.51   93.59</time>
   <energy>
    <i name="e_fr_energy">    -91.52263780 </i>
    <i name="e_wo_entrp">    -91.48624933 </i>
    <i name="e_0_energy">    -91.50444356 </i>
   </energy>
  </scstep>
  <scstep>
   <time name="dav">   72.60   72.62</time>
   <time name="total">   91.70   91.72</time>
   <energy>
    <i name="e_fr_energy">    -91.52329399 </i>
    <i name="e_wo_entrp">    -91.48690913 </i>
    <i name="e_0_energy">    -91.50510156 </i>
   </energy>
  </scstep>
  <scstep>
   <time name="dav">   72.66   72.68</time>
   <time name="total">   91.87   91.89</time>
   <energy>
    <i name="e_fr_energy">    -91.52363447 </i>
    <i name="e_wo_entrp">    -91.48725033 </i>
    <i name="e_0_energy">    -91.50544240 </i>
   </energy>
  </scstep>
  <scstep>
   <time name="dav">   67.83   67.85</time>
   <time name="total">   87.04   87.07</time>
   <energy>
    <i name="e_fr_energy">    -91.52371637 </i>
    <i name="e_wo_entrp">    -91.48733415 </i>
    <i name="e_0_energy">    -91.50552526 </i>
   </energy>
  </scstep>
  <scstep>
   <time name="dav">   61.90   61.91</time>
   <time name="total">   81.11   81.13</time>
   <energy>
    <i name="e_fr_energy">    -91.52375353 </i>
    <i name="e_wo_entrp">    -91.48737131 </i>
    <i name="e_0_energy">    -91.50556242 </i>
   </energy>
  </scstep>
  <scstep>
   <time name="dav">   63.48   63.49</time>
   <time name="total">   82.41   82.42</time>
   <energy>
    <i name="e_fr_energy">    -91.52375403 </i>
    <i name="e_wo_entrp">    -91.48737066 </i>
    <i name="e_0_energy">    -91.50556235 </i>
   </energy>
  </scstep>
  <scstep>
   <time name="dav">   68.82   68.83</time>
   <time name="total">   88.21   88.23</time>
   <energy>
    <i name="e_fr_energy">    -91.52369689 </i>
    <i name="e_wo_entrp">    -91.48731245 </i>
    <i name="e_0_energy">    -91.50550467 </i>
   </energy>
  </scstep>
  <scstep>
   <time name="dav">   65.70   65.71</time>
   <time name="total">   85.27   85.39</time>
   <energy>
    <i name="e_fr_energy">    -91.52364663 </i>
    <i name="e_wo_entrp">    -91.48726249 </i>
    <i name="e_0_energy">    -91.50545456 </i>
   </energy>
  </scstep>
  <scstep>
   <time name="dav">   65.36   65.37</time>
   <time name="total">   84.90   84.92</time>
   <energy>
    <i name="e_fr_energy">    -91.52362095 </i>
    <i name="e_wo_entrp">    -91.48723692 </i>
    <i name="e_0_energy">    -91.50542894 </i>
   </energy>
  </scstep>
  <scstep>
   <time name="dav">   65.62   65.64</time>
   <time name="total">   85.18   85.19</time>
   <energy>
    <i name="e_fr_energy">    -91.52360754 </i>
    <i name="e_wo_entrp">    -91.48722341 </i>
    <i name="e_0_energy">    -91.50541548 </i>
   </energy>
  </scstep>
  <scstep>
   <time name="dav">   65.94   65.95</time>
   <time name="total">   85.53   85.55</time>
   <energy>
    <i name="e_fr_energy">    -91.52360314 </i>
    <i name="e_wo_entrp">    -91.48721902 </i>
    <i name="e_0_energy">    -91.50541108 </i>
   </energy>
  </scstep>
  <scstep>
   <time name="dav">   66.46   66.48</time>
   <time name="total">   81.32   81.34</time>
   <energy>
    <i name="alphaZ">     36.80884744 </i>
    <i name="ewald">  12066.15054613 </i>
    <i name="hartreedc"> -15168.48689723 </i>
    <i name="XCdc">    -78.99989274 </i>
    <i name="pawpsdc">   1202.71533927 </i>
    <i name="pawaedc">   -883.28481312 </i>
    <i name="eentropy">     -0.03638411 </i>
    <i name="bandstr">   -620.43161000 </i>
    <i name="atom">   3354.04126044 </i>
    <i name="e_fr_energy">    -91.52360390 </i>
    <i name="e_wo_entrp">    -91.48721980 </i>
    <i name="e_0_energy">    -91.50541185 </i>
   </energy>
  </scstep>
  <structure>
   <crystal>
    <varray name="basis" >
     <v>       3.54040000       0.00000000       0.00000000 </v>
     <v>      -1.77020000      10.29434800       0.00000000 </v>
     <v>       0.00000000       0.00000000      27.50142900 </v>
    </varray>
    <i name="volume">   1002.32009712 </i>
    <varray name="rec_basis" >
     <v>       0.28245396       0.04857034       0.00000000 </v>
     <v>       0.00000000       0.09714068       0.00000000 </v>
     <v>       0.00000000       0.00000000       0.03636175 </v>
    </varray>
   </crystal>
   <varray name="positions" >
    <v>       0.11402300       0.22804500       0.23316207 </v>
    <v>       0.61402300       0.72804500       0.51499159 </v>
    <v>       0.45808900       0.91617900       0.20939482 </v>
    <v>       0.95808900       0.41617900       0.49122434 </v>
    <v>       0.31085400       0.62170900       0.08414979 </v>
    <v>       0.31085400       0.62170900       0.36597930 </v>
    <v>       0.99923000       0.99846000       0.08631254 </v>
    <v>       0.99923000       0.99846000       0.36814206 </v>
    <v>       0.65492700       0.30985400       0.06041748 </v>
    <v>       0.65492700       0.30985400       0.34224700 </v>
    <v>       0.76973800       0.53947500       0.20725292 </v>
    <v>       0.26973800       0.03947500       0.48908244 </v>
    <v>       0.93971600       0.87943300       0.15783749 </v>
    <v>       0.43971600       0.37943300       0.43966701 </v>
    <v>       0.20515200       0.41030300       0.18578822 </v>
    <v>       0.70515200       0.91030300       0.46761774 </v>
    <v>       0.20184900       0.40369900       0.09969156 </v>
    <v>       0.20184900       0.40369900       0.38152107 </v>
    <v>       0.56380500       0.12761000       0.10779021 </v>
    <v>       0.56380500       0.12761000       0.38961973 </v>
    <v>       0.56710600       0.13421200       0.19387616 </v>
    <v>       0.06710600       0.63421200       0.47570568 </v>
    <v>       0.82923400       0.65846800       0.13571444 </v>
    <v>       0.32923400       0.15846800       0.41754396 </v>
   </varray>
  </structure>
  <varray name="forces" >
   <v>       0.03630014      -0.02756479       0.00697143 </v>
   <v>       0.07840281      -0.07615947      -0.26023430 </v>
   <v>       0.00202768      -0.01300244       0.08181857 </v>
   <v>      -0.38349280       0.07487754       0.57021263 </v>
   <v>      -0.00087434      -0.00256589       0.00756337 </v>
   <v>      -0.51915176      -0.19554598       1.13554502 </v>
   <v>       0.00317930      -0.00152634       0.00149132 </v>
   <v>      -0.14068199      -0.50887960      -0.17118577 </v>
   <v>       0.00105506      -0.00116745       0.00547592 </v>
   <v>       0.61169627       0.17486286      -1.39293916 </v>
   <v>      -0.00078950       0.00658218       0.09740463 </v>
   <v>      -0.31397076      -0.59338744       0.84113620 </v>
   <v>       0.00255997      -0.00170974       0.00726232 </v>
   <v>       4.54155678      -1.28975840      11.16701788 </v>
   <v>      -0.00053571       0.01541452       0.03678501 </v>
   <v>       0.36618792       0.57138522      -0.00347218 </v>
   <v>      -0.00219688      -0.00226388      -0.01616781 </v>
   <v>      -4.96372149       3.38422701     -11.14493053 </v>
   <v>       0.00167699      -0.00813950      -0.01292416 </v>
   <v>      77.71753633     -28.16022700     -68.46794350 </v>
   <v>      -0.00532612      -0.01897482       0.00383497 </v>
   <v>       0.39392825      -0.16882625      -1.19123049 </v>
   <v>       0.00140330       0.00652402      -0.00211949 </v>
   <v>     -77.42676944      26.83582563      68.70062813 </v>
  </varray>
  <varray name="stress" >
   <v>     115.64766776     -44.13086812     -84.14457885 </v>
   <v>     -44.13086806      19.83399523      28.30792356 </v>
   <v>     -84.14457888      28.30792349     111.40976794 </v>
  </varray>
  <energy>
   <i name="e_fr_energy">    -91.52360390 </i>
   <i name="e_wo_entrp">    -91.50541185 </i>
   <i name="e_0_energy">     -0.03638411 </i>
  </energy>
  <time name="totalsc"> 2644.14 2644.92</time>
  <eigenvalues>
   <array>
    <dimension dim="1">band</dimension>
    <dimension dim="2">kpoint</dimension>
    <dimension dim="3">spin</dimension>
    <field>eigene</field>
    <field>occ</field>
    <set>
     <set comment="spin 1">
      <set comment="kpoint 1">
       <r>  -14.7508    1.0000 </r>
       <r>  -13.5459    1.0000 </r>
       <r>  -13.3020    1.0000 </r>
       <r>  -12.8091    1.0000 </r>
       <r>  -12.7959    1.0000 </r>
       <r>  -12.4862    1.0000 </r>
       <r>  -12.0933    1.0000 </r>
       <r>  -11.7473    1.0000 </r>
       <r>  -11.4436    1.0000 </r>
       <r>  -11.4279    1.0000 </r>
       <r>  -10.9970    1.0000 </r>
       <r>  -10.0251    1.0000 </r>
       <r>   -8.9793    1.0000 </r>
       <r>   -8.1815    1.0000 </r>
       <r>   -8.0297    1.0000 </r>
       <r>   -7.8328    1.0000 </r>
       <r>   -6.8586    1.0000 </r>
       <r>   -6.8339    1.0000 </r>
       <r>   -6.4992    1.0000 </r>
       <r>   -6.0564    1.0000 </r>
       <r>   -5.8366    1.0000 </r>
       <r>   -5.5902    1.0000 </r>
       <r>   -5.3400    1.0000 </r>
       <r>   -4.7567    1.0000 </r>
       <r>   -4.2919    1.0000 </r>
       <r>   -4.1626    1.0000 </r>
       <r>   -3.7223    1.0000 </r>
       <r>   -3.6319    1.0000 </r>
       <r>   -3.3375    1.0000 </r>
       <r>   -3.1021    1.0000 </r>
       <r>   -3.0663    1.0000 </r>
       <r>   -3.0508    1.0000 </r>
       <r>   -2.8518    1.0000 </r>
       <r>   -2.8478    1.0000 </r>
       <r>   -2.6042    1.0000 </r>
       <r>   -2.5119    1.0000 </r>
       <r>   -2.4481    1.0000 </r>
       <r>   -2.3921    1.0000 </r>
       <r>   -2.2739    1.0000 </r>
       <r>   -2.0837    1.0000 </r>
       <r>   -1.9785    1.0000 </r>
       <r>   -1.8811    1.0000 </r>
       <r>   -1.8474    1.0000 </r>
       <r>   -1.7361    1.0000 </r>
       <r>   -1.6475    1.0000 </r>
       <r>   -1.5949    1.0000 </r>
       <r>   -1.4383    1.0000 </r>
       <r>   -1.4004    1.0000 </r>
       <r>   -1.3456    1.0000 </r>
       <r>   -1.0979    1.0000 </r>
       <r>   -1.0239    1.0000 </r>
       <r>   -0.7799    1.0000 </r>
       <r>   -0.5045    1.0000 </r>
       <r>    0.3835    0.0846 </r>
       <r>    0.5265    0.0003 </r>
       <r>    0.7822    0.0000 </r>
       <r>    1.1376    0.0000 </r>
       <r>    1.2212    0.0000 </r>
       <r>    1.3326    0.0000 </r>
       <r>    1.3944    0.0000 </r>
       <r>    1.6063    0.0000 </r>
       <r>    1.6980    0.0000 </r>
       <r>    1.8271    0.0000 </r>
       <r>    1.9639    0.0000 </r>
       <r>    2.0280    0.0000 </r>
       <r>    2.2399    0.0000 </r>
       <r>    2.4270    0.0000 </r>
       <r>    2.6032    0.0000 </r>
      </set>
      <set comment="kpoint 2">
       <r>  -14.6930    1.0000 </r>
       <r>  -13.4845    1.0000 </r>
       <r>  -13.2463    1.0000 </r>
       <r>  -12.7560    1.0000 </r>
       <r>  -12.7372    1.0000 </r>
       <r>  -12.4306    1.0000 </r>
       <r>  -12.0310    1.0000 </r>
       <r>  -11.7063    1.0000 </r>
       <r>  -11.3922    1.0000 </r>
       <r>  -11.3715    1.0000 </r>
       <r>  -10.9486    1.0000 </r>
       <r>   -9.9985    1.0000 </r>
       <r>   -8.9625    1.0000 </r>
       <r>   -8.1793    1.0000 </r>
       <r>   -8.0684    1.0000 </r>
       <r>   -7.7948    1.0000 </r>
       <r>   -6.8356    1.0000 </r>
       <r>   -6.8001    1.0000 </r>
       <r>   -6.4933    1.0000 </r>
       <r>   -6.0514    1.0000 </r>
       <r>   -5.8029    1.0000 </r>
       <r>   -5.6121    1.0000 </r>
       <r>   -5.4248    1.0000 </r>
       <r>   -4.7632    1.0000 </r>
       <r>   -4.6054    1.0000 </r>
       <r>   -4.2633    1.0000 </r>
       <r>   -3.7816    1.0000 </r>
       <r>   -3.6912    1.0000 </r>
       <r>   -3.5654    1.0000 </r>
       <r>   -3.4033    1.0000 </r>
       <r>   -3.2671    1.0000 </r>
       <r>   -3.1861    1.0000 </r>
       <r>   -3.1473    1.0000 </r>
       <r>   -2.8962    1.0000 </r>
       <r>   -2.8132    1.0000 </r>
       <r>   -2.7367    1.0000 </r>
       <r>   -2.6618    1.0000 </r>
       <r>   -2.4875    1.0000 </r>
       <r>   -2.3999    1.0000 </r>
       <r>   -2.2137    1.0000 </r>
       <r>   -2.1050    1.0000 </r>
       <r>   -2.0133    1.0000 </r>
       <r>   -1.9708    1.0000 </r>
       <r>   -1.8551    1.0000 </r>
       <r>   -1.8272    1.0000 </r>
       <r>   -1.7516    1.0000 </r>
       <r>   -1.5255    1.0000 </r>
       <r>   -1.4243    1.0000 </r>
       <r>   -1.2860    1.0000 </r>
       <r>   -1.0815    1.0000 </r>
       <r>   -1.0035    1.0000 </r>
       <r>   -0.7799    1.0000 </r>
       <r>   -0.5019    1.0000 </r>
       <r>    0.4246    0.0252 </r>
       <r>    0.5768    0.0000 </r>
       <r>    0.9338    0.0000 </r>
       <r>    1.1611    0.0000 </r>
       <r>    1.4176    0.0000 </r>
       <r>    1.5621    0.0000 </r>
       <r>    1.7076    0.0000 </r>
       <r>    1.7605    0.0000 </r>
       <r>    2.0406    0.0000 </r>
       <r>    2.1280    0.0000 </r>
       <r>    2.2230    0.0000 </r>
       <r>    2.2763    0.0000 </r>
       <r>    2.4046    0.0000 </r>
       <r>    2.6084    0.0000 </r>
       <r>    2.7113    0.0000 </r>
      </set>
      <set comment="kpoint 3">
       <r>  -14.5213    1.0000 </r>
       <r>  -13.3015    1.0000 </r>
       <r>  -13.0807    1.0000 </r>
       <r>  -12.5994    1.0000 </r>
       <r>  -12.5615    1.0000 </r>
       <r>  -12.2659    1.0000 </r>
       <r>  -11.8486    1.0000 </r>
       <r>  -11.5836    1.0000 </r>
       <r>  -11.2484    1.0000 </r>
       <r>  -11.2059    1.0000 </r>
       <r>  -10.8098    1.0000 </r>
       <r>   -9.9338    1.0000 </r>
       <r>   -8.9287    1.0000 </r>
       <r>   -8.2040    1.0000 </r>
       <r>   -8.1677    1.0000 </r>
       <r>   -7.7527    1.0000 </r>
       <r>   -6.8036    1.0000 </r>
       <r>   -6.7242    1.0000 </r>
       <r>   -6.5053    1.0000 </r>
       <r>   -6.1226    1.0000 </r>
       <r>   -5.9703    1.0000 </r>
       <r>   -5.7252    1.0000 </r>
       <r>   -5.5207    1.0000 </r>
       <r>   -5.0049    1.0000 </r>
       <r>   -4.8683    1.0000 </r>
       <r>   -4.4194    1.0000 </r>
       <r>   -4.2882    1.0000 </r>
       <r>   -4.1972    1.0000 </r>
       <r>   -4.0864    1.0000 </r>
       <r>   -3.9723    1.0000 </r>
       <r>   -3.7110    1.0000 </r>
       <r>   -3.5338    1.0000 </r>
       <r>   -3.4296    1.0000 </r>
       <r>   -3.2676    1.0000 </r>
       <r>   -3.1357    1.0000 </r>
       <r>   -3.0959    1.0000 </r>
       <r>   -2.9811    1.0000 </r>
       <r>   -2.9670    1.0000 </r>
       <r>   -2.8466    1.0000 </r>
       <r>   -2.6249    1.0000 </r>
       <r>   -2.3929    1.0000 </r>
       <r>   -2.2583    1.0000 </r>
       <r>   -2.1572    1.0000 </r>
       <r>   -1.9715    1.0000 </r>
       <r>   -1.7879    1.0000 </r>
       <r>   -1.7255    1.0000 </r>
       <r>   -1.6593    1.0000 </r>
       <r>   -1.4867    1.0000 </r>
       <r>   -1.2616    1.0000 </r>
       <r>   -1.1109    1.0000 </r>
       <r>   -0.9934    1.0000 </r>
       <r>   -0.8089    1.0000 </r>
       <r>   -0.5832    1.0000 </r>
       <r>    0.2717    0.5817 </r>
       <r>    0.6363    0.0000 </r>
       <r>    0.9634    0.0000 </r>
       <r>    1.2580    0.0000 </r>
       <r>    1.4530    0.0000 </r>
       <r>    1.7737    0.0000 </r>
       <r>    1.9306    0.0000 </r>
       <r>    2.2443    0.0000 </r>
       <r>    2.3613    0.0000 </r>
       <r>    2.4605    0.0000 </r>
       <r>    2.6251    0.0000 </r>
       <r>    2.6805    0.0000 </r>
       <r>    2.8954    0.0000 </r>
       <r>    2.9531    0.0000 </r>
       <r>    3.0268    0.0000 </r>
      </set>
      <set comment="kpoint 4">
       <r>  -14.2424    1.0000 </r>
       <r>  -13.0005    1.0000 </r>
       <r>  -12.8110    1.0000 </r>
       <r>  -12.3428    1.0000 </r>
       <r>  -12.2781    1.0000 </r>
       <r>  -11.9992    1.0000 </r>
       <r>  -11.5610    1.0000 </r>
       <r>  -11.3878    1.0000 </r>
       <r>  -11.0311    1.0000 </r>
       <r>  -10.9614    1.0000 </r>
       <r>  -10.6066    1.0000 </r>
       <r>   -9.8918    1.0000 </r>
       <r>   -8.9248    1.0000 </r>
       <r>   -8.3640    1.0000 </r>
       <r>   -8.3432    1.0000 </r>
       <r>   -7.8275    1.0000 </r>
       <r>   -6.9454    1.0000 </r>
       <r>   -6.6972    1.0000 </r>
       <r>   -6.6395    1.0000 </r>
       <r>   -6.5132    1.0000 </r>
       <r>   -6.2373    1.0000 </r>
       <r>   -5.7449    1.0000 </r>
       <r>   -5.6728    1.0000 </r>
       <r>   -5.3467    1.0000 </r>
       <r>   -5.3122    1.0000 </r>
       <r>   -4.8694    1.0000 </r>
       <r>   -4.7986    1.0000 </r>
       <r>   -4.6132    1.0000 </r>
       <r>   -4.5809    1.0000 </r>
       <r>   -4.5064    1.0000 </r>
       <r>   -4.1933    1.0000 </r>
       <r>   -4.0191    1.0000 </r>
       <r>   -3.8020    1.0000 </r>
       <r>   -3.7071    1.0000 </r>
       <r>   -3.4914    1.0000 </r>
       <r>   -3.4540    1.0000 </r>
       <r>   -3.0798    1.0000 </r>
       <r>   -3.0105    1.0000 </r>
       <r>   -2.9986    1.0000 </r>
       <r>   -2.7669    1.0000 </r>
       <r>   -2.5928    1.0000 </r>
       <r>   -2.4563    1.0000 </r>
       <r>   -2.3687    1.0000 </r>
       <r>   -1.9240    1.0000 </r>
       <r>   -1.8670    1.0000 </r>
       <r>   -1.7979    1.0000 </r>
       <r>   -1.6758    1.0000 </r>
       <r>   -1.5749    1.0000 </r>
       <r>   -1.4618    1.0000 </r>
       <r>   -1.1619    1.0000 </r>
       <r>   -1.1311    1.0000 </r>
       <r>   -0.9050    1.0000 </r>
       <r>   -0.7693    1.0000 </r>
       <r>   -0.2497    1.0000 </r>
       <r>    0.5821    0.0000 </r>
       <r>    0.8498    0.0000 </r>
       <r>    1.2329    0.0000 </r>
       <r>    1.5739    0.0000 </r>
       <r>    1.8060    0.0000 </r>
       <r>    1.8934    0.0000 </r>
       <r>    2.0338    0.0000 </r>
       <r>    2.2653    0.0000 </r>
       <r>    2.3839    0.0000 </r>
       <r>    2.4708    0.0000 </r>
       <r>    2.6777    0.0000 </r>
       <r>    2.8368    0.0000 </r>
       <r>    2.8847    0.0000 </r>
       <r>    2.9526    0.0000 </r>
      </set>
      <set comment="kpoint 5">
       <r>  -13.8723    1.0000 </r>
       <r>  -12.5888    1.0000 </r>
       <r>  -12.4521    1.0000 </r>
       <r>  -11.9944    1.0000 </r>
       <r>  -11.9104    1.0000 </r>
       <r>  -11.6476    1.0000 </r>
       <r>  -11.2058    1.0000 </r>
       <r>  -11.1552    1.0000 </r>
       <r>  -10.7868    1.0000 </r>
       <r>  -10.7134    1.0000 </r>
       <r>  -10.4206    1.0000 </r>
       <r>   -9.9919    1.0000 </r>
       <r>   -8.9543    1.0000 </r>
       <r>   -8.6604    1.0000 </r>
       <r>   -8.6432    1.0000 </r>
       <r>   -8.0888    1.0000 </r>
       <r>   -7.2408    1.0000 </r>
       <r>   -7.0042    1.0000 </r>
       <r>   -6.9495    1.0000 </r>
       <r>   -6.9024    1.0000 </r>
       <r>   -6.5273    1.0000 </r>
       <r>   -6.1708    1.0000 </r>
       <r>   -5.9747    1.0000 </r>
       <r>   -5.9582    1.0000 </r>
       <r>   -5.5020    1.0000 </r>
       <r>   -5.3204    1.0000 </r>
       <r>   -5.2003    1.0000 </r>
       <r>   -4.7962    1.0000 </r>
       <r>   -4.7064    1.0000 </r>
       <r>   -4.6823    1.0000 </r>
       <r>   -4.3343    1.0000 </r>
       <r>   -4.2715    1.0000 </r>
       <r>   -4.2227    1.0000 </r>
       <r>   -3.8269    1.0000 </r>
       <r>   -3.5397    1.0000 </r>
       <r>   -3.3939    1.0000 </r>
       <r>   -3.1864    1.0000 </r>
       <r>   -3.0887    1.0000 </r>
       <r>   -3.0059    1.0000 </r>
       <r>   -2.9271    1.0000 </r>
       <r>   -2.7487    1.0000 </r>
       <r>   -2.5933    1.0000 </r>
       <r>   -2.4318    1.0000 </r>
       <r>   -2.0911    1.0000 </r>
       <r>   -2.0270    1.0000 </r>
       <r>   -1.9062    1.0000 </r>
       <r>   -1.8613    1.0000 </r>
       <r>   -1.7243    1.0000 </r>
       <r>   -1.5453    1.0000 </r>
       <r>   -1.3229    1.0000 </r>
       <r>   -1.1764    1.0000 </r>
       <r>   -1.0916    1.0000 </r>
       <r>   -0.9777    1.0000 </r>
       <r>   -0.6119    1.0000 </r>
       <r>    0.4364    0.0169 </r>
       <r>    0.6060    0.0000 </r>
       <r>    1.0513    0.0000 </r>
       <r>    1.4189    0.0000 </r>
       <r>    1.6006    0.0000 </r>
       <r>    1.7525    0.0000 </r>
       <r>    1.8070    0.0000 </r>
       <r>    2.0129    0.0000 </r>
       <r>    2.2160    0.0000 </r>
       <r>    2.3417    0.0000 </r>
       <r>    2.3840    0.0000 </r>
       <r>    2.6726    0.0000 </r>
       <r>    2.7336    0.0000 </r>
       <r>    2.8425    0.0000 </r>
      </set>
      <set comment="kpoint 6">
       <r>  -13.4512    1.0000 </r>
       <r>  -12.0817    1.0000 </r>
       <r>  -12.0463    1.0000 </r>
       <r>  -11.5754    1.0000 </r>
       <r>  -11.5263    1.0000 </r>
       <r>  -11.2502    1.0000 </r>
       <r>  -11.0427    1.0000 </r>
       <r>  -10.8562    1.0000 </r>
       <r>  -10.6320    1.0000 </r>
       <r>  -10.5761    1.0000 </r>
       <r>  -10.4602    1.0000 </r>
       <r>  -10.1958    1.0000 </r>
       <r>   -8.9998    1.0000 </r>
       <r>   -8.9107    1.0000 </r>
       <r>   -8.8348    1.0000 </r>
       <r>   -8.3814    1.0000 </r>
       <r>   -7.6716    1.0000 </r>
       <r>   -7.4638    1.0000 </r>
       <r>   -7.4214    1.0000 </r>
       <r>   -7.2287    1.0000 </r>
       <r>   -6.8349    1.0000 </r>
       <r>   -6.7658    1.0000 </r>
       <r>   -6.6660    1.0000 </r>
       <r>   -6.4283    1.0000 </r>
       <r>   -5.4900    1.0000 </r>
       <r>   -5.3995    1.0000 </r>
       <r>   -5.2082    1.0000 </r>
       <r>   -4.8439    1.0000 </r>
       <r>   -4.6312    1.0000 </r>
       <r>   -4.5326    1.0000 </r>
       <r>   -4.2680    1.0000 </r>
       <r>   -4.2061    1.0000 </r>
       <r>   -4.0899    1.0000 </r>
       <r>   -3.8838    1.0000 </r>
       <r>   -3.6570    1.0000 </r>
       <r>   -3.5406    1.0000 </r>
       <r>   -3.2821    1.0000 </r>
       <r>   -3.2720    1.0000 </r>
       <r>   -3.1721    1.0000 </r>
       <r>   -3.0349    1.0000 </r>
       <r>   -2.7907    1.0000 </r>
       <r>   -2.5223    1.0000 </r>
       <r>   -2.4940    1.0000 </r>
       <r>   -2.3202    1.0000 </r>
       <r>   -2.1978    1.0000 </r>
       <r>   -2.0942    1.0000 </r>
       <r>   -2.0323    1.0000 </r>
       <r>   -1.8592    1.0000 </r>
       <r>   -1.6043    1.0000 </r>
       <r>   -1.4971    1.0000 </r>
       <r>   -1.4176    1.0000 </r>
       <r>   -1.2221    1.0000 </r>
       <r>   -0.9628    1.0000 </r>
       <r>   -0.7544    1.0000 </r>
       <r>    0.2690    0.5962 </r>
       <r>    0.4334    0.0188 </r>
       <r>    0.8642    0.0000 </r>
       <r>    1.2370    0.0000 </r>
       <r>    1.4211    0.0000 </r>
       <r>    1.6314    0.0000 </r>
       <r>    1.7278    0.0000 </r>
       <r>    1.7653    0.0000 </r>
       <r>    2.0555    0.0000 </r>
       <r>    2.1775    0.0000 </r>
       <r>    2.2715    0.0000 </r>
       <r>    2.3306    0.0000 </r>
       <r>    2.5649    0.0000 </r>
       <r>    2.6692    0.0000 </r>
      </set>
      <set comment="kpoint 7">
       <r>  -13.1020    1.0000 </r>
       <r>  -11.7629    1.0000 </r>
       <r>  -11.5061    1.0000 </r>
       <r>  -11.3648    1.0000 </r>
       <r>  -11.1529    1.0000 </r>
       <r>  -10.9831    1.0000 </r>
       <r>  -10.9494    1.0000 </r>
       <r>  -10.8481    1.0000 </r>
       <r>  -10.7352    1.0000 </r>
       <r>  -10.6392    1.0000 </r>
       <r>  -10.5340    1.0000 </r>
       <r>  -10.3626    1.0000 </r>
       <r>   -9.1821    1.0000 </r>
       <r>   -8.8868    1.0000 </r>
       <r>   -8.6932    1.0000 </r>
       <r>   -8.4443    1.0000 </r>
       <r>   -8.0840    1.0000 </r>
       <r>   -7.8419    1.0000 </r>
       <r>   -7.5763    1.0000 </r>
       <r>   -7.4981    1.0000 </r>
       <r>   -7.2919    1.0000 </r>
       <r>   -7.2378    1.0000 </r>
       <r>   -7.1842    1.0000 </r>
       <r>   -6.4797    1.0000 </r>
       <r>   -5.5369    1.0000 </r>
       <r>   -5.3336    1.0000 </r>
       <r>   -4.9336    1.0000 </r>
       <r>   -4.7888    1.0000 </r>
       <r>   -4.5124    1.0000 </r>
       <r>   -4.3949    1.0000 </r>
       <r>   -4.2360    1.0000 </r>
       <r>   -4.0583    1.0000 </r>
       <r>   -3.9444    1.0000 </r>
       <r>   -3.8780    1.0000 </r>
       <r>   -3.8301    1.0000 </r>
       <r>   -3.5994    1.0000 </r>
       <r>   -3.5645    1.0000 </r>
       <r>   -3.2620    1.0000 </r>
       <r>   -3.1504    1.0000 </r>
       <r>   -3.1009    1.0000 </r>
       <r>   -3.0038    1.0000 </r>
       <r>   -2.7009    1.0000 </r>
       <r>   -2.6708    1.0000 </r>
       <r>   -2.3738    1.0000 </r>
       <r>   -2.2338    1.0000 </r>
       <r>   -2.1713    1.0000 </r>
       <r>   -2.1118    1.0000 </r>
       <r>   -1.7906    1.0000 </r>
       <r>   -1.6730    1.0000 </r>
       <r>   -1.6523    1.0000 </r>
       <r>   -1.5178    1.0000 </r>
       <r>   -1.2528    1.0000 </r>
       <r>   -0.9620    1.0000 </r>
       <r>   -0.8289    1.0000 </r>
       <r>    0.1519    0.9713 </r>
       <r>    0.3621    0.1418 </r>
       <r>    0.7375    0.0000 </r>
       <r>    1.1494    0.0000 </r>
       <r>    1.3683    0.0000 </r>
       <r>    1.5221    0.0000 </r>
       <r>    1.6247    0.0000 </r>
       <r>    1.7025    0.0000 </r>
       <r>    1.8614    0.0000 </r>
       <r>    2.0774    0.0000 </r>
       <r>    2.2596    0.0000 </r>
       <r>    2.3640    0.0000 </r>
       <r>    2.4224    0.0000 </r>
       <r>    2.5271    0.0000 </r>
      </set>
      <set comment="kpoint 8">
       <r>  -14.7473    1.0000 </r>
       <r>  -13.4905    1.0000 </r>
       <r>  -13.3587    1.0000 </r>
       <r>  -12.9804    1.0000 </r>
       <r>  -12.6708    1.0000 </r>
       <r>  -12.4842    1.0000 </r>
       <r>  -11.9785    1.0000 </r>
       <r>  -11.8746    1.0000 </r>
       <r>  -11.4833    1.0000 </r>
       <r>  -11.2446    1.0000 </r>
       <r>  -11.0056    1.0000 </r>
       <r>  -10.0010    1.0000 </r>
       <r>   -9.1155    1.0000 </r>
       <r>   -8.5201    1.0000 </r>
       <r>   -8.1323    1.0000 </r>
       <r>   -7.3829    1.0000 </r>
       <r>   -6.8803    1.0000 </r>
       <r>   -6.6762    1.0000 </r>
       <r>   -6.6088    1.0000 </r>
       <r>   -6.0591    1.0000 </r>
       <r>   -5.7545    1.0000 </r>
       <r>   -5.5788    1.0000 </r>
       <r>   -5.1958    1.0000 </r>
       <r>   -4.6591    1.0000 </r>
       <r>   -4.2550    1.0000 </r>
       <r>   -4.0972    1.0000 </r>
       <r>   -4.0176    1.0000 </r>
       <r>   -3.5858    1.0000 </r>
       <r>   -3.4097    1.0000 </r>
       <r>   -3.3041    1.0000 </r>
       <r>   -3.1331    1.0000 </r>
       <r>   -3.0813    1.0000 </r>
       <r>   -2.8878    1.0000 </r>
       <r>   -2.7153    1.0000 </r>
       <r>   -2.6804    1.0000 </r>
       <r>   -2.5195    1.0000 </r>
       <r>   -2.3937    1.0000 </r>
       <r>   -2.3743    1.0000 </r>
       <r>   -2.3197    1.0000 </r>
       <r>   -2.1598    1.0000 </r>
       <r>   -1.9962    1.0000 </r>
       <r>   -1.9616    1.0000 </r>
       <r>   -1.8892    1.0000 </r>
       <r>   -1.8121    1.0000 </r>
       <r>   -1.6329    1.0000 </r>
       <r>   -1.4927    1.0000 </r>
       <r>   -1.4157    1.0000 </r>
       <r>   -1.3685    1.0000 </r>
       <r>   -1.2201    1.0000 </r>
       <r>   -1.0708    1.0000 </r>
       <r>   -1.0141    1.0000 </r>
       <r>   -0.8568    1.0000 </r>
       <r>   -0.4548    1.0000 </r>
       <r>    0.2819    0.5244 </r>
       <r>    0.5658    0.0000 </r>
       <r>    0.9069    0.0000 </r>
       <r>    1.1546    0.0000 </r>
       <r>    1.2478    0.0000 </r>
       <r>    1.3942    0.0000 </r>
       <r>    1.4250    0.0000 </r>
       <r>    1.5914    0.0000 </r>
       <r>    1.7297    0.0000 </r>
       <r>    1.7813    0.0000 </r>
       <r>    1.9389    0.0000 </r>
       <r>    2.1180    0.0000 </r>
       <r>    2.2564    0.0000 </r>
       <r>    2.5367    0.0000 </r>
       <r>    2.6485    0.0000 </r>
      </set>
      <set comment="kpoint 9">
       <r>  -14.6888    1.0000 </r>
       <r>  -13.4137    1.0000 </r>
       <r>  -13.3121    1.0000 </r>
       <r>  -12.9613    1.0000 </r>
       <r>  -12.5824    1.0000 </r>
       <r>  -12.4268    1.0000 </r>
       <r>  -11.9699    1.0000 </r>
       <r>  -11.7766    1.0000 </r>
       <r>  -11.4420    1.0000 </r>
       <r>  -11.1641    1.0000 </r>
       <r>  -10.9612    1.0000 </r>
       <r>   -9.9688    1.0000 </r>
       <r>   -9.1216    1.0000 </r>
       <r>   -8.5786    1.0000 </r>
       <r>   -8.1316    1.0000 </r>
       <r>   -7.3341    1.0000 </r>
       <r>   -6.8458    1.0000 </r>
       <r>   -6.6837    1.0000 </r>
       <r>   -6.5363    1.0000 </r>
       <r>   -6.0583    1.0000 </r>
       <r>   -5.7060    1.0000 </r>
       <r>   -5.6252    1.0000 </r>
       <r>   -5.2572    1.0000 </r>
       <r>   -4.7016    1.0000 </r>
       <r>   -4.5654    1.0000 </r>
       <r>   -4.2031    1.0000 </r>
       <r>   -4.0674    1.0000 </r>
       <r>   -3.7237    1.0000 </r>
       <r>   -3.6136    1.0000 </r>
       <r>   -3.4022    1.0000 </r>
       <r>   -3.3663    1.0000 </r>
       <r>   -3.2522    1.0000 </r>
       <r>   -3.0289    1.0000 </r>
       <r>   -2.9939    1.0000 </r>
       <r>   -2.9413    1.0000 </r>
       <r>   -2.6976    1.0000 </r>
       <r>   -2.6267    1.0000 </r>
       <r>   -2.5030    1.0000 </r>
       <r>   -2.3586    1.0000 </r>
       <r>   -2.2697    1.0000 </r>
       <r>   -2.1662    1.0000 </r>
       <r>   -2.1265    1.0000 </r>
       <r>   -2.0193    1.0000 </r>
       <r>   -1.8512    1.0000 </r>
       <r>   -1.7649    1.0000 </r>
       <r>   -1.7384    1.0000 </r>
       <r>   -1.4466    1.0000 </r>
       <r>   -1.3851    1.0000 </r>
       <r>   -1.1862    1.0000 </r>
       <r>   -1.1139    1.0000 </r>
       <r>   -1.0014    1.0000 </r>
       <r>   -0.8460    1.0000 </r>
       <r>   -0.4764    1.0000 </r>
       <r>    0.3940    0.0638 </r>
       <r>    0.6396    0.0000 </r>
       <r>    1.0223    0.0000 </r>
       <r>    1.1622    0.0000 </r>
       <r>    1.4616    0.0000 </r>
       <r>    1.5936    0.0000 </r>
       <r>    1.7159    0.0000 </r>
       <r>    1.7985    0.0000 </r>
       <r>    1.9181    0.0000 </r>
       <r>    2.0406    0.0000 </r>
       <r>    2.2409    0.0000 </r>
       <r>    2.4522    0.0000 </r>
       <r>    2.5236    0.0000 </r>
       <r>    2.6245    0.0000 </r>
       <r>    2.6531    0.0000 </r>
      </set>
      <set comment="kpoint 10">
       <r>  -14.5167    1.0000 </r>
       <r>  -13.2174    1.0000 </r>
       <r>  -13.1497    1.0000 </r>
       <r>  -12.8248    1.0000 </r>
       <r>  -12.3864    1.0000 </r>
       <r>  -12.2601    1.0000 </r>
       <r>  -11.8585    1.0000 </r>
       <r>  -11.5791    1.0000 </r>
       <r>  -11.3026    1.0000 </r>
       <r>  -10.9977    1.0000 </r>
       <r>  -10.8200    1.0000 </r>
       <r>   -9.9041    1.0000 </r>
       <r>   -9.0893    1.0000 </r>
       <r>   -8.6444    1.0000 </r>
       <r>   -8.1581    1.0000 </r>
       <r>   -7.3055    1.0000 </r>
       <r>   -6.8132    1.0000 </r>
       <r>   -6.6611    1.0000 </r>
       <r>   -6.5034    1.0000 </r>
       <r>   -6.1289    1.0000 </r>
       <r>   -5.9893    1.0000 </r>
       <r>   -5.6568    1.0000 </r>
       <r>   -5.4047    1.0000 </r>
       <r>   -4.9348    1.0000 </r>
       <r>   -4.8450    1.0000 </r>
       <r>   -4.4292    1.0000 </r>
       <r>   -4.3714    1.0000 </r>
       <r>   -4.2961    1.0000 </r>
       <r>   -4.1740    1.0000 </r>
       <r>   -3.9677    1.0000 </r>
       <r>   -3.7030    1.0000 </r>
       <r>   -3.6063    1.0000 </r>
       <r>   -3.4880    1.0000 </r>
       <r>   -3.2790    1.0000 </r>
       <r>   -3.0830    1.0000 </r>
       <r>   -3.0627    1.0000 </r>
       <r>   -2.9671    1.0000 </r>
       <r>   -2.8439    1.0000 </r>
       <r>   -2.7467    1.0000 </r>
       <r>   -2.6560    1.0000 </r>
       <r>   -2.5933    1.0000 </r>
       <r>   -2.3242    1.0000 </r>
       <r>   -2.2256    1.0000 </r>
       <r>   -1.9880    1.0000 </r>
       <r>   -1.9004    1.0000 </r>
       <r>   -1.6366    1.0000 </r>
       <r>   -1.5095    1.0000 </r>
       <r>   -1.4420    1.0000 </r>
       <r>   -1.1962    1.0000 </r>
       <r>   -1.1594    1.0000 </r>
       <r>   -1.0477    1.0000 </r>
       <r>   -0.8448    1.0000 </r>
       <r>   -0.6394    1.0000 </r>
       <r>    0.3254    0.2900 </r>
       <r>    0.6785    0.0000 </r>
       <r>    0.9826    0.0000 </r>
       <r>    1.2541    0.0000 </r>
       <r>    1.4794    0.0000 </r>
       <r>    1.6520    0.0000 </r>
       <r>    1.7899    0.0000 </r>
       <r>    2.1015    0.0000 </r>
       <r>    2.2303    0.0000 </r>
       <r>    2.3738    0.0000 </r>
       <r>    2.7351    0.0000 </r>
       <r>    2.8692    0.0000 </r>
       <r>    2.9126    0.0000 </r>
       <r>    3.0579    0.0000 </r>
       <r>    3.0676    0.0000 </r>
      </set>
      <set comment="kpoint 11">
       <r>  -14.2380    1.0000 </r>
       <r>  -12.9069    1.0000 </r>
       <r>  -12.8763    1.0000 </r>
       <r>  -12.5735    1.0000 </r>
       <r>  -12.0963    1.0000 </r>
       <r>  -11.9921    1.0000 </r>
       <r>  -11.6519    1.0000 </r>
       <r>  -11.3025    1.0000 </r>
       <r>  -11.0807    1.0000 </r>
       <r>  -10.7760    1.0000 </r>
       <r>  -10.6027    1.0000 </r>
       <r>   -9.8720    1.0000 </r>
       <r>   -9.0530    1.0000 </r>
       <r>   -8.7761    1.0000 </r>
       <r>   -8.2971    1.0000 </r>
       <r>   -7.3962    1.0000 </r>
       <r>   -6.9530    1.0000 </r>
       <r>   -6.7026    1.0000 </r>
       <r>   -6.6538    1.0000 </r>
       <r>   -6.6458    1.0000 </r>
       <r>   -6.1067    1.0000 </r>
       <r>   -5.8299    1.0000 </r>
       <r>   -5.5543    1.0000 </r>
       <r>   -5.3365    1.0000 </r>
       <r>   -5.2112    1.0000 </r>
       <r>   -5.0390    1.0000 </r>
       <r>   -4.8924    1.0000 </r>
       <r>   -4.6712    1.0000 </r>
       <r>   -4.5681    1.0000 </r>
       <r>   -4.5403    1.0000 </r>
       <r>   -4.1733    1.0000 </r>
       <r>   -4.0186    1.0000 </r>
       <r>   -3.7580    1.0000 </r>
       <r>   -3.6612    1.0000 </r>
       <r>   -3.3617    1.0000 </r>
       <r>   -3.2121    1.0000 </r>
       <r>   -3.0984    1.0000 </r>
       <r>   -3.0259    1.0000 </r>
       <r>   -2.9820    1.0000 </r>
       <r>   -2.7977    1.0000 </r>
       <r>   -2.6071    1.0000 </r>
       <r>   -2.5331    1.0000 </r>
       <r>   -2.3233    1.0000 </r>
       <r>   -2.0117    1.0000 </r>
       <r>   -1.9363    1.0000 </r>
       <r>   -1.7910    1.0000 </r>
       <r>   -1.7411    1.0000 </r>
       <r>   -1.5707    1.0000 </r>
       <r>   -1.3973    1.0000 </r>
       <r>   -1.2631    1.0000 </r>
       <r>   -1.1020    1.0000 </r>
       <r>   -0.9204    1.0000 </r>
       <r>   -0.8292    1.0000 </r>
       <r>   -0.1925    1.0000 </r>
       <r>    0.6063    0.0000 </r>
       <r>    0.7801    0.0000 </r>
       <r>    1.2561    0.0000 </r>
       <r>    1.4229    0.0000 </r>
       <r>    1.5698    0.0000 </r>
       <r>    1.6477    0.0000 </r>
       <r>    1.7630    0.0000 </r>
       <r>    2.2327    0.0000 </r>
       <r>    2.4266    0.0000 </r>
       <r>    2.5674    0.0000 </r>
       <r>    2.6401    0.0000 </r>
       <r>    2.7236    0.0000 </r>
       <r>    2.9108    0.0000 </r>
       <r>    3.0271    0.0000 </r>
      </set>
      <set comment="kpoint 12">
       <r>  -13.8685    1.0000 </r>
       <r>  -12.5117    1.0000 </r>
       <r>  -12.4859    1.0000 </r>
       <r>  -12.2144    1.0000 </r>
       <r>  -11.7446    1.0000 </r>
       <r>  -11.6413    1.0000 </r>
       <r>  -11.3756    1.0000 </r>
       <r>  -10.9889    1.0000 </r>
       <r>  -10.8170    1.0000 </r>
       <r>  -10.5906    1.0000 </r>
       <r>  -10.3971    1.0000 </r>
       <r>   -9.9812    1.0000 </r>
       <r>   -9.0197    1.0000 </r>
       <r>   -8.9754    1.0000 </r>
       <r>   -8.5905    1.0000 </r>
       <r>   -7.7116    1.0000 </r>
       <r>   -7.3425    1.0000 </r>
       <r>   -7.1175    1.0000 </r>
       <r>   -6.9908    1.0000 </r>
       <r>   -6.9604    1.0000 </r>
       <r>   -6.3139    1.0000 </r>
       <r>   -6.2003    1.0000 </r>
       <r>   -6.0809    1.0000 </r>
       <r>   -5.9232    1.0000 </r>
       <r>   -5.5009    1.0000 </r>
       <r>   -5.4101    1.0000 </r>
       <r>   -5.3290    1.0000 </r>
       <r>   -4.9437    1.0000 </r>
       <r>   -4.6575    1.0000 </r>
       <r>   -4.4504    1.0000 </r>
       <r>   -4.3944    1.0000 </r>
       <r>   -4.3138    1.0000 </r>
       <r>   -4.0173    1.0000 </r>
       <r>   -3.7319    1.0000 </r>
       <r>   -3.4043    1.0000 </r>
       <r>   -3.3383    1.0000 </r>
       <r>   -3.1364    1.0000 </r>
       <r>   -3.0149    1.0000 </r>
       <r>   -2.9090    1.0000 </r>
       <r>   -2.8669    1.0000 </r>
       <r>   -2.8120    1.0000 </r>
       <r>   -2.5065    1.0000 </r>
       <r>   -2.4233    1.0000 </r>
       <r>   -2.3273    1.0000 </r>
       <r>   -2.0938    1.0000 </r>
       <r>   -1.9642    1.0000 </r>
       <r>   -1.8909    1.0000 </r>
       <r>   -1.7562    1.0000 </r>
       <r>   -1.6182    1.0000 </r>
       <r>   -1.3704    1.0000 </r>
       <r>   -1.1877    1.0000 </r>
       <r>   -1.1529    1.0000 </r>
       <r>   -0.9143    1.0000 </r>
       <r>   -0.6465    1.0000 </r>
       <r>    0.4497    0.0104 </r>
       <r>    0.5053    0.0010 </r>
       <r>    1.0671    0.0000 </r>
       <r>    1.2173    0.0000 </r>
       <r>    1.2583    0.0000 </r>
       <r>    1.4967    0.0000 </r>
       <r>    1.7793    0.0000 </r>
       <r>    2.0883    0.0000 </r>
       <r>    2.1748    0.0000 </r>
       <r>    2.3381    0.0000 </r>
       <r>    2.4483    0.0000 </r>
       <r>    2.6018    0.0000 </r>
       <r>    2.6157    0.0000 </r>
       <r>    2.8351    0.0000 </r>
      </set>
      <set comment="kpoint 13">
       <r>  -13.4486    1.0000 </r>
       <r>  -12.0843    1.0000 </r>
       <r>  -11.9841    1.0000 </r>
       <r>  -11.7645    1.0000 </r>
       <r>  -11.4361    1.0000 </r>
       <r>  -11.2487    1.0000 </r>
       <r>  -11.1103    1.0000 </r>
       <r>  -10.7317    1.0000 </r>
       <r>  -10.6102    1.0000 </r>
       <r>  -10.5976    1.0000 </r>
       <r>  -10.4729    1.0000 </r>
       <r>  -10.1492    1.0000 </r>
       <r>   -9.0018    1.0000 </r>
       <r>   -8.9644    1.0000 </r>
       <r>   -8.8976    1.0000 </r>
       <r>   -8.1162    1.0000 </r>
       <r>   -7.7848    1.0000 </r>
       <r>   -7.7161    1.0000 </r>
       <r>   -7.3644    1.0000 </r>
       <r>   -7.1788    1.0000 </r>
       <r>   -6.8171    1.0000 </r>
       <r>   -6.7003    1.0000 </r>
       <r>   -6.6661    1.0000 </r>
       <r>   -6.5198    1.0000 </r>
       <r>   -5.5858    1.0000 </r>
       <r>   -5.3748    1.0000 </r>
       <r>   -5.3086    1.0000 </r>
       <r>   -4.7937    1.0000 </r>
       <r>   -4.7612    1.0000 </r>
       <r>   -4.4621    1.0000 </r>
       <r>   -4.3228    1.0000 </r>
       <r>   -4.1214    1.0000 </r>
       <r>   -3.8688    1.0000 </r>
       <r>   -3.7945    1.0000 </r>
       <r>   -3.4864    1.0000 </r>
       <r>   -3.3573    1.0000 </r>
       <r>   -3.2919    1.0000 </r>
       <r>   -3.2554    1.0000 </r>
       <r>   -3.1286    1.0000 </r>
       <r>   -2.9430    1.0000 </r>
       <r>   -2.8822    1.0000 </r>
       <r>   -2.6539    1.0000 </r>
       <r>   -2.5274    1.0000 </r>
       <r>   -2.3645    1.0000 </r>
       <r>   -2.2398    1.0000 </r>
       <r>   -2.1257    1.0000 </r>
       <r>   -2.0722    1.0000 </r>
       <r>   -1.8609    1.0000 </r>
       <r>   -1.6523    1.0000 </r>
       <r>   -1.4837    1.0000 </r>
       <r>   -1.4227    1.0000 </r>
       <r>   -1.3315    1.0000 </r>
       <r>   -0.9904    1.0000 </r>
       <r>   -0.8115    1.0000 </r>
       <r>    0.2968    0.4407 </r>
       <r>    0.3616    0.1434 </r>
       <r>    0.8735    0.0000 </r>
       <r>    1.1714    0.0000 </r>
       <r>    1.2334    0.0000 </r>
       <r>    1.3770    0.0000 </r>
       <r>    1.7394    0.0000 </r>
       <r>    1.8338    0.0000 </r>
       <r>    1.9989    0.0000 </r>
       <r>    2.0714    0.0000 </r>
       <r>    2.1867    0.0000 </r>
       <r>    2.3830    0.0000 </r>
       <r>    2.6031    0.0000 </r>
       <r>    2.6590    0.0000 </r>
      </set>
      <set comment="kpoint 14">
       <r>  -13.1011    1.0000 </r>
       <r>  -11.7642    1.0000 </r>
       <r>  -11.4353    1.0000 </r>
       <r>  -11.3773    1.0000 </r>
       <r>  -11.2694    1.0000 </r>
       <r>  -10.9701    1.0000 </r>
       <r>  -10.9614    1.0000 </r>
       <r>  -10.8687    1.0000 </r>
       <r>  -10.7061    1.0000 </r>
       <r>  -10.5851    1.0000 </r>
       <r>  -10.5263    1.0000 </r>
       <r>  -10.3687    1.0000 </r>
       <r>   -9.1908    1.0000 </r>
       <r>   -8.8672    1.0000 </r>
       <r>   -8.5596    1.0000 </r>
       <r>   -8.4048    1.0000 </r>
       <r>   -8.3328    1.0000 </r>
       <r>   -7.8442    1.0000 </r>
       <r>   -7.5237    1.0000 </r>
       <r>   -7.4951    1.0000 </r>
       <r>   -7.3216    1.0000 </r>
       <r>   -7.2604    1.0000 </r>
       <r>   -7.1450    1.0000 </r>
       <r>   -6.4727    1.0000 </r>
       <r>   -5.5565    1.0000 </r>
       <r>   -5.3846    1.0000 </r>
       <r>   -5.0278    1.0000 </r>
       <r>   -4.6710    1.0000 </r>
       <r>   -4.5174    1.0000 </r>
       <r>   -4.4327    1.0000 </r>
       <r>   -4.1910    1.0000 </r>
       <r>   -4.1203    1.0000 </r>
       <r>   -3.9398    1.0000 </r>
       <r>   -3.8505    1.0000 </r>
       <r>   -3.6670    1.0000 </r>
       <r>   -3.5765    1.0000 </r>
       <r>   -3.4929    1.0000 </r>
       <r>   -3.2671    1.0000 </r>
       <r>   -3.1344    1.0000 </r>
       <r>   -3.0079    1.0000 </r>
       <r>   -2.9836    1.0000 </r>
       <r>   -2.7002    1.0000 </r>
       <r>   -2.6444    1.0000 </r>
       <r>   -2.6039    1.0000 </r>
       <r>   -2.2635    1.0000 </r>
       <r>   -2.1471    1.0000 </r>
       <r>   -2.1221    1.0000 </r>
       <r>   -1.7812    1.0000 </r>
       <r>   -1.6857    1.0000 </r>
       <r>   -1.6742    1.0000 </r>
       <r>   -1.5461    1.0000 </r>
       <r>   -1.3458    1.0000 </r>
       <r>   -0.9834    1.0000 </r>
       <r>   -0.8237    1.0000 </r>
       <r>    0.1931    0.9062 </r>
       <r>    0.3788    0.0953 </r>
       <r>    0.7239    0.0000 </r>
       <r>    1.1613    0.0000 </r>
       <r>    1.4124    0.0000 </r>
       <r>    1.5062    0.0000 </r>
       <r>    1.5506    0.0000 </r>
       <r>    1.6886    0.0000 </r>
       <r>    1.8113    0.0000 </r>
       <r>    2.1112    0.0000 </r>
       <r>    2.1363    0.0000 </r>
       <r>    2.3076    0.0000 </r>
       <r>    2.4344    0.0000 </r>
       <r>    2.4772    0.0000 </r>
      </set>
      <set comment="kpoint 15">
       <r>  -13.1025    1.0000 </r>
       <r>  -11.7531    1.0000 </r>
       <r>  -11.5398    1.0000 </r>
       <r>  -11.3834    1.0000 </r>
       <r>  -11.0765    1.0000 </r>
       <r>  -10.9612    1.0000 </r>
       <r>  -10.9360    1.0000 </r>
       <r>  -10.8130    1.0000 </r>
       <r>  -10.7620    1.0000 </r>
       <r>  -10.7077    1.0000 </r>
       <r>  -10.5791    1.0000 </r>
       <r>  -10.3284    1.0000 </r>
       <r>   -9.1767    1.0000 </r>
       <r>   -8.8834    1.0000 </r>
       <r>   -8.7616    1.0000 </r>
       <r>   -8.4380    1.0000 </r>
       <r>   -7.9491    1.0000 </r>
       <r>   -7.8721    1.0000 </r>
       <r>   -7.6095    1.0000 </r>
       <r>   -7.5495    1.0000 </r>
       <r>   -7.2860    1.0000 </r>
       <r>   -7.2317    1.0000 </r>
       <r>   -7.1790    1.0000 </r>
       <r>   -6.4060    1.0000 </r>
       <r>   -5.5840    1.0000 </r>
       <r>   -5.3525    1.0000 </r>
       <r>   -4.8403    1.0000 </r>
       <r>   -4.7052    1.0000 </r>
       <r>   -4.5792    1.0000 </r>
       <r>   -4.4075    1.0000 </r>
       <r>   -4.3068    1.0000 </r>
       <r>   -4.0178    1.0000 </r>
       <r>   -3.9975    1.0000 </r>
       <r>   -3.8901    1.0000 </r>
       <r>   -3.8490    1.0000 </r>
       <r>   -3.6514    1.0000 </r>
       <r>   -3.5786    1.0000 </r>
       <r>   -3.3605    1.0000 </r>
       <r>   -3.1804    1.0000 </r>
       <r>   -3.0404    1.0000 </r>
       <r>   -2.8139    1.0000 </r>
       <r>   -2.6935    1.0000 </r>
       <r>   -2.6476    1.0000 </r>
       <r>   -2.4019    1.0000 </r>
       <r>   -2.2981    1.0000 </r>
       <r>   -2.1670    1.0000 </r>
       <r>   -2.1380    1.0000 </r>
       <r>   -1.7996    1.0000 </r>
       <r>   -1.7073    1.0000 </r>
       <r>   -1.6267    1.0000 </r>
       <r>   -1.4978    1.0000 </r>
       <r>   -1.2925    1.0000 </r>
       <r>   -0.9731    1.0000 </r>
       <r>   -0.7932    1.0000 </r>
       <r>    0.2150    0.8432 </r>
       <r>    0.4060    0.0452 </r>
       <r>    0.7308    0.0000 </r>
       <r>    1.1664    0.0000 </r>
       <r>    1.3739    0.0000 </r>
       <r>    1.6499    0.0000 </r>
       <r>    1.6940    0.0000 </r>
       <r>    1.7544    0.0000 </r>
       <r>    1.8238    0.0000 </r>
       <r>    2.1255    0.0000 </r>
       <r>    2.2268    0.0000 </r>
       <r>    2.3234    0.0000 </r>
       <r>    2.3766    0.0000 </r>
       <r>    2.5681    0.0000 </r>
      </set>
      <set comment="kpoint 16">
       <r>  -13.4523    1.0000 </r>
       <r>  -12.1073    1.0000 </r>
       <r>  -12.0251    1.0000 </r>
       <r>  -11.5724    1.0000 </r>
       <r>  -11.4904    1.0000 </r>
       <r>  -11.2482    1.0000 </r>
       <r>  -11.0265    1.0000 </r>
       <r>  -10.9362    1.0000 </r>
       <r>  -10.6349    1.0000 </r>
       <r>  -10.5192    1.0000 </r>
       <r>  -10.4555    1.0000 </r>
       <r>  -10.2500    1.0000 </r>
       <r>   -8.9943    1.0000 </r>
       <r>   -8.9223    1.0000 </r>
       <r>   -8.7471    1.0000 </r>
       <r>   -8.4951    1.0000 </r>
       <r>   -7.6087    1.0000 </r>
       <r>   -7.4459    1.0000 </r>
       <r>   -7.3364    1.0000 </r>
       <r>   -7.2611    1.0000 </r>
       <r>   -6.9387    1.0000 </r>
       <r>   -6.8154    1.0000 </r>
       <r>   -6.6697    1.0000 </r>
       <r>   -6.2914    1.0000 </r>
       <r>   -5.5688    1.0000 </r>
       <r>   -5.3772    1.0000 </r>
       <r>   -5.0515    1.0000 </r>
       <r>   -4.8636    1.0000 </r>
       <r>   -4.7783    1.0000 </r>
       <r>   -4.4071    1.0000 </r>
       <r>   -4.2894    1.0000 </r>
       <r>   -4.2021    1.0000 </r>
       <r>   -4.1096    1.0000 </r>
       <r>   -3.8752    1.0000 </r>
       <r>   -3.7202    1.0000 </r>
       <r>   -3.6136    1.0000 </r>
       <r>   -3.4095    1.0000 </r>
       <r>   -3.2361    1.0000 </r>
       <r>   -3.1935    1.0000 </r>
       <r>   -3.0889    1.0000 </r>
       <r>   -2.7385    1.0000 </r>
       <r>   -2.5451    1.0000 </r>
       <r>   -2.5105    1.0000 </r>
       <r>   -2.2719    1.0000 </r>
       <r>   -2.1918    1.0000 </r>
       <r>   -2.0800    1.0000 </r>
       <r>   -1.9506    1.0000 </r>
       <r>   -1.8357    1.0000 </r>
       <r>   -1.5933    1.0000 </r>
       <r>   -1.5220    1.0000 </r>
       <r>   -1.3960    1.0000 </r>
       <r>   -1.2255    1.0000 </r>
       <r>   -0.9776    1.0000 </r>
       <r>   -0.7621    1.0000 </r>
       <r>    0.2571    0.6599 </r>
       <r>    0.4964    0.0015 </r>
       <r>    0.9056    0.0000 </r>
       <r>    1.1803    0.0000 </r>
       <r>    1.4343    0.0000 </r>
       <r>    1.7526    0.0000 </r>
       <r>    1.8235    0.0000 </r>
       <r>    1.9064    0.0000 </r>
       <r>    2.1337    0.0000 </r>
       <r>    2.2244    0.0000 </r>
       <r>    2.2758    0.0000 </r>
       <r>    2.4081    0.0000 </r>
       <r>    2.4434    0.0000 </r>
       <r>    2.6100    0.0000 </r>
      </set>
      <set comment="kpoint 17">
       <r>  -13.8729    1.0000 </r>
       <r>  -12.6010    1.0000 </r>
       <r>  -12.4401    1.0000 </r>
       <r>  -11.9535    1.0000 </r>
       <r>  -11.9325    1.0000 </r>
       <r>  -11.6472    1.0000 </r>
       <r>  -11.2493    1.0000 </r>
       <r>  -11.1520    1.0000 </r>
       <r>  -10.7783    1.0000 </r>
       <r>  -10.6841    1.0000 </r>
       <r>  -10.4268    1.0000 </r>
       <r>  -10.0328    1.0000 </r>
       <r>   -8.9568    1.0000 </r>
       <r>   -8.6148    1.0000 </r>
       <r>   -8.5583    1.0000 </r>
       <r>   -8.1915    1.0000 </r>
       <r>   -7.2771    1.0000 </r>
       <r>   -7.0059    1.0000 </r>
       <r>   -6.8771    1.0000 </r>
       <r>   -6.8131    1.0000 </r>
       <r>   -6.6737    1.0000 </r>
       <r>   -6.1623    1.0000 </r>
       <r>   -5.9793    1.0000 </r>
       <r>   -5.9588    1.0000 </r>
       <r>   -5.4867    1.0000 </r>
       <r>   -5.3266    1.0000 </r>
       <r>   -5.1449    1.0000 </r>
       <r>   -4.8875    1.0000 </r>
       <r>   -4.6622    1.0000 </r>
       <r>   -4.6220    1.0000 </r>
       <r>   -4.3225    1.0000 </r>
       <r>   -4.2511    1.0000 </r>
       <r>   -4.2220    1.0000 </r>
       <r>   -3.8379    1.0000 </r>
       <r>   -3.5857    1.0000 </r>
       <r>   -3.4584    1.0000 </r>
       <r>   -3.1922    1.0000 </r>
       <r>   -3.0843    1.0000 </r>
       <r>   -3.0438    1.0000 </r>
       <r>   -2.9223    1.0000 </r>
       <r>   -2.7718    1.0000 </r>
       <r>   -2.5912    1.0000 </r>
       <r>   -2.4777    1.0000 </r>
       <r>   -2.0451    1.0000 </r>
       <r>   -1.9750    1.0000 </r>
       <r>   -1.9001    1.0000 </r>
       <r>   -1.8641    1.0000 </r>
       <r>   -1.7108    1.0000 </r>
       <r>   -1.5184    1.0000 </r>
       <r>   -1.3043    1.0000 </r>
       <r>   -1.1373    1.0000 </r>
       <r>   -1.0752    1.0000 </r>
       <r>   -1.0191    1.0000 </r>
       <r>   -0.6788    1.0000 </r>
       <r>    0.3427    0.2123 </r>
       <r>    0.6605    0.0000 </r>
       <r>    1.0832    0.0000 </r>
       <r>    1.3312    0.0000 </r>
       <r>    1.6631    0.0000 </r>
       <r>    1.9045    0.0000 </r>
       <r>    1.9367    0.0000 </r>
       <r>    2.0628    0.0000 </r>
       <r>    2.2484    0.0000 </r>
       <r>    2.3697    0.0000 </r>
       <r>    2.4184    0.0000 </r>
       <r>    2.6648    0.0000 </r>
       <r>    2.7204    0.0000 </r>
       <r>    2.7461    0.0000 </r>
      </set>
      <set comment="kpoint 18">
       <r>  -14.2421    1.0000 </r>
       <r>  -12.9962    1.0000 </r>
       <r>  -12.8165    1.0000 </r>
       <r>  -12.3573    1.0000 </r>
       <r>  -12.2656    1.0000 </r>
       <r>  -11.9993    1.0000 </r>
       <r>  -11.5445    1.0000 </r>
       <r>  -11.4199    1.0000 </r>
       <r>  -11.0345    1.0000 </r>
       <r>  -10.9244    1.0000 </r>
       <r>  -10.6052    1.0000 </r>
       <r>   -9.9063    1.0000 </r>
       <r>   -8.9449    1.0000 </r>
       <r>   -8.4044    1.0000 </r>
       <r>   -8.2922    1.0000 </r>
       <r>   -7.7858    1.0000 </r>
       <r>   -7.0455    1.0000 </r>
       <r>   -6.6970    1.0000 </r>
       <r>   -6.6425    1.0000 </r>
       <r>   -6.4893    1.0000 </r>
       <r>   -6.1186    1.0000 </r>
       <r>   -5.7792    1.0000 </r>
       <r>   -5.7306    1.0000 </r>
       <r>   -5.3489    1.0000 </r>
       <r>   -5.3122    1.0000 </r>
       <r>   -4.9160    1.0000 </r>
       <r>   -4.8296    1.0000 </r>
       <r>   -4.6063    1.0000 </r>
       <r>   -4.5293    1.0000 </r>
       <r>   -4.4568    1.0000 </r>
       <r>   -4.1856    1.0000 </r>
       <r>   -4.0009    1.0000 </r>
       <r>   -3.8016    1.0000 </r>
       <r>   -3.6914    1.0000 </r>
       <r>   -3.4789    1.0000 </r>
       <r>   -3.4470    1.0000 </r>
       <r>   -3.0993    1.0000 </r>
       <r>   -3.0119    1.0000 </r>
       <r>   -2.9776    1.0000 </r>
       <r>   -2.7657    1.0000 </r>
       <r>   -2.6096    1.0000 </r>
       <r>   -2.4832    1.0000 </r>
       <r>   -2.4331    1.0000 </r>
       <r>   -1.9297    1.0000 </r>
       <r>   -1.8686    1.0000 </r>
       <r>   -1.8202    1.0000 </r>
       <r>   -1.7428    1.0000 </r>
       <r>   -1.4805    1.0000 </r>
       <r>   -1.4265    1.0000 </r>
       <r>   -1.1620    1.0000 </r>
       <r>   -1.0314    1.0000 </r>
       <r>   -0.9374    1.0000 </r>
       <r>   -0.7899    1.0000 </r>
       <r>   -0.2732    1.0000 </r>
       <r>    0.4776    0.0034 </r>
       <r>    0.7922    0.0000 </r>
       <r>    1.2604    0.0000 </r>
       <r>    1.5470    0.0000 </r>
       <r>    1.8251    0.0000 </r>
       <r>    1.9468    0.0000 </r>
       <r>    2.0362    0.0000 </r>
       <r>    2.2467    0.0000 </r>
       <r>    2.3782    0.0000 </r>
       <r>    2.5485    0.0000 </r>
       <r>    2.7073    0.0000 </r>
       <r>    2.8804    0.0000 </r>
       <r>    2.9303    0.0000 </r>
[...]
       <r>    2.6956    0.0000 </r>
      </set>
      <set comment="kpoint 54">
       <r>  -13.1017    1.0000 </r>
       <r>  -11.7544    1.0000 </r>
       <r>  -11.4948    1.0000 </r>
       <r>  -11.3951    1.0000 </r>
       <r>  -11.1747    1.0000 </r>
       <r>  -10.9539    1.0000 </r>
       <r>  -10.9469    1.0000 </r>
       <r>  -10.8539    1.0000 </r>
       <r>  -10.7287    1.0000 </r>
       <r>  -10.6260    1.0000 </r>
       <r>  -10.5730    1.0000 </r>
       <r>  -10.3327    1.0000 </r>
       <r>   -9.1855    1.0000 </r>
       <r>   -8.8630    1.0000 </r>
       <r>   -8.6704    1.0000 </r>
       <r>   -8.4447    1.0000 </r>
       <r>   -8.1241    1.0000 </r>
       <r>   -7.8746    1.0000 </r>
       <r>   -7.5684    1.0000 </r>
       <r>   -7.5534    1.0000 </r>
       <r>   -7.2970    1.0000 </r>
       <r>   -7.2025    1.0000 </r>
       <r>   -7.1735    1.0000 </r>
       <r>   -6.3971    1.0000 </r>
       <r>   -5.6112    1.0000 </r>
       <r>   -5.3960    1.0000 </r>
       <r>   -4.9561    1.0000 </r>
       <r>   -4.7132    1.0000 </r>
       <r>   -4.5015    1.0000 </r>
       <r>   -4.3871    1.0000 </r>
       <r>   -4.2487    1.0000 </r>
       <r>   -4.0834    1.0000 </r>
       <r>   -3.9432    1.0000 </r>
       <r>   -3.8357    1.0000 </r>
       <r>   -3.7717    1.0000 </r>
       <r>   -3.5898    1.0000 </r>
       <r>   -3.5470    1.0000 </r>
       <r>   -3.2646    1.0000 </r>
       <r>   -3.1909    1.0000 </r>
       <r>   -3.0332    1.0000 </r>
       <r>   -2.8844    1.0000 </r>
       <r>   -2.7061    1.0000 </r>
       <r>   -2.6758    1.0000 </r>
       <r>   -2.4149    1.0000 </r>
       <r>   -2.3495    1.0000 </r>
       <r>   -2.1919    1.0000 </r>
       <r>   -2.1138    1.0000 </r>
       <r>   -1.7914    1.0000 </r>
       <r>   -1.7093    1.0000 </r>
       <r>   -1.6596    1.0000 </r>
       <r>   -1.5280    1.0000 </r>
       <r>   -1.3787    1.0000 </r>
       <r>   -0.9903    1.0000 </r>
       <r>   -0.7921    1.0000 </r>
       <r>    0.2342    0.7691 </r>
       <r>    0.4288    0.0219 </r>
       <r>    0.7277    0.0000 </r>
       <r>    1.2046    0.0000 </r>
       <r>    1.3427    0.0000 </r>
       <r>    1.5786    0.0000 </r>
       <r>    1.6275    0.0000 </r>
       <r>    1.7125    0.0000 </r>
       <r>    1.8872    0.0000 </r>
       <r>    2.0105    0.0000 </r>
       <r>    2.0931    0.0000 </r>
       <r>    2.3376    0.0000 </r>
       <r>    2.4023    0.0000 </r>
       <r>    2.4924    0.0000 </r>
      </set>
     </set>
    </set>
   </array>
  </eigenvalues>
  <separator name="orbital magnetization" >
   <v name="MAGDIPOLOUT">      0.00000000      0.00000000      0.00000000</v>
  </separator>
  <dos>
   <i name="efermi">      0.28626424 </i>
   <total>
    <array>
     <dimension dim="1">gridpoints</dimension>
     <dimension dim="2">spin</dimension>
     <field>energy</field>
     <field>total</field>
     <field>integrated</field>
     <set>
      <set comment="spin 1">
       <r>   -15.7508     0.0000     0.0000 </r>
       <r>   -15.6846     0.0000     0.0000 </r>
       <r>   -15.6184     0.0000     0.0000 </r>
       <r>   -15.5522     0.0000     0.0000 </r>
       <r>   -15.4859     0.0000     0.0000 </r>
       <r>   -15.4197     0.0000     0.0000 </r>
       <r>   -15.3535     0.0000     0.0000 </r>
       <r>   -15.2873     0.0000     0.0000 </r>
       <r>   -15.2211     0.0000     0.0000 </r>
       <r>   -15.1548     0.0000     0.0000 </r>
       <r>   -15.0886     0.0000     0.0000 </r>
       <r>   -15.0224     0.0001     0.0000 </r>
       <r>   -14.9562     0.0039     0.0003 </r>
       <r>   -14.8900     0.0576     0.0041 </r>
       <r>   -14.8237     0.3983     0.0305 </r>
       <r>   -14.7575     1.3529     0.1200 </r>
       <r>   -14.6913     2.3244     0.2740 </r>
       <r>   -14.6251     2.1986     0.4196 </r>
       <r>   -14.5589     1.7900     0.5381 </r>
       <r>   -14.4926     1.8122     0.6581 </r>
       <r>   -14.4264     1.2462     0.7406 </r>
       <r>   -14.3602     0.5806     0.7791 </r>
       <r>   -14.2940     0.8833     0.8376 </r>
       <r>   -14.2278     1.6110     0.9442 </r>
       <r>   -14.1615     1.3829     1.0358 </r>
       <r>   -14.0953     0.5296     1.0709 </r>
       <r>   -14.0291     0.1430     1.0803 </r>
       <r>   -13.9629     0.3951     1.1065 </r>
       <r>   -13.8967     1.2104     1.1867 </r>
       <r>   -13.8305     1.6662     1.2970 </r>
       <r>   -13.7642     1.0164     1.3643 </r>
       <r>   -13.6980     0.2867     1.3833 </r>
       <r>   -13.6318     0.1627     1.3941 </r>
       <r>   -13.5656     0.7249     1.4421 </r>
       <r>   -13.4994     2.2633     1.5919 </r>
       <r>   -13.4331     4.0374     1.8593 </r>
       <r>   -13.3669     4.6735     2.1688 </r>
       <r>   -13.3007     4.5175     2.4679 </r>
       <r>   -13.2345     4.1541     2.7430 </r>
       <r>   -13.1683     4.1786     3.0197 </r>
       <r>   -13.1020     4.7084     3.3315 </r>
       <r>   -13.0358     4.4426     3.6257 </r>
       <r>   -12.9696     3.8564     3.8810 </r>
       <r>   -12.9034     4.1109     4.1533 </r>
       <r>   -12.8372     4.3906     4.4440 </r>
       <r>   -12.7709     3.8447     4.6986 </r>
       <r>   -12.7047     3.2254     4.9122 </r>
       <r>   -12.6385     3.7168     5.1583 </r>
       <r>   -12.5723     5.1835     5.5016 </r>
       <r>   -12.5061     6.5394     5.9346 </r>
       <r>   -12.4398     6.9206     6.3929 </r>
       <r>   -12.3736     5.9104     6.7843 </r>
       <r>   -12.3074     4.8279     7.1040 </r>
       <r>   -12.2412     4.5370     7.4044 </r>
       <r>   -12.1750     4.2826     7.6880 </r>
       <r>   -12.1087     4.9266     8.0142 </r>
       <r>   -12.0425     6.8038     8.4648 </r>
       <r>   -11.9763     7.8882     8.9871 </r>
       <r>   -11.9101     6.9853     9.4497 </r>
       <r>   -11.8439     5.7121     9.8279 </r>
       <r>   -11.7776     5.9579    10.2225 </r>
       <r>   -11.7114     7.0012    10.6861 </r>
       <r>   -11.6452     7.4270    11.1779 </r>
       <r>   -11.5790     7.4918    11.6740 </r>
       <r>   -11.5128     7.9729    12.2020 </r>
       <r>   -11.4466     8.7354    12.7804 </r>
       <r>   -11.3803     8.9659    13.3741 </r>
       <r>   -11.3141     8.6086    13.9442 </r>
       <r>   -11.2479     8.5306    14.5091 </r>
       <r>   -11.1817     8.2297    15.0540 </r>
       <r>   -11.1155     7.8687    15.5751 </r>
       <r>   -11.0492     8.9399    16.1671 </r>
       <r>   -10.9830    10.8251    16.8839 </r>
       <r>   -10.9168    10.9578    17.6096 </r>
       <r>   -10.8506     9.5016    18.2387 </r>
       <r>   -10.7844     9.0153    18.8357 </r>
       <r>   -10.7181     8.7342    19.4141 </r>
       <r>   -10.6519     8.6612    19.9877 </r>
       <r>   -10.5857     9.3742    20.6084 </r>
       <r>   -10.5195     8.5136    21.1722 </r>
       <r>   -10.4533     6.4090    21.5966 </r>
       <r>   -10.3870     5.0160    21.9287 </r>
       <r>   -10.3208     3.7580    22.1776 </r>
       <r>   -10.2546     2.5091    22.3437 </r>
       <r>   -10.1884     1.9457    22.4726 </r>
       <r>   -10.1222     1.8582    22.5956 </r>
       <r>   -10.0559     2.6762    22.7728 </r>
       <r>    -9.9897     4.8137    23.0916 </r>
       <r>    -9.9235     6.1025    23.4957 </r>
       <r>    -9.8573     4.7986    23.8135 </r>
       <r>    -9.7911     2.2083    23.9597 </r>
       <r>    -9.7248     0.5401    23.9955 </r>
       <r>    -9.6586     0.0647    23.9998 </r>
       <r>    -9.5924     0.0036    24.0000 </r>
       <r>    -9.5262     0.0001    24.0000 </r>
       <r>    -9.4600     0.0009    24.0001 </r>
       <r>    -9.3937     0.0191    24.0013 </r>
       <r>    -9.3275     0.1978    24.0144 </r>
       <r>    -9.2613     1.0052    24.0810 </r>
       <r>    -9.1951     2.6599    24.2571 </r>
       <r>    -9.1289     4.2615    24.5393 </r>
       <r>    -9.0627     5.6742    24.9151 </r>
       <r>    -8.9964     7.9039    25.4385 </r>
       <r>    -8.9302     9.6808    26.0795 </r>
       <r>    -8.8640     8.6413    26.6517 </r>
       <r>    -8.7978     6.0929    27.0552 </r>
       <r>    -8.7316     4.8359    27.3754 </r>
       <r>    -8.6653     4.7050    27.6870 </r>
       <r>    -8.5991     4.7270    28.0000 </r>
       <r>    -8.5329     4.5620    28.3021 </r>
       <r>    -8.4667     4.4775    28.5986 </r>
       <r>    -8.4005     4.8268    28.9182 </r>
       <r>    -8.3342     4.7989    29.2360 </r>
       <r>    -8.2680     4.4295    29.5293 </r>
       <r>    -8.2018     5.0856    29.8661 </r>
       <r>    -8.1356     6.5548    30.3001 </r>
       <r>    -8.0694     6.1540    30.7077 </r>
       <r>    -8.0031     3.6298    30.9480 </r>
       <r>    -7.9369     2.1088    31.0877 </r>
       <r>    -7.8707     2.7933    31.2726 </r>
       <r>    -7.8045     4.1485    31.5473 </r>
       <r>    -7.7383     4.4615    31.8428 </r>
       <r>    -7.6720     4.0766    32.1127 </r>
       <r>    -7.6058     4.2614    32.3949 </r>
       <r>    -7.5396     4.8872    32.7185 </r>
       <r>    -7.4734     5.2388    33.0655 </r>
       <r>    -7.4072     5.9139    33.4571 </r>
       <r>    -7.3409     7.3369    33.9429 </r>
       <r>    -7.2747     8.6005    34.5124 </r>
       <r>    -7.2085     8.5158    35.0763 </r>
       <r>    -7.1423     6.7081    35.5206 </r>
       <r>    -7.0761     4.9217    35.8465 </r>
       <r>    -7.0098     5.2439    36.1937 </r>
       <r>    -6.9436     7.1857    36.6695 </r>
       <r>    -6.8774     8.8745    37.2572 </r>
       <r>    -6.8112     9.4360    37.8821 </r>
       <r>    -6.7450     9.7887    38.5303 </r>
       <r>    -6.6787    11.2289    39.2738 </r>
       <r>    -6.6125    10.9921    40.0017 </r>
       <r>    -6.5463     8.4007    40.5580 </r>
       <r>    -6.4801     6.8312    41.0104 </r>
       <r>    -6.4139     5.7535    41.3914 </r>
       <r>    -6.3477     4.3922    41.6822 </r>
       <r>    -6.2814     3.5326    41.9161 </r>
       <r>    -6.2152     3.5858    42.1536 </r>
       <r>    -6.1490     4.7278    42.4667 </r>
       <r>    -6.0828     6.4543    42.8941 </r>
       <r>    -6.0166     7.4753    43.3891 </r>
       <r>    -5.9503     7.0266    43.8544 </r>
       <r>    -5.8841     5.4796    44.2172 </r>
       <r>    -5.8179     4.4079    44.5091 </r>
       <r>    -5.7517     4.9119    44.8344 </r>
       <r>    -5.6855     6.3107    45.2523 </r>
       <r>    -5.6192     8.1010    45.7887 </r>
       <r>    -5.5530     9.4843    46.4168 </r>
       <r>    -5.4868     9.1164    47.0204 </r>
       <r>    -5.4206     8.8938    47.6094 </r>
       <r>    -5.3544    10.2917    48.2909 </r>
       <r>    -5.2881    10.1048    48.9600 </r>
       <r>    -5.2219     7.2982    49.4433 </r>
       <r>    -5.1557     4.5674    49.7458 </r>
       <r>    -5.0895     3.4500    49.9742 </r>
       <r>    -5.0233     4.3958    50.2653 </r>
       <r>    -4.9570     6.4758    50.6941 </r>
       <r>    -4.8908     8.3776    51.2489 </r>
       <r>    -4.8246     9.0899    51.8508 </r>
       <r>    -4.7584     8.9593    52.4441 </r>
       <r>    -4.6922     9.4204    53.0679 </r>
       <r>    -4.6259    10.2058    53.7437 </r>
       <r>    -4.5597    10.3855    54.4315 </r>
       <r>    -4.4935    10.3919    55.1196 </r>
       <r>    -4.4273    10.6136    55.8224 </r>
       <r>    -4.3611    11.0178    56.5520 </r>
       <r>    -4.2948    12.0507    57.3500 </r>
       <r>    -4.2286    13.2341    58.2264 </r>
       <r>    -4.1624    12.9378    59.0831 </r>
       <r>    -4.0962    11.6858    59.8569 </r>
       <r>    -4.0300    10.8764    60.5772 </r>
       <r>    -3.9638    10.2966    61.2590 </r>
       <r>    -3.8975     9.6994    61.9013 </r>
       <r>    -3.8313     9.7480    62.5468 </r>
       <r>    -3.7651    10.1947    63.2219 </r>
       <r>    -3.6989    10.9771    63.9488 </r>
       <r>    -3.6327    12.1999    64.7566 </r>
       <r>    -3.5664    13.3874    65.6431 </r>
       <r>    -3.5002    13.5246    66.5387 </r>
       <r>    -3.4340    12.8218    67.3878 </r>
       <r>    -3.3678    12.2401    68.1983 </r>
       <r>    -3.3016    12.5949    69.0323 </r>
       <r>    -3.2353    13.9908    69.9588 </r>
       <r>    -3.1691    15.5422    70.9880 </r>
       <r>    -3.1029    17.8089    72.1673 </r>
       <r>    -3.0367    19.7097    73.4725 </r>
       <r>    -2.9705    19.1205    74.7386 </r>
       <r>    -2.9042    16.2620    75.8155 </r>
       <r>    -2.8380    13.5593    76.7134 </r>
       <r>    -2.7718    12.9107    77.5683 </r>
       <r>    -2.7056    13.8955    78.4885 </r>
       <r>    -2.6394    14.9977    79.4816 </r>
       <r>    -2.5731    15.5385    80.5106 </r>
       <r>    -2.5069    15.1268    81.5122 </r>
       <r>    -2.4407    14.4434    82.4687 </r>
       <r>    -2.3745    14.5594    83.4328 </r>
       <r>    -2.3083    14.1702    84.3711 </r>
       <r>    -2.2420    13.1596    85.2426 </r>
       <r>    -2.1758    13.5599    86.1405 </r>
       <r>    -2.1096    14.6681    87.1118 </r>
       <r>    -2.0434    14.7689    88.0898 </r>
       <r>    -1.9772    14.8142    89.0708 </r>
       <r>    -1.9109    15.4789    90.0958 </r>
       <r>    -1.8447    16.5318    91.1905 </r>
       <r>    -1.7785    17.2959    92.3358 </r>
       <r>    -1.7123    16.6045    93.4354 </r>
       <r>    -1.6461    14.6428    94.4050 </r>
       <r>    -1.5799    12.6350    95.2417 </r>
       <r>    -1.5136    12.3371    96.0587 </r>
       <r>    -1.4474    13.5993    96.9592 </r>
       <r>    -1.3812    13.8425    97.8758 </r>
       <r>    -1.3150    12.6266    98.7120 </r>
       <r>    -1.2488    11.8221    99.4948 </r>
       <r>    -1.1825    12.2974   100.3091 </r>
       <r>    -1.1163    12.9872   101.1691 </r>
       <r>    -1.0501    13.6833   102.0752 </r>
       <r>    -0.9839    14.4389   103.0314 </r>
       <r>    -0.9177    13.3276   103.9139 </r>
       <r>    -0.8514    11.1005   104.6490 </r>
       <r>    -0.7852     9.5644   105.2823 </r>
       <r>    -0.7190     7.2675   105.7636 </r>
       <r>    -0.6528     4.8955   106.0878 </r>
       <r>    -0.5866     3.7229   106.3343 </r>
       <r>    -0.5203     3.1141   106.5405 </r>
       <r>    -0.4541     2.8362   106.7283 </r>
       <r>    -0.3879     2.0803   106.8661 </r>
       <r>    -0.3217     1.2387   106.9481 </r>
       <r>    -0.2555     1.3026   107.0344 </r>
       <r>    -0.1892     1.5165   107.1348 </r>
       <r>    -0.1230     1.0296   107.2030 </r>
       <r>    -0.0568     0.3582   107.2267 </r>
       <r>     0.0094     0.0924   107.2328 </r>
       <r>     0.0756     0.2664   107.2505 </r>
       <r>     0.1419     1.1475   107.3264 </r>
       <r>     0.2081     3.1277   107.5336 </r>
       <r>     0.2743     5.7576   107.9148 </r>
       <r>     0.3405     7.6574   108.4219 </r>
       <r>     0.4067     8.0522   108.9551 </r>
       <r>     0.4730     7.5549   109.4554 </r>
       <r>     0.5392     6.9245   109.9139 </r>
       <r>     0.6054     6.4138   110.3386 </r>
       <r>     0.6716     5.9836   110.7349 </r>
       <r>     0.7378     5.5337   111.1013 </r>
       <r>     0.8040     4.8734   111.4240 </r>
       <r>     0.8703     4.6265   111.7304 </r>
       <r>     0.9365     5.0412   112.0642 </r>
       <r>     1.0027     5.1159   112.4030 </r>
       <r>     1.0689     5.3094   112.7546 </r>
       <r>     1.1351     7.0335   113.2203 </r>
       <r>     1.2014     9.7531   113.8662 </r>
       <r>     1.2676    10.9209   114.5894 </r>
       <r>     1.3338    10.3638   115.2756 </r>
       <r>     1.4000    10.5098   115.9716 </r>
       <r>     1.4662    11.1797   116.7119 </r>
       <r>     1.5325    11.1066   117.4474 </r>
       <r>     1.5987    11.4235   118.2038 </r>
       <r>     1.6649    12.5983   119.0381 </r>
       <r>     1.7311    14.5986   120.0048 </r>
       <r>     1.7973    15.5875   121.0370 </r>
       <r>     1.8636    13.4905   121.9303 </r>
       <r>     1.9298    10.6108   122.6330 </r>
       <r>     1.9960     9.9347   123.2908 </r>
       <r>     2.0622    11.3794   124.0444 </r>
       <r>     2.1284    12.7634   124.8896 </r>
       <r>     2.1947    13.5573   125.7873 </r>
       <r>     2.2609    14.5459   126.7505 </r>
       <r>     2.3271    14.9079   127.7377 </r>
       <r>     2.3933    15.3324   128.7530 </r>
       <r>     2.4595    14.8958   129.7394 </r>
       <r>     2.5258    13.0285   130.6022 </r>
       <r>     2.5920    12.4233   131.4248 </r>
       <r>     2.6582    13.3191   132.3068 </r>
       <r>     2.7244    12.6859   133.1469 </r>
       <r>     2.7906     9.6478   133.7858 </r>
       <r>     2.8569     7.3671   134.2736 </r>
       <r>     2.9231     7.2753   134.7554 </r>
       <r>     2.9893     7.2616   135.2362 </r>
       <r>     3.0555     6.0195   135.6348 </r>
       <r>     3.1217     3.6970   135.8797 </r>
       <r>     3.1879     1.4476   135.9755 </r>
       <r>     3.2542     0.3270   135.9972 </r>
       <r>     3.3204     0.0402   135.9998 </r>
       <r>     3.3866     0.0025   136.0000 </r>
       <r>     3.4528     0.0001   136.0000 </r>
       <r>     3.5190     0.0000   136.0000 </r>
       <r>     3.5853     0.0000   136.0000 </r>
       <r>     3.6515     0.0000   136.0000 </r>
       <r>     3.7177     0.0000   136.0000 </r>
       <r>     3.7839     0.0000   136.0000 </r>
       <r>     3.8501     0.0000   136.0000 </r>
       <r>     3.9164     0.0000   136.0000 </r>
       <r>     3.9826     0.0000   136.0000 </r>
       <r>     4.0488     0.0000   136.0000 </r>
       <r>     4.1150     0.0000   136.0000 </r>
      </set>
     </set>
    </array>
   </total>
  </dos>
 </calculation>
 <structure name="finalpos" >
  <crystal>
   <varray name="basis" >
    <v>       3.54040000       0.00000000       0.00000000 </v>
    <v>      -1.77020000      10.29434800       0.00000000 </v>
    <v>       0.00000000       0.00000000      27.50142900 </v>
   </varray>
   <i name="volume">   1002.32009712 </i>
   <varray name="rec_basis" >
    <v>       0.28245396       0.04857034       0.00000000 </v>
    <v>       0.00000000       0.09714068       0.00000000 </v>
    <v>       0.00000000       0.00000000       0.03636175 </v>
   </varray>
  </crystal>
  <varray name="positions" >
   <v>       0.11402300       0.22804500       0.23316207 </v>
   <v>       0.61402300       0.72804500       0.51499159 </v>
   <v>       0.45808900       0.91617900       0.20939482 </v>
   <v>       0.95808900       0.41617900       0.49122434 </v>
   <v>       0.31085400       0.62170900       0.08414979 </v>
   <v>       0.31085400       0.62170900       0.36597930 </v>
   <v>       0.99923000       0.99846000       0.08631254 </v>
   <v>       0.99923000       0.99846000       0.36814206 </v>
   <v>       0.65492700       0.30985400       0.06041748 </v>
   <v>       0.65492700       0.30985400       0.34224700 </v>
   <v>       0.76973800       0.53947500       0.20725292 </v>
   <v>       0.26973800       0.03947500       0.48908244 </v>
   <v>       0.93971600       0.87943300       0.15783749 </v>
   <v>       0.43971600       0.37943300       0.43966701 </v>
   <v>       0.20515200       0.41030300       0.18578822 </v>
   <v>       0.70515200       0.91030300       0.46761774 </v>
   <v>       0.20184900       0.40369900       0.09969156 </v>
   <v>       0.20184900       0.40369900       0.38152107 </v>
   <v>       0.56380500       0.12761000       0.10779021 </v>
   <v>       0.56380500       0.12761000       0.38961973 </v>
   <v>       0.56710600       0.13421200       0.19387616 </v>
   <v>       0.06710600       0.63421200       0.47570568 </v>
   <v>       0.82923400       0.65846800       0.13571444 </v>
   <v>       0.32923400       0.15846800       0.41754396 </v>
  </varray>
 </structure>
</modeling>
