   24   24    1    1
  0.4176334E+02  0.3540400E-09  0.1044544E-08  0.2750143E-08  0.5000000E-15
  1.000000000000000E-004
  CAR 
 unknown system                          
    108     54     68
 
  0.0000000E+00  0.0000000E+00  0.0000000E+00  0.9615385E-02
    1      -14.787485
    2      -13.657760
    3      -13.233050
    4      -12.915107
    5      -12.644556
    6      -12.585329
    7      -12.203568
    8      -11.885167
    9      -11.549610
   10      -11.401713
   11      -11.106037
   12      -10.196085
   13       -9.432940
   14       -8.151405
   15       -7.948020
   16       -7.144454
   17       -7.035823
   18       -6.854540
   19       -6.611352
   20       -6.455720
   21       -6.256104
   22       -5.938546
   23       -5.094494
   24       -4.849132
   25       -4.362214
   26       -4.143103
   27       -3.942825
   28       -3.799557
   29       -3.665702
   30       -3.269435
   31       -3.180393
   32       -3.142866
   33       -2.956602
   34       -2.868056
   35       -2.558817
   36       -2.519418
   37       -2.448316
   38       -2.390764
   39       -2.304061
   40       -2.194339
   41       -2.109783
   42       -1.973368
   43       -1.842089
   44       -1.760950
   45       -1.689365
   46       -1.625154
   47       -1.548164
   48       -1.442403
   49       -1.314638
   50       -1.221486
   51       -1.122071
   52       -0.762580
   53        0.364322
   54        0.424306
   55        0.721627
   56        0.943964
   57        1.060586
   58        1.138110
   59        1.204808
   60        1.285954
   61        1.460634
   62        1.620777
   63        1.875456
   64        2.030128
   65        2.139616
   66        2.298650
   67        2.329287
   68        2.515988
 
  0.7692308E-01 -0.1387779E-16  0.0000000E+00  0.1923077E-01
    1      -14.732555
    2      -13.596416
    3      -13.178114
    4      -12.862943
    5      -12.587607
    6      -12.529157
    7      -12.141341
    8      -11.835937
    9      -11.500620
   10      -11.350042
   11      -11.057699
   12      -10.177268
   13       -9.412230
   14       -8.187835
   15       -7.911230
   16       -7.162005
   17       -7.009648
   18       -6.857858
   19       -6.616465
   20       -6.582392
   21       -6.277074
   22       -5.905147
   23       -5.084880
   24       -4.854597
   25       -4.477897
   26       -4.116153
   27       -3.965362
   28       -3.830997
   29       -3.711594
   30       -3.543916
   31       -3.487253
   32       -3.378720
   33       -3.286737
   34       -2.926920
   35       -2.822479
   36       -2.791846
   37       -2.596667
   38       -2.586527
   39       -2.381303
   40       -2.316145
   41       -2.256885
   42       -2.109759
   43       -2.076710
   44       -1.944304
   45       -1.878483
   46       -1.833484
   47       -1.622148
   48       -1.511413
   49       -1.266035
   50       -1.083227
   51       -1.051892
   52       -0.745791
   53        0.404454
   54        0.504970
   55        0.811868
   56        1.091454
   57        1.169300
   58        1.307028
   59        1.469379
   60        1.535584
   61        1.654870
   62        2.022403
   63        2.099564
   64        2.206301
   65        2.403324
   66        2.499167
   67        2.569117
   68        2.654898
 
  0.1538462E+00 -0.2775558E-16  0.0000000E+00  0.1923077E-01
    1      -14.569536
    2      -13.413454
    3      -13.015357
    4      -12.707169
    5      -12.419479
    6      -12.362965
    7      -11.958930
    8      -11.691660
    9      -11.358470
   10      -11.201327
   11      -10.919021
   12      -10.135070
   13       -9.358022
   14       -8.283808
   15       -7.869082
   16       -7.534035
   17       -6.951093
   18       -6.859403
   19       -6.662631
   20       -6.611862
   21       -6.265397
   22       -5.830674
   23       -5.131949
   24       -5.004138
   25       -4.964831
   26       -4.334176
   27       -4.215880
   28       -4.161095
   29       -4.100623
   30       -3.978747
   31       -3.817159
   32       -3.778134
   33       -3.558701
   34       -3.399042
   35       -3.279227
   36       -3.167509
   37       -3.078990
   38       -3.046452
   39       -2.770392
   40       -2.666090
   41       -2.489239
   42       -2.391371
   43       -2.265138
   44       -2.166549
   45       -2.035038
   46       -1.878798
   47       -1.762960
   48       -1.491781
   49       -1.324636
   50       -1.088183
   51       -0.958217
   52       -0.423734
   53        0.316402
   54        0.396336
   55        0.677667
   56        0.964714
   57        1.227608
   58        1.558498
   59        1.827620
   60        2.076451
   61        2.171483
   62        2.325862
   63        2.350713
   64        2.520281
   65        2.587032
   66        2.702534
   67        2.841180
   68        2.954309
 
  0.2307692E+00 -0.4163336E-16  0.0000000E+00  0.1923077E-01
    1      -14.304687
    2      -13.112454
    3      -12.752561
    4      -12.450856
    5      -12.149588
    6      -12.095638
    7      -11.671199
    8      -11.466490
    9      -11.141304
   10      -10.981303
   11      -10.716182
   12      -10.114666
   13       -9.295801
   14       -8.475192
   15       -8.204043
   16       -7.941545
   17       -6.925697
   18       -6.828629
   19       -6.752667
   20       -6.663245
   21       -6.298676
   22       -5.852654
   23       -5.787631
   24       -5.455079
   25       -5.292350
   26       -4.927082
   27       -4.725047
   28       -4.633530
   29       -4.502169
   30       -4.335327
   31       -4.276546
   32       -4.025618
   33       -3.892317
   34       -3.741051
   35       -3.582942
   36       -3.466948
   37       -3.275938
   38       -3.107191
   39       -3.066836
   40       -2.747723
   41       -2.646949
   42       -2.544727
   43       -2.471137
   44       -2.204277
   45       -2.017516
   46       -1.935401
   47       -1.846205
   48       -1.589215
   49       -1.506912
   50       -1.226417
   51       -1.010254
   52       -0.224485
   53       -0.135092
   54        0.123990
   55        0.592570
   56        0.965488
   57        1.172464
   58        1.616475
   59        1.759481
   60        1.896239
   61        1.937418
   62        2.082290
   63        2.186248
   64        2.320238
   65        2.569423
   66        2.735727
   67        2.824058
   68        2.870699
 
  0.3076923E+00 -0.5551115E-16  0.0000000E+00  0.1923077E-01
    1      -13.952564
    2      -12.700737
    3      -12.411615
    4      -12.102460
    5      -11.801589
    6      -11.750201
    7      -11.313040
    8      -11.207366
    9      -10.896450
   10      -10.768017
   11      -10.530722
   12      -10.144601
   13       -9.271403
   14       -8.798855
   15       -8.769561
   16       -8.201599
   17       -7.158190
   18       -7.115162
   19       -7.018165
   20       -6.938929
   21       -6.559288
   22       -6.277396
   23       -6.142989
   24       -6.081743
   25       -5.596147
   26       -5.325844
   27       -4.965139
   28       -4.859026
   29       -4.808022
   30       -4.524427
   31       -4.425588
   32       -4.376817
   33       -4.326570
   34       -3.695660
   35       -3.506124
   36       -3.333895
   37       -3.268802
   38       -3.193806
   39       -3.047891
   40       -2.868415
   41       -2.761620
   42       -2.684935
   43       -2.512829
   44       -2.357841
   45       -2.174567
   46       -2.009266
   47       -1.976908
   48       -1.824586
   49       -1.559481
   50       -1.426350
   51       -1.078612
   52       -0.781208
   53       -0.301500
   54       -0.000841
   55        0.486890
   56        0.814122
   57        1.116137
   58        1.401181
   59        1.507041
   60        1.667041
   61        1.773489
   62        1.877382
   63        2.017327
   64        2.182258
   65        2.271666
   66        2.586358
   67        2.715026
   68        2.781961
 
  0.3846154E+00 -0.8326673E-16  0.0000000E+00  0.1923077E-01
    1      -13.549508
    2      -12.192730
    3      -12.069823
    4      -11.683156
    5      -11.472763
    6      -11.367926
    7      -11.043042
    8      -10.968183
    9      -10.740797
   10      -10.654834
   11      -10.571005
   12      -10.072289
   13       -9.371127
   14       -9.200571
   15       -8.946128
   16       -8.493782
   17       -7.607879
   18       -7.573036
   19       -7.533074
   20       -7.255573
   21       -6.950799
   22       -6.872073
   23       -6.780303
   24       -6.501211
   25       -5.563510
   26       -5.330889
   27       -5.015532
   28       -4.827914
   29       -4.690619
   30       -4.635328
   31       -4.343039
   32       -4.253493
   33       -4.195662
   34       -3.778506
   35       -3.642343
   36       -3.384861
   37       -3.323755
   38       -3.266996
   39       -3.106259
   40       -2.934921
   41       -2.864218
   42       -2.642969
   43       -2.532267
   44       -2.480490
   45       -2.388692
   46       -2.215392
   47       -2.136077
   48       -1.961347
   49       -1.629962
   50       -1.516828
   51       -1.323845
   52       -1.012909
   53       -0.566501
   54       -0.030249
   55        0.378935
   56        0.647440
   57        1.089080
   58        1.280408
   59        1.329092
   60        1.504516
   61        1.593481
   62        1.656073
   63        1.922697
   64        2.041591
   65        2.169204
   66        2.222688
   67        2.575346
   68        2.638089
 
  0.4615385E+00 -0.8326673E-16  0.0000000E+00  0.1923077E-01
    1      -13.208911
    2      -11.971511
    3      -11.618686
    4      -11.296062
    5      -11.260412
    6      -11.071174
    7      -10.958644
    8      -10.866149
    9      -10.842371
   10      -10.752080
   11      -10.653684
   12       -9.863859
   13       -9.603372
   14       -9.405315
   15       -8.802597
   16       -8.557456
   17       -8.195357
   18       -7.874471
   19       -7.689861
   20       -7.409088
   21       -7.392566
   22       -7.294594
   23       -7.281427
   24       -6.789482
   25       -5.469415
   26       -5.115845
   27       -5.032075
   28       -4.634818
   29       -4.576520
   30       -4.336828
   31       -4.208930
   32       -4.082823
   33       -4.037222
   34       -3.938490
   35       -3.831556
   36       -3.688337
   37       -3.540082
   38       -3.368005
   39       -3.128641
   40       -2.933436
   41       -2.847639
   42       -2.806081
   43       -2.668157
   44       -2.475894
   45       -2.434777
   46       -2.305888
   47       -2.217228
   48       -1.861607
   49       -1.780340
   50       -1.623268
   51       -1.448729
   52       -1.052305
   53       -0.701248
   54       -0.004896
   55        0.332702
   56        0.492803
   57        1.071404
   58        1.164259
   59        1.253267
   60        1.452046
   61        1.480811
   62        1.575692
   63        1.760461
   64        1.959198
   65        2.027693
   66        2.284767
   67        2.365283
   68        2.424926
 
  0.0000000E+00  0.2500000E+00  0.0000000E+00  0.1923077E-01
    1      -14.784838
    2      -13.602768
    3      -13.269373
    4      -13.088631
    5      -12.615453
    6      -12.527111
    7      -12.024305
    8      -11.974258
    9      -11.594565
   10      -11.286952
   11      -11.115208
   12      -10.211455
   13       -9.492740
   14       -8.631674
   15       -7.519223
   16       -7.151977
   17       -6.952360
   18       -6.787159
   19       -6.707526
   20       -6.425699
   21       -6.158837
   22       -5.860628
   23       -5.234644
   24       -4.757233
   25       -4.283454
   26       -4.149862
   27       -4.109162
   28       -3.809969
   29       -3.556594
   30       -3.389558
   31       -3.246662
   32       -3.133261
   33       -2.939134
   34       -2.823418
   35       -2.631764
   36       -2.521455
   37       -2.467821
   38       -2.444905
   39       -2.328354
   40       -2.199176
   41       -2.117267
   42       -2.067829
   43       -1.996094
   44       -1.745824
   45       -1.651354
   46       -1.563502
   47       -1.478002
   48       -1.457933
   49       -1.282859
   50       -1.185466
   51       -1.050088
   52       -0.818387
   53        0.253131
   54        0.437227
   55        0.658657
   56        0.956656
   57        1.089431
   58        1.236924
   59        1.287138
   60        1.388771
   61        1.497707
   62        1.633174
   63        1.752707
   64        2.139696
   65        2.166496
   66        2.395568
   67        2.478866
   68        2.541932
 
  0.7692308E-01  0.2500000E+00  0.0000000E+00  0.1923077E-01
    1      -14.729392
    2      -13.526078
    3      -13.220972
    4      -13.069408
    5      -12.556453
    6      -12.451416
    7      -11.991870
    8      -11.883175
    9      -11.553333
   10      -11.211006
   11      -11.070948
   12      -10.201440
   13       -9.481974
   14       -8.690076
   15       -7.471410
   16       -7.166700
   17       -6.955730
   18       -6.797081
   19       -6.644529
   20       -6.560308
   21       -6.162418
   22       -5.812307
   23       -5.247812
   24       -4.803891
   25       -4.377318
   26       -4.210668
   27       -4.103966
   28       -3.838019
   29       -3.722675
   30       -3.517352
   31       -3.497423
   32       -3.390281
   33       -3.137347
   34       -2.940696
   35       -2.867291
   36       -2.803793
   37       -2.641962
   38       -2.579309
   39       -2.508482
   40       -2.401535
   41       -2.290188
   42       -2.184370
   43       -2.106431
   44       -1.951997
   45       -1.873730
   46       -1.856506
   47       -1.545370
   48       -1.412984
   49       -1.228218
   50       -1.096394
   51       -1.002551
   52       -0.772693
   53        0.315254
   54        0.488321
   55        0.800807
   56        1.085925
   57        1.216996
   58        1.457489
   59        1.497221
   60        1.561892
   61        1.689217
   62        1.862366
   63        2.118268
   64        2.411760
   65        2.530983
   66        2.540651
   67        2.640395
   68        2.800479
 
  0.1538462E+00  0.2500000E+00  0.0000000E+00  0.1923077E-01
    1      -14.566166
    2      -13.329743
    3      -13.060463
    4      -12.932716
    5      -12.388989
    6      -12.270623
    7      -11.862754
    8      -11.686787
    9      -11.414005
   10      -11.040266
   11      -10.929761
   12      -10.178934
   13       -9.425986
   14       -8.755708
   15       -7.514335
   16       -7.421303
   17       -6.956324
   18       -6.776990
   19       -6.734576
   20       -6.603150
   21       -6.113672
   22       -5.764419
   23       -5.289296
   24       -4.963831
   25       -4.910754
   26       -4.497984
   27       -4.414054
   28       -4.225457
   29       -4.090222
   30       -3.910022
   31       -3.798458
   32       -3.722457
   33       -3.527107
   34       -3.289946
   35       -3.194246
   36       -3.077378
   37       -3.042469
   38       -2.919160
   39       -2.838636
   40       -2.719438
   41       -2.644949
   42       -2.433434
   43       -2.423242
   44       -2.220702
   45       -2.037625
   46       -1.992962
   47       -1.620257
   48       -1.444694
   49       -1.264334
   50       -1.070034
   51       -1.007268
   52       -0.433864
   53        0.320987
   54        0.388028
   55        0.620944
   56        0.977678
   57        1.237780
   58        1.551787
   59        1.656155
   60        1.995078
   61        2.110743
   62        2.247250
   63        2.311363
   64        2.607865
   65        2.671909
   66        2.795926
   67        2.958389
   68        3.005336
 
  0.2307692E+00  0.2500000E+00  0.0000000E+00  0.1923077E-01
    1      -14.301489
    2      -13.018647
    3      -12.794896
    4      -12.681096
    5      -12.120831
    6      -12.001002
    7      -11.639876
    8      -11.410646
    9      -11.192338
   10      -10.795232
   11      -10.712564
   12      -10.196532
   13       -9.348039
   14       -8.887082
   15       -8.164577
   16       -7.514267
   17       -6.960035
   18       -6.814412
   19       -6.775483
   20       -6.708941
   21       -6.222372
   22       -5.936084
   23       -5.661377
   24       -5.422702
   25       -5.326336
   26       -5.142223
   27       -4.786846
   28       -4.674982
   29       -4.557477
   30       -4.294803
   31       -4.177315
   32       -4.091120
   33       -3.853748
   34       -3.617625
   35       -3.411427
   36       -3.316770
   37       -3.232214
   38       -3.202371
   39       -2.936197
   40       -2.772362
   41       -2.697111
   42       -2.638780
   43       -2.462866
   44       -2.257901
   45       -2.105718
   46       -1.994016
   47       -1.887350
   48       -1.524917
   49       -1.504927
   50       -1.183834
   51       -1.057450
   52       -0.224559
   53       -0.097898
   54        0.151677
   55        0.448200
   56        0.953127
   57        1.220106
   58        1.369153
   59        1.488046
   60        1.623125
   61        1.791462
   62        2.009349
   63        2.179332
   64        2.478643
   65        2.577109
   66        2.646075
   67        2.924790
   68        3.154437
 
  0.3076923E+00  0.2500000E+00  0.0000000E+00  0.1923077E-01
    1      -13.949912
    2      -12.602394
    3      -12.444591
    4      -12.321743
    5      -11.770636
    6      -11.686015
    7      -11.345676
    8      -11.097484
    9      -10.928759
   10      -10.583415
   11      -10.507755
   12      -10.253568
   13       -9.296660
   14       -9.086394
   15       -8.762485
   16       -7.826076
   17       -7.236982
   18       -7.219339
   19       -7.081176
   20       -6.922257
   21       -6.540901
   22       -6.304627
   23       -6.059422
   24       -6.035514
   25       -5.678077
   26       -5.491380
   27       -5.057521
   28       -4.974503
   29       -4.570192
   30       -4.538066
   31       -4.435759
   32       -4.316476
   33       -4.122890
   34       -3.665074
   35       -3.454970
   36       -3.275017
   37       -3.233433
   38       -3.119391
   39       -2.989510
   40       -2.860780
   41       -2.790034
   42       -2.604048
   43       -2.509645
   44       -2.418634
   45       -2.311173
   46       -2.074876
   47       -1.989343
   48       -1.858319
   49       -1.626620
   50       -1.427360
   51       -1.094722
   52       -0.642391
   53       -0.282265
   54       -0.068796
   55        0.353271
   56        0.780826
   57        1.074540
   58        1.136853
   59        1.268257
   60        1.351236
   61        1.654509
   62        1.841925
   63        2.073643
   64        2.208855
   65        2.345904
   66        2.512607
   67        2.589810
   68        2.860824
 
  0.3846154E+00  0.2500000E+00  0.0000000E+00  0.1923077E-01
    1      -13.547839
    2      -12.103258
    3      -12.079831
    4      -11.871351
    5      -11.462722
    6      -11.367410
    7      -11.038289
    8      -10.840217
    9      -10.718575
   10      -10.653372
   11      -10.583286
   12      -10.065186
   13       -9.371964
   14       -9.198909
   15       -9.075901
   16       -8.229637
   17       -7.894317
   18       -7.657389
   19       -7.477232
   20       -7.213270
   21       -6.933515
   22       -6.813988
   23       -6.771913
   24       -6.522845
   25       -5.597840
   26       -5.456637
   27       -5.047363
   28       -4.899992
   29       -4.827307
   30       -4.528379
   31       -4.239920
   32       -4.123754
   33       -3.976393
   34       -3.674541
   35       -3.465609
   36       -3.400050
   37       -3.298583
   38       -3.234205
   39       -3.150840
   40       -3.034847
   41       -2.928279
   42       -2.751199
   43       -2.550109
   44       -2.407102
   45       -2.364622
   46       -2.250562
   47       -2.182451
   48       -1.970470
   49       -1.686000
   50       -1.563555
   51       -1.279352
   52       -0.959776
   53       -0.560843
   54       -0.034053
   55        0.276912
   56        0.613552
   57        1.038080
   58        1.120554
   59        1.176355
   60        1.258818
   61        1.526801
   62        1.687956
   63        1.739629
   64        1.945298
   65        2.077433
   66        2.464711
   67        2.556343
   68        2.589683
 
  0.4615385E+00  0.2500000E+00  0.0000000E+00  0.1923077E-01
    1      -13.208436
    2      -11.970456
    3      -11.549508
    4      -11.375775
    5      -11.311861
    6      -11.082456
    7      -10.980020
    8      -10.843383
    9      -10.813206
   10      -10.698288
   11      -10.663895
   12       -9.836548
   13       -9.629848
   14       -9.397903
   15       -8.669405
   16       -8.514878
   17       -8.446227
   18       -7.896940
   19       -7.636416
   20       -7.435025
   21       -7.364230
   22       -7.296726
   23       -7.248939
   24       -6.795754
   25       -5.468862
   26       -5.156600
   27       -5.125244
   28       -4.626447
   29       -4.558253
   30       -4.291937
   31       -4.264658
   32       -4.050589
   33       -3.992394
   34       -3.835528
   35       -3.770541
   36       -3.615894
   37       -3.568357
   38       -3.372185
   39       -3.111173
   40       -2.936362
   41       -2.895353
   42       -2.758801
   43       -2.712036
   44       -2.606612
   45       -2.383972
   46       -2.275523
   47       -2.228484
   48       -1.848536
   49       -1.782378
   50       -1.657980
   51       -1.485860
   52       -1.059009
   53       -0.694428
   54        0.047845
   55        0.286523
   56        0.512882
   57        1.064066
   58        1.108667
   59        1.305315
   60        1.396318
   61        1.445725
   62        1.475624
   63        1.685249
   64        1.794906
   65        2.040265
   66        2.315504
   67        2.371879
   68        2.430484
 
 -0.4615385E+00  0.2500000E+00  0.0000000E+00  0.1923077E-01
    1      -13.209442
    2      -11.968979
    3      -11.652118
    4      -11.297528
    5      -11.183557
    6      -11.058107
    7      -10.921978
    8      -10.875096
    9      -10.851436
   10      -10.817358
   11      -10.671122
   12       -9.872223
   13       -9.607496
   14       -9.385146
   15       -8.871162
   16       -8.551543
   17       -8.060583
   18       -7.878095
   19       -7.723070
   20       -7.456344
   21       -7.395562
   22       -7.333974
   23       -7.234105
   24       -6.773642
   25       -5.425648
   26       -5.174177
   27       -4.867385
   28       -4.700313
   29       -4.559491
   30       -4.422042
   31       -4.190982
   32       -4.105355
   33       -4.081190
   34       -3.998584
   35       -3.822040
   36       -3.749993
   37       -3.533878
   38       -3.467944
   39       -2.977031
   40       -2.885759
   41       -2.831055
   42       -2.788747
   43       -2.575584
   44       -2.504496
   45       -2.467241
   46       -2.283400
   47       -2.232064
   48       -1.929368
   49       -1.803998
   50       -1.605797
   51       -1.455358
   52       -1.089916
   53       -0.700760
   54        0.078545
   55        0.295692
   56        0.553071
   57        1.096495
   58        1.218899
   59        1.282718
   60        1.415242
   61        1.537452
   62        1.663205
   63        1.699948
   64        1.906139
   65        2.149538
   66        2.266465
   67        2.418207
   68        2.513041
 
 -0.3846154E+00  0.2500000E+00  0.0000000E+00  0.1923077E-01
    1      -13.550402
    2      -12.218994
    3      -12.058084
    4      -11.598081
    5      -11.494242
    6      -11.366129
    7      -11.051374
    8      -11.017332
    9      -10.743186
   10      -10.678349
   11      -10.566649
   12      -10.065861
   13       -9.371874
   14       -9.193259
   15       -8.857192
   16       -8.608476
   17       -7.579500
   18       -7.554954
   19       -7.445566
   20       -7.327857
   21       -6.924149
   22       -6.916146
   23       -6.785182
   24       -6.488328
   25       -5.537173
   26       -5.192686
   27       -5.030836
   28       -4.958459
   29       -4.750859
   30       -4.513852
   31       -4.374839
   32       -4.265759
   33       -4.207936
   34       -3.843329
   35       -3.617774
   36       -3.521661
   37       -3.367403
   38       -3.286375
   39       -3.113666
   40       -2.875625
   41       -2.810566
   42       -2.632442
   43       -2.594227
   44       -2.461077
   45       -2.351172
   46       -2.202357
   47       -2.056888
   48       -1.941575
   49       -1.686535
   50       -1.511349
   51       -1.310458
   52       -1.052587
   53       -0.582927
   54        0.044108
   55        0.339628
   56        0.672676
   57        1.108857
   58        1.290647
   59        1.385412
   60        1.585911
   61        1.679502
   62        1.779732
   63        1.957075
   64        2.021546
   65        2.192512
   66        2.315564
   67        2.493362
   68        2.624672
 
 -0.3076923E+00  0.2500000E+00  0.0000000E+00  0.1923077E-01
    1      -13.953163
    2      -12.712961
    3      -12.402247
    4      -12.060758
    5      -11.815125
    6      -11.755043
    7      -11.359229
    8      -11.177904
    9      -10.888089
   10      -10.805522
   11      -10.536828
   12      -10.129467
   13       -9.261579
   14       -8.796999
   15       -8.670631
   16       -8.304750
   17       -7.145601
   18       -7.120789
   19       -7.013074
   20       -6.987170
   21       -6.448948
   22       -6.270762
   23       -6.226254
   24       -6.091840
   25       -5.572611
   26       -5.265810
   27       -5.020714
   28       -4.888411
   29       -4.753698
   30       -4.557896
   31       -4.426032
   32       -4.354028
   33       -4.310269
   34       -3.670594
   35       -3.569789
   36       -3.412589
   37       -3.254749
   38       -3.187483
   39       -3.058580
   40       -2.877245
   41       -2.710687
   42       -2.688001
   43       -2.509252
   44       -2.401872
   45       -2.136475
   46       -1.992210
   47       -1.973890
   48       -1.818261
   49       -1.538347
   50       -1.422620
   51       -1.097818
   52       -0.798989
   53       -0.315354
   54       -0.047179
   55        0.455892
   56        0.869782
   57        1.163942
   58        1.481096
   59        1.544729
   60        1.774618
   61        1.848297
   62        1.887152
   63        1.991552
   64        2.185689
   65        2.283824
   66        2.569528
   67        2.630775
   68        2.760417
 
 -0.2307692E+00  0.2500000E+00  0.0000000E+00  0.1923077E-01
    1      -14.304580
    2      -13.108249
    3      -12.753911
    4      -12.465423
    5      -12.146998
    6      -12.093804
    7      -11.654180
    8      -11.476626
    9      -11.144950
   10      -10.971834
   11      -10.714823
   12      -10.118165
   13       -9.294063
   14       -8.515081
   15       -8.188961
   16       -7.900672
   17       -6.985794
   18       -6.822723
   19       -6.755885
   20       -6.676841
   21       -6.212867
   22       -5.853512
   23       -5.827629
   24       -5.451278
   25       -5.304528
   26       -4.947100
   27       -4.720047
   28       -4.636614
   29       -4.516417
   30       -4.322716
   31       -4.249439
   32       -4.038892
   33       -3.889651
   34       -3.670077
   35       -3.562288
   36       -3.484650
   37       -3.276142
   38       -3.109054
   39       -3.062928
   40       -2.763970
   41       -2.667444
   42       -2.549277
   43       -2.433961
   44       -2.258922
   45       -2.008708
   46       -1.937448
   47       -1.856905
   48       -1.583275
   49       -1.472181
   50       -1.221836
   51       -1.029184
   52       -0.282825
   53       -0.163750
   54        0.099547
   55        0.530851
   56        1.036743
   57        1.260684
   58        1.642689
   59        1.717256
   60        1.883175
   61        1.966114
   62        2.065212
   63        2.173973
   64        2.319424
   65        2.603825
   66        2.742279
   67        2.807728
   68        2.870052
 
 -0.1538462E+00  0.2500000E+00  0.0000000E+00  0.1923077E-01
    1      -14.568550
    2      -13.392101
    3      -13.029496
    4      -12.780679
    5      -12.404763
    6      -12.345083
    7      -11.871260
    8      -11.742105
    9      -11.377709
   10      -11.149943
   11      -10.917181
   12      -10.145857
   13       -9.376653
   14       -8.494913
   15       -7.660526
   16       -7.487042
   17       -7.014322
   18       -6.822103
   19       -6.693031
   20       -6.659962
   21       -6.161446
   22       -5.805300
   23       -5.238866
   24       -4.966833
   25       -4.914679
   26       -4.404722
   27       -4.283011
   28       -4.209858
   29       -4.073718
   30       -3.933135
   31       -3.805879
   32       -3.710654
   33       -3.590698
   34       -3.395676
   35       -3.234790
   36       -3.131225
   37       -3.042324
   38       -3.011929
   39       -2.785720
   40       -2.647178
   41       -2.606817
   42       -2.400210
   43       -2.293529
   44       -2.200731
   45       -2.019997
   46       -1.888729
   47       -1.726234
   48       -1.479295
   49       -1.311685
   50       -1.068149
   51       -1.010381
   52       -0.491106
   53        0.350462
   54        0.380023
   55        0.585134
   56        0.994446
   57        1.273832
   58        1.574262
   59        1.684540
   60        2.055939
   61        2.168609
   62        2.366080
   63        2.438920
   64        2.591820
   65        2.678612
   66        2.752191
   67        2.857619
   68        3.013818
 
 -0.7692308E-01  0.2500000E+00  0.0000000E+00  0.1923077E-01
    1      -14.730672
    2      -13.557955
    3      -13.204493
    4      -12.991116
    5      -12.563969