       N       E                     dE             d eps       ncg     rms          rms(c)
DAV:   1     0.545692833301E+03    0.54569E+03   -0.28772E+04  7368   0.790E+02
DAV:   2    -0.210100760302E+02   -0.56670E+03   -0.55140E+03  9808   0.191E+02
DAV:   3    -0.817448694444E+02   -0.60735E+02   -0.59657E+02  9464   0.639E+01
DAV:   4    -0.847944859404E+02   -0.30496E+01   -0.30163E+01 11304   0.147E+01
DAV:   5    -0.848621936267E+02   -0.67708E-01   -0.67528E-01 10640   0.222E+00    0.140E+01
DAV:   6    -0.795370280465E+02    0.53252E+01   -0.36441E+01  9192   0.141E+01    0.691E+00
DAV:   7    -0.790790715905E+02    0.45796E+00   -0.16853E+01  8576   0.938E+00    0.392E+00
DAV:   8    -0.791118647012E+02   -0.32793E-01   -0.23745E+00  8520   0.407E+00    0.196E+00
DAV:   9    -0.791135910401E+02   -0.17263E-02   -0.67900E-01  9352   0.209E+00    0.108E+00
DAV:  10    -0.790994815049E+02    0.14110E-01   -0.39811E-01  8824   0.138E+00    0.507E-01
DAV:  11    -0.790873654460E+02    0.12116E-01   -0.61426E-02  9328   0.719E-01    0.251E-01
DAV:  12    -0.790788908076E+02    0.84746E-02   -0.19042E-02  9248   0.340E-01    0.136E-01
DAV:  13    -0.790722637083E+02    0.66271E-02   -0.34690E-03  9432   0.166E-01    0.502E-02
DAV:  14    -0.790678100898E+02    0.44536E-02   -0.73678E-04  9176   0.795E-02    0.258E-02
DAV:  15    -0.790653882478E+02    0.24218E-02   -0.20367E-04 10000   0.402E-02    0.149E-02
DAV:  16    -0.790646132612E+02    0.77499E-03   -0.54256E-05  9128   0.237E-02    0.805E-03
DAV:  17    -0.790645755021E+02    0.37759E-04   -0.61593E-05  8064   0.201E-02    0.540E-03
DAV:  18    -0.790650925991E+02   -0.51710E-03   -0.11503E-04  8144   0.215E-02    0.293E-03
DAV:  19    -0.790653404395E+02   -0.24784E-03   -0.95500E-05  7672   0.160E-02    0.182E-03
DAV:  20    -0.790653903487E+02   -0.49909E-04   -0.28397E-05  7168   0.113E-02    0.104E-03
DAV:  21    -0.790654054083E+02   -0.15060E-04   -0.70940E-06  6184   0.639E-03    0.700E-04
DAV:  22    -0.790653971194E+02    0.82889E-05   -0.26337E-05  7244   0.903E-03    0.500E-04
DAV:  23    -0.790653627011E+02    0.34418E-04   -0.17260E-05  6504   0.103E-02    0.275E-04
DAV:  24    -0.790653018790E+02    0.60822E-04   -0.92414E-06  6804   0.743E-03    0.149E-04
DAV:  25    -0.790652898029E+02    0.12076E-04   -0.86462E-06  6324   0.860E-03    0.662E-05
DAV:  26    -0.790652765560E+02    0.13247E-04   -0.44372E-06  6528   0.704E-03    0.362E-05
DAV:  27    -0.790652745591E+02    0.19969E-05   -0.32247E-06  5744   0.588E-03    0.164E-05
DAV:  28    -0.790652729033E+02    0.16558E-05   -0.10959E-06  5272   0.430E-03    0.978E-06
DAV:  29    -0.790652729317E+02   -0.28387E-07   -0.80607E-07  5316   0.370E-03
   1 F= -.79065273E+02 E0= -.79041576E+02  d E =-.473947E-01
