 vasp.5.3.5 31Mar14 (build Oct 29 2014 16:16:03) complex                        
  
 executed on          Linux-UFHPC date 2016.02.09  18:17:47
 running on    8 total cores
 distrk:  each k-point on    8 cores,    1 groups
 distr:  one band on NCORES_PER_BAND=   2 cores,    4 groups


--------------------------------------------------------------------------------------------------------


 INCAR:
 POTCAR:    PAW_PBE P 17Jan2003                   
 POTCAR:   PAW_PBE Si 05Jan2001                   

 ----------------------------------------------------------------------------- 
|                                                                             |
|  ADVICE TO THIS USER RUNNING 'VASP/VAMP'   (HEAR YOUR MASTER'S VOICE ...):  |
|                                                                             |
|      You have switched on vdW-DFT.                                          |
|      This routine was written and supplied by Jiri Klimes.                  |
|      We recommed that you carefully read and cite the following             |
|      publication                                                            |
|      J. Klimes, D.R. Bowler, A. Michelides                                  |
|        J. Phys.: Cond Matt. 22 022201 (2010)                                |
|      J. Klimes, D.R. Bowler, A. Michelides                                  |
|        Phys. Rev. B. 83, 195131 (2011)                                      |
|      and references therein.                                                |
|                                                                             |
 ----------------------------------------------------------------------------- 

 POTCAR:    PAW_PBE P 17Jan2003                   
   VRHFIN =P : s2p3                                                             
   LEXCH  = PE                                                                  
   EATOM  =   176.0430 eV,   12.9388 Ry                                         
                                                                                
   TITEL  = PAW_PBE P 17Jan2003                                                 
   LULTRA =        F    use ultrasoft PP ?                                      
   IUNSCR =        1    unscreen: 0-lin 1-nonlin 2-no                           
   RPACOR =    1.500    partial core radius                                     
   POMASS =   30.974; ZVAL   =    5.000    mass and valenz                      
   RCORE  =    1.900    outmost cutoff radius                                   
   RWIGS  =    2.330; RWIGS  =    1.233    wigner-seitz radius (au A)           
   ENMAX  =  270.000; ENMIN  =  191.280 eV                                      
   ICORE  =        2    local potential                                         
   LCOR   =        T    correct aug charges                                     
   LPAW   =        T    paw PP                                                  
   EAUG   =  342.924                                                            
   DEXC   =    -.002                                                            
   RMAX   =    2.887    core radius for proj-oper                               
   RAUG   =    1.300    factor for augmentation sphere                          
   RDEP   =    1.931    radius for radial grids                                 
   QCUT   =   -4.330; QGAM   =    8.659    optimization parameters              
                                                                                
   Description                                                                  
     l     E      TYP  RCUT    TYP  RCUT                                        
     0   .000     23  1.900                                                     
     0   .000     23  1.900                                                     
     1   .000     23  1.900                                                     
     1   .000     23  1.900                                                     
     2   .000     23  1.900                                                     
  local pseudopotential read in
  partial core-charges read in
  atomic valenz-charges read in
  non local Contribution for L=           0  read in
    real space projection operators read in
  non local Contribution for L=           0  read in
    real space projection operators read in
  non local Contribution for L=           1  read in
    real space projection operators read in
  non local Contribution for L=           1  read in
    real space projection operators read in
    PAW grid and wavefunctions read in
 
   number of l-projection  operators is LMAX  =           4
   number of lm-projection operators is LMMAX =           8
 
 POTCAR:   PAW_PBE Si 05Jan2001                   
   VRHFIN =Si: s2p2                                                             
   LEXCH  = PE                                                                  
   EATOM  =   103.0669 eV,    7.5752 Ry                                         
                                                                                
   TITEL  = PAW_PBE Si 05Jan2001                                                
   LULTRA =        F    use ultrasoft PP ?                                      
   IUNSCR =        1    unscreen: 0-lin 1-nonlin 2-no                           
   RPACOR =    1.500    partial core radius                                     
   POMASS =   28.085; ZVAL   =    4.000    mass and valenz                      
   RCORE  =    1.900    outmost cutoff radius                                   
   RWIGS  =    2.480; RWIGS  =    1.312    wigner-seitz radius (au A)           
   ENMAX  =  245.345; ENMIN  =  184.009 eV                                      
   ICORE  =        2    local potential                                         
   LCOR   =        T    correct aug charges                                     
   LPAW   =        T    paw PP                                                  
   EAUG   =  322.069                                                            
   DEXC   =    -.007                                                            
   RMAX   =    2.944    core radius for proj-oper                               
   RAUG   =    1.300    factor for augmentation sphere                          
   RDEP   =    1.993    radius for radial grids                                 
   QCUT   =   -4.246; QGAM   =    8.493    optimization parameters              
                                                                                
   Description                                                                  
     l     E      TYP  RCUT    TYP  RCUT                                        
     0   .000     23  1.900                                                     
     0   .000     23  1.900                                                     
     1   .000     23  1.900                                                     
     1   .000     23  1.900                                                     
     2   .000      7  1.900                                                     
  local pseudopotential read in
  partial core-charges read in
  atomic valenz-charges read in
  non local Contribution for L=           0  read in
    real space projection operators read in
  non local Contribution for L=           0  read in
    real space projection operators read in
  non local Contribution for L=           1  read in
    real space projection operators read in
  non local Contribution for L=           1  read in
    real space projection operators read in
    PAW grid and wavefunctions read in
 
   number of l-projection  operators is LMAX  =           4
   number of lm-projection operators is LMMAX =           8
 
 Optimization of the real space projectors (new method)

 maximal supplied QI-value         = 19.84
 optimisation between [QCUT,QGAM] = [  8.73, 17.66] = [ 21.34, 87.33] Ry 
 Optimized for a Real-space Cutoff    1.50 Angstroem

   l    n(q)    QCUT    max X(q) W(low)/X(q) W(high)/X(q)  e(spline) 
   0      8     8.731     6.651    0.16E-04    0.15E-04    0.77E-08
   0      8     8.731    90.285    0.16E-03    0.90E-04    0.16E-06
   1      7     8.731     4.328    0.47E-04    0.36E-04    0.45E-07
   1      7     8.731    54.583    0.13E-03    0.39E-03    0.20E-06
 Optimization of the real space projectors (new method)

 maximal supplied QI-value         = 19.84
 optimisation between [QCUT,QGAM] = [  8.73, 17.66] = [ 21.34, 87.33] Ry 
 Optimized for a Real-space Cutoff    1.46 Angstroem

   l    n(q)    QCUT    max X(q) W(low)/X(q) W(high)/X(q)  e(spline) 
   0      8     8.731     8.708    0.16E-04    0.11E-04    0.68E-08
   0      8     8.731   106.241    0.24E-03    0.77E-04    0.13E-06
   1      7     8.731     5.901    0.34E-04    0.38E-04    0.36E-07
   1      7     8.731    73.241    0.12E-03    0.39E-03    0.15E-06

 ----------------------------------------------------------------------------- 
|                                                                             |
|  ADVICE TO THIS USER RUNNING 'VASP/VAMP'   (HEAR YOUR MASTER'S VOICE ...):  |
|                                                                             |
|      You enforced a specific xc-type in the INCAR file,                     |
|      a different type was found on the POTCAR file                          |
|          I HOPE YOU KNOW, WHAT YOU ARE  DOING                               |
|                                                                             |
 ----------------------------------------------------------------------------- 

  PAW_PBE P 17Jan2003                   :
 energy of atom  1       EATOM= -176.0430
 kinetic energy error for atom=    0.0040 (will be added to EATOM!!)
 PAW_PBE Si 05Jan2001                   :
 energy of atom  2       EATOM= -103.0669
 kinetic energy error for atom=    0.0021 (will be added to EATOM!!)
 
 
 POSCAR: Si12                                    
  positions in direct lattice
  No initial velocities read in
 exchange correlation table for  LEXCH =       42
   RHO(1)=    0.500       N(1)  =     2000
   RHO(2)=  100.500       N(2)  =     4000
 


--------------------------------------------------------------------------------------------------------


 ion  position               nearest neighbor table
   1  0.114  0.228  0.233-  15 2.28  21 2.29  21 2.29
   2  0.714  0.628  0.515-  16 2.28  22 2.29  22 2.29
   3  0.458  0.916  0.209-  21 2.28  13 2.30  13 2.30
   4  0.058  0.316  0.491-  22 2.28  14 2.30  14 2.30
   5  0.311  0.622  0.084-  17 2.28  23 2.30  23 2.30
   6  0.311  0.622  0.366-  18 2.28
   7  0.999  0.998  0.086-  19 2.29  19 2.29  13 2.32
   8  0.999  0.998  0.368-  24 2.06  20 2.29  20 2.29  24 2.60
   9  0.655  0.310  0.060-  19 2.28  17 2.29  17 2.29
  10  0.655  0.310  0.342-  20 2.28  18 2.29  18 2.29  14 2.72
  11  0.770  0.539  0.207-  15 2.29  15 2.29  23 2.32
  12  0.370  0.939  0.489-  16 2.29  16 2.29  24 2.32
  13  0.940  0.879  0.158-   3 2.30   3 2.30   7 2.32  23 2.35
  14  0.540  0.279  0.440-  20 2.11   4 2.30   4 2.30  24 2.35  18 2.49  10 2.72  18 2.95
  15  0.205  0.410  0.186-   1 2.28  11 2.29  11 2.29  17 2.37
  16  0.805  0.810  0.468-   2 2.28  12 2.29  12 2.29
  17  0.202  0.404  0.100-   5 2.28   9 2.29   9 2.29  15 2.37
  18  0.202  0.404  0.382-   6 2.28  10 2.29  10 2.29  14 2.49  22 2.94  14 2.95
  19  0.564  0.128  0.108-   9 2.28   7 2.29   7 2.29  21 2.37
  20  0.564  0.128  0.390-  24 1.11  14 2.11  10 2.28   8 2.29   8 2.29
  21  0.567  0.134  0.194-   3 2.28   1 2.29   1 2.29  19 2.37
  22  0.167  0.534  0.476-   4 2.28   2 2.29   2 2.29  18 2.94
  23  0.829  0.658  0.136-   5 2.30   5 2.30  11 2.32  13 2.35
  24  0.429  0.058  0.418-  20 1.11   8 2.06  12 2.32  14 2.35   8 2.60
 

 ----------------------------------------------------------------------------- 
|                                                                             |
|           W    W    AA    RRRRR   N    N  II  N    N   GGGG   !!!           |
|           W    W   A  A   R    R  NN   N  II  NN   N  G    G  !!!           |
|           W    W  A    A  R    R  N N  N  II  N N  N  G       !!!           |
|           W WW W  AAAAAA  RRRRR   N  N N  II  N  N N  G  GGG   !            |
|           WW  WW  A    A  R   R   N   NN  II  N   NN  G    G                |
|           W    W  A    A  R    R  N    N  II  N    N   GGGG   !!!           |
|                                                                             |
|      The distance between some ions is very small                           |
|      please check the nearest neigbor list in the OUTCAR file               |
|          I HOPE YOU KNOW, WHAT YOU ARE  DOING                               |
|                                                                             |
 ----------------------------------------------------------------------------- 

  LATTYP: Found a base centered orthorhombic cell.
 ALAT       =     3.5404000000
 B/A-ratio  =     5.8153587165
 C/A-ratio  =     7.7678875268
  
  Lattice vectors:
  
 A1 = (   1.7702000000,  10.2943480000,   0.0000000000)
 A2 = (   1.7702000000, -10.2943480000,   0.0000000000)
 A3 = (   0.0000000000,   0.0000000000, -27.5014290000)


Analysis of symmetry for initial positions (statically):
=====================================================================
 Subroutine PRICEL returns:
 Original cell was already a primitive cell.
 

 Routine SETGRP: Setting up the symmetry group for a 
 base centered orthorhombic supercell.


 Subroutine GETGRP returns: Found  1 space group operations
 (whereof  1 operations were pure point group operations)
 out of a pool of  8 trial point group operations.


The static configuration has the point symmetry C_1 .


Analysis of symmetry for dynamics (positions and initial velocities):
=====================================================================
 Subroutine PRICEL returns:
 Original cell was already a primitive cell.
 

 Routine SETGRP: Setting up the symmetry group for a 
 base centered orthorhombic supercell.


 Subroutine GETGRP returns: Found  1 space group operations
 (whereof  1 operations were pure point group operations)
 out of a pool of  8 trial point group operations.


The dynamic configuration has the point symmetry C_1 .
 
 
 KPOINTS: pymatgen generated KPOINTS with grid den

Automatic generation of k-mesh.
Space group operators:
 irot       det(A)        alpha          n_x          n_y          n_z        tau_x        tau_y        tau_z
    1     1.000000     0.000000     1.000000     0.000000     0.000000     0.000000     0.000000     0.000000
 
 Subroutine IBZKPT returns following result:
 ===========================================
 
 Found     54 irreducible k-points:
 
 Following reciprocal coordinates:
            Coordinates               Weight
  0.000000  0.000000  0.000000      1.000000
  0.076923 -0.000000  0.000000      2.000000
  0.153846 -0.000000  0.000000      2.000000
  0.230769 -0.000000  0.000000      2.000000
  0.307692 -0.000000  0.000000      2.000000
  0.384615 -0.000000  0.000000      2.000000
  0.461538 -0.000000  0.000000      2.000000
  0.000000  0.250000  0.000000      2.000000
  0.076923  0.250000  0.000000      2.000000
  0.153846  0.250000  0.000000      2.000000
  0.230769  0.250000  0.000000      2.000000
  0.307692  0.250000  0.000000      2.000000
  0.384615  0.250000  0.000000      2.000000
  0.461538  0.250000  0.000000      2.000000
 -0.461538  0.250000  0.000000      2.000000
 -0.384615  0.250000  0.000000      2.000000
 -0.307692  0.250000  0.000000      2.000000
 -0.230769  0.250000  0.000000      2.000000
 -0.153846  0.250000  0.000000      2.000000
 -0.076923  0.250000  0.000000      2.000000
  0.000000  0.500000  0.000000      1.000000
  0.076923  0.500000  0.000000      2.000000
  0.153846  0.500000  0.000000      2.000000
  0.230769  0.500000  0.000000      2.000000
  0.307692  0.500000  0.000000      2.000000
  0.384615  0.500000  0.000000      2.000000
  0.461538  0.500000  0.000000      2.000000
  0.000000  0.000000  0.500000      1.000000
  0.076923 -0.000000  0.500000      2.000000
  0.153846 -0.000000  0.500000      2.000000
  0.230769 -0.000000  0.500000      2.000000
  0.307692 -0.000000  0.500000      2.000000
  0.384615 -0.000000  0.500000      2.000000
  0.461538 -0.000000  0.500000      2.000000
  0.000000  0.250000  0.500000      2.000000
  0.076923  0.250000  0.500000      2.000000
  0.153846  0.250000  0.500000      2.000000
  0.230769  0.250000  0.500000      2.000000
  0.307692  0.250000  0.500000      2.000000
  0.384615  0.250000  0.500000      2.000000
  0.461538  0.250000  0.500000      2.000000
 -0.461538  0.250000  0.500000      2.000000
 -0.384615  0.250000  0.500000      2.000000
 -0.307692  0.250000  0.500000      2.000000
 -0.230769  0.250000  0.500000      2.000000
 -0.153846  0.250000  0.500000      2.000000
 -0.076923  0.250000  0.500000      2.000000
  0.000000  0.500000  0.500000      1.000000
  0.076923  0.500000  0.500000      2.000000
  0.153846  0.500000  0.500000      2.000000
  0.230769  0.500000  0.500000      2.000000
  0.307692  0.500000  0.500000      2.000000
  0.384615  0.500000  0.500000      2.000000
  0.461538  0.500000  0.500000      2.000000
 
 Following cartesian coordinates:
            Coordinates               Weight
  0.000000  0.000000  0.000000      1.000000
  0.021727  0.003736  0.000000      2.000000
  0.043454  0.007472  0.000000      2.000000
  0.065182  0.011209  0.000000      2.000000
  0.086909  0.014945  0.000000      2.000000
  0.108636  0.018681  0.000000      2.000000
  0.130363  0.022417  0.000000      2.000000
  0.000000  0.024285  0.000000      2.000000
  0.021727  0.028021  0.000000      2.000000
  0.043454  0.031758  0.000000      2.000000
  0.065182  0.035494  0.000000      2.000000
  0.086909  0.039230  0.000000      2.000000
  0.108636  0.042966  0.000000      2.000000
  0.130363  0.046702  0.000000      2.000000
 -0.130363  0.001868  0.000000      2.000000
 -0.108636  0.005604  0.000000      2.000000
 -0.086909  0.009340  0.000000      2.000000
 -0.065182  0.013077  0.000000      2.000000
 -0.043454  0.016813  0.000000      2.000000
 -0.021727  0.020549  0.000000      2.000000
  0.000000  0.048570  0.000000      1.000000
  0.021727  0.052307  0.000000      2.000000
  0.043454  0.056043  0.000000      2.000000
  0.065182  0.059779  0.000000      2.000000
  0.086909  0.063515  0.000000      2.000000
  0.108636  0.067251  0.000000      2.000000
  0.130363  0.070987  0.000000      2.000000
  0.000000  0.000000  0.018181      1.000000
  0.021727  0.003736  0.018181      2.000000
  0.043454  0.007472  0.018181      2.000000
  0.065182  0.011209  0.018181      2.000000
  0.086909  0.014945  0.018181      2.000000
  0.108636  0.018681  0.018181      2.000000
  0.130363  0.022417  0.018181      2.000000
  0.000000  0.024285  0.018181      2.000000
  0.021727  0.028021  0.018181      2.000000
  0.043454  0.031758  0.018181      2.000000
  0.065182  0.035494  0.018181      2.000000
  0.086909  0.039230  0.018181      2.000000
  0.108636  0.042966  0.018181      2.000000
  0.130363  0.046702  0.018181      2.000000
 -0.130363  0.001868  0.018181      2.000000
 -0.108636  0.005604  0.018181      2.000000
 -0.086909  0.009340  0.018181      2.000000
 -0.065182  0.013077  0.018181      2.000000
 -0.043454  0.016813  0.018181      2.000000
 -0.021727  0.020549  0.018181      2.000000
  0.000000  0.048570  0.018181      1.000000
  0.021727  0.052307  0.018181      2.000000
  0.043454  0.056043  0.018181      2.000000
  0.065182  0.059779  0.018181      2.000000
  0.086909  0.063515  0.018181      2.000000
  0.108636  0.067251  0.018181      2.000000
  0.130363  0.070987  0.018181      2.000000
 


--------------------------------------------------------------------------------------------------------




 Dimension of arrays:
   k-points           NKPTS =     54   k-points in BZ     NKDIM =     54   number of bands    NBANDS=     68
   number of dos      NEDOS =    301   number of ions     NIONS =     24
   non local maximal  LDIM  =      4   non local SUM 2l+1 LMDIM =      8
   total plane-waves  NPLWV = 192000
   max r-space proj   IRMAX =   2772   max aug-charges    IRDMAX=   6603
   dimension x,y,z NGX =    20 NGY =   60 NGZ =  160
   dimension x,y,z NGXF=    40 NGYF=  120 NGZF=  320
   support grid    NGXF=    40 NGYF=  120 NGZF=  320
   ions per type =              12  12
 NGX,Y,Z   is equivalent  to a cutoff of   9.39,  9.55,  9.67 a.u.
 NGXF,Y,Z  is equivalent  to a cutoff of  18.78, 19.10, 19.34 a.u.


 I would recommend the setting:
   dimension x,y,z NGX =    20 NGY =   59 NGZ =  155
 SYSTEM =  unknown system                          
 POSCAR =  Si12                                    

 Startparameter for this run:
   NWRITE =      2    write-flag & timer
   PREC   = accura    normal or accurate (medium, high low for compatibility)
   ISTART =      0    job   : 0-new  1-cont  2-samecut
   ICHARG =      2    charge: 1-file 2-atom 10-const
   ISPIN  =      1    spin polarized calculation?
   LNONCOLLINEAR =      F non collinear calculations
   LSORBIT =      F    spin-orbit coupling
   INIWAV =      1    electr: 0-lowe 1-rand  2-diag
   LASPH  =      F    aspherical Exc in radial PAW
   METAGGA=      F    non-selfconsistent MetaGGA calc.

 Electronic Relaxation 1
   ENCUT  =  300.0 eV  22.05 Ry    4.70 a.u.   5.00 14.75 38.84*2*pi/ulx,y,z
   ENINI  =  300.0     initial cutoff
   ENAUG  =  342.9 eV  augmentation charge cutoff
   NELM   =     60;   NELMIN=  2; NELMDL= -5     # of ELM steps 
   EDIFF  = 0.1E-05   stopping-criterion for ELM
   LREAL  =      T    real-space projection
   NLSPLINE    = F    spline interpolate recip. space projectors
   LCOMPAT=      F    compatible to vasp.4.4
   GGA_COMPAT  = T    GGA compatible to vasp.4.4-vasp.4.6
   LMAXPAW     = -100 max onsite density
   LMAXMIX     =    2 max onsite mixed and CHGCAR
   VOSKOWN=      0    Vosko Wilk Nusair interpolation
   ROPT   =   -0.00025  -0.00025
 Ionic relaxation
   EDIFFG = 0.1E-04   stopping-criterion for IOM
   NSW    =      0    number of steps for IOM
   NBLOCK =      1;   KBLOCK =      1    inner block; outer block 
   IBRION =     -1    ionic relax: 0-MD 1-quasi-New 2-CG
   NFREE  =      1    steps in history (QN), initial steepest desc. (CG)
   ISIF   =      3    stress and relaxation
   IWAVPR =     10    prediction:  0-non 1-charg 2-wave 3-comb
   ISYM   =      2    0-nonsym 1-usesym 2-fastsym
   LCORR  =      T    Harris-Foulkes like correction to forces

   POTIM  = 0.5000    time-step for ionic-motion
   TEIN   =    0.0    initial temperature
   TEBEG  =    0.0;   TEEND  =   0.0 temperature during run
   SMASS  =  -3.00    Nose mass-parameter (am)
   estimated Nose-frequenzy (Omega)   =  0.10E-29 period in steps =****** mass=  -0.286E-27a.u.
   SCALEE = 1.0000    scale energy and forces
   NPACO  =    256;   APACO  = 16.0  distance and # of slots for P.C.
   PSTRESS=    0.0 pullay stress

  Mass of Ions in am
   POMASS =  30.97 28.09
  Ionic Valenz
   ZVAL   =   5.00  4.00
  Atomic Wigner-Seitz radii
   RWIGS  =  -1.00 -1.00
  virtual crystal weights 
   VCA    =   1.00  1.00
   NELECT =     108.0000    total number of electrons
   NUPDOWN=      -1.0000    fix difference up-down

 DOS related values:
   EMIN   =  10.00;   EMAX   =-10.00  energy-range for DOS
   EFERMI =   0.00
   ISMEAR =     0;   SIGMA  =   0.10  broadening in eV -4-tet -1-fermi 0-gaus

 Electronic relaxation 2 (details)
   IALGO  =     38    algorithm
   LDIAG  =      T    sub-space diagonalisation (order eigenvalues)
   LSUBROT=      F    optimize rotation matrix (better conditioning)
   TURBO    =      0    0=normal 1=particle mesh
   IRESTART =      0    0=no restart 2=restart with 2 vectors
   NREBOOT  =      0    no. of reboots
   NMIN     =      0    reboot dimension
   EREF     =   0.00    reference energy to select bands
   IMIX   =      4    mixing-type and parameters
     AMIX     =   0.40;   BMIX     =  1.00
     AMIX_MAG =   1.60;   BMIX_MAG =  1.00
     AMIN     =   0.10
     WC   =   100.;   INIMIX=   1;  MIXPRE=   1;  MAXMIX= -45

 Intra band minimization:
   WEIMIN = 0.0000     energy-eigenvalue tresh-hold
   EBREAK =  0.37E-08  absolut break condition
   DEPER  =   0.30     relativ break condition  

   TIME   =   0.40     timestep for ELM

  volume/ion in A,a.u.               =      41.76       281.83
  Fermi-wavevector in a.u.,A,eV,Ry     =   0.779018  1.472130  8.256946  0.606868
  Thomas-Fermi vector in A             =   1.882034
 
 Write flags
   LWAVE  =      F    write WAVECAR
   LCHARG =      F    write CHGCAR
   LVTOT  =      F    write LOCPOT, total local potential
   LVHAR  =      F    write LOCPOT, Hartree potential only
   LELF   =      F    write electronic localiz. function (ELF)
   LORBIT =      0    0 simple, 1 ext, 2 COOP (PROOUT)


 Dipole corrections
   LMONO  =      F    monopole corrections only (constant potential shift)
   LDIPOL =      F    correct potential (dipole corrections)
   IDIPOL =      0    1-x, 2-y, 3-z, 4-all directions 
   EPSILON=  1.0000000 bulk dielectric constant

 Exchange correlation treatment:
   GGA     =    BO    GGA type
   LEXCH   =    42    internal setting for exchange type
   VOSKOWN=      0    Vosko Wilk Nusair interpolation
   LHFCALC =     F    Hartree Fock is set to
   LHFONE  =     F    Hartree Fock one center treatment
   AEXX    =    0.0000 exact exchange contribution

 vdW DFT:
   LUSE_VDW   =     T    switch on vdW DFT
   Zab_VDW    =-.8491    correlation parameter
   PARAM1     =0.1833
   PARAM2     =0.2200
   PARAM3     =0.0000

 Linear response parameters
   LEPSILON=     F    determine dielectric tensor
   LRPA    =     F    only Hartree local field effects (RPA)
   LNABLA  =     F    use nabla operator in PAW spheres
   LVEL    =     F    velocity operator in full k-point grid
   LINTERFAST=   F  fast interpolation
   KINTER  =     0    interpolate to denser k-point grid
   CSHIFT  =0.1000    complex shift for real part using Kramers Kronig
   OMEGAMAX=  -1.0    maximum frequency
   DEG_THRESHOLD= 0.2000000E-02 threshold for treating states as degnerate
   RTIME   =    0.100 relaxation time in fs

 Orbital magnetization related:
   ORBITALMAG=     F  switch on orbital magnetization
   LCHIMAG   =     F  perturbation theory with respect to B field
   DQ        =  0.001000  dq finite difference perturbation B field



--------------------------------------------------------------------------------------------------------


 Static calculation
 charge density and potential will be updated during run
 non-spin polarized calculation
 Variant of blocked Davidson
 Davidson routine will perform the subspace rotation
 perform sub-space diagonalisation
    after iterative eigenvector-optimisation
 modified Broyden-mixing scheme, WC =      100.0
 initial mixing is a Kerker type mixing with AMIX =  0.4000 and BMIX =      1.0000
 Hartree-type preconditioning will be used
 using additional bands           14
 real space projection scheme for non local part
 use partial core corrections
 calculate Harris-corrections to forces 
   (improved forces if not selfconsistent)
 use gradient corrections 
 use of overlap-Matrix (Vanderbilt PP)
 Gauss-broadening in eV      SIGMA  =   0.10


--------------------------------------------------------------------------------------------------------


  energy-cutoff  :      300.00
  volume of cell :     1002.32
      direct lattice vectors                 reciprocal lattice vectors
     3.540400000  0.000000000  0.000000000     0.282453960  0.048570342  0.000000000
    -1.770200000 10.294348000  0.000000000     0.000000000  0.097140683  0.000000000
     0.000000000  0.000000000 27.501429000     0.000000000  0.000000000  0.036361747

  length of vectors
     3.540400000 10.445439617 27.501429000     0.286599577  0.097140683  0.036361747


 
 k-points in units of 2pi/SCALE and weight: pymatgen generated KPOINTS with grid den
   0.00000000  0.00000000  0.00000000       0.010
   0.02172723  0.00373618  0.00000000       0.019
   0.04345446  0.00747236  0.00000000       0.019
   0.06518168  0.01120854  0.00000000       0.019
   0.08690891  0.01494472  0.00000000       0.019
   0.10863614  0.01868090  0.00000000       0.019
   0.13036337  0.02241708  0.00000000       0.019
   0.00000000  0.02428517  0.00000000       0.019
   0.02172723  0.02802135  0.00000000       0.019
   0.04345446  0.03175753  0.00000000       0.019
   0.06518168  0.03549371  0.00000000       0.019
   0.08690891  0.03922989  0.00000000       0.019
   0.10863614  0.04296607  0.00000000       0.019
   0.13036337  0.04670225  0.00000000       0.019
  -0.13036337  0.00186809  0.00000000       0.019
  -0.10863614  0.00560427  0.00000000       0.019
  -0.08690891  0.00934045  0.00000000       0.019
  -0.06518168  0.01307663  0.00000000       0.019
  -0.04345446  0.01681281  0.00000000       0.019
  -0.02172723  0.02054899  0.00000000       0.019
   0.00000000  0.04857034  0.00000000       0.010
   0.02172723  0.05230652  0.00000000       0.019
   0.04345446  0.05604270  0.00000000       0.019
   0.06518168  0.05977888  0.00000000       0.019
   0.08690891  0.06351506  0.00000000       0.019
   0.10863614  0.06725124  0.00000000       0.019
   0.13036337  0.07098742  0.00000000       0.019
   0.00000000  0.00000000  0.01818087       0.010
   0.02172723  0.00373618  0.01818087       0.019
   0.04345446  0.00747236  0.01818087       0.019
   0.06518168  0.01120854  0.01818087       0.019
   0.08690891  0.01494472  0.01818087       0.019
   0.10863614  0.01868090  0.01818087       0.019
   0.13036337  0.02241708  0.01818087       0.019
   0.00000000  0.02428517  0.01818087       0.019
   0.02172723  0.02802135  0.01818087       0.019
   0.04345446  0.03175753  0.01818087       0.019
   0.06518168  0.03549371  0.01818087       0.019
   0.08690891  0.03922989  0.01818087       0.019
   0.10863614  0.04296607  0.01818087       0.019
   0.13036337  0.04670225  0.01818087       0.019
  -0.13036337  0.00186809  0.01818087       0.019
  -0.10863614  0.00560427  0.01818087       0.019
  -0.08690891  0.00934045  0.01818087       0.019
  -0.06518168  0.01307663  0.01818087       0.019
  -0.04345446  0.01681281  0.01818087       0.019
  -0.02172723  0.02054899  0.01818087       0.019
   0.00000000  0.04857034  0.01818087       0.010
   0.02172723  0.05230652  0.01818087       0.019
   0.04345446  0.05604270  0.01818087       0.019
   0.06518168  0.05977888  0.01818087       0.019
   0.08690891  0.06351506  0.01818087       0.019
   0.10863614  0.06725124  0.01818087       0.019
   0.13036337  0.07098742  0.01818087       0.019
 
 k-points in reciprocal lattice and weights: pymatgen generated KPOINTS with grid den
   0.00000000  0.00000000  0.00000000       0.010
   0.07692308 -0.00000000  0.00000000       0.019
   0.15384615 -0.00000000  0.00000000       0.019
   0.23076923 -0.00000000  0.00000000       0.019
   0.30769231 -0.00000000  0.00000000       0.019
   0.38461538 -0.00000000  0.00000000       0.019
   0.46153846 -0.00000000  0.00000000       0.019
   0.00000000  0.25000000  0.00000000       0.019
   0.07692308  0.25000000  0.00000000       0.019
   0.15384615  0.25000000  0.00000000       0.019
   0.23076923  0.25000000  0.00000000       0.019
   0.30769231  0.25000000  0.00000000       0.019
   0.38461538  0.25000000  0.00000000       0.019
   0.46153846  0.25000000  0.00000000       0.019
  -0.46153846  0.25000000  0.00000000       0.019
  -0.38461538  0.25000000  0.00000000       0.019
  -0.30769231  0.25000000  0.00000000       0.019
  -0.23076923  0.25000000  0.00000000       0.019
  -0.15384615  0.25000000  0.00000000       0.019
  -0.07692308  0.25000000  0.00000000       0.019
   0.00000000  0.50000000  0.00000000       0.010
   0.07692308  0.50000000  0.00000000       0.019
   0.15384615  0.50000000  0.00000000       0.019
   0.23076923  0.50000000  0.00000000       0.019
   0.30769231  0.50000000  0.00000000       0.019
   0.38461538  0.50000000  0.00000000       0.019
   0.46153846  0.50000000  0.00000000       0.019
   0.00000000  0.00000000  0.50000000       0.010
   0.07692308 -0.00000000  0.50000000       0.019
   0.15384615 -0.00000000  0.50000000       0.019
   0.23076923 -0.00000000  0.50000000       0.019
   0.30769231 -0.00000000  0.50000000       0.019
   0.38461538 -0.00000000  0.50000000       0.019
   0.46153846 -0.00000000  0.50000000       0.019
   0.00000000  0.25000000  0.50000000       0.019
   0.07692308  0.25000000  0.50000000       0.019
   0.15384615  0.25000000  0.50000000       0.019
   0.23076923  0.25000000  0.50000000       0.019
   0.30769231  0.25000000  0.50000000       0.019
   0.38461538  0.25000000  0.50000000       0.019
   0.46153846  0.25000000  0.50000000       0.019
  -0.46153846  0.25000000  0.50000000       0.019
  -0.38461538  0.25000000  0.50000000       0.019
  -0.30769231  0.25000000  0.50000000       0.019
  -0.23076923  0.25000000  0.50000000       0.019
  -0.15384615  0.25000000  0.50000000       0.019
  -0.07692308  0.25000000  0.50000000       0.019
   0.00000000  0.50000000  0.50000000       0.010
   0.07692308  0.50000000  0.50000000       0.019
   0.15384615  0.50000000  0.50000000       0.019
   0.23076923  0.50000000  0.50000000       0.019
   0.30769231  0.50000000  0.50000000       0.019
   0.38461538  0.50000000  0.50000000       0.019
   0.46153846  0.50000000  0.50000000       0.019
 
 position of ions in fractional coordinates (direct lattice) 
   0.11402300  0.22804500  0.23316207
   0.71402300  0.62804500  0.51499159
   0.45808900  0.91617900  0.20939482
   0.05808900  0.31617900  0.49122434
   0.31085400  0.62170900  0.08414979
   0.31085400  0.62170900  0.36597930
   0.99923000  0.99846000  0.08631254
   0.99923000  0.99846000  0.36814206
   0.65492700  0.30985400  0.06041748
   0.65492700  0.30985400  0.34224700
   0.76973800  0.53947500  0.20725292
   0.36973800  0.93947500  0.48908244
   0.93971600  0.87943300  0.15783749
   0.53971600  0.27943300  0.43966701
   0.20515200  0.41030300  0.18578822
   0.80515200  0.81030300  0.46761774
   0.20184900  0.40369900  0.09969156
   0.20184900  0.40369900  0.38152107
   0.56380500  0.12761000  0.10779021
   0.56380500  0.12761000  0.38961973
   0.56710600  0.13421200  0.19387616
   0.16710600  0.53421200  0.47570568
   0.82923400  0.65846800  0.13571444
   0.42923400  0.05846800  0.41754396
 
 position of ions in cartesian coordinates  (Angst):
   0.00000177  2.34757459  6.41229012
   1.41616177  6.46531379 14.16300462
  -0.00000177  9.43146546  5.75865686
  -0.35404177  3.25485666 13.50937136
  -0.00000177  6.40008880  2.31423934
  -0.00000177  6.40008880 10.06495384
   1.77020000 10.27849470  2.37371832
   1.77020000 10.27849470 10.12443282
   1.77020000  3.18974491  1.66156717
   1.77020000  3.18974491  9.41228167
   1.77020177  5.55354339  5.69975143
  -0.35403823  9.67128259 13.45046593
   1.77019823  9.05318934  4.34075665
   1.41615823  2.87658054 12.09147115
   0.00000177  4.22380187  5.10944151
   1.41616177  8.34154107 12.86015601
  -0.00000177  4.15581799  2.74166024
  -0.00000177  4.15581799 10.49237474
   1.77020000  1.31366175  2.96438477
   1.77020000  1.31366175 10.71509927
   1.77020000  1.38162503  5.33187152
  -0.35404000  5.49936423 13.08258602
   1.77020000  6.77849874  3.73234107
   1.41616000  0.60188994 11.48305557
 


--------------------------------------------------------------------------------------------------------


 k-point  1 :   0.0000 0.0000 0.0000  plane waves:   11717
 k-point  2 :   0.0769-0.0000 0.0000  plane waves:   11762
 k-point  3 :   0.1538-0.0000 0.0000  plane waves:   11805
 k-point  4 :   0.2308-0.0000 0.0000  plane waves:   11824
 k-point  5 :   0.3077-0.0000 0.0000  plane waves:   11875
 k-point  6 :   0.3846-0.0000 0.0000  plane waves:   11864
 k-point  7 :   0.4615-0.0000 0.0000  plane waves:   11883
 k-point  8 :   0.0000 0.2500 0.0000  plane waves:   11683
 k-point  9 :   0.0769 0.2500 0.0000  plane waves:   11756
 k-point 10 :   0.1538 0.2500 0.0000  plane waves:   11807
 k-point 11 :   0.2308 0.2500 0.0000  plane waves:   11853
 k-point 12 :   0.3077 0.2500 0.0000  plane waves:   11866
 k-point 13 :   0.3846 0.2500 0.0000  plane waves:   11889
 k-point 14 :   0.4615 0.2500 0.0000  plane waves:   11885
 k-point 15 :  -0.4615 0.2500 0.0000  plane waves:   11886
 k-point 16 :  -0.3846 0.2500 0.0000  plane waves:   11867
 k-point 17 :  -0.3077 0.2500 0.0000  plane waves:   11849
 k-point 18 :  -0.2308 0.2500 0.0000  plane waves:   11827
 k-point 19 :  -0.1538 0.2500 0.0000  plane waves:   11801
 k-point 20 :  -0.0769 0.2500 0.0000  plane waves:   11757
 k-point 21 :   0.0000 0.5000 0.0000  plane waves:   11710
 k-point 22 :   0.0769 0.5000 0.0000  plane waves:   11762
 k-point 23 :   0.1538 0.5000 0.0000  plane waves:   11782
 k-point 24 :   0.2308 0.5000 0.0000  plane waves:   11841
 k-point 25 :   0.3077 0.5000 0.0000  plane waves:   11876
 k-point 26 :   0.3846 0.5000 0.0000  plane waves:   11889
 k-point 27 :   0.4615 0.5000 0.0000  plane waves:   11881
 k-point 28 :   0.0000 0.0000 0.5000  plane waves:   11698
 k-point 29 :   0.0769-0.0000 0.5000  plane waves:   11752
 k-point 30 :   0.1538-0.0000 0.5000  plane waves:   11800
 k-point 31 :   0.2308-0.0000 0.5000  plane waves:   11834
 k-point 32 :   0.3077-0.0000 0.5000  plane waves:   11850
 k-point 33 :   0.3846-0.0000 0.5000  plane waves:   11888
 k-point 34 :   0.4615-0.0000 0.5000  plane waves:   11896
 k-point 35 :   0.0000 0.2500 0.5000  plane waves:   11714
 k-point 36 :   0.0769 0.2500 0.5000  plane waves:   11754
 k-point 37 :   0.1538 0.2500 0.5000  plane waves:   11802
 k-point 38 :   0.2308 0.2500 0.5000  plane waves:   11840
 k-point 39 :   0.3077 0.2500 0.5000  plane waves:   11858
 k-point 40 :   0.3846 0.2500 0.5000  plane waves:   11896
 k-point 41 :   0.4615 0.2500 0.5000  plane waves:   11886
 k-point 42 :  -0.4615 0.2500 0.5000  plane waves:   11852
 k-point 43 :  -0.3846 0.2500 0.5000  plane waves:   11838
 k-point 44 :  -0.3077 0.2500 0.5000  plane waves:   11842
 k-point 45 :  -0.2308 0.2500 0.5000  plane waves:   11840
 k-point 46 :  -0.1538 0.2500 0.5000  plane waves:   11804
 k-point 47 :  -0.0769 0.2500 0.5000  plane waves:   11748
 k-point 48 :   0.0000 0.5000 0.5000  plane waves:   11724
 k-point 49 :   0.0769 0.5000 0.5000  plane waves:   11748
 k-point 50 :   0.1538 0.5000 0.5000  plane waves:   11814
 k-point 51 :   0.2308 0.5000 0.5000  plane waves:   11832
 k-point 52 :   0.3077 0.5000 0.5000  plane waves:   11868
 k-point 53 :   0.3846 0.5000 0.5000  plane waves:   11892
 k-point 54 :   0.4615 0.5000 0.5000  plane waves:   11878

 maximum and minimum number of plane-waves per node :      5964     5832

 maximum number of plane-waves:     11896
 maximum index in each direction: 
   IXMAX=    5   IYMAX=   14   IZMAX=   38
   IXMIN=   -5   IYMIN=  -15   IZMIN=  -39

 WARNING: aliasing errors must be expected set NGX to  22 to avoid them
 NGY is ok and might be reduce to  60
 NGZ is ok and might be reduce to 156
 aliasing errors are usually negligible using standard VASP settings
 and one can safely disregard these warnings

 real space projection operators:
  total allocation   :       3793.25 KBytes
  max/ min on nodes  :       1899.38       1893.88


 parallel 3D FFT for wavefunctions:
    minimum data exchange during FFTs selected (reduces bandwidth)
 parallel 3D FFT for charge:
    minimum data exchange during FFTs selected (reduces bandwidth)


 total amount of memory used by VASP on root node   146493. kBytes
========================================================================

   base      :      30000. kBytes
   nonlr-proj:       3452. kBytes
   fftplans  :       9347. kBytes
   grid      :      14649. kBytes
   one-center:         36. kBytes
   wavefun   :      89009. kBytes
 
     INWAV:  cpu time    0.00: real time    0.00
 Broyden mixing: mesh for mixing (old mesh)
   NGX =  9   NGY = 29   NGZ = 77
  (NGX  = 40   NGY  =120   NGZ  =320)
  gives a total of  20097 points

 initial charge density was supplied:
 charge density of overlapping atoms calculated
 number of electron     108.0000000 magnetization 
 keeping initial charge density in first step


--------------------------------------------------------------------------------------------------------


 Maximum index for non-local projection operator         1333
 Maximum index for augmentation-charges          822 (set IRDMAX)


--------------------------------------------------------------------------------------------------------


 First call to EWALD:  gamma=   0.177
 Maximum number of real-space cells 7x 3x 1
 Maximum number of reciprocal cells 1x 3x 7

 FEWALD executed in parallel
    FEWALD:  cpu time    0.00: real time    0.00


----------------------------------------- Iteration    1(   1)  ---------------------------------------


vdW kernel read from vdw_kernel.bindat
  0.0000  0.2424  0.5071  0.7962  1.1119  1.4567  1.8333  2.2446  2.6937  3.1842
  3.7199  4.3049  4.9438  5.6415  6.4036  7.2358  8.1446  9.1372 10.2212 11.4050
 12.6979 14.1099 15.6519 17.3360 19.1751 21.1837 23.3773 25.7729 28.3892 31.2465
 34.3669 37.7748 41.4965 45.5611 50.0000
 
    POTLOK:  cpu time   16.41: real time   16.47
    SETDIJ:  cpu time    0.01: real time    0.01
     EDDAV:  cpu time   76.11: real time   76.15
       DOS:  cpu time    0.01: real time    0.01
    --------------------------------------------
      LOOP:  cpu time   92.54: real time   92.65

 eigenvalue-minimisations  :  7368
 total energy-change (2. order) : 0.5456928E+03  (-0.2877181E+04)
 number of electron     108.0000000 magnetization 
 augmentation part      108.0000000 magnetization 

 Free energy of the ion-electron system (eV)
  ---------------------------------------------------
  alpha Z        PSCENC =        36.80884744
  Ewald energy   TEWEN  =     12064.24424110
  -Hartree energ DENC   =    -15048.60904342
  -exchange      EXHF   =         0.00000000
  -V(xc)+E(xc)   XCENC  =       -87.31647703
  PAW double counting   =      1056.43050070     -732.41190547
  entropy T*S    EENTRO =        -0.04298508
  eigenvalues    EBANDS =       -97.45160539
  atomic energy  EATOM  =      3354.04126044
  ---------------------------------------------------
  free energy    TOTEN  =       545.69283330 eV

  energy without entropy =      545.73581838  energy(sigma->0) =      545.71432584


--------------------------------------------------------------------------------------------------------




----------------------------------------- Iteration    1(   2)  ---------------------------------------


     EDDAV:  cpu time   95.22: real time   95.25
       DOS:  cpu time    0.01: real time    0.01
    --------------------------------------------
      LOOP:  cpu time   95.23: real time   95.26

 eigenvalue-minimisations  :  9808
 total energy-change (2. order) :-0.5667029E+03  (-0.5513997E+03)
 number of electron     108.0000000 magnetization 
 augmentation part      108.0000000 magnetization 

 Free energy of the ion-electron system (eV)
  ---------------------------------------------------
  alpha Z        PSCENC =        36.80884744
  Ewald energy   TEWEN  =     12064.24424110
  -Hartree energ DENC   =    -15048.60904342
  -exchange      EXHF   =         0.00000000
  -V(xc)+E(xc)   XCENC  =       -87.31647703
  PAW double counting   =      1056.43050070     -732.41190547
  entropy T*S    EENTRO =        -0.02549629
  eigenvalues    EBANDS =      -664.17200351
  atomic energy  EATOM  =      3354.04126044
  ---------------------------------------------------
  free energy    TOTEN  =       -21.01007603 eV

  energy without entropy =      -20.98457974  energy(sigma->0) =      -20.99732788


--------------------------------------------------------------------------------------------------------




----------------------------------------- Iteration    1(   3)  ---------------------------------------


     EDDAV:  cpu time   92.64: real time   92.67
       DOS:  cpu time    0.01: real time    0.01
    --------------------------------------------
      LOOP:  cpu time   92.65: real time   92.69

 eigenvalue-minimisations  :  9464
 total energy-change (2. order) :-0.6073479E+02  (-0.5965679E+02)
 number of electron     108.0000000 magnetization 
 augmentation part      108.0000000 magnetization 

 Free energy of the ion-electron system (eV)
  ---------------------------------------------------
  alpha Z        PSCENC =        36.80884744
  Ewald energy   TEWEN  =     12064.24424110
  -Hartree energ DENC   =    -15048.60904342
  -exchange      EXHF   =         0.00000000
  -V(xc)+E(xc)   XCENC  =       -87.31647703
  PAW double counting   =      1056.43050070     -732.41190547
  entropy T*S    EENTRO =        -0.02600078
  eigenvalues    EBANDS =      -724.90629243
  atomic energy  EATOM  =      3354.04126044
  ---------------------------------------------------
  free energy    TOTEN  =       -81.74486944 eV

  energy without entropy =      -81.71886866  energy(sigma->0) =      -81.73186905


--------------------------------------------------------------------------------------------------------




----------------------------------------- Iteration    1(   4)  ---------------------------------------


     EDDAV:  cpu time  106.90: real time  106.94
       DOS:  cpu time    0.01: real time    0.01
    --------------------------------------------
      LOOP:  cpu time  106.91: real time  106.95

 eigenvalue-minimisations  : 11304
 total energy-change (2. order) :-0.3049616E+01  (-0.3016331E+01)
 number of electron     108.0000000 magnetization 
 augmentation part      108.0000000 magnetization 

 Free energy of the ion-electron system (eV)
  ---------------------------------------------------
  alpha Z        PSCENC =        36.80884744
  Ewald energy   TEWEN  =     12064.24424110
  -Hartree energ DENC   =    -15048.60904342
  -exchange      EXHF   =         0.00000000
  -V(xc)+E(xc)   XCENC  =       -87.31647703
  PAW double counting   =      1056.43050070     -732.41190547
  entropy T*S    EENTRO =        -0.02631616
  eigenvalues    EBANDS =      -727.95559356
  atomic energy  EATOM  =      3354.04126044
  ---------------------------------------------------
  free energy    TOTEN  =       -84.79448594 eV

  energy without entropy =      -84.76816978  energy(sigma->0) =      -84.78132786


--------------------------------------------------------------------------------------------------------




----------------------------------------- Iteration    1(   5)  ---------------------------------------


     EDDAV:  cpu time  101.49: real time  101.78
       DOS:  cpu time    0.01: real time    0.01
    CHARGE:  cpu time    4.92: real time    4.93
    MIXING:  cpu time    0.01: real time    0.01
    --------------------------------------------
      LOOP:  cpu time  106.44: real time  106.74

 eigenvalue-minimisations  : 10640
 total energy-change (2. order) :-0.6770769E-01  (-0.6752842E-01)
 number of electron     107.9999995 magnetization 
 augmentation part       -9.7651395 magnetization 

 Broyden mixing:
  rms(total) = 0.13956E+01    rms(broyden)= 0.13940E+01
  rms(prec ) = 0.15333E+01
  weight for this iteration     100.00

 Free energy of the ion-electron system (eV)
  ---------------------------------------------------
  alpha Z        PSCENC =        36.80884744
  Ewald energy   TEWEN  =     12064.24424110
  -Hartree energ DENC   =    -15048.60904342
  -exchange      EXHF   =         0.00000000
  -V(xc)+E(xc)   XCENC  =       -87.31647703
  PAW double counting   =      1056.43050070     -732.41190547
  entropy T*S    EENTRO =        -0.02652534
  eigenvalues    EBANDS =      -728.02309206
  atomic energy  EATOM  =      3354.04126044
  ---------------------------------------------------
  free energy    TOTEN  =       -84.86219363 eV

  energy without entropy =      -84.83566829  energy(sigma->0) =      -84.84893096


--------------------------------------------------------------------------------------------------------




----------------------------------------- Iteration    1(   6)  ---------------------------------------


    POTLOK:  cpu time   14.90: real time   14.94
    SETDIJ:  cpu time    0.01: real time    0.01
     EDDAV:  cpu time   90.25: real time   90.52
       DOS:  cpu time    0.01: real time    0.01
    CHARGE:  cpu time    4.93: real time    4.93
    MIXING:  cpu time    0.01: real time    0.01
    --------------------------------------------
      LOOP:  cpu time  110.12: real time  110.43

 eigenvalue-minimisations  :  9192
 total energy-change (2. order) : 0.5325166E+01  (-0.3644114E+01)
 number of electron     107.9999995 magnetization 
 augmentation part       -9.5560131 magnetization 

 Broyden mixing:
  rms(total) = 0.69109E+00    rms(broyden)= 0.69091E+00
  rms(prec ) = 0.79033E+00
  weight for this iteration     100.00

 eigenvalues of (default mixing * dielectric matrix)
  average eigenvalue GAMMA=   1.1413
  1.1413

 Free energy of the ion-electron system (eV)
  ---------------------------------------------------
  alpha Z        PSCENC =        36.80884744
  Ewald energy   TEWEN  =     12064.24424110
  -Hartree energ DENC   =    -15110.00405708
  -exchange      EXHF   =         0.00000000
  -V(xc)+E(xc)   XCENC  =       -83.86868841
  PAW double counting   =      1129.33295847     -807.59386214
  entropy T*S    EENTRO =        -0.02574550
  eigenvalues    EBANDS =      -662.47198238
  atomic energy  EATOM  =      3354.04126044
  ---------------------------------------------------
  free energy    TOTEN  =       -79.53702805 eV

  energy without entropy =      -79.51128254  energy(sigma->0) =      -79.52415530


--------------------------------------------------------------------------------------------------------




----------------------------------------- Iteration    1(   7)  ---------------------------------------


    POTLOK:  cpu time   14.91: real time   14.94
    SETDIJ:  cpu time    0.01: real time    0.01
     EDDAV:  cpu time   85.44: real time   85.74
       DOS:  cpu time    0.01: real time    0.01
    CHARGE:  cpu time    4.75: real time    4.77
    MIXING:  cpu time    0.01: real time    0.01
    --------------------------------------------
      LOOP:  cpu time  105.15: real time  105.49

 eigenvalue-minimisations  :  8576
 total energy-change (2. order) : 0.4579565E+00  (-0.1685272E+01)
 number of electron     107.9999995 magnetization 
 augmentation part       -9.5109843 magnetization 

 Broyden mixing:
  rms(total) = 0.39228E+00    rms(broyden)= 0.39215E+00
  rms(prec ) = 0.41774E+00
  weight for this iteration     100.00

 eigenvalues of (default mixing * dielectric matrix)
  average eigenvalue GAMMA=   1.1328
  1.5776  0.6880

 Free energy of the ion-electron system (eV)
  ---------------------------------------------------
  alpha Z        PSCENC =        36.80884744
  Ewald energy   TEWEN  =     12064.24424110
  -Hartree energ DENC   =    -15110.36424876
  -exchange      EXHF   =         0.00000000
  -V(xc)+E(xc)   XCENC  =       -82.05672269
  PAW double counting   =      1163.02489463     -842.27592402
  entropy T*S    EENTRO =        -0.04557115
  eigenvalues    EBANDS =      -662.45584859
  atomic energy  EATOM  =      3354.04126044
  ---------------------------------------------------
  free energy    TOTEN  =       -79.07907159 eV

  energy without entropy =      -79.03350044  energy(sigma->0) =      -79.05628602


--------------------------------------------------------------------------------------------------------




----------------------------------------- Iteration    1(   8)  ---------------------------------------


    POTLOK:  cpu time   14.92: real time   14.94
    SETDIJ:  cpu time    0.01: real time    0.01
     EDDAV:  cpu time   85.14: real time   85.32
       DOS:  cpu time    0.01: real time    0.01
    CHARGE:  cpu time    4.93: real time    4.93
    MIXING:  cpu time    0.01: real time    0.01
    --------------------------------------------
      LOOP:  cpu time  105.03: real time  105.23

 eigenvalue-minimisations  :  8520
 total energy-change (2. order) :-0.3279311E-01  (-0.2374507E+00)
 number of electron     107.9999995 magnetization 
 augmentation part       -9.4570571 magnetization 

 Broyden mixing:
  rms(total) = 0.19579E+00    rms(broyden)= 0.19577E+00
  rms(prec ) = 0.21257E+00
  weight for this iteration     100.00

 eigenvalues of (default mixing * dielectric matrix)
  average eigenvalue GAMMA=   1.2699
  2.0913  0.8830  0.8354

 Free energy of the ion-electron system (eV)
  ---------------------------------------------------
  alpha Z        PSCENC =        36.80884744
  Ewald energy   TEWEN  =     12064.24424110
  -Hartree energ DENC   =    -15130.13068313
  -exchange      EXHF   =         0.00000000
  -V(xc)+E(xc)   XCENC  =       -80.33278345
  PAW double counting   =      1189.84234195     -869.88571348
  entropy T*S    EENTRO =        -0.03466431
  eigenvalues    EBANDS =      -643.66471127
  atomic energy  EATOM  =      3354.04126044
  ---------------------------------------------------
  free energy    TOTEN  =       -79.11186470 eV

  energy without entropy =      -79.07720039  energy(sigma->0) =      -79.09453255


--------------------------------------------------------------------------------------------------------




----------------------------------------- Iteration    1(   9)  ---------------------------------------


    POTLOK:  cpu time   14.92: real time   14.94
    SETDIJ:  cpu time    0.01: real time    0.01
     EDDAV:  cpu time   91.73: real time   91.76
       DOS:  cpu time    0.01: real time    0.01
    CHARGE:  cpu time    4.80: real time    4.80
    MIXING:  cpu time    0.01: real time    0.01
    --------------------------------------------
      LOOP:  cpu time  111.50: real time  111.54

 eigenvalue-minimisations  :  9352
 total energy-change (2. order) :-0.1726339E-02  (-0.6790033E-01)
 number of electron     107.9999995 magnetization 
 augmentation part       -9.4492707 magnetization 

 Broyden mixing:
  rms(total) = 0.10790E+00    rms(broyden)= 0.10788E+00
  rms(prec ) = 0.13418E+00
  weight for this iteration     100.00

 eigenvalues of (default mixing * dielectric matrix)
  average eigenvalue GAMMA=   1.2029
  2.3556  1.0815  0.7663  0.6080

 Free energy of the ion-electron system (eV)
  ---------------------------------------------------
  alpha Z        PSCENC =        36.80884744
  Ewald energy   TEWEN  =     12064.24424110
  -Hartree energ DENC   =    -15138.90674350
  -exchange      EXHF   =         0.00000000
  -V(xc)+E(xc)   XCENC  =       -79.43758891
  PAW double counting   =      1198.42368543     -878.74906743
  entropy T*S    EENTRO =        -0.05120490
  eigenvalues    EBANDS =      -635.48702072
  atomic energy  EATOM  =      3354.04126044
  ---------------------------------------------------
  free energy    TOTEN  =       -79.11359104 eV

  energy without entropy =      -79.06238614  energy(sigma->0) =      -79.08798859


--------------------------------------------------------------------------------------------------------




----------------------------------------- Iteration    1(  10)  ---------------------------------------


    POTLOK:  cpu time   14.94: real time   14.94
    SETDIJ:  cpu time    0.01: real time    0.01
     EDDAV:  cpu time   87.57: real time   87.62
       DOS:  cpu time    0.01: real time    0.01
    CHARGE:  cpu time    4.76: real time    4.78
    MIXING:  cpu time    0.01: real time    0.01
    --------------------------------------------
      LOOP:  cpu time  107.31: real time  107.38

 eigenvalue-minimisations  :  8824
 total energy-change (2. order) : 0.1410954E-01  (-0.3981051E-01)
 number of electron     107.9999995 magnetization 
 augmentation part       -9.4470687 magnetization 

 Broyden mixing:
  rms(total) = 0.50695E-01    rms(broyden)= 0.50680E-01
  rms(prec ) = 0.62433E-01
  weight for this iteration     100.00

 eigenvalues of (default mixing * dielectric matrix)
  average eigenvalue GAMMA=   1.1619
  2.4687  1.2677  0.8062  0.8062  0.4604

 Free energy of the ion-electron system (eV)
  ---------------------------------------------------
  alpha Z        PSCENC =        36.80884744
  Ewald energy   TEWEN  =     12064.24424110
  -Hartree energ DENC   =    -15144.10487126
  -exchange      EXHF   =         0.00000000
  -V(xc)+E(xc)   XCENC  =       -79.11895057
  PAW double counting   =      1199.78848745     -880.16519982
  entropy T*S    EENTRO =        -0.04447236
  eigenvalues    EBANDS =      -630.54882393
  atomic energy  EATOM  =      3354.04126044
  ---------------------------------------------------
  free energy    TOTEN  =       -79.09948150 eV

  energy without entropy =      -79.05500915  energy(sigma->0) =      -79.07724533


--------------------------------------------------------------------------------------------------------




----------------------------------------- Iteration    1(  11)  ---------------------------------------


    POTLOK:  cpu time   14.93: real time   14.94
    SETDIJ:  cpu time    0.01: real time    0.01
     EDDAV:  cpu time   91.71: real time   91.80
       DOS:  cpu time    0.01: real time    0.01
    CHARGE:  cpu time    4.80: real time    4.80
    MIXING:  cpu time    0.01: real time    0.01
    --------------------------------------------
      LOOP:  cpu time  111.48: real time  111.57

 eigenvalue-minimisations  :  9328
 total energy-change (2. order) : 0.1211606E-01  (-0.6142615E-02)
 number of electron     107.9999995 magnetization 
 augmentation part       -9.4500371 magnetization 

 Broyden mixing:
  rms(total) = 0.25124E-01    rms(broyden)= 0.25119E-01
  rms(prec ) = 0.28573E-01
  weight for this iteration     100.00

 eigenvalues of (default mixing * dielectric matrix)
  average eigenvalue GAMMA=   1.1701
  2.5281  1.3584  0.9105  0.9105  0.8705  0.4427

 Free energy of the ion-electron system (eV)
  ---------------------------------------------------
  alpha Z        PSCENC =        36.80884744
  Ewald energy   TEWEN  =     12064.24424110
  -Hartree energ DENC   =    -15143.78571872
  -exchange      EXHF   =         0.00000000
  -V(xc)+E(xc)   XCENC  =       -79.03443119
  PAW double counting   =      1198.50072498     -878.84865046
  entropy T*S    EENTRO =        -0.04709875
  eigenvalues    EBANDS =      -630.96654030
  atomic energy  EATOM  =      3354.04126044
  ---------------------------------------------------
  free energy    TOTEN  =       -79.08736545 eV

  energy without entropy =      -79.04026669  energy(sigma->0) =      -79.06381607


--------------------------------------------------------------------------------------------------------




----------------------------------------- Iteration    1(  12)  ---------------------------------------


    POTLOK:  cpu time   14.94: real time   14.94
    SETDIJ:  cpu time    0.01: real time    0.01
     EDDAV:  cpu time   91.16: real time   91.20
       DOS:  cpu time    0.01: real time    0.01
    CHARGE:  cpu time    4.76: real time    4.77
    MIXING:  cpu time    0.01: real time    0.01
    --------------------------------------------
      LOOP:  cpu time  110.90: real time  110.95

 eigenvalue-minimisations  :  9248
 total energy-change (2. order) : 0.8474638E-02  (-0.1904190E-02)
 number of electron     107.9999995 magnetization 
 augmentation part       -9.4528283 magnetization 

 Broyden mixing:
  rms(total) = 0.13580E-01    rms(broyden)= 0.13574E-01
  rms(prec ) = 0.16073E-01
  weight for this iteration     100.00

 eigenvalues of (default mixing * dielectric matrix)
  average eigenvalue GAMMA=   1.1665
  2.6355  1.6419  1.1969  0.8518  0.8518  0.5444  0.4433

 Free energy of the ion-electron system (eV)
  ---------------------------------------------------
  alpha Z        PSCENC =        36.80884744
  Ewald energy   TEWEN  =     12064.24424110
  -Hartree energ DENC   =    -15145.19993572
  -exchange      EXHF   =         0.00000000
  -V(xc)+E(xc)   XCENC  =       -78.99681687
  PAW double counting   =      1197.30372698     -877.62037608
  entropy T*S    EENTRO =        -0.04732779
  eigenvalues    EBANDS =      -629.61251031
  atomic energy  EATOM  =      3354.04126044
  ---------------------------------------------------
  free energy    TOTEN  =       -79.07889081 eV

  energy without entropy =      -79.03156301  energy(sigma->0) =      -79.05522691


--------------------------------------------------------------------------------------------------------




----------------------------------------- Iteration    1(  13)  ---------------------------------------


    POTLOK:  cpu time   14.93: real time   14.94
    SETDIJ:  cpu time    0.01: real time    0.01
     EDDAV:  cpu time   92.59: real time   92.66
       DOS:  cpu time    0.01: real time    0.01
    CHARGE:  cpu time    4.78: real time    4.78
    MIXING:  cpu time    0.01: real time    0.01
    --------------------------------------------
      LOOP:  cpu time  112.34: real time  112.42

 eigenvalue-minimisations  :  9432
 total energy-change (2. order) : 0.6627099E-02  (-0.3468999E-03)
 number of electron     107.9999995 magnetization 
 augmentation part       -9.4530535 magnetization 

 Broyden mixing:
  rms(total) = 0.50185E-02    rms(broyden)= 0.50160E-02
  rms(prec ) = 0.63699E-02
  weight for this iteration     100.00

 eigenvalues of (default mixing * dielectric matrix)
  average eigenvalue GAMMA=   1.2067
  2.6625  1.9323  1.1566  1.1566  0.8694  0.8694  0.5683  0.4384

 Free energy of the ion-electron system (eV)
  ---------------------------------------------------
  alpha Z        PSCENC =        36.80884744
  Ewald energy   TEWEN  =     12064.24424110
  -Hartree energ DENC   =    -15146.21701033
  -exchange      EXHF   =         0.00000000
  -V(xc)+E(xc)   XCENC  =       -78.97393219
  PAW double counting   =      1196.30045606     -876.59221308
  entropy T*S    EENTRO =        -0.04723791
  eigenvalues    EBANDS =      -628.63667525
  atomic energy  EATOM  =      3354.04126044
  ---------------------------------------------------
  free energy    TOTEN  =       -79.07226371 eV

  energy without entropy =      -79.02502580  energy(sigma->0) =      -79.04864475


--------------------------------------------------------------------------------------------------------




----------------------------------------- Iteration    1(  14)  ---------------------------------------


    POTLOK:  cpu time   14.94: real time   14.95
    SETDIJ:  cpu time    0.01: real time    0.01
     EDDAV:  cpu time   90.63: real time   90.66
       DOS:  cpu time    0.01: real time    0.01
    CHARGE:  cpu time    4.83: real time    4.84
    MIXING:  cpu time    0.01: real time    0.01
    --------------------------------------------
      LOOP:  cpu time  110.45: real time  110.48

 eigenvalue-minimisations  :  9176
 total energy-change (2. order) : 0.4453618E-02  (-0.7367836E-04)
 number of electron     107.9999995 magnetization 
 augmentation part       -9.4529815 magnetization 

 Broyden mixing:
  rms(total) = 0.25807E-02    rms(broyden)= 0.25802E-02
  rms(prec ) = 0.37018E-02
  weight for this iteration     100.00

 eigenvalues of (default mixing * dielectric matrix)
  average eigenvalue GAMMA=   1.2399
  2.7275  2.1848  1.2834  1.2834  0.8842  0.8842  0.8990  0.5733  0.4388

 Free energy of the ion-electron system (eV)
  ---------------------------------------------------
  alpha Z        PSCENC =        36.80884744
  Ewald energy   TEWEN  =     12064.24424110
  -Hartree energ DENC   =    -15147.20994076
  -exchange      EXHF   =         0.00000000
  -V(xc)+E(xc)   XCENC  =       -78.97023574
  PAW double counting   =      1195.65505732     -875.93022671
  entropy T*S    EENTRO =        -0.04729871
  eigenvalues    EBANDS =      -627.65951447
  atomic energy  EATOM  =      3354.04126044
  ---------------------------------------------------
  free energy    TOTEN  =       -79.06781009 eV

  energy without entropy =      -79.02051138  energy(sigma->0) =      -79.04416073


--------------------------------------------------------------------------------------------------------




----------------------------------------- Iteration    1(  15)  ---------------------------------------


    POTLOK:  cpu time   14.94: real time   14.95
    SETDIJ:  cpu time    0.01: real time    0.01
     EDDAV:  cpu time   96.94: real time   97.01
       DOS:  cpu time    0.01: real time    0.01
    CHARGE:  cpu time    4.84: real time    4.84
    MIXING:  cpu time    0.01: real time    0.01
    --------------------------------------------
      LOOP:  cpu time  116.76: real time  116.84

 eigenvalue-minimisations  : 10000
 total energy-change (2. order) : 0.2421842E-02  (-0.2036729E-04)
 number of electron     107.9999995 magnetization 
 augmentation part       -9.4528878 magnetization 

 Broyden mixing:
  rms(total) = 0.14885E-02    rms(broyden)= 0.14883E-02
  rms(prec ) = 0.23800E-02
  weight for this iteration     100.00

 eigenvalues of (default mixing * dielectric matrix)
  average eigenvalue GAMMA=   1.2853
  2.8257  2.3979  1.5740  1.2235  1.2235  0.8635  0.8635  0.8663  0.4387  0.5765

 Free energy of the ion-electron system (eV)
  ---------------------------------------------------
  alpha Z        PSCENC =        36.80884744
  Ewald energy   TEWEN  =     12064.24424110
  -Hartree energ DENC   =    -15148.06715309
  -exchange      EXHF   =         0.00000000
  -V(xc)+E(xc)   XCENC  =       -78.96602484
  PAW double counting   =      1195.32350969     -875.59018930
  entropy T*S    EENTRO =        -0.04741111
  eigenvalues    EBANDS =      -626.81246860
  atomic energy  EATOM  =      3354.04126044
  ---------------------------------------------------
  free energy    TOTEN  =       -79.06538825 eV

  energy without entropy =      -79.01797714  energy(sigma->0) =      -79.04168269


--------------------------------------------------------------------------------------------------------




----------------------------------------- Iteration    1(  16)  ---------------------------------------


    POTLOK:  cpu time   14.94: real time   14.95
    SETDIJ:  cpu time    0.01: real time    0.01
     EDDAV:  cpu time   90.05: real time   90.10
       DOS:  cpu time    0.01: real time    0.01
    CHARGE:  cpu time    4.80: real time    4.81
    MIXING:  cpu time    0.01: real time    0.01
    --------------------------------------------
      LOOP:  cpu time  109.84: real time  109.90

 eigenvalue-minimisations  :  9128
 total energy-change (2. order) : 0.7749866E-03  (-0.5425639E-05)
 number of electron     107.9999995 magnetization 
 augmentation part       -9.4526852 magnetization 

 Broyden mixing:
  rms(total) = 0.80521E-03    rms(broyden)= 0.80514E-03
  rms(prec ) = 0.15167E-02
  weight for this iteration     100.00

 eigenvalues of (default mixing * dielectric matrix)
  average eigenvalue GAMMA=   1.3520
  3.1142  2.6126  1.8605  1.3162  1.1663  1.1663  0.9007  0.8599  0.8599  0.4387
  0.5765

 Free energy of the ion-electron system (eV)
  ---------------------------------------------------
  alpha Z        PSCENC =        36.80884744
  Ewald energy   TEWEN  =     12064.24424110
  -Hartree energ DENC   =    -15148.74333431
  -exchange      EXHF   =         0.00000000
  -V(xc)+E(xc)   XCENC  =       -78.96189084
  PAW double counting   =      1195.21427413     -875.47832493
  entropy T*S    EENTRO =        -0.04737053
  eigenvalues    EBANDS =      -626.14231579
  atomic energy  EATOM  =      3354.04126044
  ---------------------------------------------------
  free energy    TOTEN  =       -79.06461326 eV

  energy without entropy =      -79.01724273  energy(sigma->0) =      -79.04092800


--------------------------------------------------------------------------------------------------------




----------------------------------------- Iteration    1(  17)  ---------------------------------------


    POTLOK:  cpu time   14.92: real time   14.96
    SETDIJ:  cpu time    0.01: real time    0.01
     EDDAV:  cpu time   81.77: real time   81.79
       DOS:  cpu time    0.01: real time    0.01
    CHARGE:  cpu time    4.82: real time    4.82
    MIXING:  cpu time    0.01: real time    0.01
    --------------------------------------------
      LOOP:  cpu time  101.56: real time  101.62

 eigenvalue-minimisations  :  8064
 total energy-change (2. order) : 0.3775909E-04  (-0.6159309E-05)
 number of electron     107.9999995 magnetization 
 augmentation part       -9.4525078 magnetization 

 Broyden mixing:
  rms(total) = 0.54038E-03    rms(broyden)= 0.54034E-03
  rms(prec ) = 0.92284E-03
  weight for this iteration     100.00

 eigenvalues of (default mixing * dielectric matrix)
  average eigenvalue GAMMA=   1.4402
  3.7698  2.6974  2.0827  1.7535  1.1792  1.1792  0.9444  0.9444  0.8582  0.8582
  0.4387  0.5767

 Free energy of the ion-electron system (eV)
  ---------------------------------------------------
  alpha Z        PSCENC =        36.80884744
  Ewald energy   TEWEN  =     12064.24424110
  -Hartree energ DENC   =    -15149.51465837
  -exchange      EXHF   =         0.00000000
  -V(xc)+E(xc)   XCENC  =       -78.95768096
  PAW double counting   =      1195.18012851     -875.44340218
  entropy T*S    EENTRO =        -0.04739718
  eigenvalues    EBANDS =      -625.37591432
  atomic energy  EATOM  =      3354.04126044
  ---------------------------------------------------
  free energy    TOTEN  =       -79.06457550 eV

  energy without entropy =      -79.01717832  energy(sigma->0) =      -79.04087691


--------------------------------------------------------------------------------------------------------




----------------------------------------- Iteration    1(  18)  ---------------------------------------


    POTLOK:  cpu time   14.95: real time   14.96
    SETDIJ:  cpu time    0.01: real time    0.01
     EDDAV:  cpu time   82.37: real time   82.40
       DOS:  cpu time    0.01: real time    0.01
    CHARGE:  cpu time    4.76: real time    4.76
    MIXING:  cpu time    0.01: real time    0.02
    --------------------------------------------
      LOOP:  cpu time  102.12: real time  102.16

 eigenvalue-minimisations  :  8144
 total energy-change (2. order) :-0.5170970E-03  (-0.1150299E-04)
 number of electron     107.9999995 magnetization 
 augmentation part       -9.4524528 magnetization 

 Broyden mixing:
  rms(total) = 0.29285E-03    rms(broyden)= 0.29282E-03
  rms(prec ) = 0.50437E-03
  weight for this iteration     100.00

 eigenvalues of (default mixing * dielectric matrix)
  average eigenvalue GAMMA=   1.5404
  4.8305  2.7684  2.3810  1.7384  1.3667  1.1646  1.1646  0.9392  0.9392  0.8588
  0.8588  0.4387  0.5767

 Free energy of the ion-electron system (eV)
  ---------------------------------------------------
  alpha Z        PSCENC =        36.80884744
  Ewald energy   TEWEN  =     12064.24424110
  -Hartree energ DENC   =    -15150.04597078
  -exchange      EXHF   =         0.00000000
  -V(xc)+E(xc)   XCENC  =       -78.95501307
  PAW double counting   =      1195.19285035     -875.45642382
  entropy T*S    EENTRO =        -0.04740361
  eigenvalues    EBANDS =      -624.84748066
  atomic energy  EATOM  =      3354.04126044
  ---------------------------------------------------
  free energy    TOTEN  =       -79.06509260 eV

  energy without entropy =      -79.01768899  energy(sigma->0) =      -79.04139080


--------------------------------------------------------------------------------------------------------




----------------------------------------- Iteration    1(  19)  ---------------------------------------


    POTLOK:  cpu time   14.94: real time   14.96
    SETDIJ:  cpu time    0.01: real time    0.01
     EDDAV:  cpu time   78.80: real time   78.87
       DOS:  cpu time    0.01: real time    0.01
    CHARGE:  cpu time    4.91: real time    4.92
    MIXING:  cpu time    0.02: real time    0.02
    --------------------------------------------
      LOOP:  cpu time   98.69: real time   98.78

 eigenvalue-minimisations  :  7672
 total energy-change (2. order) :-0.2478403E-03  (-0.9550022E-05)
 number of electron     107.9999995 magnetization 
 augmentation part       -9.4524234 magnetization 

 Broyden mixing:
  rms(total) = 0.18160E-03    rms(broyden)= 0.18158E-03
  rms(prec ) = 0.31413E-03
  weight for this iteration     100.00

 eigenvalues of (default mixing * dielectric matrix)
  average eigenvalue GAMMA=   1.6386
  5.8920  2.8605  2.5157  1.7724  1.7724  1.1952  1.1952  1.0324  1.0324  0.9375
  0.8595  0.8595  0.4387  0.5766

 Free energy of the ion-electron system (eV)
  ---------------------------------------------------
  alpha Z        PSCENC =        36.80884744
  Ewald energy   TEWEN  =     12064.24424110
  -Hartree energ DENC   =    -15150.33191710
  -exchange      EXHF   =         0.00000000
  -V(xc)+E(xc)   XCENC  =       -78.95344780
  PAW double counting   =      1195.21305465     -875.47705839
  entropy T*S    EENTRO =        -0.04739483
  eigenvalues    EBANDS =      -624.56292597
  atomic energy  EATOM  =      3354.04126044
  ---------------------------------------------------
  free energy    TOTEN  =       -79.06534044 eV

  energy without entropy =      -79.01794561  energy(sigma->0) =      -79.04164303


--------------------------------------------------------------------------------------------------------




----------------------------------------- Iteration    1(  20)  ---------------------------------------


    POTLOK:  cpu time   14.95: real time   14.96
    SETDIJ:  cpu time    0.01: real time    0.01
     EDDAV:  cpu time   74.96: real time   75.01
       DOS:  cpu time    0.01: real time    0.01
    CHARGE:  cpu time    4.88: real time    4.89
    MIXING:  cpu time    0.02: real time    0.02
    --------------------------------------------
      LOOP:  cpu time   94.83: real time   94.90

 eigenvalue-minimisations  :  7168
 total energy-change (2. order) :-0.4990923E-04  (-0.2839731E-05)
 number of electron     107.9999995 magnetization 
 augmentation part       -9.4524041 magnetization 

 Broyden mixing:
  rms(total) = 0.10393E-03    rms(broyden)= 0.10392E-03
  rms(prec ) = 0.19087E-03
  weight for this iteration     100.00

 eigenvalues of (default mixing * dielectric matrix)
  average eigenvalue GAMMA=   1.6836
  6.3878  3.0027  2.6433  2.0636  1.5656  1.5656  1.1906  1.1906  0.4387  0.5766
  1.0001  1.0001  0.8580  0.8580  0.9135

 Free energy of the ion-electron system (eV)
  ---------------------------------------------------
  alpha Z        PSCENC =        36.80884744
  Ewald energy   TEWEN  =     12064.24424110
  -Hartree energ DENC   =    -15150.50304186
  -exchange      EXHF   =         0.00000000
  -V(xc)+E(xc)   XCENC  =       -78.95266377
  PAW double counting   =      1195.21835188     -875.48242383
  entropy T*S    EENTRO =        -0.04739369
  eigenvalues    EBANDS =      -624.39256806
  atomic energy  EATOM  =      3354.04126044
  ---------------------------------------------------
  free energy    TOTEN  =       -79.06539035 eV

  energy without entropy =      -79.01799666  energy(sigma->0) =      -79.04169350


--------------------------------------------------------------------------------------------------------




----------------------------------------- Iteration    1(  21)  ---------------------------------------


    POTLOK:  cpu time   14.94: real time   14.96
    SETDIJ:  cpu time    0.01: real time    0.01
     EDDAV:  cpu time   67.37: real time   67.46
       DOS:  cpu time    0.01: real time    0.01
    CHARGE:  cpu time    4.83: real time    4.84
    MIXING:  cpu time    0.02: real time    0.02
    --------------------------------------------
      LOOP:  cpu time   87.19: real time   87.30

 eigenvalue-minimisations  :  6184
 total energy-change (2. order) :-0.1505954E-04  (-0.7094015E-06)
 number of electron     107.9999995 magnetization 
 augmentation part       -9.4524049 magnetization 

 Broyden mixing:
  rms(total) = 0.70006E-04    rms(broyden)= 0.70000E-04
  rms(prec ) = 0.12867E-03
  weight for this iteration     100.00

 eigenvalues of (default mixing * dielectric matrix)
  average eigenvalue GAMMA=   1.7249
  6.8616  3.2437  2.7197  2.2571  1.6278  1.6278  1.1995  1.1995  0.4387  0.5766
  1.1498  1.0222  1.0222  0.9350  0.8583  0.8583

 Free energy of the ion-electron system (eV)
  ---------------------------------------------------
  alpha Z        PSCENC =        36.80884744
  Ewald energy   TEWEN  =     12064.24424110
  -Hartree energ DENC   =    -15150.56438879
  -exchange      EXHF   =         0.00000000
  -V(xc)+E(xc)   XCENC  =       -78.95261069
  PAW double counting   =      1195.21589806     -875.47989764
  entropy T*S    EENTRO =        -0.04739403
  eigenvalues    EBANDS =      -624.33136132
  atomic energy  EATOM  =      3354.04126044
  ---------------------------------------------------
  free energy    TOTEN  =       -79.06540541 eV

  energy without entropy =      -79.01801138  energy(sigma->0) =      -79.04170840


--------------------------------------------------------------------------------------------------------




----------------------------------------- Iteration    1(  22)  ---------------------------------------


    POTLOK:  cpu time   14.89: real time   14.96
    SETDIJ:  cpu time    0.01: real time    0.01
     EDDAV:  cpu time   75.03: real time   75.47
       DOS:  cpu time    0.01: real time    0.01
    CHARGE:  cpu time    4.76: real time    4.78
    MIXING:  cpu time    0.02: real time    0.02
    --------------------------------------------
      LOOP:  cpu time   94.73: real time   95.25

 eigenvalue-minimisations  :  7244
 total energy-change (2. order) : 0.8288890E-05  (-0.2633694E-05)
 number of electron     107.9999995 magnetization 
 augmentation part       -9.4524023 magnetization 

 Broyden mixing:
  rms(total) = 0.50022E-04    rms(broyden)= 0.50020E-04
  rms(prec ) = 0.79891E-04
  weight for this iteration     100.00

 eigenvalues of (default mixing * dielectric matrix)
  average eigenvalue GAMMA=   1.7949
  6.9964  4.0899  2.7983  2.5687  1.9090  1.5244  1.5244  0.4387  1.2005  1.2005
  0.5766  0.8593  0.8593  1.0395  1.0395  0.9439  0.9439

 Free energy of the ion-electron system (eV)
  ---------------------------------------------------
  alpha Z        PSCENC =        36.80884744
  Ewald energy   TEWEN  =     12064.24424110
  -Hartree energ DENC   =    -15150.61382542
  -exchange      EXHF   =         0.00000000
  -V(xc)+E(xc)   XCENC  =       -78.95256261
  PAW double counting   =      1195.21204662     -875.47595135
  entropy T*S    EENTRO =        -0.04739495
  eigenvalues    EBANDS =      -624.28205840
  atomic energy  EATOM  =      3354.04126044
  ---------------------------------------------------
  free energy    TOTEN  =       -79.06539712 eV

  energy without entropy =      -79.01800217  energy(sigma->0) =      -79.04169964


--------------------------------------------------------------------------------------------------------




----------------------------------------- Iteration    1(  23)  ---------------------------------------


    POTLOK:  cpu time   14.95: real time   14.96
    SETDIJ:  cpu time    0.01: real time    0.01
     EDDAV:  cpu time   69.65: real time   69.79
       DOS:  cpu time    0.01: real time    0.01
    CHARGE:  cpu time    4.77: real time    4.78
    MIXING:  cpu time    0.02: real time    0.02
    --------------------------------------------
      LOOP:  cpu time   89.41: real time   89.58

 eigenvalue-minimisations  :  6504
 total energy-change (2. order) : 0.3441824E-04  (-0.1725972E-05)
 number of electron     107.9999995 magnetization 
 augmentation part       -9.4524037 magnetization 

[...]
     31      -4.1641      2.00000
     32      -4.1001      2.00000
     33      -3.8531      2.00000
     34      -3.5541      2.00000
     35      -3.4212      2.00000
     36      -3.3516      2.00000
     37      -3.2462      2.00000
     38      -3.1768      2.00000
     39      -2.9418      2.00000
     40      -2.7432      2.00000
     41      -2.6801      2.00000
     42      -2.6441      2.00000
     43      -2.4578      2.00000
     44      -2.3138      2.00000
     45      -2.1215      2.00000
     46      -1.9976      2.00000
     47      -1.8849      2.00000
     48      -1.5140      2.00000
     49      -1.4674      2.00000
     50      -1.1787      2.00000
     51      -1.0943      2.00000
     52      -0.3061      2.00000
     53      -0.1011      2.00000
     54       0.1245      1.99980
     55       0.4083      0.76881
     56       1.0398      0.00000
     57       1.2570      0.00000
     58       1.3661      0.00000
     59       1.4853      0.00000
     60       1.6452      0.00000
     61       1.8317      0.00000
     62       1.9929      0.00000
     63       2.1488      0.00000
     64       2.4621      0.00000
     65       2.5628      0.00000
     66       2.6645      0.00000
     67       2.9315      0.00000
     68       3.1314      0.00000

 k-point    52 :       0.3077    0.5000    0.5000
  band No.  band energies     occupation 
      1     -13.9505      2.00000
      2     -12.6276      2.00000
      3     -12.4366      2.00000
      4     -12.2776      2.00000
      5     -11.7741      2.00000
      6     -11.7079      2.00000
      7     -11.3184      2.00000
      8     -11.1321      2.00000
      9     -10.9255      2.00000
     10     -10.6261      2.00000
     11     -10.5106      2.00000
     12     -10.2239      2.00000
     13      -9.2877      2.00000
     14      -9.0382      2.00000
     15      -8.7612      2.00000
     16      -7.8939      2.00000
     17      -7.2249      2.00000
     18      -7.1817      2.00000
     19      -7.0869      2.00000
     20      -6.9837      2.00000
     21      -6.4367      2.00000
     22      -6.2990      2.00000
     23      -6.1512      2.00000
     24      -6.0450      2.00000
     25      -5.6438      2.00000
     26      -5.4690      2.00000
     27      -5.0234      2.00000
     28      -4.9643      2.00000
     29      -4.6238      2.00000
     30      -4.5484      2.00000
     31      -4.4309      2.00000
     32      -4.2769      2.00000
     33      -4.1925      2.00000
     34      -3.6425      2.00000
     35      -3.3732      2.00000
     36      -3.3061      2.00000
     37      -3.2431      2.00000
     38      -3.1900      2.00000
     39      -3.0252      2.00000
     40      -2.8667      2.00000
     41      -2.7799      2.00000
     42      -2.6400      2.00000
     43      -2.4957      2.00000
     44      -2.3749      2.00000
     45      -2.3000      2.00000
     46      -2.0670      2.00000
     47      -1.9852      2.00000
     48      -1.8528      2.00000
     49      -1.6074      2.00000
     50      -1.4199      2.00000
     51      -1.1144      2.00000
     52      -0.6730      2.00000
     53      -0.2970      2.00000
     54      -0.1356      2.00000
     55       0.3761      1.12881
     56       0.8436      0.00000
     57       1.1387      0.00000
     58       1.1871      0.00000
     59       1.3423      0.00000
     60       1.4513      0.00000
     61       1.6631      0.00000
     62       1.7569      0.00000
     63       2.0759      0.00000
     64       2.1690      0.00000
     65       2.3437      0.00000
     66       2.4415      0.00000
     67       2.6028      0.00000
     68       2.8620      0.00000

 k-point    53 :       0.3846    0.5000    0.5000
  band No.  band energies     occupation 
      1     -13.5488      2.00000
      2     -12.1515      2.00000
      3     -12.0723      2.00000
      4     -11.7808      2.00000
      5     -11.4838      2.00000
      6     -11.3686      2.00000
      7     -11.0144      2.00000
      8     -10.8897      2.00000
      9     -10.7335      2.00000
     10     -10.6767      2.00000
     11     -10.5772      2.00000
     12     -10.0601      2.00000
     13      -9.3697      2.00000
     14      -9.1934      2.00000
     15      -9.0221      2.00000
     16      -8.3680      2.00000
     17      -7.7317      2.00000
     18      -7.6391      2.00000
     19      -7.5036      2.00000
     20      -7.2769      2.00000
     21      -6.8974      2.00000
     22      -6.8347      2.00000
     23      -6.7743      2.00000
     24      -6.5133      2.00000
     25      -5.5749      2.00000
     26      -5.4137      2.00000
     27      -5.0757      2.00000
     28      -4.8224      2.00000
     29      -4.7876      2.00000
     30      -4.5683      2.00000
     31      -4.2555      2.00000
     32      -4.1571      2.00000
     33      -4.1359      2.00000
     34      -3.6676      2.00000
     35      -3.6134      2.00000
     36      -3.3922      2.00000
     37      -3.3081      2.00000
     38      -3.2393      2.00000
     39      -3.1371      2.00000
     40      -2.9833      2.00000
     41      -2.8694      2.00000
     42      -2.6792      2.00000
     43      -2.5343      2.00000
     44      -2.4160      2.00000
     45      -2.3569      2.00000
     46      -2.2425      2.00000
     47      -2.1704      2.00000
     48      -1.9761      2.00000
     49      -1.7244      2.00000
     50      -1.5488      2.00000
     51      -1.2837      2.00000
     52      -1.0288      2.00000
     53      -0.5785      2.00000
     54       0.0632      2.00000
     55       0.2461      1.95455
     56       0.6637      0.00009
     57       1.0953      0.00000
     58       1.1567      0.00000
     59       1.2818      0.00000
     60       1.4214      0.00000
     61       1.5890      0.00000
     62       1.6316      0.00000
     63       1.7400      0.00000
     64       1.9857      0.00000
     65       2.0603      0.00000
     66       2.2233      0.00000
     67       2.5065      0.00000
     68       2.6550      0.00000

 k-point    54 :       0.4615    0.5000    0.5000
  band No.  band energies     occupation 
      1     -13.2089      2.00000
      2     -11.9679      2.00000
      3     -11.6076      2.00000
      4     -11.3133      2.00000
      5     -11.2820      2.00000
      6     -11.0739      2.00000
      7     -10.9642      2.00000
      8     -10.8380      2.00000
      9     -10.8257      2.00000
     10     -10.7387      2.00000
     11     -10.6838      2.00000
     12      -9.8457      2.00000
     13      -9.6334      2.00000
     14      -9.3771      2.00000
     15      -8.7794      2.00000
     16      -8.5583      2.00000
     17      -8.2352      2.00000
     18      -7.9033      2.00000
     19      -7.6800      2.00000
     20      -7.4347      2.00000
     21      -7.4074      2.00000
     22      -7.2828      2.00000
     23      -7.2305      2.00000
     24      -6.7816      2.00000
     25      -5.4042      2.00000
     26      -5.2367      2.00000
     27      -5.0627      2.00000
     28      -4.6111      2.00000
     29      -4.5657      2.00000
     30      -4.3343      2.00000
     31      -4.2074      2.00000
     32      -4.0992      2.00000
     33      -4.0118      2.00000
     34      -3.8782      2.00000
     35      -3.8071      2.00000
     36      -3.6755      2.00000
     37      -3.5838      2.00000
     38      -3.3701      2.00000
     39      -3.1465      2.00000
     40      -2.9154      2.00000
     41      -2.8739      2.00000
     42      -2.7926      2.00000
     43      -2.5779      2.00000
     44      -2.4851      2.00000
     45      -2.3983      2.00000
     46      -2.3017      2.00000
     47      -2.2139      2.00000
     48      -1.9310      2.00000
     49      -1.8182      2.00000
     50      -1.6352      2.00000
     51      -1.4811      2.00000
     52      -1.0934      2.00000
     53      -0.6914      2.00000
     54       0.1174      1.99987
     55       0.2478      1.95193
     56       0.5570      0.01658
     57       1.0908      0.00000
     58       1.2061      0.00000
     59       1.2403      0.00000
     60       1.3809      0.00000
     61       1.4902      0.00000
     62       1.5611      0.00000
     63       1.7161      0.00000
     64       1.7833      0.00000
     65       1.9426      0.00000
     66       2.2566      0.00000
     67       2.3502      0.00000
     68       2.4859      0.00000


--------------------------------------------------------------------------------------------------------


 soft charge-density along one line, spin component           1
         0         1         2         3         4         5         6         7         8         9
 total charge-density along one line
 
 pseudopotential strength for first ion, spin component:           1
 29.810   0.008  -0.001  -0.022  -0.001  -0.000  -0.001  -0.000
  0.008   0.009   0.000  -0.000   0.000  -0.000   0.000  -0.000
 -0.001   0.000   6.554  -0.001   0.000  -0.003   0.000  -0.000
 -0.022  -0.000  -0.001   6.549  -0.000   0.000  -0.003   0.000
 -0.001   0.000   0.000  -0.000   6.555  -0.000   0.000  -0.003
 -0.000  -0.000  -0.003   0.000  -0.000   0.015  -0.000   0.000
 -0.001   0.000   0.000  -0.003   0.000  -0.000   0.015   0.000
 -0.000  -0.000  -0.000   0.000  -0.003   0.000   0.000   0.015
 total augmentation occupancy for first ion, spin component:           1
  1.811  -0.359   0.004   0.247   0.001   0.003   0.115  -0.002
 -0.359   1.276   0.017   0.841   0.001   0.004  -0.433  -0.000
  0.004   0.017   1.145   0.010   0.000  -0.502   0.013  -0.000
  0.247   0.841   0.010   1.285   0.002   0.013  -0.418  -0.001
  0.001   0.001   0.000   0.002   1.148  -0.000  -0.001  -0.526
  0.003   0.004  -0.502   0.013  -0.000   0.290  -0.015   0.000
  0.115  -0.433   0.013  -0.418  -0.001  -0.015   0.226   0.001
 -0.002  -0.000  -0.000  -0.001  -0.526   0.000   0.001   0.324


------------------------ aborting loop because EDIFF is reached ----------------------------------------


    CHARGE:  cpu time    5.01: real time    5.02
    FORLOC:  cpu time    0.05: real time    0.05
    FORNL :  cpu time   20.64: real time   20.69
    STRESS:  cpu time   62.23: real time   62.35
    FORCOR:  cpu time   14.99: real time   15.00
    FORHAR:  cpu time    0.15: real time    0.15
    MIXING:  cpu time    0.02: real time    0.02
    OFIELD:  cpu time    0.00: real time    0.00

  FORCE on cell =-STRESS in cart. coord.  units (eV):
  Direction    XX          YY          ZZ          XY          YZ          ZX
  --------------------------------------------------------------------------------------
  Alpha Z    36.80885    36.80885    36.80885
  Ewald   14470.46710 13969.78796-16376.01814    39.06526   -95.81878   -27.15910
  Hartree 14984.18446 14576.34560-14409.89681     1.88365   -19.93509    -0.52338
  E(xc)    -360.73521  -360.95332  -359.48225    -0.14262     0.19610     0.01223
  Local  -31038.23185-30093.64208 29221.23743    -7.61586    49.94858    -6.40403
  n-local  1182.13454  1188.66932  1173.84941     0.38563     1.61572     4.99233
  augment  -206.16351  -204.65543  -205.55883     2.31715    -4.06337    -1.83860
  Kinetic   948.43797   951.48947   995.96033    -6.98396     6.91820    -8.58225
  Fock        0.00000     0.00000     0.00000     0.00000     0.00000     0.00000
  -------------------------------------------------------------------------------------
  Total      16.90235    63.85037    76.90000    28.90925   -61.13865   -39.50280
  in kB      27.01788   102.06282   122.92224    46.21053   -97.72821   -63.14400
  external pressure =       84.00 kB  Pullay stress =        0.00 kB


 VOLUME and BASIS-vectors are now :
 -----------------------------------------------------------------------------
  energy-cutoff  :      300.00
  volume of cell :     1002.32
      direct lattice vectors                 reciprocal lattice vectors
     3.540400000  0.000000000  0.000000000     0.282453960  0.048570342  0.000000000
    -1.770200000 10.294348000  0.000000000     0.000000000  0.097140683  0.000000000
     0.000000000  0.000000000 27.501429000     0.000000000  0.000000000  0.036361747

  length of vectors
     3.540400000 10.445439617 27.501429000     0.286599577  0.097140683  0.036361747


 FORCES acting on ions
    electron-ion (+dipol)            ewald-force                    non-local-force                 convergence-correction
 -----------------------------------------------------------------------------------------------
   0.165E+00 0.543E+01 0.329E+02   -.148E-01 -.529E+01 -.286E+02   -.948E-01 -.143E+00 -.422E+01   0.249E-09 0.576E-06 -.704E-06
   -.330E+00 -.129E+02 -.549E+03   0.188E+00 0.131E+02 0.553E+03   -.453E-02 -.434E+00 -.393E+01   -.994E-07 -.709E-05 0.609E-05
   0.943E-02 0.671E+02 0.492E+02   0.368E-02 -.686E+02 -.450E+02   -.969E-02 0.158E+01 -.418E+01   0.224E-07 -.108E-05 -.151E-05
   -.152E+00 0.263E+02 -.556E+03   -.217E+00 -.279E+02 0.559E+03   -.229E+00 0.113E+01 -.233E+01   -.110E-06 -.215E-05 -.264E-05
   -.313E-02 -.573E+02 0.526E+03   0.877E-04 0.589E+02 -.530E+03   0.836E-03 -.154E+01 0.428E+01   -.102E-07 -.189E-05 -.636E-06
   -.389E+00 -.845E+02 -.884E+02   0.133E+00 0.869E+02 0.861E+02   0.170E+00 -.318E+01 0.369E+01   -.251E-06 -.330E-05 -.350E-05
   0.100E-01 0.543E+02 0.526E+03   0.473E-05 -.562E+02 -.531E+03   0.459E-03 0.193E+01 0.417E+01   0.476E-08 0.598E-06 -.127E-05
   0.152E+02 0.131E+03 -.403E+02   -.154E+02 -.133E+03 0.397E+02   0.100E+01 0.234E+00 -.191E+01   -.762E-06 0.408E-05 -.308E-05
   -.884E-03 0.152E+01 0.572E+03   -.836E-04 -.172E+01 -.577E+03   0.230E-02 0.206E+00 0.478E+01   -.786E-09 0.167E-05 -.700E-05
   -.149E+01 -.407E+02 0.433E+01   0.191E+01 0.403E+02 -.663E+01   0.575E+00 0.802E-01 0.145E+01   0.478E-06 -.171E-05 0.104E-05
   -.745E-02 -.665E+02 0.562E+02   0.455E-03 0.684E+02 -.521E+02   0.577E-02 -.193E+01 -.404E+01   0.182E-07 -.549E-06 -.136E-05
   -.860E-01 -.778E+01 -.524E+03   0.285E-01 0.914E+01 0.527E+03   -.217E-01 -.125E+01 -.334E+01   0.225E-07 0.726E-05 0.470E-06
   -.135E-01 0.322E+02 0.209E+03   -.220E-03 -.343E+02 -.209E+03   0.162E-01 0.212E+01 0.324E+00   -.122E-07 -.132E-05 0.282E-06
   -.588E+00 -.250E+02 -.310E+03   -.138E+01 0.268E+02 0.310E+03   0.495E+00 0.640E+00 0.264E+01   0.183E-06 0.196E-06 -.142E-06
   0.174E-02 -.143E+02 0.139E+03   -.433E-03 0.146E+02 -.141E+03   -.545E-03 -.272E+00 0.254E+01   0.456E-08 0.845E-06 -.620E-06
   0.162E+00 0.176E+02 -.288E+03   0.983E-01 -.177E+02 0.285E+03   -.277E+00 0.221E+00 0.209E+01   -.109E-07 0.211E-05 -.523E-06
   -.513E-02 -.568E+01 0.346E+03   0.638E-04 0.614E+01 -.343E+03   0.370E-02 -.472E+00 -.251E+01   -.924E-08 0.457E-06 -.238E-05
   0.412E+01 -.608E+02 -.126E+03   -.308E+01 0.633E+02 0.126E+03   -.292E+00 -.939E+00 -.424E+00   -.938E-07 -.275E-05 0.118E-05
   0.175E-01 0.985E+01 0.336E+03   0.225E-04 -.101E+02 -.333E+03   -.756E-02 0.238E+00 -.243E+01   0.324E-08 0.140E-05 -.139E-05
   -.300E+02 -.962E+01 -.809E+02   0.576E+02 0.630E+02 0.276E+02   0.148E+02 0.308E+02 -.426E+02   0.449E-06 0.491E-05 0.477E-06
   -.128E+00 0.113E+02 0.129E+03   0.218E-02 -.118E+02 -.132E+03   0.119E+00 0.430E+00 0.259E+01   -.120E-07 0.540E-06 -.345E-07
   0.134E+01 -.259E+02 -.317E+03   -.141E+01 0.264E+02 0.317E+03   0.893E-01 0.122E+00 -.849E+00   0.563E-07 -.655E-05 -.999E-06
   0.435E-02 -.313E+02 0.253E+03   -.953E-04 0.334E+02 -.253E+03   -.801E-03 -.213E+01 -.355E+00   0.206E-08 -.442E-06 -.274E-06
   0.130E+02 0.909E+02 -.293E+03   -.385E+02 -.144E+03 0.349E+03   -.172E+02 -.329E+02 0.396E+02   0.426E-06 0.608E-05 0.947E-07
 -----------------------------------------------------------------------------------------------
   0.841E+00 0.543E+01 0.505E+01   -.213E-13 0.568E-13 -.171E-12   -.835E+00 -.543E+01 -.504E+01   0.298E-06 0.190E-05 -.184E-04
 
 
 POSITION                                       TOTAL-FORCE (eV/Angst)
 -----------------------------------------------------------------------------------
      0.00000      2.34757      6.41229         0.054701      0.004488      0.084632
      1.41616      6.46531     14.16300        -0.146006     -0.240940      0.091277
     -0.00000      9.43147      5.75866         0.003169     -0.014632      0.093161
     -0.35404      3.25486     13.50937        -0.598877     -0.470110      0.961209
     -0.00000      6.40009      2.31424        -0.002462     -0.007049      0.011508
     -0.00000      6.40009     10.06495        -0.085751     -0.802039      1.320076
      1.77020     10.27849      2.37372         0.010206      0.004439      0.002654
      1.77020     10.27849     10.12443         0.806105     -1.410290     -2.436072
      1.77020      3.18974      1.66157         0.001077     -0.001500      0.016949
      1.77020      3.18974      9.41228         0.995120     -0.357365     -0.844015
      1.77020      5.55354      5.69975        -0.001481      0.001400      0.101938
     -0.35404      9.67128     13.45047        -0.079475      0.116411      0.307122
      1.77020      9.05319      4.34076         0.002192      0.001119      0.008766
      1.41616      2.87658     12.09147        -1.470067      2.464225      2.482411
      0.00000      4.22380      5.10944         0.000512      0.029603      0.039341
      1.41616      8.34154     12.86016        -0.017731      0.134540     -0.693390
     -0.00000      4.15582      2.74166        -0.001622     -0.004949     -0.026027
     -0.00000      4.15582     10.49237         0.750463      1.655805     -0.814655
      1.77020      1.31366      2.96438         0.009713     -0.001342     -0.035291
      1.77020      1.31366     10.71510        42.434838     84.227690    -95.905762
      1.77020      1.38163      5.33187        -0.007590     -0.053763      0.030454
     -0.35404      5.49936     13.08259         0.024848      0.644389     -0.616216
      1.77020      6.77850      3.73234         0.003203      0.015235     -0.006334
      1.41616      0.60189     11.48306       -42.685087    -85.935365     95.826266
 -----------------------------------------------------------------------------------
    total drift:                                0.006111      0.001131      0.004694


--------------------------------------------------------------------------------------------------------



  FREE ENERGIE OF THE ION-ELECTRON SYSTEM (eV)
  ---------------------------------------------------
  free  energy   TOTEN  =       -79.06527293 eV

  energy  without entropy=      -79.01787822  energy(sigma->0) =      -79.04157557
 


--------------------------------------------------------------------------------------------------------


    POTLOK:  cpu time   14.96: real time   14.97


--------------------------------------------------------------------------------------------------------


     LOOP+:  cpu time 2999.30: real time 3004.98
    4ORBIT:  cpu time    0.00: real time    0.00

 total amount of memory used by VASP on root node   146493. kBytes
========================================================================

   base      :      30000. kBytes
   nonlr-proj:       3452. kBytes
   fftplans  :       9347. kBytes
   grid      :      14649. kBytes
   one-center:         36. kBytes
   wavefun   :      89009. kBytes
 
  
  
 General timing and accounting informations for this job:
 ========================================================
  
                  Total CPU time used (sec):     3015.519
                            User time (sec):     2971.509
                          System time (sec):       44.009
                         Elapsed time (sec):     3022.229
  
                   Maximum memory used (kb):      335236.
                   Average memory used (kb):           0.
  
                          Minor page faults:      8468631
                          Major page faults:            7
                 Voluntary context switches:         1429
