<?xml version="1.0" encoding="ISO-8859-1"?>
<modeling>
 <generator>
  <i name="program" type="string">vasp </i>
  <i name="version" type="string">5.3.5  </i>
  <i name="subversion" type="string">31Mar14 (build Oct 29 2014 16:16:03) complex                          parallel </i>
  <i name="platform" type="string">Linux-UFHPC </i>
  <i name="date" type="string">2016 02 09 </i>
  <i name="time" type="string">18:17:47 </i>
 </generator>
 <incar>
  <i type="string" name="PREC">accurate</i>
  <i type="int" name="IBRION">     2</i>
  <i name="EDIFF">      0.00000100</i>
  <i type="int" name="NSW">     0</i>
  <i type="int" name="ISIF">     3</i>
  <i name="ENCUT">    300.00000000</i>
  <i type="string" name="LREAL"> Auto</i>
  <i type="int" name="ISMEAR">     0</i>
  <i name="SIGMA">      0.10000000</i>
  <i type="logical" name="LWAVE"> F  </i>
  <i type="logical" name="LCHARG"> F  </i>
  <i type="logical" name="LAECHG"> F  </i>
  <i type="string" name="GGA"> Bo</i>
  <i name="PARAM1">      0.18333333</i>
  <i name="PARAM2">      0.22000000</i>
  <i type="logical" name="LUSE_VDW"> T  </i>
  <i name="AGGAC">      0.00000000</i>
 </incar>
 <kpoints>
  <generation param="Gamma">
   <v type="int" name="divisions">      13        4        2 </v>
   <v name="usershift">      0.00000000       0.00000000       0.00000000 </v>
   <v name="genvec1">      0.07692308      -0.00000000       0.00000000 </v>
   <v name="genvec2">      0.00000000       0.25000000       0.00000000 </v>
   <v name="genvec3">      0.00000000       0.00000000       0.50000000 </v>
   <v name="shift">      0.00000000       0.00000000       0.00000000 </v>
  </generation>
  <varray name="kpointlist" >
   <v>       0.00000000       0.00000000       0.00000000 </v>
   <v>       0.07692308      -0.00000000       0.00000000 </v>
   <v>       0.15384615      -0.00000000       0.00000000 </v>
   <v>       0.23076923      -0.00000000       0.00000000 </v>
   <v>       0.30769231      -0.00000000       0.00000000 </v>
   <v>       0.38461538      -0.00000000       0.00000000 </v>
   <v>       0.46153846      -0.00000000       0.00000000 </v>
   <v>       0.00000000       0.25000000       0.00000000 </v>
   <v>       0.07692308       0.25000000       0.00000000 </v>
   <v>       0.15384615       0.25000000       0.00000000 </v>
   <v>       0.23076923       0.25000000       0.00000000 </v>
   <v>       0.30769231       0.25000000       0.00000000 </v>
   <v>       0.38461538       0.25000000       0.00000000 </v>
   <v>       0.46153846       0.25000000       0.00000000 </v>
   <v>      -0.46153846       0.25000000       0.00000000 </v>
   <v>      -0.38461538       0.25000000       0.00000000 </v>
   <v>      -0.30769231       0.25000000       0.00000000 </v>
   <v>      -0.23076923       0.25000000       0.00000000 </v>
   <v>      -0.15384615       0.25000000       0.00000000 </v>
   <v>      -0.07692308       0.25000000       0.00000000 </v>
   <v>       0.00000000       0.50000000       0.00000000 </v>
   <v>       0.07692308       0.50000000       0.00000000 </v>
   <v>       0.15384615       0.50000000       0.00000000 </v>
   <v>       0.23076923       0.50000000       0.00000000 </v>
   <v>       0.30769231       0.50000000       0.00000000 </v>
   <v>       0.38461538       0.50000000       0.00000000 </v>
   <v>       0.46153846       0.50000000       0.00000000 </v>
   <v>       0.00000000       0.00000000       0.50000000 </v>
   <v>       0.07692308      -0.00000000       0.50000000 </v>
   <v>       0.15384615      -0.00000000       0.50000000 </v>
   <v>       0.23076923      -0.00000000       0.50000000 </v>
   <v>       0.30769231      -0.00000000       0.50000000 </v>
   <v>       0.38461538      -0.00000000       0.50000000 </v>
   <v>       0.46153846      -0.00000000       0.50000000 </v>
   <v>       0.00000000       0.25000000       0.50000000 </v>
   <v>       0.07692308       0.25000000       0.50000000 </v>
   <v>       0.15384615       0.25000000       0.50000000 </v>
   <v>       0.23076923       0.25000000       0.50000000 </v>
   <v>       0.30769231       0.25000000       0.50000000 </v>
   <v>       0.38461538       0.25000000       0.50000000 </v>
   <v>       0.46153846       0.25000000       0.50000000 </v>
   <v>      -0.46153846       0.25000000       0.50000000 </v>
   <v>      -0.38461538       0.25000000       0.50000000 </v>
   <v>      -0.30769231       0.25000000       0.50000000 </v>
   <v>      -0.23076923       0.25000000       0.50000000 </v>
   <v>      -0.15384615       0.25000000       0.50000000 </v>
   <v>      -0.07692308       0.25000000       0.50000000 </v>
   <v>       0.00000000       0.50000000       0.50000000 </v>
   <v>       0.07692308       0.50000000       0.50000000 </v>
   <v>       0.15384615       0.50000000       0.50000000 </v>
   <v>       0.23076923       0.50000000       0.50000000 </v>
   <v>       0.30769231       0.50000000       0.50000000 </v>
   <v>       0.38461538       0.50000000       0.50000000 </v>
   <v>       0.46153846       0.50000000       0.50000000 </v>
  </varray>
  <varray name="weights" >
   <v>       0.00961538 </v>
   <v>       0.01923077 </v>
   <v>       0.01923077 </v>
   <v>       0.01923077 </v>
   <v>       0.01923077 </v>
   <v>       0.01923077 </v>
   <v>       0.01923077 </v>
   <v>       0.01923077 </v>
   <v>       0.01923077 </v>
   <v>       0.01923077 </v>
   <v>       0.01923077 </v>
   <v>       0.01923077 </v>
   <v>       0.01923077 </v>
   <v>       0.01923077 </v>
   <v>       0.01923077 </v>
   <v>       0.01923077 </v>
   <v>       0.01923077 </v>
   <v>       0.01923077 </v>
   <v>       0.01923077 </v>
   <v>       0.01923077 </v>
   <v>       0.00961538 </v>
   <v>       0.01923077 </v>
   <v>       0.01923077 </v>
   <v>       0.01923077 </v>
   <v>       0.01923077 </v>
   <v>       0.01923077 </v>
   <v>       0.01923077 </v>
   <v>       0.00961538 </v>
   <v>       0.01923077 </v>
   <v>       0.01923077 </v>
   <v>       0.01923077 </v>
   <v>       0.01923077 </v>
   <v>       0.01923077 </v>
   <v>       0.01923077 </v>
   <v>       0.01923077 </v>
   <v>       0.01923077 </v>
   <v>       0.01923077 </v>
   <v>       0.01923077 </v>
   <v>       0.01923077 </v>
   <v>       0.01923077 </v>
   <v>       0.01923077 </v>
   <v>       0.01923077 </v>
   <v>       0.01923077 </v>
   <v>       0.01923077 </v>
   <v>       0.01923077 </v>
   <v>       0.01923077 </v>
   <v>       0.01923077 </v>
   <v>       0.00961538 </v>
   <v>       0.01923077 </v>
   <v>       0.01923077 </v>
   <v>       0.01923077 </v>
   <v>       0.01923077 </v>
   <v>       0.01923077 </v>
   <v>       0.01923077 </v>
  </varray>
 </kpoints>
 <parameters>
  <separator name="general" >
   <i type="string" name="SYSTEM">unknown system</i>
   <i type="logical" name="LCOMPAT"> F  </i>
  </separator>
  <separator name="electronic" >
   <i type="string" name="PREC">accura</i>
   <i name="ENMAX">    300.00000000</i>
   <i name="ENAUG">    342.92400000</i>
   <i name="EDIFF">      0.00000100</i>
   <i type="int" name="IALGO">    38</i>
   <i type="int" name="IWAVPR">    10</i>
   <i type="int" name="NBANDS">    68</i>
   <i name="NELECT">    108.00000000</i>
   <i type="int" name="TURBO">     0</i>
   <i type="int" name="IRESTART">     0</i>
   <i type="int" name="NREBOOT">     0</i>
   <i type="int" name="NMIN">     0</i>
   <i name="EREF">      0.00000000</i>
   <separator name="electronic smearing" >
    <i type="int" name="ISMEAR">     0</i>
    <i name="SIGMA">      0.10000000</i>
    <i name="KSPACING">      0.50000000</i>
    <i type="logical" name="KGAMMA"> T  </i>
   </separator>
   <separator name="electronic projectors" >
    <i type="logical" name="LREAL"> T  </i>
    <v name="ROPT">     -0.00025000     -0.00025000</v>
    <i type="int" name="LMAXPAW">  -100</i>
    <i type="int" name="LMAXMIX">     2</i>
    <i type="logical" name="NLSPLINE"> F  </i>
   </separator>
   <separator name="electronic startup" >
    <i type="int" name="ISTART">     0</i>
    <i type="int" name="ICHARG">     2</i>
    <i type="int" name="INIWAV">     1</i>
   </separator>
   <separator name="electronic spin" >
    <i type="int" name="ISPIN">     1</i>
    <i type="logical" name="LNONCOLLINEAR"> F  </i>
    <v name="MAGMOM">      1.00000000      1.00000000      1.00000000      1.00000000      1.00000000      1.00000000      1.00000000      1.00000000      1.00000000      1.00000000      1.00000000      1.00000000      1.00000000      1.00000000      1.00000000      1.00000000      1.00000000      1.00000000      1.00000000      1.00000000
      1.00000000      1.00000000      1.00000000      1.00000000</v>
    <i name="NUPDOWN">     -1.00000000</i>
    <i type="logical" name="LSORBIT"> F  </i>
    <v name="SAXIS">      0.00000000      0.00000000      1.00000000</v>
    <i type="logical" name="LSPIRAL"> F  </i>
    <v name="QSPIRAL">      0.00000000      0.00000000      0.00000000</v>
    <i type="logical" name="LZEROZ"> F  </i>
   </separator>
   <separator name="electronic exchange-correlation" >
    <i type="logical" name="LASPH"> F  </i>
    <i type="logical" name="LMETAGGA"> F  </i>
   </separator>
   <separator name="electronic convergence" >
    <i type="int" name="NELM">    60</i>
    <i type="int" name="NELMDL">    -5</i>
    <i type="int" name="NELMIN">     2</i>
    <i name="ENINI">    300.00000000</i>
    <separator name="electronic convergence detail" >
     <i type="logical" name="LDIAG"> T  </i>
     <i type="logical" name="LSUBROT"> F  </i>
     <i name="WEIMIN">      0.00000000</i>
     <i name="EBREAK">      0.00000000</i>
     <i name="DEPER">      0.30000000</i>
     <i type="int" name="NRMM">     4</i>
     <i name="TIME">      0.40000000</i>
    </separator>
   </separator>
   <separator name="electronic mixer" >
    <i name="AMIX">      0.40000000</i>
    <i name="BMIX">      1.00000000</i>
    <i name="AMIN">      0.10000000</i>
    <i name="AMIX_MAG">      1.60000000</i>
    <i name="BMIX_MAG">      1.00000000</i>
    <separator name="electronic mixer details" >
     <i type="int" name="IMIX">     4</i>
     <i type="int" name="MAXMIX">   -45</i>
     <i name="WC">    100.00000000</i>
     <i type="int" name="INIMIX">     1</i>
     <i type="int" name="MIXPRE">     1</i>
     <i type="int" name="MREMOVE">     5</i>
    </separator>
   </separator>
   <separator name="electronic dipolcorrection" >
    <i type="logical" name="LDIPOL"> F  </i>
    <i type="logical" name="LMONO"> F  </i>
    <i type="int" name="IDIPOL">     0</i>
    <i name="EPSILON">      1.00000000</i>
    <v name="DIPOL">   -100.00000000   -100.00000000   -100.00000000</v>
    <i name="EFIELD">      0.00000000</i>
   </separator>
  </separator>
  <separator name="grids" >
   <i type="int" name="NGX">    20</i>
   <i type="int" name="NGY">    60</i>
   <i type="int" name="NGZ">   160</i>
   <i type="int" name="NGXF">    40</i>
   <i type="int" name="NGYF">   120</i>
   <i type="int" name="NGZF">   320</i>
   <i type="logical" name="ADDGRID"> F  </i>
  </separator>
  <separator name="ionic" >
   <i type="int" name="NSW">     0</i>
   <i type="int" name="IBRION">    -1</i>
   <i type="int" name="ISIF">     3</i>
   <i name="PSTRESS">      0.00000000</i>
   <i name="EDIFFG">      0.00001000</i>
   <i type="int" name="NFREE">     1</i>
   <i name="POTIM">      0.50000000</i>
   <i name="SMASS">     -3.00000000</i>
   <i name="SCALEE">      1.00000000</i>
  </separator>
  <separator name="ionic md" >
   <i name="TEBEG">      0.00010000</i>
   <i name="TEEND">      0.00010000</i>
   <i type="int" name="NBLOCK">     1</i>
   <i type="int" name="KBLOCK">     1</i>
   <i type="int" name="NPACO">   256</i>
   <i name="APACO">     16.00000000</i>
  </separator>
  <separator name="symmetry" >
   <i type="int" name="ISYM">     2</i>
   <i name="SYMPREC">      0.00001000</i>
  </separator>
  <separator name="dos" >
   <i type="logical" name="LORBIT"> F  </i>
   <v name="RWIGS">     -1.00000000     -1.00000000</v>
   <i type="int" name="NEDOS">   301</i>
   <i name="EMIN">     10.00000000</i>
   <i name="EMAX">    -10.00000000</i>
   <i name="EFERMI">      0.00000000</i>
  </separator>
  <separator name="writing" >
   <i type="int" name="NWRITE">     2</i>
   <i type="logical" name="LWAVE"> F  </i>
   <i type="logical" name="LCHARG"> F  </i>
   <i type="logical" name="LPARD"> F  </i>
   <i type="logical" name="LVTOT"> F  </i>
   <i type="logical" name="LVHAR"> F  </i>
   <i type="logical" name="LELF"> F  </i>
   <i type="logical" name="LOPTICS"> F  </i>
   <v name="STM">      0.00000000      0.00000000      0.00000000      0.00000000      0.00000000      0.00000000      0.00000000</v>
  </separator>
  <separator name="performance" >
   <i type="int" name="NPAR">     4</i>
   <i type="int" name="NSIM">     4</i>
   <i type="int" name="NBLK">    -1</i>
   <i type="logical" name="LPLANE"> T  </i>
   <i type="logical" name="LSCALAPACK"> T  </i>
   <i type="logical" name="LSCAAWARE"> F  </i>
   <i type="logical" name="LSCALU"> F  </i>
   <i type="logical" name="LASYNC"> F  </i>
   <i type="logical" name="LORBITALREAL"> F  </i>
  </separator>
  <separator name="miscellaneous" >
   <i type="int" name="IDIOT">     3</i>
   <i type="logical" name="LMUSIC"> F  </i>
   <v name="POMASS">     30.97400000     28.08500000</v>
   <v name="DARWINR">      0.00000000      0.00000000</v>
   <v name="DARWINV">      1.00000000      1.00000000</v>
   <i type="logical" name="LCORR"> T  </i>
  </separator>
  <i type="logical" name="GGA_COMPAT"> T  </i>
  <i type="logical" name="LBERRY"> F  </i>
  <i type="int" name="ICORELEVEL">     0</i>
  <i type="logical" name="LDAU"> F  </i>
  <i type="int" name="I_CONSTRAINED_M">     0</i>
  <separator name="electronic exchange-correlation" >
   <i type="string" name="GGA">BO</i>
   <i type="int" name="VOSKOWN">     0</i>
   <i type="logical" name="LHFCALC"> F  </i>
   <i type="string" name="PRECFOCK"></i>
   <i type="logical" name="LSYMGRAD"> F  </i>
   <i type="logical" name="LHFONE"> F  </i>
   <i type="logical" name="LRHFCALC"> F  </i>
   <i type="logical" name="LTHOMAS"> F  </i>
   <i type="logical" name="LMODELHF"> F  </i>
   <i name="ENCUT4O">     -1.00000000</i>
   <i type="int" name="EXXOEP">     0</i>
   <i type="int" name="FOURORBIT">     0</i>
   <i name="AEXX">      0.00000000</i>
   <i name="HFALPHA">      0.00000000</i>
   <i name="MCALPHA">      0.00000000</i>
   <i name="ALDAX">      1.00000000</i>
   <i name="AGGAX">      1.00000000</i>
   <i name="ALDAC">      1.00000000</i>
   <i name="AGGAC">      0.00000000</i>
   <i type="int" name="NKREDX">     1</i>
   <i type="int" name="NKREDY">     1</i>
   <i type="int" name="NKREDZ">     1</i>
   <i type="logical" name="SHIFTRED"> F  </i>
   <i type="logical" name="ODDONLY"> F  </i>
   <i type="logical" name="EVENONLY"> F  </i>
   <i type="int" name="LMAXFOCK">     0</i>
   <i type="int" name="NMAXFOCKAE">     0</i>
   <i type="logical" name="LFOCKAEDFT"> F  </i>
   <i name="HFSCREEN">      0.00000000</i>
   <i name="HFSCREENC">      0.00000000</i>
   <i type="int" name="NBANDSGWLOW">     0</i>
  </separator>
  <separator name="vdW DFT" >
   <i type="logical" name="LUSE_VDW"> T  </i>
   <i name="Zab_VDW">     -0.84910000</i>
   <i name="PARAM1">      0.18333333</i>
   <i name="PARAM2">      0.22000000</i>
   <i name="PARAM3">      0.00000000</i>
  </separator>
  <separator name="model GW" >
   <i type="int" name="MODEL_GW">     0</i>
   <i name="MODEL_EPS0">     25.05800243</i>
   <i name="MODEL_ALPHA">      1.00000000</i>
  </separator>
  <separator name="linear response parameters" >
   <i type="logical" name="LEPSILON"> F  </i>
   <i type="logical" name="LRPA"> F  </i>
   <i type="logical" name="LNABLA"> F  </i>
   <i type="logical" name="LVEL"> F  </i>
   <i type="int" name="KINTER">     0</i>
   <i name="CSHIFT">      0.10000000</i>
   <i name="OMEGAMAX">     -1.00000000</i>
   <i name="DEG_THRESHOLD">      0.00200000</i>
  </separator>
  <separator name="orbital magnetization" >
   <i type="logical" name="NUCIND"> F  </i>
   <v name="MAGPOS">      0.00000000      0.00000000      0.00000000</v>
   <i type="logical" name="LNICSALL"> T  </i>
   <i type="logical" name="ORBITALMAG"> F  </i>
   <i type="logical" name="LMAGBLOCH"> F  </i>
   <i type="logical" name="LCHIMAG"> F  </i>
   <i type="logical" name="LGAUGE"> T  </i>
   <i type="int" name="MAGATOM">     0</i>
   <v name="MAGDIPOL">      0.00000000      0.00000000      0.00000000</v>
   <v name="AVECCONST">      0.00000000      0.00000000      0.00000000</v>
  </separator>
  <separator name="response functions" >
   <i type="logical" name="LADDER"> F  </i>
   <i type="logical" name="LFXC"> F  </i>
   <i type="logical" name="LHARTREE"> T  </i>
   <i type="int" name="IBSE">     0</i>
   <i type="logical" name="LTCTE"> F  </i>
   <i type="logical" name="LTETE"> F  </i>
   <i type="logical" name="LTRIPLET"> F  </i>
   <i type="logical" name="LFXCEPS"> F  </i>
   <i type="logical" name="LFXHEG"> F  </i>
   <i type="logical" name="L2ORDER"> F  </i>
   <i type="logical" name="LUSEW"> F  </i>
   <i name="ENCUTGW">     -2.00000000</i>
   <i name="ENCUTGWSOFT">     -2.00000000</i>
   <i name="ENCUTLF">     -1.00000000</i>
   <i type="int" name="LMAXMP2">    -1</i>
   <i name="SCISSOR">      0.00000000</i>
   <i type="int" name="NOMEGA">     0</i>
   <i type="int" name="NOMEGAR">     0</i>
   <i type="int" name="NBANDSGW">    -1</i>
   <i type="int" name="NBANDSO">    -1</i>
   <i type="int" name="NBANDSV">    -1</i>
   <i type="int" name="NELM">     1</i>
   <i type="int" name="DIM">     3</i>
   <i type="int" name="ANTIRES">     0</i>
   <i name="OMEGAMAX">    -30.00000000</i>
   <i name="OMEGAMIN">    -30.00000000</i>
   <i name="OMEGATL">   -200.00000000</i>
   <i type="int" name="OMEGAGRID">     0</i>
   <i name="CSHIFT">     -0.10000000</i>
   <i type="logical" name="SELFENERGY"> F  </i>
   <i type="logical" name="LSPECTRAL"> F  </i>
   <i type="logical" name="ODDONLYGW"> F  </i>
   <i type="logical" name="EVENONLYGW"> F  </i>
   <i type="int" name="NKREDLFX">     1</i>
   <i type="int" name="NKREDLFY">     1</i>
   <i type="int" name="NKREDLFZ">     1</i>
   <i type="int" name="MAXMEM">  1800</i>
   <i type="int" name="TELESCOPE">     0</i>
   <i type="int" name="TAUPAR">     1</i>
  </separator>
  <separator name="External order field" >
   <i name="OFIELD_KAPPA">      0.00000000</i>
   <v name="OFIELD_K">      0.00000000      0.00000000      0.00000000</v>
   <i name="OFIELD_Q6_NEAR">      0.00000000</i>
   <i name="OFIELD_Q6_FAR">      0.00000000</i>
   <i name="OFIELD_A">      0.00000000</i>
  </separator>
 </parameters>
 <atominfo>
  <atoms>      24 </atoms>
  <types>       2 </types>
  <array name="atoms" >
   <dimension dim="1">ion</dimension>
   <field type="string">element</field>
   <field type="int">atomtype</field>
   <set>
    <rc><c>P </c><c>   1</c></rc>
    <rc><c>P </c><c>   1</c></rc>
    <rc><c>P </c><c>   1</c></rc>
    <rc><c>P </c><c>   1</c></rc>
    <rc><c>P </c><c>   1</c></rc>
    <rc><c>P </c><c>   1</c></rc>
    <rc><c>P </c><c>   1</c></rc>
    <rc><c>P </c><c>   1</c></rc>
    <rc><c>P </c><c>   1</c></rc>
    <rc><c>P </c><c>   1</c></rc>
    <rc><c>P </c><c>   1</c></rc>
    <rc><c>P </c><c>   1</c></rc>
    <rc><c>Si</c><c>   2</c></rc>
    <rc><c>Si</c><c>   2</c></rc>
    <rc><c>Si</c><c>   2</c></rc>
    <rc><c>Si</c><c>   2</c></rc>
    <rc><c>Si</c><c>   2</c></rc>
    <rc><c>Si</c><c>   2</c></rc>
    <rc><c>Si</c><c>   2</c></rc>
    <rc><c>Si</c><c>   2</c></rc>
    <rc><c>Si</c><c>   2</c></rc>
    <rc><c>Si</c><c>   2</c></rc>
    <rc><c>Si</c><c>   2</c></rc>
    <rc><c>Si</c><c>   2</c></rc>
   </set>
  </array>
  <array name="atomtypes" >
   <dimension dim="1">type</dimension>
   <field type="int">atomspertype</field>
   <field type="string">element</field>
   <field>mass</field>
   <field>valence</field>
   <field type="string">pseudopotential</field>
   <set>
    <rc><c>  12</c><c>P </c><c>     30.97400000</c><c>      5.00000000</c><c>  PAW_PBE P 17Jan2003                   </c></rc>
    <rc><c>  12</c><c>Si</c><c>     28.08500000</c><c>      4.00000000</c><c> PAW_PBE Si 05Jan2001                   </c></rc>
   </set>
  </array>
 </atominfo>
 <structure name="initialpos" >
  <crystal>
   <varray name="basis" >
    <v>       3.54040000       0.00000000       0.00000000 </v>
    <v>      -1.77020000      10.29434800       0.00000000 </v>
    <v>       0.00000000       0.00000000      27.50142900 </v>
   </varray>
   <i name="volume">   1002.32009712 </i>
   <varray name="rec_basis" >
    <v>       0.28245396       0.04857034       0.00000000 </v>
    <v>       0.00000000       0.09714068       0.00000000 </v>
    <v>       0.00000000       0.00000000       0.03636175 </v>
   </varray>
  </crystal>
  <varray name="positions" >
   <v>       0.11402300       0.22804500       0.23316207 </v>
   <v>       0.71402300       0.62804500       0.51499159 </v>
   <v>       0.45808900       0.91617900       0.20939482 </v>
   <v>       0.05808900       0.31617900       0.49122434 </v>
   <v>       0.31085400       0.62170900       0.08414979 </v>
   <v>       0.31085400       0.62170900       0.36597930 </v>
   <v>       0.99923000       0.99846000       0.08631254 </v>
   <v>       0.99923000       0.99846000       0.36814206 </v>
   <v>       0.65492700       0.30985400       0.06041748 </v>
   <v>       0.65492700       0.30985400       0.34224700 </v>
   <v>       0.76973800       0.53947500       0.20725292 </v>
   <v>       0.36973800       0.93947500       0.48908244 </v>
   <v>       0.93971600       0.87943300       0.15783749 </v>
   <v>       0.53971600       0.27943300       0.43966701 </v>
   <v>       0.20515200       0.41030300       0.18578822 </v>
   <v>       0.80515200       0.81030300       0.46761774 </v>
   <v>       0.20184900       0.40369900       0.09969156 </v>
   <v>       0.20184900       0.40369900       0.38152107 </v>
   <v>       0.56380500       0.12761000       0.10779021 </v>
   <v>       0.56380500       0.12761000       0.38961973 </v>
   <v>       0.56710600       0.13421200       0.19387616 </v>
   <v>       0.16710600       0.53421200       0.47570568 </v>
   <v>       0.82923400       0.65846800       0.13571444 </v>
   <v>       0.42923400       0.05846800       0.41754396 </v>
  </varray>
 </structure>
 <calculation>
  <scstep>
   <time name="dav">   76.11   76.15</time>
   <time name="total">   92.54   92.65</time>
   <energy>
    <i name="alphaZ">     36.80884744 </i>
    <i name="ewald">  12064.24424110 </i>
    <i name="hartreedc"> -15048.60904342 </i>
    <i name="XCdc">    -87.31647703 </i>
    <i name="pawpsdc">   1056.43050070 </i>
    <i name="pawaedc">   -732.41190547 </i>
    <i name="eentropy">     -0.04298508 </i>
    <i name="bandstr">    -97.45160539 </i>
    <i name="atom">   3354.04126044 </i>
    <i name="e_fr_energy">    545.69283330 </i>
    <i name="e_wo_entrp">    545.73581838 </i>
    <i name="e_0_energy">    545.71432584 </i>
   </energy>
  </scstep>
  <scstep>
   <time name="dav">   95.22   95.25</time>
   <time name="total">   95.23   95.26</time>
   <energy>
    <i name="e_fr_energy">    -21.01007603 </i>
    <i name="e_wo_entrp">    -20.98457974 </i>
    <i name="e_0_energy">    -20.99732788 </i>
   </energy>
  </scstep>
  <scstep>
   <time name="dav">   92.64   92.67</time>
   <time name="total">   92.65   92.69</time>
   <energy>
    <i name="e_fr_energy">    -81.74486944 </i>
    <i name="e_wo_entrp">    -81.71886866 </i>
    <i name="e_0_energy">    -81.73186905 </i>
   </energy>
  </scstep>
  <scstep>
   <time name="dav">  106.90  106.94</time>
   <time name="total">  106.91  106.95</time>
   <energy>
    <i name="e_fr_energy">    -84.79448594 </i>
    <i name="e_wo_entrp">    -84.76816978 </i>
    <i name="e_0_energy">    -84.78132786 </i>
   </energy>
  </scstep>
  <scstep>
   <time name="dav">  101.49  101.78</time>
   <time name="total">  106.44  106.74</time>
   <energy>
    <i name="e_fr_energy">    -84.86219363 </i>
    <i name="e_wo_entrp">    -84.83566829 </i>
    <i name="e_0_energy">    -84.84893096 </i>
   </energy>
  </scstep>
  <scstep>
   <time name="dav">   90.25   90.52</time>
   <time name="total">  110.12  110.43</time>
   <energy>
    <i name="e_fr_energy">    -79.53702805 </i>
    <i name="e_wo_entrp">    -79.51128254 </i>
    <i name="e_0_energy">    -79.52415530 </i>
   </energy>
  </scstep>
  <scstep>
   <time name="dav">   85.44   85.74</time>
   <time name="total">  105.15  105.49</time>
   <energy>
    <i name="e_fr_energy">    -79.07907159 </i>
    <i name="e_wo_entrp">    -79.03350044 </i>
    <i name="e_0_energy">    -79.05628602 </i>
   </energy>
  </scstep>
  <scstep>
   <time name="dav">   85.14   85.32</time>
   <time name="total">  105.03  105.23</time>
   <energy>
    <i name="e_fr_energy">    -79.11186470 </i>
    <i name="e_wo_entrp">    -79.07720039 </i>
    <i name="e_0_energy">    -79.09453255 </i>
   </energy>
  </scstep>
  <scstep>
   <time name="dav">   91.73   91.76</time>
   <time name="total">  111.50  111.54</time>
   <energy>
    <i name="e_fr_energy">    -79.11359104 </i>
    <i name="e_wo_entrp">    -79.06238614 </i>
    <i name="e_0_energy">    -79.08798859 </i>
   </energy>
  </scstep>
  <scstep>
   <time name="dav">   87.57   87.62</time>
   <time name="total">  107.31  107.38</time>
   <energy>
    <i name="e_fr_energy">    -79.09948150 </i>
    <i name="e_wo_entrp">    -79.05500915 </i>
    <i name="e_0_energy">    -79.07724533 </i>
   </energy>
  </scstep>
  <scstep>
   <time name="dav">   91.71   91.80</time>
   <time name="total">  111.48  111.57</time>
   <energy>
    <i name="e_fr_energy">    -79.08736545 </i>
    <i name="e_wo_entrp">    -79.04026669 </i>
    <i name="e_0_energy">    -79.06381607 </i>
   </energy>
  </scstep>
  <scstep>
   <time name="dav">   91.16   91.20</time>
   <time name="total">  110.90  110.95</time>
   <energy>
    <i name="e_fr_energy">    -79.07889081 </i>
    <i name="e_wo_entrp">    -79.03156301 </i>
    <i name="e_0_energy">    -79.05522691 </i>
   </energy>
  </scstep>
  <scstep>
   <time name="dav">   92.59   92.66</time>
   <time name="total">  112.34  112.42</time>
   <energy>
    <i name="e_fr_energy">    -79.07226371 </i>
    <i name="e_wo_entrp">    -79.02502580 </i>
    <i name="e_0_energy">    -79.04864475 </i>
   </energy>
  </scstep>
  <scstep>
   <time name="dav">   90.63   90.66</time>
   <time name="total">  110.45  110.48</time>
   <energy>
    <i name="e_fr_energy">    -79.06781009 </i>
    <i name="e_wo_entrp">    -79.02051138 </i>
    <i name="e_0_energy">    -79.04416073 </i>
   </energy>
  </scstep>
  <scstep>
   <time name="dav">   96.94   97.01</time>
   <time name="total">  116.76  116.84</time>
   <energy>
    <i name="e_fr_energy">    -79.06538825 </i>
    <i name="e_wo_entrp">    -79.01797714 </i>
    <i name="e_0_energy">    -79.04168269 </i>
   </energy>
  </scstep>
  <scstep>
   <time name="dav">   90.05   90.10</time>
   <time name="total">  109.84  109.90</time>
   <energy>
    <i name="e_fr_energy">    -79.06461326 </i>
    <i name="e_wo_entrp">    -79.01724273 </i>
    <i name="e_0_energy">    -79.04092800 </i>
   </energy>
  </scstep>
  <scstep>
   <time name="dav">   81.77   81.79</time>
   <time name="total">  101.56  101.62</time>
   <energy>
    <i name="e_fr_energy">    -79.06457550 </i>
    <i name="e_wo_entrp">    -79.01717832 </i>
    <i name="e_0_energy">    -79.04087691 </i>
   </energy>
  </scstep>
  <scstep>
   <time name="dav">   82.37   82.40</time>
   <time name="total">  102.12  102.16</time>
   <energy>
    <i name="e_fr_energy">    -79.06509260 </i>
    <i name="e_wo_entrp">    -79.01768899 </i>
    <i name="e_0_energy">    -79.04139080 </i>
   </energy>
  </scstep>
  <scstep>
   <time name="dav">   78.80   78.87</time>
   <time name="total">   98.69   98.78</time>
   <energy>
    <i name="e_fr_energy">    -79.06534044 </i>
    <i name="e_wo_entrp">    -79.01794561 </i>
    <i name="e_0_energy">    -79.04164303 </i>
   </energy>
  </scstep>
  <scstep>
   <time name="dav">   74.96   75.01</time>
   <time name="total">   94.83   94.90</time>
   <energy>
    <i name="e_fr_energy">    -79.06539035 </i>
    <i name="e_wo_entrp">    -79.01799666 </i>
    <i name="e_0_energy">    -79.04169350 </i>
   </energy>
  </scstep>
  <scstep>
   <time name="dav">   67.37   67.46</time>
   <time name="total">   87.19   87.30</time>
   <energy>
    <i name="e_fr_energy">    -79.06540541 </i>
    <i name="e_wo_entrp">    -79.01801138 </i>
    <i name="e_0_energy">    -79.04170840 </i>
   </energy>
  </scstep>
  <scstep>
   <time name="dav">   75.03   75.47</time>
   <time name="total">   94.73   95.25</time>
   <energy>
    <i name="e_fr_energy">    -79.06539712 </i>
    <i name="e_wo_entrp">    -79.01800217 </i>
    <i name="e_0_energy">    -79.04169964 </i>
   </energy>
  </scstep>
  <scstep>
   <time name="dav">   69.65   69.79</time>
   <time name="total">   89.41   89.58</time>
   <energy>
    <i name="e_fr_energy">    -79.06536270 </i>
    <i name="e_wo_entrp">    -79.01796933 </i>
    <i name="e_0_energy">    -79.04166602 </i>
   </energy>
  </scstep>
  <scstep>
   <time name="dav">   71.61   72.31</time>
   <time name="total">   91.31   92.12</time>
   <energy>
    <i name="e_fr_energy">    -79.06530188 </i>
    <i name="e_wo_entrp">    -79.01790699 </i>
    <i name="e_0_energy">    -79.04160444 </i>
   </energy>
  </scstep>
  <scstep>
   <time name="dav">   68.34   68.58</time>
   <time name="total">   88.11   88.41</time>
   <energy>
    <i name="e_fr_energy">    -79.06528980 </i>
    <i name="e_wo_entrp">    -79.01789499 </i>
    <i name="e_0_energy">    -79.04159240 </i>
   </energy>
  </scstep>
  <scstep>
   <time name="dav">   69.75   70.13</time>
   <time name="total">   89.50   89.91</time>
   <energy>
    <i name="e_fr_energy">    -79.06527656 </i>
    <i name="e_wo_entrp">    -79.01788177 </i>
    <i name="e_0_energy">    -79.04157916 </i>
   </energy>
  </scstep>
  <scstep>
   <time name="dav">   63.71   64.11</time>
   <time name="total">   83.44   83.92</time>
   <energy>
    <i name="e_fr_energy">    -79.06527456 </i>
    <i name="e_wo_entrp">    -79.01787984 </i>
    <i name="e_0_energy">    -79.04157720 </i>
   </energy>
  </scstep>
  <scstep>
   <time name="dav">   60.38   60.49</time>
   <time name="total">   80.13   80.30</time>
   <energy>
    <i name="e_fr_energy">    -79.06527290 </i>
    <i name="e_wo_entrp">    -79.01787816 </i>
    <i name="e_0_energy">    -79.04157553 </i>
   </energy>
  </scstep>
  <scstep>
   <time name="dav">   60.56   60.89</time>
   <time name="total">   75.52   75.88</time>
   <energy>
    <i name="alphaZ">     36.80884744 </i>
    <i name="ewald">  12064.24424110 </i>
    <i name="hartreedc"> -15150.63313836 </i>
    <i name="XCdc">    -78.95274177 </i>
    <i name="pawpsdc">   1195.21045767 </i>
    <i name="pawaedc">   -875.47434213 </i>
    <i name="eentropy">     -0.04739471 </i>
    <i name="bandstr">   -624.26246263 </i>
    <i name="atom">   3354.04126044 </i>
    <i name="e_fr_energy">    -79.06527293 </i>
    <i name="e_wo_entrp">    -79.01787822 </i>
    <i name="e_0_energy">    -79.04157557 </i>
   </energy>
  </scstep>
  <structure>
   <crystal>
    <varray name="basis" >
     <v>       3.54040000       0.00000000       0.00000000 </v>
     <v>      -1.77020000      10.29434800       0.00000000 </v>
     <v>       0.00000000       0.00000000      27.50142900 </v>
    </varray>
    <i name="volume">   1002.32009712 </i>
    <varray name="rec_basis" >
     <v>       0.28245396       0.04857034       0.00000000 </v>
     <v>       0.00000000       0.09714068       0.00000000 </v>
     <v>       0.00000000       0.00000000       0.03636175 </v>
    </varray>
   </crystal>
   <varray name="positions" >
    <v>       0.11402300       0.22804500       0.23316207 </v>
    <v>       0.71402300       0.62804500       0.51499159 </v>
    <v>       0.45808900       0.91617900       0.20939482 </v>
    <v>       0.05808900       0.31617900       0.49122434 </v>
    <v>       0.31085400       0.62170900       0.08414979 </v>
    <v>       0.31085400       0.62170900       0.36597930 </v>
    <v>       0.99923000       0.99846000       0.08631254 </v>
    <v>       0.99923000       0.99846000       0.36814206 </v>
    <v>       0.65492700       0.30985400       0.06041748 </v>
    <v>       0.65492700       0.30985400       0.34224700 </v>
    <v>       0.76973800       0.53947500       0.20725292 </v>
    <v>       0.36973800       0.93947500       0.48908244 </v>
    <v>       0.93971600       0.87943300       0.15783749 </v>
    <v>       0.53971600       0.27943300       0.43966701 </v>
    <v>       0.20515200       0.41030300       0.18578822 </v>
    <v>       0.80515200       0.81030300       0.46761774 </v>
    <v>       0.20184900       0.40369900       0.09969156 </v>
    <v>       0.20184900       0.40369900       0.38152107 </v>
    <v>       0.56380500       0.12761000       0.10779021 </v>
    <v>       0.56380500       0.12761000       0.38961973 </v>
    <v>       0.56710600       0.13421200       0.19387616 </v>
    <v>       0.16710600       0.53421200       0.47570568 </v>
    <v>       0.82923400       0.65846800       0.13571444 </v>
    <v>       0.42923400       0.05846800       0.41754396 </v>
   </varray>
  </structure>
  <varray name="forces" >
   <v>       0.05470131       0.00448808       0.08463156 </v>
   <v>      -0.14600562      -0.24093982       0.09127657 </v>
   <v>       0.00316927      -0.01463225       0.09316093 </v>
   <v>      -0.59887719      -0.47011019       0.96120856 </v>
   <v>      -0.00246246      -0.00704943       0.01150838 </v>
   <v>      -0.08575079      -0.80203854       1.32007620 </v>
   <v>       0.01020595       0.00443877       0.00265443 </v>
   <v>       0.80610481      -1.41029044      -2.43607232 </v>
   <v>       0.00107730      -0.00149961       0.01694870 </v>
   <v>       0.99512033      -0.35736513      -0.84401463 </v>
   <v>      -0.00148055       0.00140002       0.10193796 </v>
   <v>      -0.07947478       0.11641072       0.30712226 </v>
   <v>       0.00219181       0.00111858       0.00876552 </v>
   <v>      -1.47006727       2.46422494       2.48241149 </v>
   <v>       0.00051245       0.02960324       0.03934051 </v>
   <v>      -0.01773076       0.13454032      -0.69339044 </v>
   <v>      -0.00162210      -0.00494929      -0.02602730 </v>
   <v>       0.75046277       1.65580529      -0.81465523 </v>
   <v>       0.00971255      -0.00134206      -0.03529099 </v>
   <v>      42.43483840      84.22769020     -95.90576182 </v>
   <v>      -0.00758956      -0.05376256       0.03045380 </v>
   <v>       0.02484810       0.64438891      -0.61621589 </v>
   <v>       0.00320301       0.01523528      -0.00633395 </v>
   <v>     -42.68508699     -85.93536502      95.82626568 </v>
  </varray>
  <varray name="stress" >
   <v>      27.01788476      46.21053128     -63.14399720 </v>
   <v>      46.21053116     102.06281725     -97.72821472 </v>
   <v>     -63.14399700     -97.72821465     122.92224167 </v>
  </varray>
  <energy>
   <i name="e_fr_energy">    -79.06527293 </i>
   <i name="e_wo_entrp">    -79.04157557 </i>
   <i name="e_0_energy">     -0.04739471 </i>
  </energy>
  <time name="totalsc"> 2999.30 3004.98</time>
  <eigenvalues>
   <array>
    <dimension dim="1">band</dimension>
    <dimension dim="2">kpoint</dimension>
    <dimension dim="3">spin</dimension>
    <field>eigene</field>
    <field>occ</field>
    <set>
     <set comment="spin 1">
      <set comment="kpoint 1">
       <r>  -14.7875    1.0000 </r>
       <r>  -13.6578    1.0000 </r>
       <r>  -13.2330    1.0000 </r>
       <r>  -12.9151    1.0000 </r>
       <r>  -12.6446    1.0000 </r>
       <r>  -12.5853    1.0000 </r>
       <r>  -12.2036    1.0000 </r>
       <r>  -11.8852    1.0000 </r>
       <r>  -11.5496    1.0000 </r>
       <r>  -11.4017    1.0000 </r>
       <r>  -11.1060    1.0000 </r>
       <r>  -10.1961    1.0000 </r>
       <r>   -9.4329    1.0000 </r>
       <r>   -8.1514    1.0000 </r>
       <r>   -7.9480    1.0000 </r>
       <r>   -7.1445    1.0000 </r>
       <r>   -7.0358    1.0000 </r>
       <r>   -6.8545    1.0000 </r>
       <r>   -6.6114    1.0000 </r>
       <r>   -6.4557    1.0000 </r>
       <r>   -6.2561    1.0000 </r>
       <r>   -5.9385    1.0000 </r>
       <r>   -5.0945    1.0000 </r>
       <r>   -4.8491    1.0000 </r>
       <r>   -4.3622    1.0000 </r>
       <r>   -4.1431    1.0000 </r>
       <r>   -3.9428    1.0000 </r>
       <r>   -3.7996    1.0000 </r>
       <r>   -3.6657    1.0000 </r>
       <r>   -3.2694    1.0000 </r>
       <r>   -3.1804    1.0000 </r>
       <r>   -3.1429    1.0000 </r>
       <r>   -2.9566    1.0000 </r>
       <r>   -2.8681    1.0000 </r>
       <r>   -2.5588    1.0000 </r>
       <r>   -2.5194    1.0000 </r>
       <r>   -2.4483    1.0000 </r>
       <r>   -2.3908    1.0000 </r>
       <r>   -2.3041    1.0000 </r>
       <r>   -2.1943    1.0000 </r>
       <r>   -2.1098    1.0000 </r>
       <r>   -1.9734    1.0000 </r>
       <r>   -1.8421    1.0000 </r>
       <r>   -1.7609    1.0000 </r>
       <r>   -1.6894    1.0000 </r>
       <r>   -1.6252    1.0000 </r>
       <r>   -1.5482    1.0000 </r>
       <r>   -1.4424    1.0000 </r>
       <r>   -1.3146    1.0000 </r>
       <r>   -1.2215    1.0000 </r>
       <r>   -1.1221    1.0000 </r>
       <r>   -0.7626    1.0000 </r>
       <r>    0.3643    0.6288 </r>
       <r>    0.4243    0.3017 </r>
       <r>    0.7216    0.0000 </r>
       <r>    0.9440    0.0000 </r>
       <r>    1.0606    0.0000 </r>
       <r>    1.1381    0.0000 </r>
       <r>    1.2048    0.0000 </r>
       <r>    1.2860    0.0000 </r>
       <r>    1.4606    0.0000 </r>
       <r>    1.6208    0.0000 </r>
       <r>    1.8755    0.0000 </r>
       <r>    2.0301    0.0000 </r>
       <r>    2.1396    0.0000 </r>
       <r>    2.2986    0.0000 </r>
       <r>    2.3293    0.0000 </r>
       <r>    2.5160    0.0000 </r>
      </set>
      <set comment="kpoint 2">
       <r>  -14.7326    1.0000 </r>
       <r>  -13.5964    1.0000 </r>
       <r>  -13.1781    1.0000 </r>
       <r>  -12.8629    1.0000 </r>
       <r>  -12.5876    1.0000 </r>
       <r>  -12.5292    1.0000 </r>
       <r>  -12.1413    1.0000 </r>
       <r>  -11.8359    1.0000 </r>
       <r>  -11.5006    1.0000 </r>
       <r>  -11.3500    1.0000 </r>
       <r>  -11.0577    1.0000 </r>
       <r>  -10.1773    1.0000 </r>
       <r>   -9.4122    1.0000 </r>
       <r>   -8.1878    1.0000 </r>
       <r>   -7.9112    1.0000 </r>
       <r>   -7.1620    1.0000 </r>
       <r>   -7.0096    1.0000 </r>
       <r>   -6.8579    1.0000 </r>
       <r>   -6.6165    1.0000 </r>
       <r>   -6.5824    1.0000 </r>
       <r>   -6.2771    1.0000 </r>
       <r>   -5.9051    1.0000 </r>
       <r>   -5.0849    1.0000 </r>
       <r>   -4.8546    1.0000 </r>
       <r>   -4.4779    1.0000 </r>
       <r>   -4.1162    1.0000 </r>
       <r>   -3.9654    1.0000 </r>
       <r>   -3.8310    1.0000 </r>
       <r>   -3.7116    1.0000 </r>
       <r>   -3.5439    1.0000 </r>
       <r>   -3.4873    1.0000 </r>
       <r>   -3.3787    1.0000 </r>
       <r>   -3.2867    1.0000 </r>
       <r>   -2.9269    1.0000 </r>
       <r>   -2.8225    1.0000 </r>
       <r>   -2.7918    1.0000 </r>
       <r>   -2.5967    1.0000 </r>
       <r>   -2.5865    1.0000 </r>
       <r>   -2.3813    1.0000 </r>
       <r>   -2.3161    1.0000 </r>
       <r>   -2.2569    1.0000 </r>
       <r>   -2.1098    1.0000 </r>
       <r>   -2.0767    1.0000 </r>
       <r>   -1.9443    1.0000 </r>
       <r>   -1.8785    1.0000 </r>
       <r>   -1.8335    1.0000 </r>
       <r>   -1.6221    1.0000 </r>
       <r>   -1.5114    1.0000 </r>
       <r>   -1.2660    1.0000 </r>
       <r>   -1.0832    1.0000 </r>
       <r>   -1.0519    1.0000 </r>
       <r>   -0.7458    1.0000 </r>
       <r>    0.4045    0.4056 </r>
       <r>    0.5050    0.0484 </r>
       <r>    0.8119    0.0000 </r>
       <r>    1.0915    0.0000 </r>
       <r>    1.1693    0.0000 </r>
       <r>    1.3070    0.0000 </r>
       <r>    1.4694    0.0000 </r>
       <r>    1.5356    0.0000 </r>
       <r>    1.6549    0.0000 </r>
       <r>    2.0224    0.0000 </r>
       <r>    2.0996    0.0000 </r>
       <r>    2.2063    0.0000 </r>
       <r>    2.4033    0.0000 </r>
       <r>    2.4992    0.0000 </r>
       <r>    2.5691    0.0000 </r>
       <r>    2.6549    0.0000 </r>
      </set>
      <set comment="kpoint 3">
       <r>  -14.5695    1.0000 </r>
       <r>  -13.4135    1.0000 </r>
       <r>  -13.0154    1.0000 </r>
       <r>  -12.7072    1.0000 </r>
       <r>  -12.4195    1.0000 </r>
       <r>  -12.3630    1.0000 </r>
       <r>  -11.9589    1.0000 </r>
       <r>  -11.6917    1.0000 </r>
       <r>  -11.3585    1.0000 </r>
       <r>  -11.2013    1.0000 </r>
       <r>  -10.9190    1.0000 </r>
       <r>  -10.1351    1.0000 </r>
       <r>   -9.3580    1.0000 </r>
       <r>   -8.2838    1.0000 </r>
       <r>   -7.8691    1.0000 </r>
       <r>   -7.5340    1.0000 </r>
       <r>   -6.9511    1.0000 </r>
       <r>   -6.8594    1.0000 </r>
       <r>   -6.6626    1.0000 </r>
       <r>   -6.6119    1.0000 </r>
       <r>   -6.2654    1.0000 </r>
       <r>   -5.8307    1.0000 </r>
       <r>   -5.1319    1.0000 </r>
       <r>   -5.0041    1.0000 </r>
       <r>   -4.9648    1.0000 </r>
       <r>   -4.3342    1.0000 </r>
       <r>   -4.2159    1.0000 </r>
       <r>   -4.1611    1.0000 </r>
       <r>   -4.1006    1.0000 </r>
       <r>   -3.9787    1.0000 </r>
       <r>   -3.8172    1.0000 </r>
       <r>   -3.7781    1.0000 </r>
       <r>   -3.5587    1.0000 </r>
       <r>   -3.3990    1.0000 </r>
       <r>   -3.2792    1.0000 </r>
       <r>   -3.1675    1.0000 </r>
       <r>   -3.0790    1.0000 </r>
       <r>   -3.0465    1.0000 </r>
       <r>   -2.7704    1.0000 </r>
       <r>   -2.6661    1.0000 </r>
       <r>   -2.4892    1.0000 </r>
       <r>   -2.3914    1.0000 </r>
       <r>   -2.2651    1.0000 </r>
       <r>   -2.1665    1.0000 </r>
       <r>   -2.0350    1.0000 </r>
       <r>   -1.8788    1.0000 </r>
       <r>   -1.7630    1.0000 </r>
       <r>   -1.4918    1.0000 </r>
       <r>   -1.3246    1.0000 </r>
       <r>   -1.0882    1.0000 </r>
       <r>   -0.9582    1.0000 </r>
       <r>   -0.4237    1.0000 </r>
       <r>    0.3164    0.8429 </r>
       <r>    0.3963    0.4506 </r>
       <r>    0.6777    0.0000 </r>
       <r>    0.9647    0.0000 </r>
       <r>    1.2276    0.0000 </r>
       <r>    1.5585    0.0000 </r>
       <r>    1.8276    0.0000 </r>
       <r>    2.0765    0.0000 </r>
       <r>    2.1715    0.0000 </r>
       <r>    2.3259    0.0000 </r>
       <r>    2.3507    0.0000 </r>
       <r>    2.5203    0.0000 </r>
       <r>    2.5870    0.0000 </r>
       <r>    2.7025    0.0000 </r>
       <r>    2.8412    0.0000 </r>
       <r>    2.9543    0.0000 </r>
      </set>
      <set comment="kpoint 4">
       <r>  -14.3047    1.0000 </r>
       <r>  -13.1125    1.0000 </r>
       <r>  -12.7526    1.0000 </r>
       <r>  -12.4509    1.0000 </r>
       <r>  -12.1496    1.0000 </r>
       <r>  -12.0956    1.0000 </r>
       <r>  -11.6712    1.0000 </r>
       <r>  -11.4665    1.0000 </r>
       <r>  -11.1413    1.0000 </r>
       <r>  -10.9813    1.0000 </r>
       <r>  -10.7162    1.0000 </r>
       <r>  -10.1147    1.0000 </r>
       <r>   -9.2958    1.0000 </r>
       <r>   -8.4752    1.0000 </r>
       <r>   -8.2040    1.0000 </r>
       <r>   -7.9415    1.0000 </r>
       <r>   -6.9257    1.0000 </r>
       <r>   -6.8286    1.0000 </r>
       <r>   -6.7527    1.0000 </r>
       <r>   -6.6632    1.0000 </r>
       <r>   -6.2987    1.0000 </r>
       <r>   -5.8527    1.0000 </r>
       <r>   -5.7876    1.0000 </r>
       <r>   -5.4551    1.0000 </r>
       <r>   -5.2923    1.0000 </r>
       <r>   -4.9271    1.0000 </r>
       <r>   -4.7250    1.0000 </r>
       <r>   -4.6335    1.0000 </r>
       <r>   -4.5022    1.0000 </r>
       <r>   -4.3353    1.0000 </r>
       <r>   -4.2765    1.0000 </r>
       <r>   -4.0256    1.0000 </r>
       <r>   -3.8923    1.0000 </r>
       <r>   -3.7411    1.0000 </r>
       <r>   -3.5829    1.0000 </r>
       <r>   -3.4669    1.0000 </r>
       <r>   -3.2759    1.0000 </r>
       <r>   -3.1072    1.0000 </r>
       <r>   -3.0668    1.0000 </r>
       <r>   -2.7477    1.0000 </r>
       <r>   -2.6469    1.0000 </r>
       <r>   -2.5447    1.0000 </r>
       <r>   -2.4711    1.0000 </r>
       <r>   -2.2043    1.0000 </r>
       <r>   -2.0175    1.0000 </r>
       <r>   -1.9354    1.0000 </r>
       <r>   -1.8462    1.0000 </r>
       <r>   -1.5892    1.0000 </r>
       <r>   -1.5069    1.0000 </r>
       <r>   -1.2264    1.0000 </r>
       <r>   -1.0103    1.0000 </r>
       <r>   -0.2245    1.0000 </r>
       <r>   -0.1351    1.0000 </r>
       <r>    0.1240    0.9999 </r>
       <r>    0.5926    0.0019 </r>
       <r>    0.9655    0.0000 </r>
       <r>    1.1725    0.0000 </r>
       <r>    1.6165    0.0000 </r>
       <r>    1.7595    0.0000 </r>
       <r>    1.8962    0.0000 </r>
       <r>    1.9374    0.0000 </r>
       <r>    2.0823    0.0000 </r>
       <r>    2.1862    0.0000 </r>
       <r>    2.3202    0.0000 </r>
       <r>    2.5694    0.0000 </r>
       <r>    2.7357    0.0000 </r>
       <r>    2.8241    0.0000 </r>
       <r>    2.8707    0.0000 </r>
      </set>
      <set comment="kpoint 5">
       <r>  -13.9526    1.0000 </r>
       <r>  -12.7007    1.0000 </r>
       <r>  -12.4116    1.0000 </r>
       <r>  -12.1025    1.0000 </r>
       <r>  -11.8016    1.0000 </r>
       <r>  -11.7502    1.0000 </r>
       <r>  -11.3130    1.0000 </r>
       <r>  -11.2074    1.0000 </r>
       <r>  -10.8965    1.0000 </r>
       <r>  -10.7680    1.0000 </r>
       <r>  -10.5307    1.0000 </r>
       <r>  -10.1446    1.0000 </r>
       <r>   -9.2714    1.0000 </r>
       <r>   -8.7989    1.0000 </r>
       <r>   -8.7696    1.0000 </r>
       <r>   -8.2016    1.0000 </r>
       <r>   -7.1582    1.0000 </r>
       <r>   -7.1152    1.0000 </r>
       <r>   -7.0182    1.0000 </r>
       <r>   -6.9389    1.0000 </r>
       <r>   -6.5593    1.0000 </r>
       <r>   -6.2774    1.0000 </r>
       <r>   -6.1430    1.0000 </r>
       <r>   -6.0817    1.0000 </r>
       <r>   -5.5961    1.0000 </r>
       <r>   -5.3258    1.0000 </r>
       <r>   -4.9651    1.0000 </r>
       <r>   -4.8590    1.0000 </r>
       <r>   -4.8080    1.0000 </r>
       <r>   -4.5244    1.0000 </r>
       <r>   -4.4256    1.0000 </r>
       <r>   -4.3768    1.0000 </r>
       <r>   -4.3266    1.0000 </r>
       <r>   -3.6957    1.0000 </r>
       <r>   -3.5061    1.0000 </r>
       <r>   -3.3339    1.0000 </r>
       <r>   -3.2688    1.0000 </r>
       <r>   -3.1938    1.0000 </r>
       <r>   -3.0479    1.0000 </r>
       <r>   -2.8684    1.0000 </r>
       <r>   -2.7616    1.0000 </r>
       <r>   -2.6849    1.0000 </r>
       <r>   -2.5128    1.0000 </r>
       <r>   -2.3578    1.0000 </r>
       <r>   -2.1746    1.0000 </r>
       <r>   -2.0093    1.0000 </r>
       <r>   -1.9769    1.0000 </r>
       <r>   -1.8246    1.0000 </r>
       <r>   -1.5595    1.0000 </r>
       <r>   -1.4263    1.0000 </r>
       <r>   -1.0786    1.0000 </r>
       <r>   -0.7812    1.0000 </r>
       <r>   -0.3015    1.0000 </r>
       <r>   -0.0008    1.0000 </r>
       <r>    0.4869    0.0801 </r>
       <r>    0.8141    0.0000 </r>
       <r>    1.1161    0.0000 </r>
       <r>    1.4012    0.0000 </r>
       <r>    1.5070    0.0000 </r>
       <r>    1.6670    0.0000 </r>
       <r>    1.7735    0.0000 </r>
       <r>    1.8774    0.0000 </r>
       <r>    2.0173    0.0000 </r>
       <r>    2.1823    0.0000 </r>
       <r>    2.2717    0.0000 </r>
       <r>    2.5864    0.0000 </r>
       <r>    2.7150    0.0000 </r>
       <r>    2.7820    0.0000 </r>
      </set>
      <set comment="kpoint 6">
       <r>  -13.5495    1.0000 </r>
       <r>  -12.1927    1.0000 </r>
       <r>  -12.0698    1.0000 </r>
       <r>  -11.6832    1.0000 </r>
       <r>  -11.4728    1.0000 </r>
       <r>  -11.3679    1.0000 </r>
       <r>  -11.0430    1.0000 </r>
       <r>  -10.9682    1.0000 </r>
       <r>  -10.7408    1.0000 </r>
       <r>  -10.6548    1.0000 </r>
       <r>  -10.5710    1.0000 </r>
       <r>  -10.0723    1.0000 </r>
       <r>   -9.3711    1.0000 </r>
       <r>   -9.2006    1.0000 </r>
       <r>   -8.9461    1.0000 </r>
       <r>   -8.4938    1.0000 </r>
       <r>   -7.6079    1.0000 </r>
       <r>   -7.5730    1.0000 </r>
       <r>   -7.5331    1.0000 </r>
       <r>   -7.2556    1.0000 </r>
       <r>   -6.9508    1.0000 </r>
       <r>   -6.8721    1.0000 </r>
       <r>   -6.7803    1.0000 </r>
       <r>   -6.5012    1.0000 </r>
       <r>   -5.5635    1.0000 </r>
       <r>   -5.3309    1.0000 </r>
       <r>   -5.0155    1.0000 </r>
       <r>   -4.8279    1.0000 </r>
       <r>   -4.6906    1.0000 </r>
       <r>   -4.6353    1.0000 </r>
       <r>   -4.3430    1.0000 </r>
       <r>   -4.2535    1.0000 </r>
       <r>   -4.1957    1.0000 </r>
       <r>   -3.7785    1.0000 </r>
       <r>   -3.6423    1.0000 </r>
       <r>   -3.3849    1.0000 </r>
       <r>   -3.3238    1.0000 </r>
       <r>   -3.2670    1.0000 </r>
       <r>   -3.1063    1.0000 </r>
       <r>   -2.9349    1.0000 </r>
       <r>   -2.8642    1.0000 </r>
       <r>   -2.6430    1.0000 </r>
       <r>   -2.5323    1.0000 </r>
       <r>   -2.4805    1.0000 </r>
       <r>   -2.3887    1.0000 </r>
       <r>   -2.2154    1.0000 </r>
       <r>   -2.1361    1.0000 </r>
       <r>   -1.9613    1.0000 </r>
       <r>   -1.6300    1.0000 </r>
       <r>   -1.5168    1.0000 </r>
       <r>   -1.3238    1.0000 </r>
       <r>   -1.0129    1.0000 </r>
       <r>   -0.5665    1.0000 </r>
       <r>   -0.0302    1.0000 </r>
       <r>    0.3789    0.5486 </r>
       <r>    0.6474    0.0001 </r>
       <r>    1.0891    0.0000 </r>
       <r>    1.2804    0.0000 </r>
       <r>    1.3291    0.0000 </r>
       <r>    1.5045    0.0000 </r>
       <r>    1.5935    0.0000 </r>
       <r>    1.6561    0.0000 </r>
       <r>    1.9227    0.0000 </r>
       <r>    2.0416    0.0000 </r>
       <r>    2.1692    0.0000 </r>
       <r>    2.2227    0.0000 </r>
       <r>    2.5753    0.0000 </r>
       <r>    2.6381    0.0000 </r>
      </set>
      <set comment="kpoint 7">
       <r>  -13.2089    1.0000 </r>
       <r>  -11.9715    1.0000 </r>
       <r>  -11.6187    1.0000 </r>
       <r>  -11.2961    1.0000 </r>
       <r>  -11.2604    1.0000 </r>
       <r>  -11.0712    1.0000 </r>
       <r>  -10.9586    1.0000 </r>
       <r>  -10.8661    1.0000 </r>
       <r>  -10.8424    1.0000 </r>
       <r>  -10.7521    1.0000 </r>
       <r>  -10.6537    1.0000 </r>
       <r>   -9.8639    1.0000 </r>
       <r>   -9.6034    1.0000 </r>
       <r>   -9.4053    1.0000 </r>
       <r>   -8.8026    1.0000 </r>
       <r>   -8.5575    1.0000 </r>
       <r>   -8.1954    1.0000 </r>
       <r>   -7.8745    1.0000 </r>
       <r>   -7.6899    1.0000 </r>
       <r>   -7.4091    1.0000 </r>
       <r>   -7.3926    1.0000 </r>
       <r>   -7.2946    1.0000 </r>
       <r>   -7.2814    1.0000 </r>
       <r>   -6.7895    1.0000 </r>
       <r>   -5.4694    1.0000 </r>
       <r>   -5.1158    1.0000 </r>
       <r>   -5.0321    1.0000 </r>
       <r>   -4.6348    1.0000 </r>
       <r>   -4.5765    1.0000 </r>
       <r>   -4.3368    1.0000 </r>
       <r>   -4.2089    1.0000 </r>
       <r>   -4.0828    1.0000 </r>
       <r>   -4.0372    1.0000 </r>
       <r>   -3.9385    1.0000 </r>
       <r>   -3.8316    1.0000 </r>
       <r>   -3.6883    1.0000 </r>
       <r>   -3.5401    1.0000 </r>
       <r>   -3.3680    1.0000 </r>
       <r>   -3.1286    1.0000 </r>
       <r>   -2.9334    1.0000 </r>
       <r>   -2.8476    1.0000 </r>
       <r>   -2.8061    1.0000 </r>
       <r>   -2.6682    1.0000 </r>
       <r>   -2.4759    1.0000 </r>
       <r>   -2.4348    1.0000 </r>
       <r>   -2.3059    1.0000 </r>
       <r>   -2.2172    1.0000 </r>
       <r>   -1.8616    1.0000 </r>
       <r>   -1.7803    1.0000 </r>
       <r>   -1.6233    1.0000 </r>
       <r>   -1.4487    1.0000 </r>
       <r>   -1.0523    1.0000 </r>
       <r>   -0.7012    1.0000 </r>
       <r>   -0.0049    1.0000 </r>
       <r>    0.3327    0.7811 </r>
       <r>    0.4928    0.0683 </r>
       <r>    1.0714    0.0000 </r>
       <r>    1.1643    0.0000 </r>
       <r>    1.2533    0.0000 </r>
       <r>    1.4520    0.0000 </r>
       <r>    1.4808    0.0000 </r>
       <r>    1.5757    0.0000 </r>
       <r>    1.7605    0.0000 </r>
       <r>    1.9592    0.0000 </r>
       <r>    2.0277    0.0000 </r>
       <r>    2.2848    0.0000 </r>
       <r>    2.3653    0.0000 </r>
       <r>    2.4249    0.0000 </r>
      </set>
      <set comment="kpoint 8">
       <r>  -14.7848    1.0000 </r>
       <r>  -13.6028    1.0000 </r>
       <r>  -13.2694    1.0000 </r>
       <r>  -13.0886    1.0000 </r>
       <r>  -12.6155    1.0000 </r>
       <r>  -12.5271    1.0000 </r>
       <r>  -12.0243    1.0000 </r>
       <r>  -11.9743    1.0000 </r>
       <r>  -11.5946    1.0000 </r>
       <r>  -11.2870    1.0000 </r>
       <r>  -11.1152    1.0000 </r>
       <r>  -10.2115    1.0000 </r>
       <r>   -9.4927    1.0000 </r>
       <r>   -8.6317    1.0000 </r>
       <r>   -7.5192    1.0000 </r>
       <r>   -7.1520    1.0000 </r>
       <r>   -6.9524    1.0000 </r>
       <r>   -6.7872    1.0000 </r>
       <r>   -6.7075    1.0000 </r>
       <r>   -6.4257    1.0000 </r>
       <r>   -6.1588    1.0000 </r>
       <r>   -5.8606    1.0000 </r>
       <r>   -5.2346    1.0000 </r>
       <r>   -4.7572    1.0000 </r>
       <r>   -4.2835    1.0000 </r>
       <r>   -4.1499    1.0000 </r>
       <r>   -4.1092    1.0000 </r>
       <r>   -3.8100    1.0000 </r>
       <r>   -3.5566    1.0000 </r>
       <r>   -3.3896    1.0000 </r>
       <r>   -3.2467    1.0000 </r>
       <r>   -3.1333    1.0000 </r>
       <r>   -2.9391    1.0000 </r>
       <r>   -2.8234    1.0000 </r>
       <r>   -2.6318    1.0000 </r>
       <r>   -2.5215    1.0000 </r>
       <r>   -2.4678    1.0000 </r>
       <r>   -2.4449    1.0000 </r>
       <r>   -2.3284    1.0000 </r>
       <r>   -2.1992    1.0000 </r>
       <r>   -2.1173    1.0000 </r>
       <r>   -2.0678    1.0000 </r>
       <r>   -1.9961    1.0000 </r>
       <r>   -1.7458    1.0000 </r>
       <r>   -1.6514    1.0000 </r>
       <r>   -1.5635    1.0000 </r>
       <r>   -1.4780    1.0000 </r>
       <r>   -1.4579    1.0000 </r>
       <r>   -1.2829    1.0000 </r>
       <r>   -1.1855    1.0000 </r>
       <r>   -1.0501    1.0000 </r>
       <r>   -0.8184    1.0000 </r>
       <r>    0.2531    0.9714 </r>
       <r>    0.4372    0.2412 </r>
       <r>    0.6587    0.0001 </r>
       <r>    0.9567    0.0000 </r>
       <r>    1.0894    0.0000 </r>
       <r>    1.2369    0.0000 </r>
       <r>    1.2871    0.0000 </r>
       <r>    1.3888    0.0000 </r>
       <r>    1.4977    0.0000 </r>
       <r>    1.6332    0.0000 </r>
       <r>    1.7527    0.0000 </r>
       <r>    2.1397    0.0000 </r>
       <r>    2.1665    0.0000 </r>
       <r>    2.3956    0.0000 </r>
       <r>    2.4789    0.0000 </r>
       <r>    2.5419    0.0000 </r>
      </set>
      <set comment="kpoint 9">
       <r>  -14.7294    1.0000 </r>
       <r>  -13.5261    1.0000 </r>
       <r>  -13.2210    1.0000 </r>
       <r>  -13.0694    1.0000 </r>
       <r>  -12.5565    1.0000 </r>
       <r>  -12.4514    1.0000 </r>
       <r>  -11.9919    1.0000 </r>
       <r>  -11.8832    1.0000 </r>
       <r>  -11.5533    1.0000 </r>
       <r>  -11.2110    1.0000 </r>
       <r>  -11.0709    1.0000 </r>
       <r>  -10.2014    1.0000 </r>
       <r>   -9.4820    1.0000 </r>
       <r>   -8.6901    1.0000 </r>
       <r>   -7.4714    1.0000 </r>
       <r>   -7.1667    1.0000 </r>
       <r>   -6.9557    1.0000 </r>
       <r>   -6.7971    1.0000 </r>
       <r>   -6.6445    1.0000 </r>
       <r>   -6.5603    1.0000 </r>
       <r>   -6.1624    1.0000 </r>
       <r>   -5.8123    1.0000 </r>
       <r>   -5.2478    1.0000 </r>
       <r>   -4.8039    1.0000 </r>
       <r>   -4.3773    1.0000 </r>
       <r>   -4.2107    1.0000 </r>
       <r>   -4.1040    1.0000 </r>
       <r>   -3.8380    1.0000 </r>
       <r>   -3.7227    1.0000 </r>
       <r>   -3.5174    1.0000 </r>
       <r>   -3.4974    1.0000 </r>
       <r>   -3.3903    1.0000 </r>
       <r>   -3.1373    1.0000 </r>
       <r>   -2.9407    1.0000 </r>
       <r>   -2.8673    1.0000 </r>
       <r>   -2.8038    1.0000 </r>
       <r>   -2.6420    1.0000 </r>
       <r>   -2.5793    1.0000 </r>
       <r>   -2.5085    1.0000 </r>
       <r>   -2.4015    1.0000 </r>
       <r>   -2.2902    1.0000 </r>
       <r>   -2.1844    1.0000 </r>
       <r>   -2.1064    1.0000 </r>
       <r>   -1.9520    1.0000 </r>
       <r>   -1.8737    1.0000 </r>
       <r>   -1.8565    1.0000 </r>
       <r>   -1.5454    1.0000 </r>
       <r>   -1.4130    1.0000 </r>
       <r>   -1.2282    1.0000 </r>
       <r>   -1.0964    1.0000 </r>
       <r>   -1.0026    1.0000 </r>
       <r>   -0.7727    1.0000 </r>
       <r>    0.3153    0.8468 </r>
       <r>    0.4883    0.0771 </r>
       <r>    0.8008    0.0000 </r>
       <r>    1.0859    0.0000 </r>
       <r>    1.2170    0.0000 </r>
       <r>    1.4575    0.0000 </r>
       <r>    1.4972    0.0000 </r>
       <r>    1.5619    0.0000 </r>
       <r>    1.6892    0.0000 </r>
       <r>    1.8624    0.0000 </r>
       <r>    2.1183    0.0000 </r>
       <r>    2.4118    0.0000 </r>
       <r>    2.5310    0.0000 </r>
       <r>    2.5407    0.0000 </r>
       <r>    2.6404    0.0000 </r>
       <r>    2.8005    0.0000 </r>
      </set>
      <set comment="kpoint 10">
       <r>  -14.5662    1.0000 </r>
       <r>  -13.3297    1.0000 </r>
       <r>  -13.0605    1.0000 </r>
       <r>  -12.9327    1.0000 </r>
       <r>  -12.3890    1.0000 </r>
       <r>  -12.2706    1.0000 </r>
       <r>  -11.8628    1.0000 </r>
       <r>  -11.6868    1.0000 </r>
       <r>  -11.4140    1.0000 </r>
       <r>  -11.0403    1.0000 </r>
       <r>  -10.9298    1.0000 </r>
       <r>  -10.1789    1.0000 </r>
       <r>   -9.4260    1.0000 </r>
       <r>   -8.7557    1.0000 </r>
       <r>   -7.5143    1.0000 </r>
       <r>   -7.4213    1.0000 </r>
       <r>   -6.9563    1.0000 </r>
       <r>   -6.7770    1.0000 </r>
       <r>   -6.7346    1.0000 </r>
       <r>   -6.6031    1.0000 </r>
       <r>   -6.1137    1.0000 </r>
       <r>   -5.7644    1.0000 </r>
       <r>   -5.2893    1.0000 </r>
       <r>   -4.9638    1.0000 </r>
       <r>   -4.9108    1.0000 </r>
       <r>   -4.4980    1.0000 </r>
       <r>   -4.4141    1.0000 </r>
       <r>   -4.2255    1.0000 </r>
       <r>   -4.0902    1.0000 </r>
       <r>   -3.9100    1.0000 </r>
       <r>   -3.7985    1.0000 </r>
       <r>   -3.7225    1.0000 </r>
       <r>   -3.5271    1.0000 </r>
       <r>   -3.2899    1.0000 </r>
       <r>   -3.1942    1.0000 </r>
       <r>   -3.0774    1.0000 </r>
       <r>   -3.0425    1.0000 </r>
       <r>   -2.9192    1.0000 </r>
       <r>   -2.8386    1.0000 </r>
       <r>   -2.7194    1.0000 </r>
       <r>   -2.6449    1.0000 </r>
       <r>   -2.4334    1.0000 </r>
       <r>   -2.4232    1.0000 </r>
       <r>   -2.2207    1.0000 </r>
       <r>   -2.0376    1.0000 </r>
       <r>   -1.9930    1.0000 </r>
       <r>   -1.6203    1.0000 </r>
       <r>   -1.4447    1.0000 </r>
       <r>   -1.2643    1.0000 </r>
       <r>   -1.0700    1.0000 </r>
       <r>   -1.0073    1.0000 </r>
       <r>   -0.4339    1.0000 </r>
       <r>    0.3210    0.8268 </r>
       <r>    0.3880    0.4974 </r>
       <r>    0.6209    0.0005 </r>
       <r>    0.9777    0.0000 </r>
       <r>    1.2378    0.0000 </r>
       <r>    1.5518    0.0000 </r>
       <r>    1.6562    0.0000 </r>
       <r>    1.9951    0.0000 </r>
       <r>    2.1107    0.0000 </r>
       <r>    2.2472    0.0000 </r>
       <r>    2.3114    0.0000 </r>
       <r>    2.6079    0.0000 </r>
       <r>    2.6719    0.0000 </r>
       <r>    2.7959    0.0000 </r>
       <r>    2.9584    0.0000 </r>
       <r>    3.0053    0.0000 </r>
      </set>
      <set comment="kpoint 11">
       <r>  -14.3015    1.0000 </r>
       <r>  -13.0186    1.0000 </r>
       <r>  -12.7949    1.0000 </r>
       <r>  -12.6811    1.0000 </r>
       <r>  -12.1208    1.0000 </r>
       <r>  -12.0010    1.0000 </r>
       <r>  -11.6399    1.0000 </r>
       <r>  -11.4106    1.0000 </r>
       <r>  -11.1923    1.0000 </r>
       <r>  -10.7952    1.0000 </r>
       <r>  -10.7126    1.0000 </r>
       <r>  -10.1965    1.0000 </r>
       <r>   -9.3480    1.0000 </r>
       <r>   -8.8871    1.0000 </r>
       <r>   -8.1646    1.0000 </r>
       <r>   -7.5143    1.0000 </r>
       <r>   -6.9600    1.0000 </r>
       <r>   -6.8144    1.0000 </r>
       <r>   -6.7755    1.0000 </r>
       <r>   -6.7089    1.0000 </r>
       <r>   -6.2224    1.0000 </r>
       <r>   -5.9361    1.0000 </r>
       <r>   -5.6614    1.0000 </r>
       <r>   -5.4227    1.0000 </r>
       <r>   -5.3263    1.0000 </r>
       <r>   -5.1422    1.0000 </r>
       <r>   -4.7868    1.0000 </r>
       <r>   -4.6750    1.0000 </r>
       <r>   -4.5575    1.0000 </r>
       <r>   -4.2948    1.0000 </r>
       <r>   -4.1773    1.0000 </r>
       <r>   -4.0911    1.0000 </r>
       <r>   -3.8537    1.0000 </r>
       <r>   -3.6176    1.0000 </r>
       <r>   -3.4114    1.0000 </r>
       <r>   -3.3168    1.0000 </r>
       <r>   -3.2322    1.0000 </r>
       <r>   -3.2024    1.0000 </r>
       <r>   -2.9362    1.0000 </r>
       <r>   -2.7724    1.0000 </r>
       <r>   -2.6971    1.0000 </r>
       <r>   -2.6388    1.0000 </r>
       <r>   -2.4629    1.0000 </r>
       <r>   -2.2579    1.0000 </r>
       <r>   -2.1057    1.0000 </r>
       <r>   -1.9940    1.0000 </r>
       <r>   -1.8873    1.0000 </r>
       <r>   -1.5249    1.0000 </r>
       <r>   -1.5049    1.0000 </r>
       <r>   -1.1838    1.0000 </r>
       <r>   -1.0575    1.0000 </r>
       <r>   -0.2246    1.0000 </r>
       <r>   -0.0979    1.0000 </r>
       <r>    0.1517    0.9996 </r>
       <r>    0.4482    0.1956 </r>
       <r>    0.9531    0.0000 </r>
       <r>    1.2201    0.0000 </r>
       <r>    1.3692    0.0000 </r>
       <r>    1.4880    0.0000 </r>
       <r>    1.6231    0.0000 </r>
       <r>    1.7915    0.0000 </r>
       <r>    2.0093    0.0000 </r>
       <r>    2.1793    0.0000 </r>
       <r>    2.4786    0.0000 </r>
       <r>    2.5771    0.0000 </r>
       <r>    2.6461    0.0000 </r>
       <r>    2.9248    0.0000 </r>
       <r>    3.1544    0.0000 </r>
      </set>
      <set comment="kpoint 12">
       <r>  -13.9499    1.0000 </r>
       <r>  -12.6024    1.0000 </r>
       <r>  -12.4446    1.0000 </r>
       <r>  -12.3217    1.0000 </r>
       <r>  -11.7706    1.0000 </r>
       <r>  -11.6860    1.0000 </r>
       <r>  -11.3457    1.0000 </r>
       <r>  -11.0975    1.0000 </r>
       <r>  -10.9288    1.0000 </r>
       <r>  -10.5834    1.0000 </r>
       <r>  -10.5078    1.0000 </r>
       <r>  -10.2536    1.0000 </r>
       <r>   -9.2967    1.0000 </r>
       <r>   -9.0864    1.0000 </r>
       <r>   -8.7625    1.0000 </r>
       <r>   -7.8261    1.0000 </r>
       <r>   -7.2370    1.0000 </r>
       <r>   -7.2193    1.0000 </r>
       <r>   -7.0812    1.0000 </r>
       <r>   -6.9223    1.0000 </r>
       <r>   -6.5409    1.0000 </r>
       <r>   -6.3046    1.0000 </r>
       <r>   -6.0594    1.0000 </r>
       <r>   -6.0355    1.0000 </r>
       <r>   -5.6781    1.0000 </r>
       <r>   -5.4914    1.0000 </r>
       <r>   -5.0575    1.0000 </r>
       <r>   -4.9745    1.0000 </r>
       <r>   -4.5702    1.0000 </r>
       <r>   -4.5381    1.0000 </r>
       <r>   -4.4358    1.0000 </r>
       <r>   -4.3165    1.0000 </r>
       <r>   -4.1229    1.0000 </r>
       <r>   -3.6651    1.0000 </r>
       <r>   -3.4550    1.0000 </r>
       <r>   -3.2750    1.0000 </r>
       <r>   -3.2334    1.0000 </r>
       <r>   -3.1194    1.0000 </r>
       <r>   -2.9895    1.0000 </r>
       <r>   -2.8608    1.0000 </r>
       <r>   -2.7900    1.0000 </r>
       <r>   -2.6040    1.0000 </r>
       <r>   -2.5096    1.0000 </r>
       <r>   -2.4186    1.0000 </r>
       <r>   -2.3112    1.0000 </r>
       <r>   -2.0749    1.0000 </r>
       <r>   -1.9893    1.0000 </r>
       <r>   -1.8583    1.0000 </r>
       <r>   -1.6266    1.0000 </r>
       <r>   -1.4274    1.0000 </r>
       <r>   -1.0947    1.0000 </r>
       <r>   -0.6424    1.0000 </r>
       <r>   -0.2823    1.0000 </r>
       <r>   -0.0688    1.0000 </r>
       <r>    0.3533    0.6862 </r>
       <r>    0.7808    0.0000 </r>
       <r>    1.0745    0.0000 </r>
       <r>    1.1369    0.0000 </r>
       <r>    1.2683    0.0000 </r>
       <r>    1.3512    0.0000 </r>
       <r>    1.6545    0.0000 </r>
       <r>    1.8419    0.0000 </r>
       <r>    2.0736    0.0000 </r>
       <r>    2.2089    0.0000 </r>
       <r>    2.3459    0.0000 </r>
       <r>    2.5126    0.0000 </r>
       <r>    2.5898    0.0000 </r>
       <r>    2.8608    0.0000 </r>
      </set>
      <set comment="kpoint 13">
       <r>  -13.5478    1.0000 </r>
       <r>  -12.1033    1.0000 </r>
       <r>  -12.0798    1.0000 </r>
       <r>  -11.8714    1.0000 </r>
       <r>  -11.4627    1.0000 </r>
       <r>  -11.3674    1.0000 </r>
       <r>  -11.0383    1.0000 </r>
       <r>  -10.8402    1.0000 </r>
       <r>  -10.7186    1.0000 </r>
       <r>  -10.6534    1.0000 </r>
       <r>  -10.5833    1.0000 </r>
       <r>  -10.0652    1.0000 </r>
       <r>   -9.3720    1.0000 </r>
       <r>   -9.1989    1.0000 </r>
       <r>   -9.0759    1.0000 </r>
       <r>   -8.2296    1.0000 </r>
       <r>   -7.8943    1.0000 </r>
       <r>   -7.6574    1.0000 </r>
       <r>   -7.4772    1.0000 </r>
       <r>   -7.2133    1.0000 </r>
       <r>   -6.9335    1.0000 </r>
       <r>   -6.8140    1.0000 </r>
       <r>   -6.7719    1.0000 </r>
       <r>   -6.5228    1.0000 </r>
       <r>   -5.5978    1.0000 </r>
       <r>   -5.4566    1.0000 </r>
       <r>   -5.0474    1.0000 </r>
       <r>   -4.9000    1.0000 </r>
       <r>   -4.8273    1.0000 </r>
       <r>   -4.5284    1.0000 </r>
       <r>   -4.2399    1.0000 </r>
       <r>   -4.1238    1.0000 </r>
       <r>   -3.9764    1.0000 </r>
       <r>   -3.6745    1.0000 </r>
       <r>   -3.4656    1.0000 </r>
       <r>   -3.4001    1.0000 </r>
       <r>   -3.2986    1.0000 </r>
       <r>   -3.2342    1.0000 </r>
       <r>   -3.1508    1.0000 </r>
       <r>   -3.0348    1.0000 </r>
       <r>   -2.9283    1.0000 </r>
       <r>   -2.7512    1.0000 </r>
       <r>   -2.5501    1.0000 </r>
       <r>   -2.4071    1.0000 </r>
       <r>   -2.3646    1.0000 </r>
       <r>   -2.2506    1.0000 </r>
       <r>   -2.1825    1.0000 </r>
       <r>   -1.9705    1.0000 </r>
       <r>   -1.6860    1.0000 </r>
       <r>   -1.5636    1.0000 </r>
       <r>   -1.2794    1.0000 </r>
       <r>   -0.9598    1.0000 </r>
       <r>   -0.5608    1.0000 </r>
       <r>   -0.0341    1.0000 </r>
       <r>    0.2769    0.9412 </r>
       <r>    0.6136    0.0007 </r>
       <r>    1.0381    0.0000 </r>
       <r>    1.1206    0.0000 </r>
       <r>    1.1764    0.0000 </r>
       <r>    1.2588    0.0000 </r>
       <r>    1.5268    0.0000 </r>
       <r>    1.6880    0.0000 </r>
       <r>    1.7396    0.0000 </r>
       <r>    1.9453    0.0000 </r>
       <r>    2.0774    0.0000 </r>
       <r>    2.4647    0.0000 </r>
       <r>    2.5563    0.0000 </r>
       <r>    2.5897    0.0000 </r>
      </set>
      <set comment="kpoint 14">
       <r>  -13.2084    1.0000 </r>
       <r>  -11.9705    1.0000 </r>
       <r>  -11.5495    1.0000 </r>
       <r>  -11.3758    1.0000 </r>
       <r>  -11.3119    1.0000 </r>
       <r>  -11.0825    1.0000 </r>
       <r>  -10.9800    1.0000 </r>
       <r>  -10.8434    1.0000 </r>
       <r>  -10.8132    1.0000 </r>
       <r>  -10.6983    1.0000 </r>
       <r>  -10.6639    1.0000 </r>
       <r>   -9.8365    1.0000 </r>
       <r>   -9.6298    1.0000 </r>
       <r>   -9.3979    1.0000 </r>
       <r>   -8.6694    1.0000 </r>
       <r>   -8.5149    1.0000 </r>
       <r>   -8.4462    1.0000 </r>
       <r>   -7.8969    1.0000 </r>
       <r>   -7.6364    1.0000 </r>
       <r>   -7.4350    1.0000 </r>
       <r>   -7.3642    1.0000 </r>
       <r>   -7.2967    1.0000 </r>
       <r>   -7.2489    1.0000 </r>
       <r>   -6.7958    1.0000 </r>
       <r>   -5.4689    1.0000 </r>
       <r>   -5.1566    1.0000 </r>
       <r>   -5.1252    1.0000 </r>
       <r>   -4.6264    1.0000 </r>
       <r>   -4.5583    1.0000 </r>
       <r>   -4.2919    1.0000 </r>
       <r>   -4.2647    1.0000 </r>
       <r>   -4.0506    1.0000 </r>
       <r>   -3.9924    1.0000 </r>
       <r>   -3.8355    1.0000 </r>
       <r>   -3.7705    1.0000 </r>
       <r>   -3.6159    1.0000 </r>
       <r>   -3.5684    1.0000 </r>
       <r>   -3.3722    1.0000 </r>
       <r>   -3.1112    1.0000 </r>
       <r>   -2.9364    1.0000 </r>
       <r>   -2.8954    1.0000 </r>
       <r>   -2.7588    1.0000 </r>
       <r>   -2.7120    1.0000 </r>
       <r>   -2.6066    1.0000 </r>
       <r>   -2.3840    1.0000 </r>
       <r>   -2.2755    1.0000 </r>
       <r>   -2.2285    1.0000 </r>
       <r>   -1.8485    1.0000 </r>
       <r>   -1.7824    1.0000 </r>
       <r>   -1.6580    1.0000 </r>
       <r>   -1.4859    1.0000 </r>
       <r>   -1.0590    1.0000 </r>
       <r>   -0.6944    1.0000 </r>
       <r>    0.0478    1.0000 </r>
       <r>    0.2865    0.9235 </r>
       <r>    0.5129    0.0382 </r>
       <r>    1.0641    0.0000 </r>
       <r>    1.1087    0.0000 </r>
       <r>    1.3053    0.0000 </r>
       <r>    1.3963    0.0000 </r>
       <r>    1.4457    0.0000 </r>
       <r>    1.4756    0.0000 </r>
       <r>    1.6852    0.0000 </r>
       <r>    1.7949    0.0000 </r>
       <r>    2.0403    0.0000 </r>
       <r>    2.3155    0.0000 </r>
       <r>    2.3719    0.0000 </r>
       <r>    2.4305    0.0000 </r>
      </set>
      <set comment="kpoint 15">
       <r>  -13.2094    1.0000 </r>
       <r>  -11.9690    1.0000 </r>
       <r>  -11.6521    1.0000 </r>
       <r>  -11.2975    1.0000 </r>
       <r>  -11.1836    1.0000 </r>
       <r>  -11.0581    1.0000 </r>
       <r>  -10.9220    1.0000 </r>
       <r>  -10.8751    1.0000 </r>
       <r>  -10.8514    1.0000 </r>
       <r>  -10.8174    1.0000 </r>
       <r>  -10.6711    1.0000 </r>
       <r>   -9.8722    1.0000 </r>
       <r>   -9.6075    1.0000 </r>
       <r>   -9.3851    1.0000 </r>
       <r>   -8.8712    1.0000 </r>
       <r>   -8.5515    1.0000 </r>
       <r>   -8.0606    1.0000 </r>
       <r>   -7.8781    1.0000 </r>
       <r>   -7.7231    1.0000 </r>
       <r>   -7.4563    1.0000 </r>
       <r>   -7.3956    1.0000 </r>
       <r>   -7.3340    1.0000 </r>
       <r>   -7.2341    1.0000 </r>
       <r>   -6.7736    1.0000 </r>
       <r>   -5.4256    1.0000 </r>
       <r>   -5.1742    1.0000 </r>
       <r>   -4.8674    1.0000 </r>
       <r>   -4.7003    1.0000 </r>
       <r>   -4.5595    1.0000 </r>
       <r>   -4.4220    1.0000 </r>
       <r>   -4.1910    1.0000 </r>
       <r>   -4.1054    1.0000 </r>
       <r>   -4.0812    1.0000 </r>
       <r>   -3.9986    1.0000 </r>
       <r>   -3.8220    1.0000 </r>
       <r>   -3.7500    1.0000 </r>
       <r>   -3.5339    1.0000 </r>
       <r>   -3.4679    1.0000 </r>
       <r>   -2.9770    1.0000 </r>
       <r>   -2.8858    1.0000 </r>
       <r>   -2.8311    1.0000 </r>
       <r>   -2.7887    1.0000 </r>
       <r>   -2.5756    1.0000 </r>
       <r>   -2.5045    1.0000 </r>
       <r>   -2.4672    1.0000 </r>
       <r>   -2.2834    1.0000 </r>
       <r>   -2.2321    1.0000 </r>
       <r>   -1.9294    1.0000 </r>
       <r>   -1.8040    1.0000 </r>
       <r>   -1.6058    1.0000 </r>
       <r>   -1.4554    1.0000 </r>
       <r>   -1.0899    1.0000 </r>
       <r>   -0.7008    1.0000 </r>
       <r>    0.0785    1.0000 </r>
       <r>    0.2957    0.9031 </r>
       <r>    0.5531    0.0096 </r>
       <r>    1.0965    0.0000 </r>
       <r>    1.2189    0.0000 </r>
       <r>    1.2827    0.0000 </r>
       <r>    1.4152    0.0000 </r>
       <r>    1.5375    0.0000 </r>
       <r>    1.6632    0.0000 </r>
       <r>    1.6999    0.0000 </r>
       <r>    1.9061    0.0000 </r>
       <r>    2.1495    0.0000 </r>
       <r>    2.2665    0.0000 </r>
       <r>    2.4182    0.0000 </r>
       <r>    2.5130    0.0000 </r>
      </set>
      <set comment="kpoint 16">
       <r>  -13.5504    1.0000 </r>
       <r>  -12.2190    1.0000 </r>
       <r>  -12.0581    1.0000 </r>
       <r>  -11.5981    1.0000 </r>
       <r>  -11.4942    1.0000 </r>
       <r>  -11.3661    1.0000 </r>
       <r>  -11.0514    1.0000 </r>
       <r>  -11.0173    1.0000 </r>
       <r>  -10.7432    1.0000 </r>
       <r>  -10.6783    1.0000 </r>
       <r>  -10.5666    1.0000 </r>
       <r>  -10.0659    1.0000 </r>
       <r>   -9.3719    1.0000 </r>
       <r>   -9.1933    1.0000 </r>
       <r>   -8.8572    1.0000 </r>
       <r>   -8.6085    1.0000 </r>
       <r>   -7.5795    1.0000 </r>
       <r>   -7.5550    1.0000 </r>
       <r>   -7.4456    1.0000 </r>
       <r>   -7.3279    1.0000 </r>
       <r>   -6.9241    1.0000 </r>
       <r>   -6.9161    1.0000 </r>
       <r>   -6.7852    1.0000 </r>
       <r>   -6.4883    1.0000 </r>
       <r>   -5.5372    1.0000 </r>
       <r>   -5.1927    1.0000 </r>
       <r>   -5.0308    1.0000 </r>
       <r>   -4.9585    1.0000 </r>
       <r>   -4.7509    1.0000 </r>
       <r>   -4.5139    1.0000 </r>
       <r>   -4.3748    1.0000 </r>
       <r>   -4.2658    1.0000 </r>
       <r>   -4.2079    1.0000 </r>
       <r>   -3.8433    1.0000 </r>
       <r>   -3.6178    1.0000 </r>
       <r>   -3.5217    1.0000 </r>
       <r>   -3.3674    1.0000 </r>
       <r>   -3.2864    1.0000 </r>
       <r>   -3.1137    1.0000 </r>
       <r>   -2.8756    1.0000 </r>
       <r>   -2.8106    1.0000 </r>
       <r>   -2.6324    1.0000 </r>
       <r>   -2.5942    1.0000 </r>
       <r>   -2.4611    1.0000 </r>
       <r>   -2.3512    1.0000 </r>
       <r>   -2.2024    1.0000 </r>
       <r>   -2.0569    1.0000 </r>
       <r>   -1.9416    1.0000 </r>
       <r>   -1.6865    1.0000 </r>
       <r>   -1.5113    1.0000 </r>
       <r>   -1.3105    1.0000 </r>
       <r>   -1.0526    1.0000 </r>
       <r>   -0.5829    1.0000 </r>
       <r>    0.0441    1.0000 </r>
       <r>    0.3396    0.7511 </r>
       <r>    0.6727    0.0000 </r>
       <r>    1.1089    0.0000 </r>
       <r>    1.2906    0.0000 </r>
       <r>    1.3854    0.0000 </r>
       <r>    1.5859    0.0000 </r>
       <r>    1.6795    0.0000 </r>
       <r>    1.7797    0.0000 </r>
       <r>    1.9571    0.0000 </r>
       <r>    2.0215    0.0000 </r>
       <r>    2.1925    0.0000 </r>
       <r>    2.3156    0.0000 </r>
       <r>    2.4934    0.0000 </r>
       <r>    2.6247    0.0000 </r>
      </set>
      <set comment="kpoint 17">
       <r>  -13.9532    1.0000 </r>
       <r>  -12.7130    1.0000 </r>
       <r>  -12.4022    1.0000 </r>
       <r>  -12.0608    1.0000 </r>
       <r>  -11.8151    1.0000 </r>
       <r>  -11.7550    1.0000 </r>
       <r>  -11.3592    1.0000 </r>
       <r>  -11.1779    1.0000 </r>
       <r>  -10.8881    1.0000 </r>
       <r>  -10.8055    1.0000 </r>
       <r>  -10.5368    1.0000 </r>
       <r>  -10.1295    1.0000 </r>
       <r>   -9.2616    1.0000 </r>
       <r>   -8.7970    1.0000 </r>
       <r>   -8.6706    1.0000 </r>
       <r>   -8.3047    1.0000 </r>
       <r>   -7.1456    1.0000 </r>
       <r>   -7.1208    1.0000 </r>
       <r>   -7.0131    1.0000 </r>
       <r>   -6.9872    1.0000 </r>
       <r>   -6.4489    1.0000 </r>
       <r>   -6.2708    1.0000 </r>
       <r>   -6.2263    1.0000 </r>
       <r>   -6.0918    1.0000 </r>
       <r>   -5.5726    1.0000 </r>
       <r>   -5.2658    1.0000 </r>
       <r>   -5.0207    1.0000 </r>
       <r>   -4.8884    1.0000 </r>
       <r>   -4.7537    1.0000 </r>
       <r>   -4.5579    1.0000 </r>
       <r>   -4.4260    1.0000 </r>
       <r>   -4.3540    1.0000 </r>
       <r>   -4.3103    1.0000 </r>
       <r>   -3.6706    1.0000 </r>
       <r>   -3.5698    1.0000 </r>
       <r>   -3.4126    1.0000 </r>
       <r>   -3.2547    1.0000 </r>
       <r>   -3.1875    1.0000 </r>
       <r>   -3.0586    1.0000 </r>
       <r>   -2.8772    1.0000 </r>
       <r>   -2.7107    1.0000 </r>
       <r>   -2.6880    1.0000 </r>
       <r>   -2.5093    1.0000 </r>
       <r>   -2.4019    1.0000 </r>
       <r>   -2.1365    1.0000 </r>
       <r>   -1.9922    1.0000 </r>
       <r>   -1.9739    1.0000 </r>
       <r>   -1.8183    1.0000 </r>
       <r>   -1.5383    1.0000 </r>
       <r>   -1.4226    1.0000 </r>
       <r>   -1.0978    1.0000 </r>
       <r>   -0.7990    1.0000 </r>
       <r>   -0.3154    1.0000 </r>
       <r>   -0.0472    1.0000 </r>
       <r>    0.4559    0.1669 </r>
       <r>    0.8698    0.0000 </r>
       <r>    1.1639    0.0000 </r>
       <r>    1.4811    0.0000 </r>
       <r>    1.5447    0.0000 </r>
       <r>    1.7746    0.0000 </r>
       <r>    1.8483    0.0000 </r>
       <r>    1.8872    0.0000 </r>
       <r>    1.9916    0.0000 </r>
       <r>    2.1857    0.0000 </r>
       <r>    2.2838    0.0000 </r>
       <r>    2.5695    0.0000 </r>
       <r>    2.6308    0.0000 </r>
       <r>    2.7604    0.0000 </r>
      </set>
      <set comment="kpoint 18">
       <r>  -14.3046    1.0000 </r>
       <r>  -13.1082    1.0000 </r>
       <r>  -12.7539    1.0000 </r>
       <r>  -12.4654    1.0000 </r>
       <r>  -12.1470    1.0000 </r>
       <r>  -12.0938    1.0000 </r>
       <r>  -11.6542    1.0000 </r>
       <r>  -11.4766    1.0000 </r>
       <r>  -11.1450    1.0000 </r>
       <r>  -10.9718    1.0000 </r>
       <r>  -10.7148    1.0000 </r>
       <r>  -10.1182    1.0000 </r>
       <r>   -9.2941    1.0000 </r>
       <r>   -8.5151    1.0000 </r>
       <r>   -8.1890    1.0000 </r>
       <r>   -7.9007    1.0000 </r>
       <r>   -6.9858    1.0000 </r>
       <r>   -6.8227    1.0000 </r>
       <r>   -6.7559    1.0000 </r>
       <r>   -6.6768    1.0000 </r>
       <r>   -6.2129    1.0000 </r>
       <r>   -5.8535    1.0000 </r>
       <r>   -5.8276    1.0000 </r>
       <r>   -5.4513    1.0000 </r>
       <r>   -5.3045    1.0000 </r>
       <r>   -4.9471    1.0000 </r>
       <r>   -4.7200    1.0000 </r>
       <r>   -4.6366    1.0000 </r>
       <r>   -4.5164    1.0000 </r>
       <r>   -4.3227    1.0000 </r>
       <r>   -4.2494    1.0000 </r>
       <r>   -4.0389    1.0000 </r>
       <r>   -3.8897    1.0000 </r>
       <r>   -3.6701    1.0000 </r>
       <r>   -3.5623    1.0000 </r>
       <r>   -3.4847    1.0000 </r>
       <r>   -3.2761    1.0000 </r>
       <r>   -3.1091    1.0000 </r>
       <r>   -3.0629    1.0000 </r>
       <r>   -2.7640    1.0000 </r>
       <r>   -2.6674    1.0000 </r>
       <r>   -2.5493    1.0000 </r>
       <r>   -2.4340    1.0000 </r>
       <r>   -2.2589    1.0000 </r>
       <r>   -2.0087    1.0000 </r>
       <r>   -1.9374    1.0000 </r>
       <r>   -1.8569    1.0000 </r>
       <r>   -1.5833    1.0000 </r>
       <r>   -1.4722    1.0000 </r>
       <r>   -1.2218    1.0000 </r>
       <r>   -1.0292    1.0000 </r>
[...]
       <r>    2.6550    0.0000 </r>
      </set>
      <set comment="kpoint 54">
       <r>  -13.2089    1.0000 </r>
       <r>  -11.9679    1.0000 </r>
       <r>  -11.6076    1.0000 </r>
       <r>  -11.3133    1.0000 </r>
       <r>  -11.2820    1.0000 </r>
       <r>  -11.0739    1.0000 </r>
       <r>  -10.9642    1.0000 </r>
       <r>  -10.8380    1.0000 </r>
       <r>  -10.8257    1.0000 </r>
       <r>  -10.7387    1.0000 </r>
       <r>  -10.6838    1.0000 </r>
       <r>   -9.8457    1.0000 </r>
       <r>   -9.6334    1.0000 </r>
       <r>   -9.3771    1.0000 </r>
       <r>   -8.7794    1.0000 </r>
       <r>   -8.5583    1.0000 </r>
       <r>   -8.2352    1.0000 </r>
       <r>   -7.9033    1.0000 </r>
       <r>   -7.6800    1.0000 </r>
       <r>   -7.4347    1.0000 </r>
       <r>   -7.4074    1.0000 </r>
       <r>   -7.2828    1.0000 </r>
       <r>   -7.2305    1.0000 </r>
       <r>   -6.7816    1.0000 </r>
       <r>   -5.4042    1.0000 </r>
       <r>   -5.2367    1.0000 </r>
       <r>   -5.0627    1.0000 </r>
       <r>   -4.6111    1.0000 </r>
       <r>   -4.5657    1.0000 </r>
       <r>   -4.3343    1.0000 </r>
       <r>   -4.2074    1.0000 </r>
       <r>   -4.0992    1.0000 </r>
       <r>   -4.0118    1.0000 </r>
       <r>   -3.8782    1.0000 </r>
       <r>   -3.8071    1.0000 </r>
       <r>   -3.6755    1.0000 </r>
       <r>   -3.5838    1.0000 </r>
       <r>   -3.3701    1.0000 </r>
       <r>   -3.1465    1.0000 </r>
       <r>   -2.9154    1.0000 </r>
       <r>   -2.8739    1.0000 </r>
       <r>   -2.7926    1.0000 </r>
       <r>   -2.5779    1.0000 </r>
       <r>   -2.4851    1.0000 </r>
       <r>   -2.3983    1.0000 </r>
       <r>   -2.3017    1.0000 </r>
       <r>   -2.2139    1.0000 </r>
       <r>   -1.9310    1.0000 </r>
       <r>   -1.8182    1.0000 </r>
       <r>   -1.6352    1.0000 </r>
       <r>   -1.4811    1.0000 </r>
       <r>   -1.0934    1.0000 </r>
       <r>   -0.6914    1.0000 </r>
       <r>    0.1174    0.9999 </r>
       <r>    0.2478    0.9760 </r>
       <r>    0.5570    0.0083 </r>
       <r>    1.0908    0.0000 </r>
       <r>    1.2061    0.0000 </r>
       <r>    1.2403    0.0000 </r>
       <r>    1.3809    0.0000 </r>
       <r>    1.4902    0.0000 </r>
       <r>    1.5611    0.0000 </r>
       <r>    1.7161    0.0000 </r>
       <r>    1.7833    0.0000 </r>
       <r>    1.9426    0.0000 </r>
       <r>    2.2566    0.0000 </r>
       <r>    2.3502    0.0000 </r>
       <r>    2.4859    0.0000 </r>
      </set>
     </set>
    </set>
   </array>
  </eigenvalues>
  <separator name="orbital magnetization" >
   <v name="MAGDIPOLOUT">      0.00000000      0.00000000      0.00000000</v>
  </separator>
  <dos>
   <i name="efermi">      0.38756411 </i>
   <total>
    <array>
     <dimension dim="1">gridpoints</dimension>
     <dimension dim="2">spin</dimension>
     <field>energy</field>
     <field>total</field>
     <field>integrated</field>
     <set>
      <set comment="spin 1">
       <r>   -15.7875     0.0000     0.0000 </r>
       <r>   -15.7210     0.0000     0.0000 </r>
       <r>   -15.6545     0.0000     0.0000 </r>
       <r>   -15.5881     0.0000     0.0000 </r>
       <r>   -15.5216     0.0000     0.0000 </r>
       <r>   -15.4551     0.0000     0.0000 </r>
       <r>   -15.3886     0.0000     0.0000 </r>
       <r>   -15.3222     0.0000     0.0000 </r>
       <r>   -15.2557     0.0000     0.0000 </r>
       <r>   -15.1892     0.0000     0.0000 </r>
       <r>   -15.1228     0.0000     0.0000 </r>
       <r>   -15.0563     0.0002     0.0000 </r>
       <r>   -14.9898     0.0048     0.0003 </r>
       <r>   -14.9233     0.0678     0.0048 </r>
       <r>   -14.8569     0.4534     0.0350 </r>
       <r>   -14.7904     1.4732     0.1329 </r>
       <r>   -14.7239     2.4009     0.2925 </r>
       <r>   -14.6574     2.2240     0.4403 </r>
       <r>   -14.5910     1.9071     0.5671 </r>
       <r>   -14.5245     1.7757     0.6851 </r>
       <r>   -14.4580     1.0478     0.7548 </r>
       <r>   -14.3916     0.6751     0.7997 </r>
       <r>   -14.3251     1.2888     0.8853 </r>
       <r>   -14.2586     1.6558     0.9954 </r>
       <r>   -14.1921     0.9574     1.0590 </r>
       <r>   -14.1257     0.2728     1.0772 </r>
       <r>   -14.0592     0.2911     1.0965 </r>
       <r>   -13.9927     1.0022     1.1631 </r>
       <r>   -13.9262     1.6641     1.2738 </r>
       <r>   -13.8598     1.2192     1.3548 </r>
       <r>   -13.7933     0.4150     1.3824 </r>
       <r>   -13.7268     0.2494     1.3990 </r>
       <r>   -13.6603     0.9148     1.4598 </r>
       <r>   -13.5939     2.4421     1.6221 </r>
       <r>   -13.5274     3.6521     1.8649 </r>
       <r>   -13.4609     3.2533     2.0811 </r>
       <r>   -13.3945     2.4339     2.2429 </r>
       <r>   -13.3280     2.6307     2.4178 </r>
       <r>   -13.2615     4.0588     2.6876 </r>
       <r>   -13.1950     5.4110     3.0473 </r>
       <r>   -13.1286     5.3116     3.4004 </r>
       <r>   -13.0621     5.0313     3.7348 </r>
       <r>   -12.9956     4.7545     4.0509 </r>
       <r>   -12.9291     3.4720     4.2816 </r>
       <r>   -12.8627     2.4205     4.4425 </r>
       <r>   -12.7962     2.8206     4.6300 </r>
       <r>   -12.7297     3.9716     4.8940 </r>
       <r>   -12.6633     4.7019     5.2066 </r>
       <r>   -12.5968     5.0811     5.5444 </r>
       <r>   -12.5303     5.4629     5.9075 </r>
       <r>   -12.4638     6.0328     6.3085 </r>
       <r>   -12.3974     6.6042     6.7475 </r>
       <r>   -12.3309     5.8075     7.1335 </r>
       <r>   -12.2644     4.4078     7.4266 </r>
       <r>   -12.1979     4.6363     7.7347 </r>
       <r>   -12.1315     6.6053     8.1738 </r>
       <r>   -12.0650     8.2752     8.7239 </r>
       <r>   -11.9985     8.3647     9.2799 </r>
       <r>   -11.9320     7.5455     9.7815 </r>
       <r>   -11.8656     6.5088    10.2142 </r>
       <r>   -11.7991     6.2893    10.6322 </r>
       <r>   -11.7326     7.0040    11.0978 </r>
       <r>   -11.6662     7.7846    11.6153 </r>
       <r>   -11.5997     7.8420    12.1366 </r>
       <r>   -11.5332     7.1842    12.6141 </r>
       <r>   -11.4667     7.0971    13.0859 </r>
       <r>   -11.4003     8.2842    13.6366 </r>
       <r>   -11.3338     9.5324    14.2702 </r>
       <r>   -11.2673     9.1153    14.8761 </r>
       <r>   -11.2008     8.3359    15.4302 </r>
       <r>   -11.1344     9.0012    16.0286 </r>
       <r>   -11.0679    10.1402    16.7026 </r>
       <r>   -11.0014    10.5425    17.4034 </r>
       <r>   -10.9350    10.4713    18.0995 </r>
       <r>   -10.8685    10.3527    18.7877 </r>
       <r>   -10.8020    10.0962    19.4588 </r>
       <r>   -10.7355    10.0679    20.1280 </r>
       <r>   -10.6691     9.7147    20.7738 </r>
       <r>   -10.6026     7.9568    21.3027 </r>
       <r>   -10.5361     5.6603    21.6790 </r>
       <r>   -10.4696     3.3132    21.8992 </r>
       <r>   -10.4032     1.2988    21.9855 </r>
       <r>   -10.3367     0.7569    22.0359 </r>
       <r>   -10.2702     2.3432    22.1916 </r>
       <r>   -10.2037     5.4417    22.5533 </r>
       <r>   -10.1373     7.0936    23.0249 </r>
       <r>   -10.0708     5.7615    23.4079 </r>
       <r>   -10.0043     3.1677    23.6184 </r>
       <r>    -9.9379     1.4961    23.7179 </r>
       <r>    -9.8714     1.4894    23.8169 </r>
       <r>    -9.8049     1.6398    23.9259 </r>
       <r>    -9.7384     1.0908    23.9984 </r>
       <r>    -9.6720     1.1060    24.0719 </r>
       <r>    -9.6055     1.9562    24.2019 </r>
       <r>    -9.5390     2.7696    24.3860 </r>
       <r>    -9.4725     4.1532    24.6621 </r>
       <r>    -9.4061     6.5481    25.0974 </r>
       <r>    -9.3396     7.8817    25.6213 </r>
       <r>    -9.2731     6.7087    26.0673 </r>
       <r>    -9.2067     4.6472    26.3762 </r>
       <r>    -9.1402     3.0612    26.5797 </r>
       <r>    -9.0737     2.2747    26.7309 </r>
       <r>    -9.0072     2.1184    26.8717 </r>
       <r>    -8.9408     2.4138    27.0321 </r>
       <r>    -8.8743     3.6524    27.2749 </r>
       <r>    -8.8078     5.0701    27.6120 </r>
       <r>    -8.7413     5.1707    27.9557 </r>
       <r>    -8.6749     4.1962    28.2346 </r>
       <r>    -8.6084     3.7637    28.4848 </r>
       <r>    -8.5419     4.1969    28.7638 </r>
       <r>    -8.4754     4.1249    29.0380 </r>
       <r>    -8.4090     2.8970    29.2305 </r>
       <r>    -8.3425     1.9878    29.3627 </r>
       <r>    -8.2760     2.5123    29.5297 </r>
       <r>    -8.2096     3.8235    29.7838 </r>
       <r>    -8.1431     4.0135    30.0506 </r>
       <r>    -8.0766     2.5960    30.2232 </r>
       <r>    -8.0101     1.7302    30.3382 </r>
       <r>    -7.9437     2.8402    30.5270 </r>
       <r>    -7.8772     4.4728    30.8243 </r>
       <r>    -7.8107     4.0587    31.0941 </r>
       <r>    -7.7442     3.0070    31.2940 </r>
       <r>    -7.6778     3.6016    31.5334 </r>
       <r>    -7.6113     5.0222    31.8672 </r>
       <r>    -7.5448     6.6578    32.3098 </r>
       <r>    -7.4784     8.3097    32.8622 </r>
       <r>    -7.4119     8.7703    33.4452 </r>
       <r>    -7.3454     7.9582    33.9742 </r>
       <r>    -7.2789     7.5503    34.4761 </r>
       <r>    -7.2125     8.0600    35.0118 </r>
       <r>    -7.1460     8.1910    35.5563 </r>
       <r>    -7.0795     7.7564    36.0719 </r>
       <r>    -7.0130     8.7134    36.6511 </r>
       <r>    -6.9466    11.1199    37.3903 </r>
       <r>    -6.8801    12.3733    38.2128 </r>
       <r>    -6.8136    13.5040    39.1104 </r>
       <r>    -6.7471    14.1298    40.0497 </r>
       <r>    -6.6807    11.7943    40.8337 </r>
       <r>    -6.6142     8.7446    41.4150 </r>
       <r>    -6.5477     6.8466    41.8701 </r>
       <r>    -6.4813     5.7092    42.2496 </r>
       <r>    -6.4148     4.6344    42.5576 </r>
       <r>    -6.3483     3.9013    42.8170 </r>
       <r>    -6.2818     4.4557    43.1132 </r>
       <r>    -6.2154     5.4610    43.4762 </r>
       <r>    -6.1489     5.8608    43.8658 </r>
       <r>    -6.0824     5.4351    44.2271 </r>
       <r>    -6.0159     4.3275    44.5147 </r>
       <r>    -5.9495     3.9951    44.7803 </r>
       <r>    -5.8830     4.8213    45.1008 </r>
       <r>    -5.8165     5.4649    45.4640 </r>
       <r>    -5.7501     5.0378    45.7989 </r>
       <r>    -5.6836     4.2569    46.0819 </r>
       <r>    -5.6171     4.1350    46.3568 </r>
       <r>    -5.5506     4.6563    46.6663 </r>
       <r>    -5.4842     5.8834    47.0574 </r>
       <r>    -5.4177     6.9582    47.5199 </r>
       <r>    -5.3512     6.5325    47.9541 </r>
       <r>    -5.2847     6.0618    48.3571 </r>
       <r>    -5.2183     6.2350    48.7715 </r>
       <r>    -5.1518     6.7043    49.2172 </r>
       <r>    -5.0853     7.7490    49.7323 </r>
       <r>    -5.0188     8.9639    50.3281 </r>
       <r>    -4.9524     9.3932    50.9525 </r>
       <r>    -4.8859     8.9519    51.5476 </r>
       <r>    -4.8194     8.6127    52.1201 </r>
       <r>    -4.7530     8.2009    52.6653 </r>
       <r>    -4.6865     7.7007    53.1771 </r>
       <r>    -4.6200     8.4746    53.7405 </r>
       <r>    -4.5535    10.0645    54.4095 </r>
       <r>    -4.4871    10.3533    55.0977 </r>
       <r>    -4.4206    10.1825    55.7746 </r>
       <r>    -4.3541    11.5310    56.5411 </r>
       <r>    -4.2876    13.4214    57.4332 </r>
       <r>    -4.2212    14.6957    58.4101 </r>
       <r>    -4.1547    15.1901    59.4198 </r>
       <r>    -4.0882    14.3601    60.3744 </r>
       <r>    -4.0218    11.6016    61.1456 </r>
       <r>    -3.9553     8.9748    61.7422 </r>
       <r>    -3.8888     8.9219    62.3352 </r>
       <r>    -3.8223    10.8000    63.0531 </r>
       <r>    -3.7559    11.9426    63.8470 </r>
       <r>    -3.6894    12.1618    64.6554 </r>
       <r>    -3.6229    12.4965    65.4861 </r>
       <r>    -3.5564    13.0919    66.3564 </r>
       <r>    -3.4900    13.5156    67.2548 </r>
       <r>    -3.4235    13.6279    68.1607 </r>
       <r>    -3.3570    14.3265    69.1130 </r>
       <r>    -3.2905    15.3075    70.1306 </r>
       <r>    -3.2241    15.8033    71.1810 </r>
       <r>    -3.1576    15.4906    72.2108 </r>
       <r>    -3.0911    14.8261    73.1963 </r>
       <r>    -3.0247    13.7638    74.1112 </r>
       <r>    -2.9582    13.6733    75.0201 </r>
       <r>    -2.8917    15.5284    76.0523 </r>
       <r>    -2.8252    17.2045    77.1960 </r>
       <r>    -2.7588    17.0413    78.3288 </r>
       <r>    -2.6923    16.2738    79.4105 </r>
       <r>    -2.6258    16.5262    80.5091 </r>
       <r>    -2.5593    17.1924    81.6519 </r>
       <r>    -2.4929    18.3164    82.8695 </r>
       <r>    -2.4264    18.8443    84.1221 </r>
       <r>    -2.3599    17.4892    85.2847 </r>
       <r>    -2.2935    16.2797    86.3668 </r>
       <r>    -2.2270    16.2452    87.4467 </r>
       <r>    -2.1605    15.3296    88.4657 </r>
       <r>    -2.0940    13.8666    89.3874 </r>
       <r>    -2.0276    14.0987    90.3246 </r>
       <r>    -1.9611    15.2283    91.3369 </r>
       <r>    -1.8946    15.2042    92.3476 </r>
       <r>    -1.8281    13.6254    93.2533 </r>
       <r>    -1.7617    10.5189    93.9525 </r>
       <r>    -1.6952     8.3692    94.5088 </r>
       <r>    -1.6287     9.4643    95.1380 </r>
       <r>    -1.5622    12.2324    95.9511 </r>
       <r>    -1.4958    13.9850    96.8807 </r>
       <r>    -1.4293    12.8364    97.7340 </r>
       <r>    -1.3628     9.5755    98.3705 </r>
       <r>    -1.2964     7.9784    98.9009 </r>
       <r>    -1.2299     8.1871    99.4451 </r>
       <r>    -1.1634     8.5634   100.0143 </r>
       <r>    -1.0969    10.6434   100.7218 </r>
       <r>    -1.0305    12.6391   101.5620 </r>
       <r>    -0.9640    10.0280   102.2286 </r>
       <r>    -0.8975     5.0659   102.5653 </r>
       <r>    -0.8310     2.9666   102.7625 </r>
       <r>    -0.7646     3.9035   103.0220 </r>
       <r>    -0.6981     4.8216   103.3425 </r>
       <r>    -0.6316     4.3112   103.6291 </r>
       <r>    -0.5652     3.3914   103.8545 </r>
       <r>    -0.4987     2.7840   104.0396 </r>
       <r>    -0.4322     2.3707   104.1972 </r>
       <r>    -0.3657     2.3462   104.3531 </r>
       <r>    -0.2993     3.0287   104.5544 </r>
       <r>    -0.2328     3.4775   104.7856 </r>
       <r>    -0.1663     3.3314   105.0071 </r>
       <r>    -0.0998     3.6324   105.2485 </r>
       <r>    -0.0334     4.2051   105.5280 </r>
       <r>     0.0331     4.4885   105.8264 </r>
       <r>     0.0996     4.4691   106.1235 </r>
       <r>     0.1661     4.1720   106.4008 </r>
       <r>     0.2325     4.7117   106.7140 </r>
       <r>     0.2990     7.0247   107.1810 </r>
       <r>     0.3655     9.1519   107.7893 </r>
       <r>     0.4319     9.3214   108.4089 </r>
       <r>     0.4984     8.2884   108.9599 </r>
       <r>     0.5649     7.1187   109.4331 </r>
       <r>     0.6314     6.0631   109.8361 </r>
       <r>     0.6978     4.9170   110.1630 </r>
       <r>     0.7643     4.0634   110.4331 </r>
       <r>     0.8308     3.8926   110.6918 </r>
       <r>     0.8973     3.8832   110.9499 </r>
       <r>     0.9637     5.0391   111.2849 </r>
       <r>     1.0302     7.9910   111.8161 </r>
       <r>     1.0967    11.4050   112.5742 </r>
       <r>     1.1631    13.1980   113.4515 </r>
       <r>     1.2296    13.7859   114.3679 </r>
       <r>     1.2961    13.7719   115.2834 </r>
       <r>     1.3626    12.5144   116.1153 </r>
       <r>     1.4290    12.3050   116.9332 </r>
       <r>     1.4955    14.0126   117.8647 </r>
       <r>     1.5620    15.2530   118.8786 </r>
       <r>     1.6285    15.4248   119.9039 </r>
       <r>     1.6949    15.1036   120.9079 </r>
       <r>     1.7614    13.3075   121.7925 </r>
       <r>     1.8279    10.8384   122.5130 </r>
       <r>     1.8944     9.6680   123.1556 </r>
       <r>     1.9608    10.4069   123.8474 </r>
       <r>     2.0273    12.0881   124.6509 </r>
       <r>     2.0938    13.1915   125.5278 </r>
       <r>     2.1602    13.4880   126.4244 </r>
       <r>     2.2267    12.8794   127.2805 </r>
       <r>     2.2932    11.9176   128.0727 </r>
       <r>     2.3597    11.9203   128.8651 </r>
       <r>     2.4261    12.2558   129.6798 </r>
       <r>     2.4926    13.1262   130.5523 </r>
       <r>     2.5591    14.7947   131.5358 </r>
       <r>     2.6256    15.2364   132.5486 </r>
       <r>     2.6920    13.2486   133.4293 </r>
       <r>     2.7585    10.5354   134.1296 </r>
       <r>     2.8250     8.3240   134.6829 </r>
       <r>     2.8914     6.5105   135.1157 </r>
       <r>     2.9579     5.0056   135.4484 </r>
       <r>     3.0244     3.6359   135.6901 </r>
       <r>     3.0909     2.2614   135.8404 </r>
       <r>     3.1573     1.3506   135.9302 </r>
       <r>     3.2238     0.7503   135.9801 </r>
       <r>     3.2903     0.2547   135.9970 </r>
       <r>     3.3568     0.0416   135.9998 </r>
       <r>     3.4232     0.0030   136.0000 </r>
       <r>     3.4897     0.0001   136.0000 </r>
       <r>     3.5562     0.0000   136.0000 </r>
       <r>     3.6227     0.0000   136.0000 </r>
       <r>     3.6891     0.0000   136.0000 </r>
       <r>     3.7556     0.0000   136.0000 </r>
       <r>     3.8221     0.0000   136.0000 </r>
       <r>     3.8885     0.0000   136.0000 </r>
       <r>     3.9550     0.0000   136.0000 </r>
       <r>     4.0215     0.0000   136.0000 </r>
       <r>     4.0880     0.0000   136.0000 </r>
       <r>     4.1544     0.0000   136.0000 </r>
      </set>
     </set>
    </array>
   </total>
  </dos>
 </calculation>
 <structure name="finalpos" >
  <crystal>
   <varray name="basis" >
    <v>       3.54040000       0.00000000       0.00000000 </v>
    <v>      -1.77020000      10.29434800       0.00000000 </v>
    <v>       0.00000000       0.00000000      27.50142900 </v>
   </varray>
   <i name="volume">   1002.32009712 </i>
   <varray name="rec_basis" >
    <v>       0.28245396       0.04857034       0.00000000 </v>
    <v>       0.00000000       0.09714068       0.00000000 </v>
    <v>       0.00000000       0.00000000       0.03636175 </v>
   </varray>
  </crystal>
  <varray name="positions" >
   <v>       0.11402300       0.22804500       0.23316207 </v>
   <v>       0.71402300       0.62804500       0.51499159 </v>
   <v>       0.45808900       0.91617900       0.20939482 </v>
   <v>       0.05808900       0.31617900       0.49122434 </v>
   <v>       0.31085400       0.62170900       0.08414979 </v>
   <v>       0.31085400       0.62170900       0.36597930 </v>
   <v>       0.99923000       0.99846000       0.08631254 </v>
   <v>       0.99923000       0.99846000       0.36814206 </v>
   <v>       0.65492700       0.30985400       0.06041748 </v>
   <v>       0.65492700       0.30985400       0.34224700 </v>
   <v>       0.76973800       0.53947500       0.20725292 </v>
   <v>       0.36973800       0.93947500       0.48908244 </v>
   <v>       0.93971600       0.87943300       0.15783749 </v>
   <v>       0.53971600       0.27943300       0.43966701 </v>
   <v>       0.20515200       0.41030300       0.18578822 </v>
   <v>       0.80515200       0.81030300       0.46761774 </v>
   <v>       0.20184900       0.40369900       0.09969156 </v>
   <v>       0.20184900       0.40369900       0.38152107 </v>
   <v>       0.56380500       0.12761000       0.10779021 </v>
   <v>       0.56380500       0.12761000       0.38961973 </v>
   <v>       0.56710600       0.13421200       0.19387616 </v>
   <v>       0.16710600       0.53421200       0.47570568 </v>
   <v>       0.82923400       0.65846800       0.13571444 </v>
   <v>       0.42923400       0.05846800       0.41754396 </v>
  </varray>
 </structure>
</modeling>
