<?xml version="1.0" encoding="ISO-8859-1"?>
<modeling>
 <generator>
  <i name="program" type="string">vasp </i>
  <i name="version" type="string">5.3.5  </i>
  <i name="subversion" type="string">31Mar14 (build Oct 29 2014 16:16:03) complex                          parallel </i>
  <i name="platform" type="string">Linux-UFHPC </i>
  <i name="date" type="string">2016 02 09 </i>
  <i name="time" type="string">17:30:14 </i>
 </generator>
 <incar>
  <i type="string" name="PREC">accurate</i>
  <i type="int" name="IBRION">     2</i>
  <i name="EDIFF">      0.00000100</i>
  <i type="int" name="NSW">     0</i>
  <i type="int" name="ISIF">     3</i>
  <i name="ENCUT">    300.00000000</i>
  <i type="string" name="LREAL"> Auto</i>
  <i type="int" name="ISMEAR">     0</i>
  <i name="SIGMA">      0.10000000</i>
  <i type="logical" name="LWAVE"> F  </i>
  <i type="logical" name="LCHARG"> F  </i>
  <i type="logical" name="LAECHG"> F  </i>
  <i type="string" name="GGA"> Bo</i>
  <i name="PARAM1">      0.18333333</i>
  <i name="PARAM2">      0.22000000</i>
  <i type="logical" name="LUSE_VDW"> T  </i>
  <i name="AGGAC">      0.00000000</i>
 </incar>
 <kpoints>
  <generation param="Gamma">
   <v type="int" name="divisions">      13        4        2 </v>
   <v name="usershift">      0.00000000       0.00000000       0.00000000 </v>
   <v name="genvec1">      0.07692308      -0.00000000       0.00000000 </v>
   <v name="genvec2">      0.00000000       0.25000000       0.00000000 </v>
   <v name="genvec3">      0.00000000       0.00000000       0.50000000 </v>
   <v name="shift">      0.00000000       0.00000000       0.00000000 </v>
  </generation>
  <varray name="kpointlist" >
   <v>       0.00000000       0.00000000       0.00000000 </v>
   <v>       0.07692308      -0.00000000       0.00000000 </v>
   <v>       0.15384615      -0.00000000       0.00000000 </v>
   <v>       0.23076923      -0.00000000       0.00000000 </v>
   <v>       0.30769231      -0.00000000       0.00000000 </v>
   <v>       0.38461538      -0.00000000       0.00000000 </v>
   <v>       0.46153846      -0.00000000       0.00000000 </v>
   <v>       0.00000000       0.25000000       0.00000000 </v>
   <v>       0.07692308       0.25000000       0.00000000 </v>
   <v>       0.15384615       0.25000000       0.00000000 </v>
   <v>       0.23076923       0.25000000       0.00000000 </v>
   <v>       0.30769231       0.25000000       0.00000000 </v>
   <v>       0.38461538       0.25000000       0.00000000 </v>
   <v>       0.46153846       0.25000000       0.00000000 </v>
   <v>      -0.46153846       0.25000000       0.00000000 </v>
   <v>      -0.38461538       0.25000000       0.00000000 </v>
   <v>      -0.30769231       0.25000000       0.00000000 </v>
   <v>      -0.23076923       0.25000000       0.00000000 </v>
   <v>      -0.15384615       0.25000000       0.00000000 </v>
   <v>      -0.07692308       0.25000000       0.00000000 </v>
   <v>       0.00000000       0.50000000       0.00000000 </v>
   <v>       0.07692308       0.50000000       0.00000000 </v>
   <v>       0.15384615       0.50000000       0.00000000 </v>
   <v>       0.23076923       0.50000000       0.00000000 </v>
   <v>       0.30769231       0.50000000       0.00000000 </v>
   <v>       0.38461538       0.50000000       0.00000000 </v>
   <v>       0.46153846       0.50000000       0.00000000 </v>
   <v>       0.00000000       0.00000000       0.50000000 </v>
   <v>       0.07692308      -0.00000000       0.50000000 </v>
   <v>       0.15384615      -0.00000000       0.50000000 </v>
   <v>       0.23076923      -0.00000000       0.50000000 </v>
   <v>       0.30769231      -0.00000000       0.50000000 </v>
   <v>       0.38461538      -0.00000000       0.50000000 </v>
   <v>       0.46153846      -0.00000000       0.50000000 </v>
   <v>       0.00000000       0.25000000       0.50000000 </v>
   <v>       0.07692308       0.25000000       0.50000000 </v>
   <v>       0.15384615       0.25000000       0.50000000 </v>
   <v>       0.23076923       0.25000000       0.50000000 </v>
   <v>       0.30769231       0.25000000       0.50000000 </v>
   <v>       0.38461538       0.25000000       0.50000000 </v>
   <v>       0.46153846       0.25000000       0.50000000 </v>
   <v>      -0.46153846       0.25000000       0.50000000 </v>
   <v>      -0.38461538       0.25000000       0.50000000 </v>
   <v>      -0.30769231       0.25000000       0.50000000 </v>
   <v>      -0.23076923       0.25000000       0.50000000 </v>
   <v>      -0.15384615       0.25000000       0.50000000 </v>
   <v>      -0.07692308       0.25000000       0.50000000 </v>
   <v>       0.00000000       0.50000000       0.50000000 </v>
   <v>       0.07692308       0.50000000       0.50000000 </v>
   <v>       0.15384615       0.50000000       0.50000000 </v>
   <v>       0.23076923       0.50000000       0.50000000 </v>
   <v>       0.30769231       0.50000000       0.50000000 </v>
   <v>       0.38461538       0.50000000       0.50000000 </v>
   <v>       0.46153846       0.50000000       0.50000000 </v>
  </varray>
  <varray name="weights" >
   <v>       0.00961538 </v>
   <v>       0.01923077 </v>
   <v>       0.01923077 </v>
   <v>       0.01923077 </v>
   <v>       0.01923077 </v>
   <v>       0.01923077 </v>
   <v>       0.01923077 </v>
   <v>       0.01923077 </v>
   <v>       0.01923077 </v>
   <v>       0.01923077 </v>
   <v>       0.01923077 </v>
   <v>       0.01923077 </v>
   <v>       0.01923077 </v>
   <v>       0.01923077 </v>
   <v>       0.01923077 </v>
   <v>       0.01923077 </v>
   <v>       0.01923077 </v>
   <v>       0.01923077 </v>
   <v>       0.01923077 </v>
   <v>       0.01923077 </v>
   <v>       0.00961538 </v>
   <v>       0.01923077 </v>
   <v>       0.01923077 </v>
   <v>       0.01923077 </v>
   <v>       0.01923077 </v>
   <v>       0.01923077 </v>
   <v>       0.01923077 </v>
   <v>       0.00961538 </v>
   <v>       0.01923077 </v>
   <v>       0.01923077 </v>
   <v>       0.01923077 </v>
   <v>       0.01923077 </v>
   <v>       0.01923077 </v>
   <v>       0.01923077 </v>
   <v>       0.01923077 </v>
   <v>       0.01923077 </v>
   <v>       0.01923077 </v>
   <v>       0.01923077 </v>
   <v>       0.01923077 </v>
   <v>       0.01923077 </v>
   <v>       0.01923077 </v>
   <v>       0.01923077 </v>
   <v>       0.01923077 </v>
   <v>       0.01923077 </v>
   <v>       0.01923077 </v>
   <v>       0.01923077 </v>
   <v>       0.01923077 </v>
   <v>       0.00961538 </v>
   <v>       0.01923077 </v>
   <v>       0.01923077 </v>
   <v>       0.01923077 </v>
   <v>       0.01923077 </v>
   <v>       0.01923077 </v>
   <v>       0.01923077 </v>
  </varray>
 </kpoints>
 <parameters>
  <separator name="general" >
   <i type="string" name="SYSTEM">unknown system</i>
   <i type="logical" name="LCOMPAT"> F  </i>
  </separator>
  <separator name="electronic" >
   <i type="string" name="PREC">accura</i>
   <i name="ENMAX">    300.00000000</i>
   <i name="ENAUG">    342.92400000</i>
   <i name="EDIFF">      0.00000100</i>
   <i type="int" name="IALGO">    38</i>
   <i type="int" name="IWAVPR">    10</i>
   <i type="int" name="NBANDS">    68</i>
   <i name="NELECT">    108.00000000</i>
   <i type="int" name="TURBO">     0</i>
   <i type="int" name="IRESTART">     0</i>
   <i type="int" name="NREBOOT">     0</i>
   <i type="int" name="NMIN">     0</i>
   <i name="EREF">      0.00000000</i>
   <separator name="electronic smearing" >
    <i type="int" name="ISMEAR">     0</i>
    <i name="SIGMA">      0.10000000</i>
    <i name="KSPACING">      0.50000000</i>
    <i type="logical" name="KGAMMA"> T  </i>
   </separator>
   <separator name="electronic projectors" >
    <i type="logical" name="LREAL"> T  </i>
    <v name="ROPT">     -0.00025000     -0.00025000</v>
    <i type="int" name="LMAXPAW">  -100</i>
    <i type="int" name="LMAXMIX">     2</i>
    <i type="logical" name="NLSPLINE"> F  </i>
   </separator>
   <separator name="electronic startup" >
    <i type="int" name="ISTART">     0</i>
    <i type="int" name="ICHARG">     2</i>
    <i type="int" name="INIWAV">     1</i>
   </separator>
   <separator name="electronic spin" >
    <i type="int" name="ISPIN">     1</i>
    <i type="logical" name="LNONCOLLINEAR"> F  </i>
    <v name="MAGMOM">      1.00000000      1.00000000      1.00000000      1.00000000      1.00000000      1.00000000      1.00000000      1.00000000      1.00000000      1.00000000      1.00000000      1.00000000      1.00000000      1.00000000      1.00000000      1.00000000      1.00000000      1.00000000      1.00000000      1.00000000
      1.00000000      1.00000000      1.00000000      1.00000000</v>
    <i name="NUPDOWN">     -1.00000000</i>
    <i type="logical" name="LSORBIT"> F  </i>
    <v name="SAXIS">      0.00000000      0.00000000      1.00000000</v>
    <i type="logical" name="LSPIRAL"> F  </i>
    <v name="QSPIRAL">      0.00000000      0.00000000      0.00000000</v>
    <i type="logical" name="LZEROZ"> F  </i>
   </separator>
   <separator name="electronic exchange-correlation" >
    <i type="logical" name="LASPH"> F  </i>
    <i type="logical" name="LMETAGGA"> F  </i>
   </separator>
   <separator name="electronic convergence" >
    <i type="int" name="NELM">    60</i>
    <i type="int" name="NELMDL">    -5</i>
    <i type="int" name="NELMIN">     2</i>
    <i name="ENINI">    300.00000000</i>
    <separator name="electronic convergence detail" >
     <i type="logical" name="LDIAG"> T  </i>
     <i type="logical" name="LSUBROT"> F  </i>
     <i name="WEIMIN">      0.00000000</i>
     <i name="EBREAK">      0.00000000</i>
     <i name="DEPER">      0.30000000</i>
     <i type="int" name="NRMM">     4</i>
     <i name="TIME">      0.40000000</i>
    </separator>
   </separator>
   <separator name="electronic mixer" >
    <i name="AMIX">      0.40000000</i>
    <i name="BMIX">      1.00000000</i>
    <i name="AMIN">      0.10000000</i>
    <i name="AMIX_MAG">      1.60000000</i>
    <i name="BMIX_MAG">      1.00000000</i>
    <separator name="electronic mixer details" >
     <i type="int" name="IMIX">     4</i>
     <i type="int" name="MAXMIX">   -45</i>
     <i name="WC">    100.00000000</i>
     <i type="int" name="INIMIX">     1</i>
     <i type="int" name="MIXPRE">     1</i>
     <i type="int" name="MREMOVE">     5</i>
    </separator>
   </separator>
   <separator name="electronic dipolcorrection" >
    <i type="logical" name="LDIPOL"> F  </i>
    <i type="logical" name="LMONO"> F  </i>
    <i type="int" name="IDIPOL">     0</i>
    <i name="EPSILON">      1.00000000</i>
    <v name="DIPOL">   -100.00000000   -100.00000000   -100.00000000</v>
    <i name="EFIELD">      0.00000000</i>
   </separator>
  </separator>
  <separator name="grids" >
   <i type="int" name="NGX">    20</i>
   <i type="int" name="NGY">    60</i>
   <i type="int" name="NGZ">   160</i>
   <i type="int" name="NGXF">    40</i>
   <i type="int" name="NGYF">   120</i>
   <i type="int" name="NGZF">   320</i>
   <i type="logical" name="ADDGRID"> F  </i>
  </separator>
  <separator name="ionic" >
   <i type="int" name="NSW">     0</i>
   <i type="int" name="IBRION">    -1</i>
   <i type="int" name="ISIF">     3</i>
   <i name="PSTRESS">      0.00000000</i>
   <i name="EDIFFG">      0.00001000</i>
   <i type="int" name="NFREE">     1</i>
   <i name="POTIM">      0.50000000</i>
   <i name="SMASS">     -3.00000000</i>
   <i name="SCALEE">      1.00000000</i>
  </separator>
  <separator name="ionic md" >
   <i name="TEBEG">      0.00010000</i>
   <i name="TEEND">      0.00010000</i>
   <i type="int" name="NBLOCK">     1</i>
   <i type="int" name="KBLOCK">     1</i>
   <i type="int" name="NPACO">   256</i>
   <i name="APACO">     16.00000000</i>
  </separator>
  <separator name="symmetry" >
   <i type="int" name="ISYM">     2</i>
   <i name="SYMPREC">      0.00001000</i>
  </separator>
  <separator name="dos" >
   <i type="logical" name="LORBIT"> F  </i>
   <v name="RWIGS">     -1.00000000     -1.00000000</v>
   <i type="int" name="NEDOS">   301</i>
   <i name="EMIN">     10.00000000</i>
   <i name="EMAX">    -10.00000000</i>
   <i name="EFERMI">      0.00000000</i>
  </separator>
  <separator name="writing" >
   <i type="int" name="NWRITE">     2</i>
   <i type="logical" name="LWAVE"> F  </i>
   <i type="logical" name="LCHARG"> F  </i>
   <i type="logical" name="LPARD"> F  </i>
   <i type="logical" name="LVTOT"> F  </i>
   <i type="logical" name="LVHAR"> F  </i>
   <i type="logical" name="LELF"> F  </i>
   <i type="logical" name="LOPTICS"> F  </i>
   <v name="STM">      0.00000000      0.00000000      0.00000000      0.00000000      0.00000000      0.00000000      0.00000000</v>
  </separator>
  <separator name="performance" >
   <i type="int" name="NPAR">     4</i>
   <i type="int" name="NSIM">     4</i>
   <i type="int" name="NBLK">    -1</i>
   <i type="logical" name="LPLANE"> T  </i>
   <i type="logical" name="LSCALAPACK"> T  </i>
   <i type="logical" name="LSCAAWARE"> F  </i>
   <i type="logical" name="LSCALU"> F  </i>
   <i type="logical" name="LASYNC"> F  </i>
   <i type="logical" name="LORBITALREAL"> F  </i>
  </separator>
  <separator name="miscellaneous" >
   <i type="int" name="IDIOT">     3</i>
   <i type="logical" name="LMUSIC"> F  </i>
   <v name="POMASS">     30.97400000     28.08500000</v>
   <v name="DARWINR">      0.00000000      0.00000000</v>
   <v name="DARWINV">      1.00000000      1.00000000</v>
   <i type="logical" name="LCORR"> T  </i>
  </separator>
  <i type="logical" name="GGA_COMPAT"> T  </i>
  <i type="logical" name="LBERRY"> F  </i>
  <i type="int" name="ICORELEVEL">     0</i>
  <i type="logical" name="LDAU"> F  </i>
  <i type="int" name="I_CONSTRAINED_M">     0</i>
  <separator name="electronic exchange-correlation" >
   <i type="string" name="GGA">BO</i>
   <i type="int" name="VOSKOWN">     0</i>
   <i type="logical" name="LHFCALC"> F  </i>
   <i type="string" name="PRECFOCK"></i>
   <i type="logical" name="LSYMGRAD"> F  </i>
   <i type="logical" name="LHFONE"> F  </i>
   <i type="logical" name="LRHFCALC"> F  </i>
   <i type="logical" name="LTHOMAS"> F  </i>
   <i type="logical" name="LMODELHF"> F  </i>
   <i name="ENCUT4O">     -1.00000000</i>
   <i type="int" name="EXXOEP">     0</i>
   <i type="int" name="FOURORBIT">     0</i>
   <i name="AEXX">      0.00000000</i>
   <i name="HFALPHA">      0.00000000</i>
   <i name="MCALPHA">      0.00000000</i>
   <i name="ALDAX">      1.00000000</i>
   <i name="AGGAX">      1.00000000</i>
   <i name="ALDAC">      1.00000000</i>
   <i name="AGGAC">      0.00000000</i>
   <i type="int" name="NKREDX">     1</i>
   <i type="int" name="NKREDY">     1</i>
   <i type="int" name="NKREDZ">     1</i>
   <i type="logical" name="SHIFTRED"> F  </i>
   <i type="logical" name="ODDONLY"> F  </i>
   <i type="logical" name="EVENONLY"> F  </i>
   <i type="int" name="LMAXFOCK">     0</i>
   <i type="int" name="NMAXFOCKAE">     0</i>
   <i type="logical" name="LFOCKAEDFT"> F  </i>
   <i name="HFSCREEN">      0.00000000</i>
   <i name="HFSCREENC">      0.00000000</i>
   <i type="int" name="NBANDSGWLOW">     0</i>
  </separator>
  <separator name="vdW DFT" >
   <i type="logical" name="LUSE_VDW"> T  </i>
   <i name="Zab_VDW">     -0.84910000</i>
   <i name="PARAM1">      0.18333333</i>
   <i name="PARAM2">      0.22000000</i>
   <i name="PARAM3">      0.00000000</i>
  </separator>
  <separator name="model GW" >
   <i type="int" name="MODEL_GW">     0</i>
   <i name="MODEL_EPS0">     25.05800243</i>
   <i name="MODEL_ALPHA">      1.00000000</i>
  </separator>
  <separator name="linear response parameters" >
   <i type="logical" name="LEPSILON"> F  </i>
   <i type="logical" name="LRPA"> F  </i>
   <i type="logical" name="LNABLA"> F  </i>
   <i type="logical" name="LVEL"> F  </i>
   <i type="int" name="KINTER">     0</i>
   <i name="CSHIFT">      0.10000000</i>
   <i name="OMEGAMAX">     -1.00000000</i>
   <i name="DEG_THRESHOLD">      0.00200000</i>
  </separator>
  <separator name="orbital magnetization" >
   <i type="logical" name="NUCIND"> F  </i>
   <v name="MAGPOS">      0.00000000      0.00000000      0.00000000</v>
   <i type="logical" name="LNICSALL"> T  </i>
   <i type="logical" name="ORBITALMAG"> F  </i>
   <i type="logical" name="LMAGBLOCH"> F  </i>
   <i type="logical" name="LCHIMAG"> F  </i>
   <i type="logical" name="LGAUGE"> T  </i>
   <i type="int" name="MAGATOM">     0</i>
   <v name="MAGDIPOL">      0.00000000      0.00000000      0.00000000</v>
   <v name="AVECCONST">      0.00000000      0.00000000      0.00000000</v>
  </separator>
  <separator name="response functions" >
   <i type="logical" name="LADDER"> F  </i>
   <i type="logical" name="LFXC"> F  </i>
   <i type="logical" name="LHARTREE"> T  </i>
   <i type="int" name="IBSE">     0</i>
   <i type="logical" name="LTCTE"> F  </i>
   <i type="logical" name="LTETE"> F  </i>
   <i type="logical" name="LTRIPLET"> F  </i>
   <i type="logical" name="LFXCEPS"> F  </i>
   <i type="logical" name="LFXHEG"> F  </i>
   <i type="logical" name="L2ORDER"> F  </i>
   <i type="logical" name="LUSEW"> F  </i>
   <i name="ENCUTGW">     -2.00000000</i>
   <i name="ENCUTGWSOFT">     -2.00000000</i>
   <i name="ENCUTLF">     -1.00000000</i>
   <i type="int" name="LMAXMP2">    -1</i>
   <i name="SCISSOR">      0.00000000</i>
   <i type="int" name="NOMEGA">     0</i>
   <i type="int" name="NOMEGAR">     0</i>
   <i type="int" name="NBANDSGW">    -1</i>
   <i type="int" name="NBANDSO">    -1</i>
   <i type="int" name="NBANDSV">    -1</i>
   <i type="int" name="NELM">     1</i>
   <i type="int" name="DIM">     3</i>
   <i type="int" name="ANTIRES">     0</i>
   <i name="OMEGAMAX">    -30.00000000</i>
   <i name="OMEGAMIN">    -30.00000000</i>
   <i name="OMEGATL">   -200.00000000</i>
   <i type="int" name="OMEGAGRID">     0</i>
   <i name="CSHIFT">     -0.10000000</i>
   <i type="logical" name="SELFENERGY"> F  </i>
   <i type="logical" name="LSPECTRAL"> F  </i>
   <i type="logical" name="ODDONLYGW"> F  </i>
   <i type="logical" name="EVENONLYGW"> F  </i>
   <i type="int" name="NKREDLFX">     1</i>
   <i type="int" name="NKREDLFY">     1</i>
   <i type="int" name="NKREDLFZ">     1</i>
   <i type="int" name="MAXMEM">  1800</i>
   <i type="int" name="TELESCOPE">     0</i>
   <i type="int" name="TAUPAR">     1</i>
  </separator>
  <separator name="External order field" >
   <i name="OFIELD_KAPPA">      0.00000000</i>
   <v name="OFIELD_K">      0.00000000      0.00000000      0.00000000</v>
   <i name="OFIELD_Q6_NEAR">      0.00000000</i>
   <i name="OFIELD_Q6_FAR">      0.00000000</i>
   <i name="OFIELD_A">      0.00000000</i>
  </separator>
 </parameters>
 <atominfo>
  <atoms>      24 </atoms>
  <types>       2 </types>
  <array name="atoms" >
   <dimension dim="1">ion</dimension>
   <field type="string">element</field>
   <field type="int">atomtype</field>
   <set>
    <rc><c>P </c><c>   1</c></rc>
    <rc><c>P </c><c>   1</c></rc>
    <rc><c>P </c><c>   1</c></rc>
    <rc><c>P </c><c>   1</c></rc>
    <rc><c>P </c><c>   1</c></rc>
    <rc><c>P </c><c>   1</c></rc>
    <rc><c>P </c><c>   1</c></rc>
    <rc><c>P </c><c>   1</c></rc>
    <rc><c>P </c><c>   1</c></rc>
    <rc><c>P </c><c>   1</c></rc>
    <rc><c>P </c><c>   1</c></rc>
    <rc><c>P </c><c>   1</c></rc>
    <rc><c>Si</c><c>   2</c></rc>
    <rc><c>Si</c><c>   2</c></rc>
    <rc><c>Si</c><c>   2</c></rc>
    <rc><c>Si</c><c>   2</c></rc>
    <rc><c>Si</c><c>   2</c></rc>
    <rc><c>Si</c><c>   2</c></rc>
    <rc><c>Si</c><c>   2</c></rc>
    <rc><c>Si</c><c>   2</c></rc>
    <rc><c>Si</c><c>   2</c></rc>
    <rc><c>Si</c><c>   2</c></rc>
    <rc><c>Si</c><c>   2</c></rc>
    <rc><c>Si</c><c>   2</c></rc>
   </set>
  </array>
  <array name="atomtypes" >
   <dimension dim="1">type</dimension>
   <field type="int">atomspertype</field>
   <field type="string">element</field>
   <field>mass</field>
   <field>valence</field>
   <field type="string">pseudopotential</field>
   <set>
    <rc><c>  12</c><c>P </c><c>     30.97400000</c><c>      5.00000000</c><c>  PAW_PBE P 17Jan2003                   </c></rc>
    <rc><c>  12</c><c>Si</c><c>     28.08500000</c><c>      4.00000000</c><c> PAW_PBE Si 05Jan2001                   </c></rc>
   </set>
  </array>
 </atominfo>
 <structure name="initialpos" >
  <crystal>
   <varray name="basis" >
    <v>       3.54040000       0.00000000       0.00000000 </v>
    <v>      -1.77020000      10.29434800       0.00000000 </v>
    <v>       0.00000000       0.00000000      27.50142900 </v>
   </varray>
   <i name="volume">   1002.32009712 </i>
   <varray name="rec_basis" >
    <v>       0.28245396       0.04857034       0.00000000 </v>
    <v>       0.00000000       0.09714068       0.00000000 </v>
    <v>       0.00000000       0.00000000       0.03636175 </v>
   </varray>
  </crystal>
  <varray name="positions" >
   <v>       0.11402300       0.22804500       0.23316207 </v>
   <v>       0.31402300       0.02804500       0.51499159 </v>
   <v>       0.45808900       0.91617900       0.20939482 </v>
   <v>       0.65808900       0.71617900       0.49122434 </v>
   <v>       0.31085400       0.62170900       0.08414979 </v>
   <v>       0.31085400       0.62170900       0.36597930 </v>
   <v>       0.99923000       0.99846000       0.08631254 </v>
   <v>       0.99923000       0.99846000       0.36814206 </v>
   <v>       0.65492700       0.30985400       0.06041748 </v>
   <v>       0.65492700       0.30985400       0.34224700 </v>
   <v>       0.76973800       0.53947500       0.20725292 </v>
   <v>       0.96973800       0.33947500       0.48908244 </v>
   <v>       0.93971600       0.87943300       0.15783749 </v>
   <v>       0.13971600       0.67943300       0.43966701 </v>
   <v>       0.20515200       0.41030300       0.18578822 </v>
   <v>       0.40515200       0.21030300       0.46761774 </v>
   <v>       0.20184900       0.40369900       0.09969156 </v>
   <v>       0.20184900       0.40369900       0.38152107 </v>
   <v>       0.56380500       0.12761000       0.10779021 </v>
   <v>       0.56380500       0.12761000       0.38961973 </v>
   <v>       0.56710600       0.13421200       0.19387616 </v>
   <v>       0.76710600       0.93421200       0.47570568 </v>
   <v>       0.82923400       0.65846800       0.13571444 </v>
   <v>       0.02923400       0.45846800       0.41754396 </v>
  </varray>
 </structure>
 <calculation>
  <scstep>
   <time name="dav">   85.69   85.78</time>
   <time name="total">  102.32  102.45</time>
   <energy>
    <i name="alphaZ">     36.80884744 </i>
    <i name="ewald">  11981.43916959 </i>
    <i name="hartreedc"> -15002.49101396 </i>
    <i name="XCdc">    -87.66209849 </i>
    <i name="pawpsdc">   1056.43050070 </i>
    <i name="pawaedc">   -732.41190547 </i>
    <i name="eentropy">     -0.04237260 </i>
    <i name="bandstr">    -92.28797974 </i>
    <i name="atom">   3354.04126044 </i>
    <i name="e_fr_energy">    513.82440793 </i>
    <i name="e_wo_entrp">    513.86678053 </i>
    <i name="e_0_energy">    513.84559423 </i>
   </energy>
  </scstep>
  <scstep>
   <time name="dav">  101.01  101.11</time>
   <time name="total">  101.02  101.13</time>
   <energy>
    <i name="e_fr_energy">    -50.69878119 </i>
    <i name="e_wo_entrp">    -50.67888830 </i>
    <i name="e_0_energy">    -50.68883475 </i>
   </energy>
  </scstep>
  <scstep>
   <time name="dav">  102.68  102.77</time>
   <time name="total">  102.69  102.78</time>
   <energy>
    <i name="e_fr_energy">   -108.53116789 </i>
    <i name="e_wo_entrp">   -108.50322425 </i>
    <i name="e_0_energy">   -108.51719607 </i>
   </energy>
  </scstep>
  <scstep>
   <time name="dav">  126.26  126.41</time>
   <time name="total">  126.27  126.43</time>
   <energy>
    <i name="e_fr_energy">   -111.31056602 </i>
    <i name="e_wo_entrp">   -111.27720286 </i>
    <i name="e_0_energy">   -111.29388444 </i>
   </energy>
  </scstep>
  <scstep>
   <time name="dav">  108.13  108.28</time>
   <time name="total">  113.31  113.47</time>
   <energy>
    <i name="e_fr_energy">   -111.35747231 </i>
    <i name="e_wo_entrp">   -111.32403457 </i>
    <i name="e_0_energy">   -111.34075344 </i>
   </energy>
  </scstep>
  <scstep>
   <time name="dav">   95.33   95.40</time>
   <time name="total">  115.93  116.03</time>
   <energy>
    <i name="e_fr_energy">   -106.51310849 </i>
    <i name="e_wo_entrp">   -106.48763448 </i>
    <i name="e_0_energy">   -106.50037149 </i>
   </energy>
  </scstep>
  <scstep>
   <time name="dav">  104.79  104.97</time>
   <time name="total">  125.32  125.51</time>
   <energy>
    <i name="e_fr_energy">   -106.77986482 </i>
    <i name="e_wo_entrp">   -106.74625944 </i>
    <i name="e_0_energy">   -106.76306213 </i>
   </energy>
  </scstep>
  <scstep>
   <time name="dav">   96.69   96.76</time>
   <time name="total">  116.87  116.96</time>
   <energy>
    <i name="e_fr_energy">   -106.67701342 </i>
    <i name="e_wo_entrp">   -106.64682659 </i>
    <i name="e_0_energy">   -106.66192001 </i>
   </energy>
  </scstep>
  <scstep>
   <time name="dav">  101.86  102.01</time>
   <time name="total">  121.80  121.96</time>
   <energy>
    <i name="e_fr_energy">   -106.70104547 </i>
    <i name="e_wo_entrp">   -106.66702252 </i>
    <i name="e_0_energy">   -106.68403400 </i>
   </energy>
  </scstep>
  <scstep>
   <time name="dav">   96.97   97.18</time>
   <time name="total">  116.84  117.06</time>
   <energy>
    <i name="e_fr_energy">   -106.70277638 </i>
    <i name="e_wo_entrp">   -106.67022670 </i>
    <i name="e_0_energy">   -106.68650154 </i>
   </energy>
  </scstep>
  <scstep>
   <time name="dav">  108.97  109.11</time>
   <time name="total">  129.73  129.88</time>
   <energy>
    <i name="e_fr_energy">   -106.69113174 </i>
    <i name="e_wo_entrp">   -106.65843950 </i>
    <i name="e_0_energy">   -106.67478562 </i>
   </energy>
  </scstep>
  <scstep>
   <time name="dav">   93.71   93.88</time>
   <time name="total">  115.52  115.78</time>
   <energy>
    <i name="e_fr_energy">   -106.68193345 </i>
    <i name="e_wo_entrp">   -106.64916854 </i>
    <i name="e_0_energy">   -106.66555100 </i>
   </energy>
  </scstep>
  <scstep>
   <time name="dav">   97.28   97.67</time>
   <time name="total">  118.71  119.15</time>
   <energy>
    <i name="e_fr_energy">   -106.67807430 </i>
    <i name="e_wo_entrp">   -106.64536195 </i>
    <i name="e_0_energy">   -106.66171813 </i>
   </energy>
  </scstep>
  <scstep>
   <time name="dav">   93.48   93.61</time>
   <time name="total">  113.76  113.89</time>
   <energy>
    <i name="e_fr_energy">   -106.67513843 </i>
    <i name="e_wo_entrp">   -106.64237383 </i>
    <i name="e_0_energy">   -106.65875613 </i>
   </energy>
  </scstep>
  <scstep>
   <time name="dav">   91.95   92.16</time>
   <time name="total">  112.84  113.07</time>
   <energy>
    <i name="e_fr_energy">   -106.67501954 </i>
    <i name="e_wo_entrp">   -106.64225762 </i>
    <i name="e_0_energy">   -106.65863858 </i>
   </energy>
  </scstep>
  <scstep>
   <time name="dav">   86.34   86.42</time>
   <time name="total">  106.68  106.82</time>
   <energy>
    <i name="e_fr_energy">   -106.67536457 </i>
    <i name="e_wo_entrp">   -106.64260003 </i>
    <i name="e_0_energy">   -106.65898230 </i>
   </energy>
  </scstep>
  <scstep>
   <time name="dav">   86.73   87.01</time>
   <time name="total">  106.64  106.93</time>
   <energy>
    <i name="e_fr_energy">   -106.67572661 </i>
    <i name="e_wo_entrp">   -106.64295712 </i>
    <i name="e_0_energy">   -106.65934187 </i>
   </energy>
  </scstep>
  <scstep>
   <time name="dav">   81.10   81.19</time>
   <time name="total">  101.10  101.22</time>
   <energy>
    <i name="e_fr_energy">   -106.67595821 </i>
    <i name="e_wo_entrp">   -106.64319197 </i>
    <i name="e_0_energy">   -106.65957509 </i>
   </energy>
  </scstep>
  <scstep>
   <time name="dav">   74.52   74.69</time>
   <time name="total">   94.63   94.88</time>
   <energy>
    <i name="e_fr_energy">   -106.67599119 </i>
    <i name="e_wo_entrp">   -106.64322430 </i>
    <i name="e_0_energy">   -106.65960775 </i>
   </energy>
  </scstep>
  <scstep>
   <time name="dav">   78.89   79.02</time>
   <time name="total">   98.97   99.11</time>
   <energy>
    <i name="e_fr_energy">   -106.67597014 </i>
    <i name="e_wo_entrp">   -106.64320207 </i>
    <i name="e_0_energy">   -106.65958611 </i>
   </energy>
  </scstep>
  <scstep>
   <time name="dav">   69.52   69.62</time>
   <time name="total">   89.45   89.58</time>
   <energy>
    <i name="e_fr_energy">   -106.67595795 </i>
    <i name="e_wo_entrp">   -106.64318944 </i>
    <i name="e_0_energy">   -106.65957370 </i>
   </energy>
  </scstep>
  <scstep>
   <time name="dav">   73.99   74.06</time>
   <time name="total">   93.79   93.88</time>
   <energy>
    <i name="e_fr_energy">   -106.67587939 </i>
    <i name="e_wo_entrp">   -106.64311064 </i>
    <i name="e_0_energy">   -106.65949502 </i>
   </energy>
  </scstep>
  <scstep>
   <time name="dav">   70.78   70.84</time>
   <time name="total">   90.70   90.78</time>
   <energy>
    <i name="e_fr_energy">   -106.67586015 </i>
    <i name="e_wo_entrp">   -106.64309173 </i>
    <i name="e_0_energy">   -106.65947594 </i>
   </energy>
  </scstep>
  <scstep>
   <time name="dav">   70.34   70.40</time>
   <time name="total">   90.34   90.44</time>
   <energy>
    <i name="e_fr_energy">   -106.67584702 </i>
    <i name="e_wo_entrp">   -106.64307865 </i>
    <i name="e_0_energy">   -106.65946284 </i>
   </energy>
  </scstep>
  <scstep>
   <time name="dav">   74.07   74.12</time>
   <time name="total">   94.14   94.21</time>
   <energy>
    <i name="e_fr_energy">   -106.67584349 </i>
    <i name="e_wo_entrp">   -106.64307511 </i>
    <i name="e_0_energy">   -106.65945930 </i>
   </energy>
  </scstep>
  <scstep>
   <time name="dav">   68.31   68.37</time>
   <time name="total">   83.31   83.39</time>
   <energy>
    <i name="alphaZ">     36.80884744 </i>
    <i name="ewald">  11981.43916959 </i>
    <i name="hartreedc"> -15104.04382254 </i>
    <i name="XCdc">    -79.52312049 </i>
    <i name="pawpsdc">   1190.01194341 </i>
    <i name="pawaedc">   -870.05984577 </i>
    <i name="eentropy">     -0.03276841 </i>
    <i name="bandstr">   -615.31750792 </i>
    <i name="atom">   3354.04126044 </i>
    <i name="e_fr_energy">   -106.67584425 </i>
    <i name="e_wo_entrp">   -106.64307584 </i>
    <i name="e_0_energy">   -106.65946004 </i>
   </energy>
  </scstep>
  <structure>
   <crystal>
    <varray name="basis" >
     <v>       3.54040000       0.00000000       0.00000000 </v>
     <v>      -1.77020000      10.29434800       0.00000000 </v>
     <v>       0.00000000       0.00000000      27.50142900 </v>
    </varray>
    <i name="volume">   1002.32009712 </i>
    <varray name="rec_basis" >
     <v>       0.28245396       0.04857034       0.00000000 </v>
     <v>       0.00000000       0.09714068       0.00000000 </v>
     <v>       0.00000000       0.00000000       0.03636175 </v>
    </varray>
   </crystal>
   <varray name="positions" >
    <v>       0.11402300       0.22804500       0.23316207 </v>
    <v>       0.31402300       0.02804500       0.51499159 </v>
    <v>       0.45808900       0.91617900       0.20939482 </v>
    <v>       0.65808900       0.71617900       0.49122434 </v>
    <v>       0.31085400       0.62170900       0.08414979 </v>
    <v>       0.31085400       0.62170900       0.36597930 </v>
    <v>       0.99923000       0.99846000       0.08631254 </v>
    <v>       0.99923000       0.99846000       0.36814206 </v>
    <v>       0.65492700       0.30985400       0.06041748 </v>
    <v>       0.65492700       0.30985400       0.34224700 </v>
    <v>       0.76973800       0.53947500       0.20725292 </v>
    <v>       0.96973800       0.33947500       0.48908244 </v>
    <v>       0.93971600       0.87943300       0.15783749 </v>
    <v>       0.13971600       0.67943300       0.43966701 </v>
    <v>       0.20515200       0.41030300       0.18578822 </v>
    <v>       0.40515200       0.21030300       0.46761774 </v>
    <v>       0.20184900       0.40369900       0.09969156 </v>
    <v>       0.20184900       0.40369900       0.38152107 </v>
    <v>       0.56380500       0.12761000       0.10779021 </v>
    <v>       0.56380500       0.12761000       0.38961973 </v>
    <v>       0.56710600       0.13421200       0.19387616 </v>
    <v>       0.76710600       0.93421200       0.47570568 </v>
    <v>       0.82923400       0.65846800       0.13571444 </v>
    <v>       0.02923400       0.45846800       0.41754396 </v>
   </varray>
  </structure>
  <varray name="forces" >
   <v>       0.03399727      -0.02197539       0.07761184 </v>
   <v>      -0.01912357      -0.10172403      -0.20517407 </v>
   <v>      -0.00130619      -0.01349850       0.08579858 </v>
   <v>       0.09660137       0.20346624      -0.67993562 </v>
   <v>      -0.00077568      -0.00882496       0.01237700 </v>
   <v>      -0.10553187       0.79156785      -1.40309362 </v>
   <v>      -0.00341619       0.00147075      -0.00409861 </v>
   <v>      -0.69290922      -0.14834792       1.23056309 </v>
   <v>       0.00106363       0.00010450       0.01183681 </v>
   <v>      -0.35184082      -0.46776193      -0.94807173 </v>
   <v>      -0.00078039       0.00619980       0.09580545 </v>
   <v>      -0.39290992      -0.65074173       0.84791684 </v>
   <v>       0.00318265       0.00571432       0.00822316 </v>
   <v>       0.00384711      -0.17627984       0.87185330 </v>
   <v>      -0.00217755       0.02772009       0.04742493 </v>
   <v>       0.61927557       0.04929802       0.49046686 </v>
   <v>      -0.00184611      -0.00709232      -0.02787707 </v>
   <v>      39.57460785     -30.47882266     -55.81895526 </v>
   <v>      -0.00277814      -0.01352938      -0.02651628 </v>
   <v>      -0.56899174      -0.33760630      -0.42539871 </v>
   <v>      -0.00664157      -0.04201257       0.01050676 </v>
   <v>       0.40792559      -0.01629201      -0.45381829 </v>
   <v>       0.00077890       0.01181415      -0.00082235 </v>
   <v>     -38.59025097      31.38715381      56.20337699 </v>
  </varray>
  <varray name="stress" >
   <v>      42.11180776     -31.80821613     -57.80248162 </v>
   <v>     -31.80821597      33.29952123      47.39372301 </v>
   <v>     -57.80248170      47.39372314      88.62903817 </v>
  </varray>
  <energy>
   <i name="e_fr_energy">   -106.67584425 </i>
   <i name="e_wo_entrp">   -106.65946004 </i>
   <i name="e_0_energy">     -0.03276841 </i>
  </energy>
  <time name="totalsc"> 2900.97 2905.19</time>
  <eigenvalues>
   <array>
    <dimension dim="1">band</dimension>
    <dimension dim="2">kpoint</dimension>
    <dimension dim="3">spin</dimension>
    <field>eigene</field>
    <field>occ</field>
    <set>
     <set comment="spin 1">
      <set comment="kpoint 1">
       <r>  -14.1953    1.0000 </r>
       <r>  -13.6328    1.0000 </r>
       <r>  -12.8920    1.0000 </r>
       <r>  -12.7307    1.0000 </r>
       <r>  -12.5855    1.0000 </r>
       <r>  -12.4894    1.0000 </r>
       <r>  -12.1786    1.0000 </r>
       <r>  -11.7569    1.0000 </r>
       <r>  -11.5237    1.0000 </r>
       <r>  -11.1376    1.0000 </r>
       <r>  -11.0849    1.0000 </r>
       <r>  -10.9689    1.0000 </r>
       <r>   -8.5692    1.0000 </r>
       <r>   -8.1205    1.0000 </r>
       <r>   -7.9219    1.0000 </r>
       <r>   -7.1572    1.0000 </r>
       <r>   -6.9253    1.0000 </r>
       <r>   -6.7965    1.0000 </r>
       <r>   -6.5856    1.0000 </r>
       <r>   -6.3305    1.0000 </r>
       <r>   -5.9154    1.0000 </r>
       <r>   -5.4391    1.0000 </r>
       <r>   -4.9191    1.0000 </r>
       <r>   -4.8012    1.0000 </r>
       <r>   -4.0064    1.0000 </r>
       <r>   -3.8958    1.0000 </r>
       <r>   -3.7761    1.0000 </r>
       <r>   -3.6314    1.0000 </r>
       <r>   -3.2780    1.0000 </r>
       <r>   -3.1487    1.0000 </r>
       <r>   -2.9838    1.0000 </r>
       <r>   -2.9341    1.0000 </r>
       <r>   -2.8877    1.0000 </r>
       <r>   -2.5802    1.0000 </r>
       <r>   -2.5515    1.0000 </r>
       <r>   -2.4847    1.0000 </r>
       <r>   -2.4254    1.0000 </r>
       <r>   -2.2628    1.0000 </r>
       <r>   -2.1876    1.0000 </r>
       <r>   -2.1050    1.0000 </r>
       <r>   -1.9199    1.0000 </r>
       <r>   -1.8204    1.0000 </r>
       <r>   -1.7995    1.0000 </r>
       <r>   -1.7351    1.0000 </r>
       <r>   -1.6682    1.0000 </r>
       <r>   -1.5242    1.0000 </r>
       <r>   -1.4713    1.0000 </r>
       <r>   -1.3939    1.0000 </r>
       <r>   -1.3266    1.0000 </r>
       <r>   -1.1651    1.0000 </r>
       <r>   -0.8784    1.0000 </r>
       <r>   -0.6534    1.0000 </r>
       <r>   -0.2471    1.0000 </r>
       <r>    0.1887    0.4402 </r>
       <r>    0.4982    0.0000 </r>
       <r>    1.0127    0.0000 </r>
       <r>    1.1551    0.0000 </r>
       <r>    1.2328    0.0000 </r>
       <r>    1.4104    0.0000 </r>
       <r>    1.5872    0.0000 </r>
       <r>    1.7095    0.0000 </r>
       <r>    1.8698    0.0000 </r>
       <r>    1.9607    0.0000 </r>
       <r>    2.0651    0.0000 </r>
       <r>    2.3358    0.0000 </r>
       <r>    2.3627    0.0000 </r>
       <r>    2.5171    0.0000 </r>
       <r>    2.5593    0.0000 </r>
      </set>
      <set comment="kpoint 2">
       <r>  -14.1444    1.0000 </r>
       <r>  -13.5714    1.0000 </r>
       <r>  -12.8398    1.0000 </r>
       <r>  -12.6808    1.0000 </r>
       <r>  -12.5299    1.0000 </r>
       <r>  -12.4306    1.0000 </r>
       <r>  -12.1163    1.0000 </r>
       <r>  -11.7057    1.0000 </r>
       <r>  -11.4748    1.0000 </r>
       <r>  -11.0948    1.0000 </r>
       <r>  -11.0363    1.0000 </r>
       <r>  -10.9209    1.0000 </r>
       <r>   -8.5487    1.0000 </r>
       <r>   -8.1584    1.0000 </r>
       <r>   -7.8843    1.0000 </r>
       <r>   -7.1415    1.0000 </r>
       <r>   -6.8995    1.0000 </r>
       <r>   -6.7942    1.0000 </r>
       <r>   -6.5798    1.0000 </r>
       <r>   -6.3071    1.0000 </r>
       <r>   -5.8819    1.0000 </r>
       <r>   -5.4189    1.0000 </r>
       <r>   -4.9092    1.0000 </r>
       <r>   -4.8064    1.0000 </r>
       <r>   -4.1671    1.0000 </r>
       <r>   -3.9360    1.0000 </r>
       <r>   -3.8578    1.0000 </r>
       <r>   -3.7703    1.0000 </r>
       <r>   -3.5771    1.0000 </r>
       <r>   -3.3724    1.0000 </r>
       <r>   -3.3027    1.0000 </r>
       <r>   -3.1179    1.0000 </r>
       <r>   -2.9509    1.0000 </r>
       <r>   -2.9044    1.0000 </r>
       <r>   -2.8249    1.0000 </r>
       <r>   -2.5795    1.0000 </r>
       <r>   -2.5303    1.0000 </r>
       <r>   -2.3668    1.0000 </r>
       <r>   -2.2708    1.0000 </r>
       <r>   -2.2351    1.0000 </r>
       <r>   -2.1240    1.0000 </r>
       <r>   -2.0566    1.0000 </r>
       <r>   -2.0391    1.0000 </r>
       <r>   -1.9222    1.0000 </r>
       <r>   -1.8195    1.0000 </r>
       <r>   -1.7902    1.0000 </r>
       <r>   -1.6008    1.0000 </r>
       <r>   -1.4600    1.0000 </r>
       <r>   -1.3136    1.0000 </r>
       <r>   -1.1714    1.0000 </r>
       <r>   -0.9158    1.0000 </r>
       <r>   -0.6611    1.0000 </r>
       <r>   -0.2721    1.0000 </r>
       <r>    0.1692    0.5498 </r>
       <r>    0.7164    0.0000 </r>
       <r>    1.1801    0.0000 </r>
       <r>    1.4914    0.0000 </r>
       <r>    1.5830    0.0000 </r>
       <r>    1.6738    0.0000 </r>
       <r>    1.9269    0.0000 </r>
       <r>    2.0161    0.0000 </r>
       <r>    2.0842    0.0000 </r>
       <r>    2.1380    0.0000 </r>
       <r>    2.1647    0.0000 </r>
       <r>    2.4536    0.0000 </r>
       <r>    2.5338    0.0000 </r>
       <r>    2.6729    0.0000 </r>
       <r>    2.7540    0.0000 </r>
      </set>
      <set comment="kpoint 3">
       <r>  -13.9949    1.0000 </r>
       <r>  -13.3885    1.0000 </r>
       <r>  -12.6841    1.0000 </r>
       <r>  -12.5321    1.0000 </r>
       <r>  -12.3652    1.0000 </r>
       <r>  -12.2582    1.0000 </r>
       <r>  -11.9338    1.0000 </r>
       <r>  -11.5567    1.0000 </r>
       <r>  -11.3328    1.0000 </r>
       <r>  -10.9725    1.0000 </r>
       <r>  -10.8969    1.0000 </r>
       <r>  -10.7793    1.0000 </r>
       <r>   -8.5042    1.0000 </r>
       <r>   -8.2561    1.0000 </r>
       <r>   -7.8423    1.0000 </r>
       <r>   -7.1299    1.0000 </r>
       <r>   -6.8708    1.0000 </r>
       <r>   -6.7769    1.0000 </r>
       <r>   -6.5918    1.0000 </r>
       <r>   -6.2780    1.0000 </r>
       <r>   -5.8079    1.0000 </r>
       <r>   -5.4040    1.0000 </r>
       <r>   -4.9808    1.0000 </r>
       <r>   -4.9513    1.0000 </r>
       <r>   -4.8211    1.0000 </r>
       <r>   -4.3044    1.0000 </r>
       <r>   -4.1784    1.0000 </r>
       <r>   -4.0697    1.0000 </r>
       <r>   -3.9660    1.0000 </r>
       <r>   -3.8149    1.0000 </r>
       <r>   -3.7752    1.0000 </r>
       <r>   -3.6252    1.0000 </r>
       <r>   -3.3471    1.0000 </r>
       <r>   -3.2468    1.0000 </r>
       <r>   -3.1523    1.0000 </r>
       <r>   -3.0582    1.0000 </r>
       <r>   -2.9869    1.0000 </r>
       <r>   -2.8576    1.0000 </r>
       <r>   -2.7216    1.0000 </r>
       <r>   -2.5238    1.0000 </r>
       <r>   -2.4754    1.0000 </r>
       <r>   -2.2849    1.0000 </r>
       <r>   -2.2277    1.0000 </r>
       <r>   -2.0966    1.0000 </r>
       <r>   -1.9952    1.0000 </r>
       <r>   -1.8654    1.0000 </r>
       <r>   -1.7508    1.0000 </r>
       <r>   -1.6697    1.0000 </r>
       <r>   -1.3373    1.0000 </r>
       <r>   -1.2521    1.0000 </r>
       <r>   -1.0342    1.0000 </r>
       <r>   -0.8014    1.0000 </r>
       <r>   -0.3115    1.0000 </r>
       <r>    0.1015    0.8604 </r>
       <r>    0.8324    0.0000 </r>
       <r>    1.2667    0.0000 </r>
       <r>    1.7753    0.0000 </r>
       <r>    1.8756    0.0000 </r>
       <r>    2.1281    0.0000 </r>
       <r>    2.1726    0.0000 </r>
       <r>    2.2698    0.0000 </r>
       <r>    2.3863    0.0000 </r>
       <r>    2.4934    0.0000 </r>
       <r>    2.5650    0.0000 </r>
       <r>    2.7246    0.0000 </r>
       <r>    2.8597    0.0000 </r>
       <r>    2.9624    0.0000 </r>
       <r>    3.1247    0.0000 </r>
      </set>
      <set comment="kpoint 4">
       <r>  -13.7583    1.0000 </r>
       <r>  -13.0876    1.0000 </r>
       <r>  -12.4279    1.0000 </r>
       <r>  -12.2906    1.0000 </r>
       <r>  -12.0987    1.0000 </r>
       <r>  -11.9853    1.0000 </r>
       <r>  -11.6458    1.0000 </r>
       <r>  -11.3265    1.0000 </r>
       <r>  -11.1159    1.0000 </r>
       <r>  -10.7899    1.0000 </r>
       <r>  -10.6929    1.0000 </r>
       <r>  -10.5538    1.0000 </r>
       <r>   -8.4978    1.0000 </r>
       <r>   -8.4472    1.0000 </r>
       <r>   -7.9166    1.0000 </r>
       <r>   -7.2518    1.0000 </r>
       <r>   -6.9401    1.0000 </r>
       <r>   -6.7727    1.0000 </r>
       <r>   -6.7252    1.0000 </r>
       <r>   -6.3854    1.0000 </r>
       <r>   -5.8303    1.0000 </r>
       <r>   -5.6917    1.0000 </r>
       <r>   -5.4607    1.0000 </r>
       <r>   -5.4262    1.0000 </r>
       <r>   -4.9538    1.0000 </r>
       <r>   -4.8755    1.0000 </r>
       <r>   -4.6991    1.0000 </r>
       <r>   -4.5993    1.0000 </r>
       <r>   -4.4306    1.0000 </r>
       <r>   -4.2949    1.0000 </r>
       <r>   -4.2142    1.0000 </r>
       <r>   -3.8954    1.0000 </r>
       <r>   -3.7912    1.0000 </r>
       <r>   -3.6346    1.0000 </r>
       <r>   -3.5601    1.0000 </r>
       <r>   -3.3449    1.0000 </r>
       <r>   -3.2022    1.0000 </r>
       <r>   -3.0805    1.0000 </r>
       <r>   -3.0693    1.0000 </r>
       <r>   -2.6920    1.0000 </r>
       <r>   -2.6690    1.0000 </r>
       <r>   -2.5379    1.0000 </r>
       <r>   -2.2482    1.0000 </r>
       <r>   -2.1095    1.0000 </r>
       <r>   -1.9977    1.0000 </r>
       <r>   -1.9245    1.0000 </r>
       <r>   -1.8890    1.0000 </r>
       <r>   -1.7503    1.0000 </r>
       <r>   -1.5520    1.0000 </r>
       <r>   -1.4749    1.0000 </r>
       <r>   -1.1935    1.0000 </r>
       <r>   -0.9428    1.0000 </r>
       <r>   -0.5952    1.0000 </r>
       <r>    0.0623    0.9492 </r>
       <r>    0.6246    0.0000 </r>
       <r>    1.1097    0.0000 </r>
       <r>    1.7061    0.0000 </r>
       <r>    1.7955    0.0000 </r>
       <r>    1.8874    0.0000 </r>
       <r>    1.9603    0.0000 </r>
       <r>    2.1510    0.0000 </r>
       <r>    2.2480    0.0000 </r>
       <r>    2.4933    0.0000 </r>
       <r>    2.5913    0.0000 </r>
       <r>    2.7739    0.0000 </r>
       <r>    2.8155    0.0000 </r>
       <r>    2.8888    0.0000 </r>
       <r>    3.0565    0.0000 </r>
      </set>
      <set comment="kpoint 5">
       <r>  -13.4599    1.0000 </r>
       <r>  -12.6760    1.0000 </r>
       <r>  -12.0797    1.0000 </r>
       <r>  -11.9753    1.0000 </r>
       <r>  -11.7472    1.0000 </r>
       <r>  -11.6376    1.0000 </r>
       <r>  -11.2871    1.0000 </r>
       <r>  -11.0532    1.0000 </r>
       <r>  -10.8717    1.0000 </r>
       <r>  -10.5865    1.0000 </r>
       <r>  -10.5064    1.0000 </r>
       <r>  -10.2681    1.0000 </r>
       <r>   -8.7461    1.0000 </r>
       <r>   -8.6190    1.0000 </r>
       <r>   -8.1771    1.0000 </r>
       <r>   -7.6028    1.0000 </r>
       <r>   -7.1452    1.0000 </r>
       <r>   -7.0876    1.0000 </r>
       <r>   -6.9891    1.0000 </r>
       <r>   -6.7180    1.0000 </r>
       <r>   -6.2532    1.0000 </r>
       <r>   -6.1600    1.0000 </r>
       <r>   -6.0566    1.0000 </r>
       <r>   -5.8953    1.0000 </r>
       <r>   -5.3040    1.0000 </r>
       <r>   -5.0087    1.0000 </r>
       <r>   -4.8721    1.0000 </r>
       <r>   -4.7930    1.0000 </r>
       <r>   -4.7294    1.0000 </r>
       <r>   -4.5898    1.0000 </r>
       <r>   -4.3959    1.0000 </r>
       <r>   -4.3043    1.0000 </r>
       <r>   -4.0092    1.0000 </r>
       <r>   -3.8276    1.0000 </r>
       <r>   -3.4897    1.0000 </r>
       <r>   -3.4474    1.0000 </r>
       <r>   -3.3287    1.0000 </r>
       <r>   -3.1678    1.0000 </r>
       <r>   -3.0390    1.0000 </r>
       <r>   -2.8512    1.0000 </r>
       <r>   -2.7856    1.0000 </r>
       <r>   -2.6713    1.0000 </r>
       <r>   -2.4401    1.0000 </r>
       <r>   -2.1751    1.0000 </r>
       <r>   -2.1034    1.0000 </r>
       <r>   -1.9761    1.0000 </r>
       <r>   -1.9231    1.0000 </r>
       <r>   -1.8856    1.0000 </r>
       <r>   -1.7956    1.0000 </r>
       <r>   -1.6867    1.0000 </r>
       <r>   -1.3694    1.0000 </r>
       <r>   -1.0613    1.0000 </r>
       <r>   -0.9290    1.0000 </r>
       <r>   -0.0520    0.9994 </r>
       <r>    0.4243    0.0002 </r>
       <r>    0.8765    0.0000 </r>
       <r>    1.4781    0.0000 </r>
       <r>    1.5056    0.0000 </r>
       <r>    1.6738    0.0000 </r>
       <r>    1.7178    0.0000 </r>
       <r>    1.8898    0.0000 </r>
       <r>    2.1314    0.0000 </r>
       <r>    2.2429    0.0000 </r>
       <r>    2.3110    0.0000 </r>
       <r>    2.5383    0.0000 </r>
       <r>    2.6188    0.0000 </r>
       <r>    2.7349    0.0000 </r>
       <r>    2.8548    0.0000 </r>
      </set>
      <set comment="kpoint 6">
       <r>  -13.1527    1.0000 </r>
       <r>  -12.1679    1.0000 </r>
       <r>  -11.6623    1.0000 </r>
       <r>  -11.6383    1.0000 </r>
       <r>  -11.3485    1.0000 </r>
       <r>  -11.2655    1.0000 </r>
       <r>  -10.9434    1.0000 </r>
       <r>  -10.8072    1.0000 </r>
       <r>  -10.7169    1.0000 </r>
       <r>  -10.5468    1.0000 </r>
       <r>  -10.4400    1.0000 </r>
       <r>   -9.9688    1.0000 </r>
       <r>   -8.9227    1.0000 </r>
       <r>   -8.8649    1.0000 </r>
       <r>   -8.4692    1.0000 </r>
       <r>   -7.9925    1.0000 </r>
       <r>   -7.5512    1.0000 </r>
       <r>   -7.5137    1.0000 </r>
       <r>   -7.4655    1.0000 </r>
       <r>   -7.1564    1.0000 </r>
       <r>   -6.8499    1.0000 </r>
       <r>   -6.7550    1.0000 </r>
       <r>   -6.6167    1.0000 </r>
       <r>   -6.2761    1.0000 </r>
       <r>   -5.3078    1.0000 </r>
       <r>   -5.1800    1.0000 </r>
       <r>   -4.7954    1.0000 </r>
       <r>   -4.7371    1.0000 </r>
       <r>   -4.6164    1.0000 </r>
       <r>   -4.5118    1.0000 </r>
       <r>   -4.3222    1.0000 </r>
       <r>   -4.1683    1.0000 </r>
       <r>   -4.0612    1.0000 </r>
       <r>   -3.7479    1.0000 </r>
       <r>   -3.6639    1.0000 </r>
       <r>   -3.5702    1.0000 </r>
       <r>   -3.3622    1.0000 </r>
       <r>   -3.2939    1.0000 </r>
       <r>   -3.2209    1.0000 </r>
       <r>   -2.9397    1.0000 </r>
       <r>   -2.8657    1.0000 </r>
       <r>   -2.7422    1.0000 </r>
       <r>   -2.5859    1.0000 </r>
       <r>   -2.3919    1.0000 </r>
       <r>   -2.3058    1.0000 </r>
       <r>   -2.2069    1.0000 </r>
       <r>   -2.1172    1.0000 </r>
       <r>   -1.9571    1.0000 </r>
       <r>   -1.8605    1.0000 </r>
       <r>   -1.5988    1.0000 </r>
       <r>   -1.4481    1.0000 </r>
       <r>   -1.1823    1.0000 </r>
       <r>   -1.1413    1.0000 </r>
       <r>   -0.1743    1.0000 </r>
       <r>    0.2457    0.1693 </r>
       <r>    0.6536    0.0000 </r>
       <r>    1.2827    0.0000 </r>
       <r>    1.3506    0.0000 </r>
       <r>    1.4560    0.0000 </r>
       <r>    1.6117    0.0000 </r>
       <r>    1.6614    0.0000 </r>
       <r>    1.9782    0.0000 </r>
       <r>    2.0705    0.0000 </r>
       <r>    2.1717    0.0000 </r>
       <r>    2.2203    0.0000 </r>
       <r>    2.3383    0.0000 </r>
       <r>    2.6111    0.0000 </r>
       <r>    2.6516    0.0000 </r>
      </set>
      <set comment="kpoint 7">
       <r>  -12.9382    1.0000 </r>
       <r>  -11.5951    1.0000 </r>
       <r>  -11.4144    1.0000 </r>
       <r>  -11.2372    1.0000 </r>
       <r>  -11.0436    1.0000 </r>
       <r>  -10.9422    1.0000 </r>
       <r>  -10.9294    1.0000 </r>
       <r>  -10.8205    1.0000 </r>
       <r>  -10.7265    1.0000 </r>
       <r>  -10.7139    1.0000 </r>
       <r>  -10.4058    1.0000 </r>
       <r>   -9.7407    1.0000 </r>
       <r>   -9.0840    1.0000 </r>
       <r>   -8.7790    1.0000 </r>
       <r>   -8.5330    1.0000 </r>
       <r>   -8.1708    1.0000 </r>
       <r>   -8.1575    1.0000 </r>
       <r>   -7.7520    1.0000 </r>
       <r>   -7.6608    1.0000 </r>
       <r>   -7.4293    1.0000 </r>
       <r>   -7.3788    1.0000 </r>
       <r>   -7.2693    1.0000 </r>
       <r>   -7.1620    1.0000 </r>
       <r>   -6.2570    1.0000 </r>
       <r>   -5.4618    1.0000 </r>
       <r>   -5.0075    1.0000 </r>
       <r>   -4.6620    1.0000 </r>
       <r>   -4.5967    1.0000 </r>
       <r>   -4.3898    1.0000 </r>
       <r>   -4.2399    1.0000 </r>
       <r>   -4.1457    1.0000 </r>
       <r>   -4.0352    1.0000 </r>
       <r>   -3.9373    1.0000 </r>
       <r>   -3.9194    1.0000 </r>
       <r>   -3.7081    1.0000 </r>
       <r>   -3.6655    1.0000 </r>
       <r>   -3.6192    1.0000 </r>
       <r>   -3.3472    1.0000 </r>
       <r>   -3.2713    1.0000 </r>
       <r>   -3.1524    1.0000 </r>
       <r>   -3.0673    1.0000 </r>
       <r>   -2.8586    1.0000 </r>
       <r>   -2.7683    1.0000 </r>
       <r>   -2.5126    1.0000 </r>
       <r>   -2.4432    1.0000 </r>
       <r>   -2.2806    1.0000 </r>
       <r>   -2.1967    1.0000 </r>
       <r>   -1.8867    1.0000 </r>
       <r>   -1.8165    1.0000 </r>
       <r>   -1.6220    1.0000 </r>
       <r>   -1.4873    1.0000 </r>
       <r>   -1.2235    1.0000 </r>
       <r>   -1.1864    1.0000 </r>
       <r>   -0.1990    1.0000 </r>
       <r>    0.0822    0.9123 </r>
       <r>    0.4641    0.0000 </r>
       <r>    1.2117    0.0000 </r>
       <r>    1.2653    0.0000 </r>
       <r>    1.4157    0.0000 </r>
       <r>    1.4956    0.0000 </r>
       <r>    1.5868    0.0000 </r>
       <r>    1.7799    0.0000 </r>
       <r>    1.8869    0.0000 </r>
       <r>    2.0157    0.0000 </r>
       <r>    2.2434    0.0000 </r>
       <r>    2.3051    0.0000 </r>
       <r>    2.3992    0.0000 </r>
       <r>    2.5324    0.0000 </r>
      </set>
      <set comment="kpoint 8">
       <r>  -14.1881    1.0000 </r>
       <r>  -13.5776    1.0000 </r>
       <r>  -13.0656    1.0000 </r>
       <r>  -12.8670    1.0000 </r>
       <r>  -12.5796    1.0000 </r>
       <r>  -12.3020    1.0000 </r>
       <r>  -11.9657    1.0000 </r>
       <r>  -11.7741    1.0000 </r>
       <r>  -11.5687    1.0000 </r>
       <r>  -11.2988    1.0000 </r>
       <r>  -11.0922    1.0000 </r>
       <r>  -10.8337    1.0000 </r>
       <r>   -8.6237    1.0000 </r>
       <r>   -8.5617    1.0000 </r>
       <r>   -7.4885    1.0000 </r>
       <r>   -7.2695    1.0000 </r>
       <r>   -6.9471    1.0000 </r>
       <r>   -6.7631    1.0000 </r>
       <r>   -6.6868    1.0000 </r>
       <r>   -6.0646    1.0000 </r>
       <r>   -5.8356    1.0000 </r>
       <r>   -5.3170    1.0000 </r>
       <r>   -4.8878    1.0000 </r>
       <r>   -4.7121    1.0000 </r>
       <r>   -4.1332    1.0000 </r>
       <r>   -3.9445    1.0000 </r>
       <r>   -3.7171    1.0000 </r>
       <r>   -3.6067    1.0000 </r>
       <r>   -3.4287    1.0000 </r>
       <r>   -3.3572    1.0000 </r>
       <r>   -3.2198    1.0000 </r>
       <r>   -2.8002    1.0000 </r>
       <r>   -2.7473    1.0000 </r>
       <r>   -2.6266    1.0000 </r>
       <r>   -2.4956    1.0000 </r>
       <r>   -2.4847    1.0000 </r>
       <r>   -2.4345    1.0000 </r>
       <r>   -2.3407    1.0000 </r>
       <r>   -2.2038    1.0000 </r>
       <r>   -2.1057    1.0000 </r>
       <r>   -2.0518    1.0000 </r>
       <r>   -1.9745    1.0000 </r>
       <r>   -1.8306    1.0000 </r>
       <r>   -1.7204    1.0000 </r>
       <r>   -1.6486    1.0000 </r>
       <r>   -1.5177    1.0000 </r>
       <r>   -1.4547    1.0000 </r>
       <r>   -1.4098    1.0000 </r>
       <r>   -1.2815    1.0000 </r>
       <r>   -1.1362    1.0000 </r>
       <r>   -0.8848    1.0000 </r>
       <r>   -0.5874    1.0000 </r>
       <r>   -0.1101    1.0000 </r>
       <r>    0.2186    0.2830 </r>
       <r>    0.5448    0.0000 </r>
       <r>    1.0390    0.0000 </r>
       <r>    1.1329    0.0000 </r>
       <r>    1.2986    0.0000 </r>
       <r>    1.5051    0.0000 </r>
       <r>    1.6263    0.0000 </r>
       <r>    1.6870    0.0000 </r>
       <r>    1.7613    0.0000 </r>
       <r>    2.0405    0.0000 </r>
       <r>    2.1630    0.0000 </r>
       <r>    2.2781    0.0000 </r>
       <r>    2.4186    0.0000 </r>
       <r>    2.5503    0.0000 </r>
       <r>    2.6252    0.0000 </r>
      </set>
      <set comment="kpoint 9">
       <r>  -14.1359    1.0000 </r>
       <r>  -13.5008    1.0000 </r>
       <r>  -13.0465    1.0000 </r>
       <r>  -12.8331    1.0000 </r>
       <r>  -12.5225    1.0000 </r>
       <r>  -12.2117    1.0000 </r>
       <r>  -11.8658    1.0000 </r>
       <r>  -11.7301    1.0000 </r>
       <r>  -11.5274    1.0000 </r>
       <r>  -11.2740    1.0000 </r>
       <r>  -11.0478    1.0000 </r>
       <r>  -10.7746    1.0000 </r>
       <r>   -8.6712    1.0000 </r>
       <r>   -8.5479    1.0000 </r>
       <r>   -7.4456    1.0000 </r>
       <r>   -7.2953    1.0000 </r>
       <r>   -6.9316    1.0000 </r>
       <r>   -6.7706    1.0000 </r>
       <r>   -6.6176    1.0000 </r>
       <r>   -5.9999    1.0000 </r>
       <r>   -5.7870    1.0000 </r>
       <r>   -5.2948    1.0000 </r>
       <r>   -4.8844    1.0000 </r>
       <r>   -4.7534    1.0000 </r>
       <r>   -4.2178    1.0000 </r>
       <r>   -4.1379    1.0000 </r>
       <r>   -3.8944    1.0000 </r>
       <r>   -3.7264    1.0000 </r>
       <r>   -3.5657    1.0000 </r>
       <r>   -3.4825    1.0000 </r>
       <r>   -3.3909    1.0000 </r>
       <r>   -3.1138    1.0000 </r>
       <r>   -2.9652    1.0000 </r>
       <r>   -2.8555    1.0000 </r>
       <r>   -2.7233    1.0000 </r>
       <r>   -2.6599    1.0000 </r>
       <r>   -2.5717    1.0000 </r>
       <r>   -2.3965    1.0000 </r>
       <r>   -2.3570    1.0000 </r>
       <r>   -2.2812    1.0000 </r>
       <r>   -2.2115    1.0000 </r>
       <r>   -2.0893    1.0000 </r>
       <r>   -2.0511    1.0000 </r>
       <r>   -1.9366    1.0000 </r>
       <r>   -1.8618    1.0000 </r>
       <r>   -1.8345    1.0000 </r>
       <r>   -1.5277    1.0000 </r>
       <r>   -1.4601    1.0000 </r>
       <r>   -1.3249    1.0000 </r>
       <r>   -1.1356    1.0000 </r>
       <r>   -0.9100    1.0000 </r>
       <r>   -0.6751    1.0000 </r>
       <r>   -0.0739    0.9998 </r>
       <r>    0.2192    0.2802 </r>
       <r>    0.7582    0.0000 </r>
       <r>    1.1730    0.0000 </r>
       <r>    1.5016    0.0000 </r>
       <r>    1.6281    0.0000 </r>
       <r>    1.7014    0.0000 </r>
       <r>    1.8354    0.0000 </r>
       <r>    1.9854    0.0000 </r>
       <r>    2.0687    0.0000 </r>
       <r>    2.1893    0.0000 </r>
       <r>    2.3117    0.0000 </r>
       <r>    2.5125    0.0000 </r>
       <r>    2.5837    0.0000 </r>
       <r>    2.7165    0.0000 </r>
       <r>    2.9016    0.0000 </r>
      </set>
      <set comment="kpoint 10">
       <r>  -13.9860    1.0000 </r>
       <r>  -13.3044    1.0000 </r>
       <r>  -12.9098    1.0000 </r>
       <r>  -12.6852    1.0000 </r>
       <r>  -12.3563    1.0000 </r>
       <r>  -12.0242    1.0000 </r>
       <r>  -11.6684    1.0000 </r>
       <r>  -11.5939    1.0000 </r>
       <r>  -11.3881    1.0000 </r>
       <r>  -11.1461    1.0000 </r>
       <r>  -10.9065    1.0000 </r>
       <r>  -10.6400    1.0000 </r>
       <r>   -8.7334    1.0000 </r>
       <r>   -8.4926    1.0000 </r>
       <r>   -7.4206    1.0000 </r>
       <r>   -7.3348    1.0000 </r>
       <r>   -6.8865    1.0000 </r>
       <r>   -6.7478    1.0000 </r>
       <r>   -6.5860    1.0000 </r>
       <r>   -5.9664    1.0000 </r>
       <r>   -5.7407    1.0000 </r>
       <r>   -5.3351    1.0000 </r>
       <r>   -5.0318    1.0000 </r>
       <r>   -4.9401    1.0000 </r>
       <r>   -4.8023    1.0000 </r>
       <r>   -4.4726    1.0000 </r>
       <r>   -4.3909    1.0000 </r>
       <r>   -4.0742    1.0000 </r>
       <r>   -3.9289    1.0000 </r>
       <r>   -3.7878    1.0000 </r>
       <r>   -3.7056    1.0000 </r>
       <r>   -3.5309    1.0000 </r>
       <r>   -3.3624    1.0000 </r>
       <r>   -3.1920    1.0000 </r>
       <r>   -3.1148    1.0000 </r>
       <r>   -3.0512    1.0000 </r>
       <r>   -2.9045    1.0000 </r>
       <r>   -2.8610    1.0000 </r>
       <r>   -2.6980    1.0000 </r>
       <r>   -2.6160    1.0000 </r>
       <r>   -2.5630    1.0000 </r>
       <r>   -2.4110    1.0000 </r>
       <r>   -2.3081    1.0000 </r>
       <r>   -2.1805    1.0000 </r>
       <r>   -2.0224    1.0000 </r>
       <r>   -1.9779    1.0000 </r>
       <r>   -1.6761    1.0000 </r>
       <r>   -1.5872    1.0000 </r>
       <r>   -1.4525    1.0000 </r>
       <r>   -1.2183    1.0000 </r>
       <r>   -0.9944    1.0000 </r>
       <r>   -0.8163    1.0000 </r>
       <r>   -0.1671    1.0000 </r>
       <r>    0.1345    0.7310 </r>
       <r>    0.8573    0.0000 </r>
       <r>    1.2594    0.0000 </r>
       <r>    1.5976    0.0000 </r>
       <r>    1.7436    0.0000 </r>
       <r>    1.9922    0.0000 </r>
       <r>    2.1285    0.0000 </r>
       <r>    2.2044    0.0000 </r>
       <r>    2.3432    0.0000 </r>
       <r>    2.5665    0.0000 </r>
       <r>    2.7259    0.0000 </r>
       <r>    2.8401    0.0000 </r>
       <r>    2.9787    0.0000 </r>
       <r>    3.0340    0.0000 </r>
       <r>    3.1768    0.0000 </r>
      </set>
      <set comment="kpoint 11">
       <r>  -13.7502    1.0000 </r>
       <r>  -12.9933    1.0000 </r>
       <r>  -12.6583    1.0000 </r>
       <r>  -12.4299    1.0000 </r>
       <r>  -12.0891    1.0000 </r>
       <r>  -11.7557    1.0000 </r>
       <r>  -11.3991    1.0000 </r>
       <r>  -11.3743    1.0000 </r>
       <r>  -11.1666    1.0000 </r>
       <r>  -10.9272    1.0000 </r>
       <r>  -10.6890    1.0000 </r>
       <r>  -10.4458    1.0000 </r>
       <r>   -8.8635    1.0000 </r>
       <r>   -8.4614    1.0000 </r>
       <r>   -7.5063    1.0000 </r>
       <r>   -7.4684    1.0000 </r>
       <r>   -6.8887    1.0000 </r>
       <r>   -6.7886    1.0000 </r>
       <r>   -6.7288    1.0000 </r>
       <r>   -6.1693    1.0000 </r>
       <r>   -5.9112    1.0000 </r>
       <r>   -5.7014    1.0000 </r>
       <r>   -5.5442    1.0000 </r>
       <r>   -5.2986    1.0000 </r>
       <r>   -5.1282    1.0000 </r>
       <r>   -4.9766    1.0000 </r>
       <r>   -4.7577    1.0000 </r>
       <r>   -4.6475    1.0000 </r>
       <r>   -4.3836    1.0000 </r>
       <r>   -4.1508    1.0000 </r>
       <r>   -4.1062    1.0000 </r>
       <r>   -3.8546    1.0000 </r>
       <r>   -3.7950    1.0000 </r>
       <r>   -3.6246    1.0000 </r>
       <r>   -3.3703    1.0000 </r>
       <r>   -3.2968    1.0000 </r>
       <r>   -3.1844    1.0000 </r>
       <r>   -3.0794    1.0000 </r>
       <r>   -2.9494    1.0000 </r>
       <r>   -2.7381    1.0000 </r>
       <r>   -2.6236    1.0000 </r>
       <r>   -2.6185    1.0000 </r>
       <r>   -2.4224    1.0000 </r>
       <r>   -2.1600    1.0000 </r>
       <r>   -2.0782    1.0000 </r>
       <r>   -1.9848    1.0000 </r>
       <r>   -1.8730    1.0000 </r>
       <r>   -1.7588    1.0000 </r>
       <r>   -1.6221    1.0000 </r>
       <r>   -1.4786    1.0000 </r>
       <r>   -1.1556    1.0000 </r>
       <r>   -0.9464    1.0000 </r>
       <r>   -0.5142    1.0000 </r>
       <r>   -0.0024    0.9946 </r>
       <r>    0.5976    0.0000 </r>
       <r>    1.1488    0.0000 </r>
       <r>    1.3667    0.0000 </r>
       <r>    1.4728    0.0000 </r>
       <r>    1.5905    0.0000 </r>
       <r>    1.8284    0.0000 </r>
       <r>    2.0843    0.0000 </r>
       <r>    2.3921    0.0000 </r>
       <r>    2.5184    0.0000 </r>
       <r>    2.6433    0.0000 </r>
       <r>    2.7842    0.0000 </r>
       <r>    2.9477    0.0000 </r>
       <r>    3.0341    0.0000 </r>
       <r>    3.2166    0.0000 </r>
      </set>
      <set comment="kpoint 12">
       <r>  -13.4540    1.0000 </r>
       <r>  -12.5769    1.0000 </r>
       <r>  -12.2990    1.0000 </r>
       <r>  -12.0830    1.0000 </r>
       <r>  -11.7385    1.0000 </r>
       <r>  -11.4514    1.0000 </r>
       <r>  -11.1193    1.0000 </r>
       <r>  -11.0728    1.0000 </r>
       <r>  -10.9033    1.0000 </r>
       <r>  -10.6564    1.0000 </r>
       <r>  -10.4830    1.0000 </r>
       <r>  -10.2169    1.0000 </r>
       <r>   -9.0625    1.0000 </r>
       <r>   -8.5816    1.0000 </r>
       <r>   -7.8021    1.0000 </r>
       <r>   -7.7258    1.0000 </r>
       <r>   -7.2050    1.0000 </r>
       <r>   -7.0620    1.0000 </r>
       <r>   -7.0523    1.0000 </r>
       <r>   -6.6510    1.0000 </r>
       <r>   -6.2841    1.0000 </r>
       <r>   -6.1357    1.0000 </r>
       <r>   -6.0804    1.0000 </r>
       <r>   -6.0089    1.0000 </r>
       <r>   -5.4723    1.0000 </r>
       <r>   -5.0770    1.0000 </r>
       <r>   -5.0233    1.0000 </r>
       <r>   -4.7908    1.0000 </r>
       <r>   -4.5197    1.0000 </r>
       <r>   -4.4247    1.0000 </r>
       <r>   -4.3908    1.0000 </r>
       <r>   -4.1041    1.0000 </r>
       <r>   -4.0016    1.0000 </r>
       <r>   -3.8222    1.0000 </r>
       <r>   -3.4403    1.0000 </r>
       <r>   -3.3957    1.0000 </r>
       <r>   -3.1351    1.0000 </r>
       <r>   -3.0974    1.0000 </r>
       <r>   -2.9758    1.0000 </r>
       <r>   -2.8876    1.0000 </r>
       <r>   -2.6943    1.0000 </r>
       <r>   -2.6134    1.0000 </r>
       <r>   -2.5599    1.0000 </r>
       <r>   -2.4047    1.0000 </r>
       <r>   -2.0855    1.0000 </r>
       <r>   -2.0315    1.0000 </r>
       <r>   -1.9519    1.0000 </r>
       <r>   -1.8892    1.0000 </r>
       <r>   -1.8296    1.0000 </r>
       <r>   -1.7094    1.0000 </r>
       <r>   -1.4108    1.0000 </r>
       <r>   -1.1089    1.0000 </r>
       <r>   -0.8789    1.0000 </r>
       <r>   -0.2027    1.0000 </r>
       <r>    0.3519    0.0070 </r>
       <r>    0.8902    0.0000 </r>
       <r>    1.1318    0.0000 </r>
       <r>    1.1782    0.0000 </r>
       <r>    1.3151    0.0000 </r>
       <r>    1.5455    0.0000 </r>
       <r>    2.0553    0.0000 </r>
       <r>    2.1676    0.0000 </r>
       <r>    2.3273    0.0000 </r>
       <r>    2.3639    0.0000 </r>
       <r>    2.5113    0.0000 </r>
       <r>    2.6138    0.0000 </r>
       <r>    2.8384    0.0000 </r>
       <r>    2.9842    0.0000 </r>
      </set>
      <set comment="kpoint 13">
       <r>  -13.1498    1.0000 </r>
       <r>  -12.0740    1.0000 </r>
       <r>  -11.8486    1.0000 </r>
       <r>  -11.6887    1.0000 </r>
       <r>  -11.3445    1.0000 </r>
       <r>  -11.1983    1.0000 </r>
       <r>  -10.8276    1.0000 </r>
       <r>  -10.8142    1.0000 </r>
       <r>  -10.6929    1.0000 </r>
       <r>  -10.5592    1.0000 </r>
       <r>  -10.4481    1.0000 </r>
       <r>   -9.9592    1.0000 </r>
       <r>   -9.0527    1.0000 </r>
       <r>   -8.8880    1.0000 </r>
       <r>   -8.2043    1.0000 </r>
       <r>   -7.9517    1.0000 </r>
       <r>   -7.8699    1.0000 </r>
       <r>   -7.4524    1.0000 </r>
       <r>   -7.3933    1.0000 </r>
       <r>   -7.1711    1.0000 </r>
       <r>   -6.7913    1.0000 </r>
       <r>   -6.7518    1.0000 </r>
       <r>   -6.7419    1.0000 </r>
       <r>   -6.3164    1.0000 </r>
       <r>   -5.4353    1.0000 </r>
       <r>   -5.1202    1.0000 </r>
       <r>   -4.9142    1.0000 </r>
       <r>   -4.8716    1.0000 </r>
       <r>   -4.6078    1.0000 </r>
       <r>   -4.4498    1.0000 </r>
       <r>   -4.2077    1.0000 </r>
       <r>   -3.9553    1.0000 </r>
       <r>   -3.9049    1.0000 </r>
       <r>   -3.8077    1.0000 </r>
       <r>   -3.4573    1.0000 </r>
       <r>   -3.4432    1.0000 </r>
       <r>   -3.3724    1.0000 </r>
       <r>   -3.2326    1.0000 </r>
       <r>   -3.2046    1.0000 </r>
       <r>   -3.0160    1.0000 </r>
       <r>   -2.8563    1.0000 </r>
       <r>   -2.7377    1.0000 </r>
       <r>   -2.6250    1.0000 </r>
       <r>   -2.4306    1.0000 </r>
       <r>   -2.3272    1.0000 </r>
       <r>   -2.2329    1.0000 </r>
       <r>   -2.1597    1.0000 </r>
       <r>   -1.9565    1.0000 </r>
       <r>   -1.8067    1.0000 </r>
       <r>   -1.6321    1.0000 </r>
       <r>   -1.5420    1.0000 </r>
       <r>   -1.2827    1.0000 </r>
       <r>   -1.1195    1.0000 </r>
       <r>   -0.2911    1.0000 </r>
       <r>    0.1732    0.5271 </r>
       <r>    0.6344    0.0000 </r>
       <r>    1.0476    0.0000 </r>
       <r>    1.1247    0.0000 </r>
       <r>    1.2290    0.0000 </r>
       <r>    1.3923    0.0000 </r>
       <r>    1.7314    0.0000 </r>
       <r>    1.9247    0.0000 </r>
       <r>    2.0287    0.0000 </r>
       <r>    2.1970    0.0000 </r>
       <r>    2.4516    0.0000 </r>
       <r>    2.5234    0.0000 </r>
       <r>    2.5923    0.0000 </r>
       <r>    2.6671    0.0000 </r>
      </set>
      <set comment="kpoint 14">
       <r>  -12.9378    1.0000 </r>
       <r>  -11.5262    1.0000 </r>
       <r>  -11.4077    1.0000 </r>
       <r>  -11.3530    1.0000 </r>
       <r>  -11.0554    1.0000 </r>
       <r>  -10.9748    1.0000 </r>
       <r>  -10.9533    1.0000 </r>
       <r>  -10.7907    1.0000 </r>
       <r>  -10.6853    1.0000 </r>
       <r>  -10.6724    1.0000 </r>
       <r>  -10.4052    1.0000 </r>
       <r>   -9.7341    1.0000 </r>
       <r>   -9.1030    1.0000 </r>
       <r>   -8.6457    1.0000 </r>
       <r>   -8.4918    1.0000 </r>
       <r>   -8.4206    1.0000 </r>
       <r>   -8.1225    1.0000 </r>
       <r>   -7.6303    1.0000 </r>
       <r>   -7.6012    1.0000 </r>
       <r>   -7.5202    1.0000 </r>
       <r>   -7.4067    1.0000 </r>
       <r>   -7.2661    1.0000 </r>
       <r>   -7.2288    1.0000 </r>
       <r>   -6.2474    1.0000 </r>
       <r>   -5.3972    1.0000 </r>
       <r>   -5.1096    1.0000 </r>
       <r>   -4.7129    1.0000 </r>
       <r>   -4.5645    1.0000 </r>
       <r>   -4.3849    1.0000 </r>
       <r>   -4.2492    1.0000 </r>
       <r>   -4.1910    1.0000 </r>
       <r>   -4.0276    1.0000 </r>
       <r>   -4.0017    1.0000 </r>
       <r>   -3.7515    1.0000 </r>
       <r>   -3.6713    1.0000 </r>
       <r>   -3.5925    1.0000 </r>
       <r>   -3.5120    1.0000 </r>
       <r>   -3.3959    1.0000 </r>
       <r>   -3.3521    1.0000 </r>
       <r>   -3.0987    1.0000 </r>
       <r>   -3.0020    1.0000 </r>
       <r>   -2.7884    1.0000 </r>
       <r>   -2.7196    1.0000 </r>
       <r>   -2.6854    1.0000 </r>
       <r>   -2.4363    1.0000 </r>
       <r>   -2.2576    1.0000 </r>
       <r>   -2.2057    1.0000 </r>
       <r>   -1.8612    1.0000 </r>
       <r>   -1.7976    1.0000 </r>
       <r>   -1.6625    1.0000 </r>
       <r>   -1.5454    1.0000 </r>
       <r>   -1.3197    1.0000 </r>
       <r>   -1.1651    1.0000 </r>
       <r>   -0.2282    1.0000 </r>
       <r>    0.0619    0.9497 </r>
       <r>    0.4984    0.0000 </r>
       <r>    0.9855    0.0000 </r>
       <r>    1.2688    0.0000 </r>
       <r>    1.3445    0.0000 </r>
       <r>    1.4276    0.0000 </r>
       <r>    1.4864    0.0000 </r>
       <r>    1.6915    0.0000 </r>
       <r>    1.9598    0.0000 </r>
       <r>    2.1131    0.0000 </r>
       <r>    2.3373    0.0000 </r>
       <r>    2.3916    0.0000 </r>
       <r>    2.4393    0.0000 </r>
       <r>    2.5377    0.0000 </r>
      </set>
      <set comment="kpoint 15">
       <r>  -12.9392    1.0000 </r>
       <r>  -11.6284    1.0000 </r>
       <r>  -11.3984    1.0000 </r>
       <r>  -11.1608    1.0000 </r>
       <r>  -11.0304    1.0000 </r>
       <r>  -10.9476    1.0000 </r>
       <r>  -10.8980    1.0000 </r>
       <r>  -10.8494    1.0000 </r>
       <r>  -10.7930    1.0000 </r>
       <r>  -10.7268    1.0000 </r>
       <r>  -10.4101    1.0000 </r>
       <r>   -9.7462    1.0000 </r>
       <r>   -9.0360    1.0000 </r>
       <r>   -8.8476    1.0000 </r>
       <r>   -8.5268    1.0000 </r>
       <r>   -8.1756    1.0000 </r>
       <r>   -8.0355    1.0000 </r>
       <r>   -7.7987    1.0000 </r>
       <r>   -7.6960    1.0000 </r>
       <r>   -7.3990    1.0000 </r>
       <r>   -7.3716    1.0000 </r>
       <r>   -7.3111    1.0000 </r>
       <r>   -7.2045    1.0000 </r>
       <r>   -6.1722    1.0000 </r>
       <r>   -5.4480    1.0000 </r>
       <r>   -4.8266    1.0000 </r>
       <r>   -4.6699    1.0000 </r>
       <r>   -4.5962    1.0000 </r>
       <r>   -4.4651    1.0000 </r>
       <r>   -4.2780    1.0000 </r>
       <r>   -4.1547    1.0000 </r>
       <r>   -4.0954    1.0000 </r>
       <r>   -4.0480    1.0000 </r>
       <r>   -3.9768    1.0000 </r>
       <r>   -3.7655    1.0000 </r>
       <r>   -3.7385    1.0000 </r>
       <r>   -3.5900    1.0000 </r>
       <r>   -3.4505    1.0000 </r>
       <r>   -3.2513    1.0000 </r>
       <r>   -3.0835    1.0000 </r>
       <r>   -2.8891    1.0000 </r>
       <r>   -2.8613    1.0000 </r>
       <r>   -2.7585    1.0000 </r>
       <r>   -2.4778    1.0000 </r>
       <r>   -2.3911    1.0000 </r>
       <r>   -2.2535    1.0000 </r>
       <r>   -2.2148    1.0000 </r>
       <r>   -1.9392    1.0000 </r>
       <r>   -1.8003    1.0000 </r>
       <r>   -1.6012    1.0000 </r>
       <r>   -1.5431    1.0000 </r>
       <r>   -1.2859    1.0000 </r>
       <r>   -1.1349    1.0000 </r>
       <r>   -0.1213    1.0000 </r>
       <r>    0.0885    0.8972 </r>
       <r>    0.5163    0.0000 </r>
       <r>    1.0747    0.0000 </r>
       <r>    1.2715    0.0000 </r>
       <r>    1.3251    0.0000 </r>
       <r>    1.5668    0.0000 </r>
       <r>    1.6655    0.0000 </r>
       <r>    1.7199    0.0000 </r>
       <r>    1.9768    0.0000 </r>
       <r>    2.1579    0.0000 </r>
       <r>    2.2763    0.0000 </r>
       <r>    2.4410    0.0000 </r>
       <r>    2.4833    0.0000 </r>
       <r>    2.5339    0.0000 </r>
      </set>
      <set comment="kpoint 16">
       <r>  -13.1546    1.0000 </r>
       <r>  -12.1943    1.0000 </r>
       <r>  -11.5780    1.0000 </r>
       <r>  -11.5574    1.0000 </r>
       <r>  -11.3906    1.0000 </r>
       <r>  -11.3309    1.0000 </r>
       <r>  -11.0248    1.0000 </r>
       <r>  -10.8162    1.0000 </r>
       <r>  -10.7196    1.0000 </r>
       <r>  -10.5422    1.0000 </r>
       <r>  -10.3831    1.0000 </r>
       <r>   -9.9657    1.0000 </r>
       <r>   -8.9225    1.0000 </r>
       <r>   -8.8325    1.0000 </r>
       <r>   -8.5836    1.0000 </r>
       <r>   -7.8534    1.0000 </r>
       <r>   -7.6507    1.0000 </r>
       <r>   -7.5316    1.0000 </r>
       <r>   -7.4211    1.0000 </r>
       <r>   -7.0643    1.0000 </r>
       <r>   -6.8982    1.0000 </r>
       <r>   -6.7615    1.0000 </r>
       <r>   -6.7070    1.0000 </r>
       <r>   -6.1610    1.0000 </r>
       <r>   -5.2063    1.0000 </r>
       <r>   -5.1127    1.0000 </r>
       <r>   -4.9347    1.0000 </r>
       <r>   -4.7328    1.0000 </r>
       <r>   -4.5027    1.0000 </r>
       <r>   -4.4315    1.0000 </r>
       <r>   -4.3832    1.0000 </r>
       <r>   -4.2770    1.0000 </r>
       <r>   -4.1646    1.0000 </r>
       <r>   -3.8152    1.0000 </r>
       <r>   -3.7821    1.0000 </r>
       <r>   -3.5173    1.0000 </r>
       <r>   -3.4902    1.0000 </r>
       <r>   -3.2865    1.0000 </r>
       <r>   -3.2166    1.0000 </r>
       <r>   -3.0191    1.0000 </r>
       <r>   -2.8142    1.0000 </r>
       <r>   -2.6662    1.0000 </r>
       <r>   -2.5885    1.0000 </r>
       <r>   -2.3480    1.0000 </r>
       <r>   -2.2647    1.0000 </r>
       <r>   -2.1831    1.0000 </r>
       <r>   -2.0358    1.0000 </r>
       <r>   -1.9407    1.0000 </r>
       <r>   -1.7972    1.0000 </r>
       <r>   -1.6608    1.0000 </r>
       <r>   -1.4654    1.0000 </r>
       <r>   -1.2679    1.0000 </r>
       <r>   -1.1123    1.0000 </r>
       <r>   -0.0036    0.9949 </r>
       <r>    0.2282    0.2391 </r>
       <r>    0.6390    0.0000 </r>
       <r>    1.2534    0.0000 </r>
       <r>    1.3051    0.0000 </r>
       <r>    1.4810    0.0000 </r>
       <r>    1.6870    0.0000 </r>
       <r>    1.7888    0.0000 </r>
       <r>    1.9878    0.0000 </r>
       <r>    2.0922    0.0000 </r>
       <r>    2.1918    0.0000 </r>
       <r>    2.3294    0.0000 </r>
       <r>    2.5117    0.0000 </r>
       <r>    2.5723    0.0000 </r>
       <r>    2.6687    0.0000 </r>
      </set>
      <set comment="kpoint 17">
       <r>  -13.4614    1.0000 </r>
       <r>  -12.6882    1.0000 </r>
       <r>  -12.0380    1.0000 </r>
       <r>  -11.9082    1.0000 </r>
       <r>  -11.7642    1.0000 </r>
       <r>  -11.7056    1.0000 </r>
       <r>  -11.3341    1.0000 </r>
       <r>  -11.0668    1.0000 </r>
       <r>  -10.8634    1.0000 </r>
       <r>  -10.5321    1.0000 </r>
       <r>  -10.5124    1.0000 </r>
       <r>  -10.2722    1.0000 </r>
       <r>   -8.6821    1.0000 </r>
       <r>   -8.6454    1.0000 </r>
       <r>   -8.2799    1.0000 </r>
       <r>   -7.4366    1.0000 </r>
       <r>   -7.3084    1.0000 </r>
       <r>   -7.0930    1.0000 </r>
       <r>   -6.9638    1.0000 </r>
       <r>   -6.6008    1.0000 </r>
       <r>   -6.2647    1.0000 </r>
       <r>   -6.2344    1.0000 </r>
       <r>   -6.0670    1.0000 </r>
       <r>   -5.8662    1.0000 </r>
       <r>   -5.2435    1.0000 </r>
       <r>   -5.0047    1.0000 </r>
       <r>   -4.9313    1.0000 </r>
       <r>   -4.8238    1.0000 </r>
       <r>   -4.7359    1.0000 </r>
       <r>   -4.4425    1.0000 </r>
       <r>   -4.3676    1.0000 </r>
       <r>   -4.3269    1.0000 </r>
       <r>   -4.1130    1.0000 </r>
       <r>   -3.9138    1.0000 </r>
       <r>   -3.5518    1.0000 </r>
       <r>   -3.4448    1.0000 </r>
       <r>   -3.2828    1.0000 </r>
       <r>   -3.1739    1.0000 </r>
       <r>   -3.0489    1.0000 </r>
       <r>   -2.9106    1.0000 </r>
       <r>   -2.8297    1.0000 </r>
       <r>   -2.6682    1.0000 </r>
       <r>   -2.3582    1.0000 </r>
       <r>   -2.1340    1.0000 </r>
       <r>   -2.0469    1.0000 </r>
       <r>   -1.9653    1.0000 </r>
       <r>   -1.9143    1.0000 </r>
       <r>   -1.8265    1.0000 </r>
       <r>   -1.7520    1.0000 </r>
       <r>   -1.7049    1.0000 </r>
       <r>   -1.3454    1.0000 </r>
       <r>   -1.2353    1.0000 </r>
       <r>   -0.9364    1.0000 </r>
       <r>    0.0751    0.9272 </r>
       <r>    0.3897    0.0014 </r>
       <r>    0.8365    0.0000 </r>
       <r>    1.4884    0.0000 </r>
       <r>    1.5600    0.0000 </r>
       <r>    1.7617    0.0000 </r>
       <r>    1.8260    0.0000 </r>
       <r>    1.8910    0.0000 </r>
       <r>    2.1116    0.0000 </r>
       <r>    2.1779    0.0000 </r>
       <r>    2.3199    0.0000 </r>
       <r>    2.5937    0.0000 </r>
       <r>    2.6312    0.0000 </r>
       <r>    2.6952    0.0000 </r>
       <r>    2.9606    0.0000 </r>
      </set>
      <set comment="kpoint 18">
       <r>  -13.7581    1.0000 </r>
       <r>  -13.0833    1.0000 </r>
       <r>  -12.4425    1.0000 </r>
       <r>  -12.2916    1.0000 </r>
       <r>  -12.0984    1.0000 </r>
       <r>  -11.9821    1.0000 </r>
       <r>  -11.6286    1.0000 </r>
       <r>  -11.3416    1.0000 </r>
       <r>  -11.1197    1.0000 </r>
       <r>  -10.7884    1.0000 </r>
       <r>  -10.6914    1.0000 </r>
       <r>  -10.5324    1.0000 </r>
       <r>   -8.5252    1.0000 </r>
       <r>   -8.4853    1.0000 </r>
       <r>   -7.8756    1.0000 </r>
       <r>   -7.2382    1.0000 </r>
       <r>   -6.9701    1.0000 </r>
       <r>   -6.7757    1.0000 </r>
       <r>   -6.7298    1.0000 </r>
       <r>   -6.2971    1.0000 </r>
       <r>   -5.8331    1.0000 </r>
       <r>   -5.7267    1.0000 </r>
       <r>   -5.4808    1.0000 </r>
       <r>   -5.4225    1.0000 </r>
       <r>   -4.9534    1.0000 </r>
       <r>   -4.8892    1.0000 </r>
       <r>   -4.6947    1.0000 </r>
       <r>   -4.6079    1.0000 </r>
       <r>   -4.5095    1.0000 </r>
       <r>   -4.2770    1.0000 </r>
       <r>   -4.0541    1.0000 </r>
       <r>   -3.9248    1.0000 </r>
       <r>   -3.8348    1.0000 </r>
       <r>   -3.5987    1.0000 </r>
       <r>   -3.5379    1.0000 </r>
       <r>   -3.4169    1.0000 </r>
       <r>   -3.2086    1.0000 </r>
       <r>   -3.0818    1.0000 </r>
       <r>   -3.0580    1.0000 </r>
       <r>   -2.7350    1.0000 </r>
       <r>   -2.6132    1.0000 </r>
       <r>   -2.5390    1.0000 </r>
       <r>   -2.3513    1.0000 </r>
       <r>   -2.0666    1.0000 </r>
       <r>   -1.9796    1.0000 </r>
       <r>   -1.9310    1.0000 </r>
       <r>   -1.8581    1.0000 </r>
       <r>   -1.7200    1.0000 </r>
       <r>   -1.5524    1.0000 </r>
       <r>   -1.3948    1.0000 </r>
       <r>   -1.1936    1.0000 </r>
       <r>   -1.0686    1.0000 </r>
       <r>   -0.5707    1.0000 </r>
       <r>    0.0866    0.9021 </r>
       <r>    0.5584    0.0000 </r>
       <r>    1.0974    0.0000 </r>
       <r>    1.7403    0.0000 </r>
       <r>    1.7640    0.0000 </r>
       <r>    1.9006    0.0000 </r>
       <r>    2.0860    0.0000 </r>
       <r>    2.1466    0.0000 </r>
       <r>    2.1995    0.0000 </r>
       <r>    2.3848    0.0000 </r>
       <r>    2.6202    0.0000 </r>
       <r>    2.7471    0.0000 </r>
       <r>    2.8260    0.0000 </r>
       <r>    2.8998    0.0000 </r>
       <r>    3.1683    0.0000 </r>
      </set>
      <set comment="kpoint 19">
       <r>  -13.9923    1.0000 </r>
       <r>  -13.3671    1.0000 </r>
       <r>  -12.7577    1.0000 </r>
       <r>  -12.5913    1.0000 </r>
       <r>  -12.3620    1.0000 </r>
[...]
       <r>    2.7517    0.0000 </r>
      </set>
      <set comment="kpoint 54">
       <r>  -12.9387    1.0000 </r>
       <r>  -11.5838    1.0000 </r>
       <r>  -11.3918    1.0000 </r>
       <r>  -11.2591    1.0000 </r>
       <r>  -11.0463    1.0000 </r>
       <r>  -10.9852    1.0000 </r>
       <r>  -10.9390    1.0000 </r>
       <r>  -10.8135    1.0000 </r>
       <r>  -10.7132    1.0000 </r>
       <r>  -10.6964    1.0000 </r>
       <r>  -10.4098    1.0000 </r>
       <r>   -9.7400    1.0000 </r>
       <r>   -9.0557    1.0000 </r>
       <r>   -8.7560    1.0000 </r>
       <r>   -8.5335    1.0000 </r>
       <r>   -8.2113    1.0000 </r>
       <r>   -8.1420    1.0000 </r>
       <r>   -7.7017    1.0000 </r>
       <r>   -7.6541    1.0000 </r>
       <r>   -7.4308    1.0000 </r>
       <r>   -7.3795    1.0000 </r>
       <r>   -7.3333    1.0000 </r>
       <r>   -7.2596    1.0000 </r>
       <r>   -6.1645    1.0000 </r>
       <r>   -5.3759    1.0000 </r>
       <r>   -5.0348    1.0000 </r>
       <r>   -4.6742    1.0000 </r>
       <r>   -4.5685    1.0000 </r>
       <r>   -4.4198    1.0000 </r>
       <r>   -4.2945    1.0000 </r>
       <r>   -4.1693    1.0000 </r>
       <r>   -4.1153    1.0000 </r>
       <r>   -4.0344    1.0000 </r>
       <r>   -3.8583    1.0000 </r>
       <r>   -3.7053    1.0000 </r>
       <r>   -3.6518    1.0000 </r>
       <r>   -3.6078    1.0000 </r>
       <r>   -3.3512    1.0000 </r>
       <r>   -3.2292    1.0000 </r>
       <r>   -3.1245    1.0000 </r>
       <r>   -3.0166    1.0000 </r>
       <r>   -2.8360    1.0000 </r>
       <r>   -2.7688    1.0000 </r>
       <r>   -2.4683    1.0000 </r>
       <r>   -2.3164    1.0000 </r>
       <r>   -2.2641    1.0000 </r>
       <r>   -2.1964    1.0000 </r>
       <r>   -1.8950    1.0000 </r>
       <r>   -1.7977    1.0000 </r>
       <r>   -1.6620    1.0000 </r>
       <r>   -1.5838    1.0000 </r>
       <r>   -1.3894    1.0000 </r>
       <r>   -1.1214    1.0000 </r>
       <r>   -0.1975    1.0000 </r>
       <r>    0.1265    0.7670 </r>
       <r>    0.5098    0.0000 </r>
       <r>    0.9012    0.0000 </r>
       <r>    1.2078    0.0000 </r>
       <r>    1.2618    0.0000 </r>
       <r>    1.5078    0.0000 </r>
       <r>    1.5718    0.0000 </r>
       <r>    1.8032    0.0000 </r>
       <r>    1.9600    0.0000 </r>
       <r>    2.1319    0.0000 </r>
       <r>    2.2738    0.0000 </r>
       <r>    2.3977    0.0000 </r>
       <r>    2.5058    0.0000 </r>
       <r>    2.6977    0.0000 </r>
      </set>
     </set>
    </set>
   </array>
  </eigenvalues>
  <separator name="orbital magnetization" >
   <v name="MAGDIPOLOUT">      0.00000000      0.00000000      0.00000000</v>
  </separator>
  <dos>
   <i name="efermi">      0.17802012 </i>
   <total>
    <array>
     <dimension dim="1">gridpoints</dimension>
     <dimension dim="2">spin</dimension>
     <field>energy</field>
     <field>total</field>
     <field>integrated</field>
     <set>
      <set comment="spin 1">
       <r>   -15.1953     0.0000     0.0000 </r>
       <r>   -15.1305     0.0000     0.0000 </r>
       <r>   -15.0657     0.0000     0.0000 </r>
       <r>   -15.0009     0.0000     0.0000 </r>
       <r>   -14.9360     0.0000     0.0000 </r>
       <r>   -14.8712     0.0000     0.0000 </r>
       <r>   -14.8064     0.0000     0.0000 </r>
       <r>   -14.7416     0.0000     0.0000 </r>
       <r>   -14.6768     0.0000     0.0000 </r>
       <r>   -14.6120     0.0000     0.0000 </r>
       <r>   -14.5471     0.0000     0.0000 </r>
       <r>   -14.4823     0.0000     0.0000 </r>
       <r>   -14.4175     0.0016     0.0001 </r>
       <r>   -14.3527     0.0281     0.0019 </r>
       <r>   -14.2879     0.2399     0.0175 </r>
       <r>   -14.2231     1.0111     0.0830 </r>
       <r>   -14.1583     2.1620     0.2231 </r>
       <r>   -14.0934     2.5302     0.3871 </r>
       <r>   -14.0286     2.1940     0.5293 </r>
       <r>   -13.9638     1.9615     0.6565 </r>
       <r>   -13.8990     1.3519     0.7441 </r>
       <r>   -13.8342     0.9345     0.8047 </r>
       <r>   -13.7694     1.4419     0.8981 </r>
       <r>   -13.7046     1.7937     1.0144 </r>
       <r>   -13.6397     1.5495     1.1148 </r>
       <r>   -13.5749     1.8578     1.2352 </r>
       <r>   -13.5101     2.8547     1.4202 </r>
       <r>   -13.4453     3.6059     1.6540 </r>
       <r>   -13.3805     3.2767     1.8663 </r>
       <r>   -13.3157     2.3745     2.0202 </r>
       <r>   -13.2509     2.0481     2.1530 </r>
       <r>   -13.1860     2.5851     2.3205 </r>
       <r>   -13.1212     3.4008     2.5410 </r>
       <r>   -13.0564     3.8647     2.7914 </r>
       <r>   -12.9916     4.4700     3.0812 </r>
       <r>   -12.9268     5.1631     3.4158 </r>
       <r>   -12.8620     4.8033     3.7271 </r>
       <r>   -12.7972     3.8682     3.9779 </r>
       <r>   -12.7323     3.9326     4.2328 </r>
       <r>   -12.6675     4.8859     4.5494 </r>
       <r>   -12.6027     5.3822     4.8983 </r>
       <r>   -12.5379     5.3699     5.2463 </r>
       <r>   -12.4731     5.1061     5.5773 </r>
       <r>   -12.4083     4.8708     5.8930 </r>
       <r>   -12.3434     4.9892     6.2164 </r>
       <r>   -12.2786     5.1477     6.5500 </r>
       <r>   -12.2138     5.0694     6.8786 </r>
       <r>   -12.1490     5.5349     7.2373 </r>
       <r>   -12.0842     6.6451     7.6680 </r>
       <r>   -12.0194     6.7902     8.1081 </r>
       <r>   -11.9546     5.8112     8.4848 </r>
       <r>   -11.8897     4.8223     8.7973 </r>
       <r>   -11.8249     5.0054     9.1218 </r>
       <r>   -11.7601     7.0237     9.5770 </r>
       <r>   -11.6953     9.1432    10.1696 </r>
       <r>   -11.6305     9.9429    10.8141 </r>
       <r>   -11.5657     9.7057    11.4431 </r>
       <r>   -11.5009     8.4669    11.9919 </r>
       <r>   -11.4360     8.1515    12.5202 </r>
       <r>   -11.3712    10.0316    13.1704 </r>
       <r>   -11.3064    10.7278    13.8658 </r>
       <r>   -11.2416     8.8261    14.4378 </r>
       <r>   -11.1768     7.7704    14.9415 </r>
       <r>   -11.1120     9.1552    15.5349 </r>
       <r>   -11.0472    10.7694    16.2329 </r>
       <r>   -10.9823    11.2492    16.9620 </r>
       <r>   -10.9175    11.8549    17.7304 </r>
       <r>   -10.8527    12.5329    18.5427 </r>
       <r>   -10.7879    12.6010    19.3594 </r>
       <r>   -10.7231    12.2676    20.1545 </r>
       <r>   -10.6583    10.8428    20.8573 </r>
       <r>   -10.5934     8.4845    21.4072 </r>
       <r>   -10.5286     7.3061    21.8808 </r>
       <r>   -10.4638     7.0330    22.3366 </r>
       <r>   -10.3990     6.1401    22.7346 </r>
       <r>   -10.3342     4.1979    23.0066 </r>
       <r>   -10.2694     2.5236    23.1702 </r>
       <r>   -10.2046     1.8059    23.2873 </r>
       <r>   -10.1397     1.1040    23.3588 </r>
       <r>   -10.0749     0.5971    23.3975 </r>
       <r>   -10.0101     0.9780    23.4609 </r>
       <r>    -9.9453     1.6482    23.5677 </r>
       <r>    -9.8805     1.4413    23.6612 </r>
       <r>    -9.8157     1.0691    23.7305 </r>
       <r>    -9.7509     1.4956    23.8274 </r>
       <r>    -9.6860     1.6086    23.9317 </r>
       <r>    -9.6212     0.8339    23.9857 </r>
       <r>    -9.5564     0.1982    23.9985 </r>
       <r>    -9.4916     0.0214    23.9999 </r>
       <r>    -9.4268     0.0010    24.0000 </r>
       <r>    -9.3620     0.0002    24.0000 </r>
       <r>    -9.2972     0.0063    24.0004 </r>
       <r>    -9.2323     0.0835    24.0058 </r>
       <r>    -9.1675     0.5436    24.0411 </r>
       <r>    -9.1027     1.8002    24.1578 </r>
       <r>    -9.0379     3.2359    24.3675 </r>
       <r>    -8.9731     3.8025    24.6139 </r>
       <r>    -8.9083     4.2360    24.8885 </r>
       <r>    -8.8435     4.9331    25.2082 </r>
       <r>    -8.7786     4.8553    25.5229 </r>
       <r>    -8.7138     4.4600    25.8120 </r>
       <r>    -8.6490     5.2734    26.1538 </r>
       <r>    -8.5842     7.6305    26.6484 </r>
       <r>    -8.5194     9.9259    27.2917 </r>
       <r>    -8.4546     9.1794    27.8867 </r>
       <r>    -8.3897     5.4987    28.2431 </r>
       <r>    -8.3249     2.6815    28.4169 </r>
       <r>    -8.2601     2.4385    28.5749 </r>
       <r>    -8.1953     3.6195    28.8095 </r>
       <r>    -8.1305     4.1674    29.0796 </r>
       <r>    -8.0657     3.1577    29.2843 </r>
       <r>    -8.0009     2.2828    29.4322 </r>
       <r>    -7.9360     2.8026    29.6139 </r>
       <r>    -7.8712     4.0348    29.8754 </r>
       <r>    -7.8064     4.6057    30.1739 </r>
       <r>    -7.7416     4.5327    30.4677 </r>
       <r>    -7.6768     5.0540    30.7953 </r>
       <r>    -7.6120     5.9548    31.1812 </r>
       <r>    -7.5472     6.9000    31.6285 </r>
       <r>    -7.4823     8.7795    32.1975 </r>
       <r>    -7.4175    10.4136    32.8725 </r>
       <r>    -7.3527    10.0152    33.5216 </r>
       <r>    -7.2879     8.9916    34.1044 </r>
       <r>    -7.2231     8.5852    34.6608 </r>
       <r>    -7.1583     8.1657    35.1901 </r>
       <r>    -7.0935     7.1528    35.6537 </r>
       <r>    -7.0286     6.2533    36.0590 </r>
       <r>    -6.9638     7.0280    36.5145 </r>
       <r>    -6.8990     9.0662    37.1021 </r>
       <r>    -6.8342    10.6628    37.7932 </r>
       <r>    -6.7694    12.1459    38.5805 </r>
       <r>    -6.7046    11.9253    39.3534 </r>
       <r>    -6.6398     8.7641    39.9215 </r>
       <r>    -6.5749     5.5414    40.2806 </r>
       <r>    -6.5101     3.3602    40.4984 </r>
       <r>    -6.4453     2.3393    40.6500 </r>
       <r>    -6.3805     2.9527    40.8414 </r>
       <r>    -6.3157     4.9453    41.1619 </r>
       <r>    -6.2509     6.7310    41.5982 </r>
       <r>    -6.1860     6.8844    42.0444 </r>
       <r>    -6.1212     6.2259    42.4479 </r>
       <r>    -6.0564     5.6904    42.8168 </r>
       <r>    -5.9916     5.1873    43.1530 </r>
       <r>    -5.9268     5.0359    43.4794 </r>
       <r>    -5.8620     5.8624    43.8594 </r>
       <r>    -5.7972     6.4677    44.2786 </r>
       <r>    -5.7323     5.6702    44.6461 </r>
       <r>    -5.6675     4.1071    44.9123 </r>
       <r>    -5.6027     2.7409    45.0899 </r>
       <r>    -5.5379     2.7025    45.2651 </r>
       <r>    -5.4731     4.6461    45.5662 </r>
       <r>    -5.4083     7.0413    46.0226 </r>
       <r>    -5.3435     7.6537    46.5187 </r>
       <r>    -5.2786     6.6724    46.9511 </r>
       <r>    -5.2138     5.2173    47.2893 </r>
       <r>    -5.1490     4.7913    47.5998 </r>
       <r>    -5.0842     6.2726    48.0064 </r>
       <r>    -5.0194     8.8062    48.5772 </r>
       <r>    -4.9546    11.1063    49.2970 </r>
       <r>    -4.8898    12.1747    50.0861 </r>
       <r>    -4.8249    12.2873    50.8825 </r>
       <r>    -4.7601    12.0307    51.6623 </r>
       <r>    -4.6953    10.9395    52.3713 </r>
       <r>    -4.6305     9.5676    52.9914 </r>
       <r>    -4.5657     8.7078    53.5558 </r>
       <r>    -4.5009     8.6485    54.1164 </r>
       <r>    -4.4361     9.7871    54.7507 </r>
       <r>    -4.3712    10.5554    55.4349 </r>
       <r>    -4.3064    10.1266    56.0912 </r>
       <r>    -4.2416    10.4996    56.7718 </r>
       <r>    -4.1768    12.4854    57.5810 </r>
       <r>    -4.1120    14.3180    58.5090 </r>
       <r>    -4.0472    13.8713    59.4081 </r>
       <r>    -3.9823    12.4393    60.2143 </r>
       <r>    -3.9175    12.2925    61.0111 </r>
       <r>    -3.8527    13.1089    61.8607 </r>
       <r>    -3.7879    13.9007    62.7617 </r>
       <r>    -3.7231    13.7326    63.6518 </r>
       <r>    -3.6583    12.9198    64.4892 </r>
       <r>    -3.5935    12.6950    65.3120 </r>
       <r>    -3.5286    12.4038    66.1159 </r>
       <r>    -3.4638    12.7840    66.9445 </r>
       <r>    -3.3990    14.6933    67.8969 </r>
       <r>    -3.3342    15.8485    68.9241 </r>
       <r>    -3.2694    15.1438    69.9056 </r>
       <r>    -3.2046    14.9475    70.8744 </r>
       <r>    -3.1398    15.7553    71.8956 </r>
       <r>    -3.0749    16.1439    72.9420 </r>
       <r>    -3.0101    15.3392    73.9362 </r>
       <r>    -2.9453    14.1517    74.8534 </r>
       <r>    -2.8805    14.4143    75.7877 </r>
       <r>    -2.8157    15.2749    76.7777 </r>
       <r>    -2.7509    15.5588    77.7862 </r>
       <r>    -2.6861    16.4026    78.8493 </r>
       <r>    -2.6212    16.9942    79.9508 </r>
       <r>    -2.5564    16.5711    81.0248 </r>
       <r>    -2.4916    16.0429    82.0646 </r>
       <r>    -2.4268    15.4793    83.0679 </r>
       <r>    -2.3620    14.7866    84.0263 </r>
       <r>    -2.2972    14.9698    84.9966 </r>
       <r>    -2.2324    16.3681    86.0574 </r>
       <r>    -2.1675    17.3487    87.1819 </r>
       <r>    -2.1027    17.4125    88.3105 </r>
       <r>    -2.0379    17.5577    89.4485 </r>
       <r>    -1.9731    18.1119    90.6224 </r>
       <r>    -1.9083    18.9117    91.8482 </r>
       <r>    -1.8435    18.8352    93.0690 </r>
       <r>    -1.7786    17.0855    94.1763 </r>
       <r>    -1.7138    14.7152    95.1301 </r>
       <r>    -1.6490    13.3890    95.9979 </r>
       <r>    -1.5842    12.9496    96.8372 </r>
       <r>    -1.5194    12.7695    97.6649 </r>
       <r>    -1.4546    12.4285    98.4704 </r>
       <r>    -1.3898    11.4854    99.2149 </r>
       <r>    -1.3249    10.3620    99.8865 </r>
       <r>    -1.2601    10.1848   100.5466 </r>
       <r>    -1.1953    11.0030   101.2597 </r>
       <r>    -1.1305    11.1515   101.9825 </r>
       <r>    -1.0657     9.3409   102.5879 </r>
       <r>    -1.0009     7.3379   103.0636 </r>
       <r>    -0.9361     7.0247   103.5189 </r>
       <r>    -0.8712     6.8482   103.9627 </r>
       <r>    -0.8064     4.9209   104.2817 </r>
       <r>    -0.7416     2.7714   104.4613 </r>
       <r>    -0.6768     2.3805   104.6156 </r>
       <r>    -0.6120     3.0496   104.8132 </r>
       <r>    -0.5472     3.0814   105.0130 </r>
       <r>    -0.4824     2.1527   105.1525 </r>
       <r>    -0.4175     1.0980   105.2237 </r>
       <r>    -0.3527     0.9911   105.2879 </r>
       <r>    -0.2879     2.2056   105.4309 </r>
       <r>    -0.2231     4.1044   105.6969 </r>
       <r>    -0.1583     5.4571   106.0506 </r>
       <r>    -0.0935     5.3355   106.3964 </r>
       <r>    -0.0287     4.6685   106.6990 </r>
       <r>     0.0362     5.2300   107.0380 </r>
       <r>     0.1010     6.5723   107.4640 </r>
       <r>     0.1658     7.0134   107.9185 </r>
       <r>     0.2306     6.0446   108.3103 </r>
       <r>     0.2954     4.0654   108.5738 </r>
       <r>     0.3602     2.6234   108.7438 </r>
       <r>     0.4251     2.5243   108.9075 </r>
       <r>     0.4899     3.2843   109.1203 </r>
       <r>     0.5547     4.2047   109.3928 </r>
       <r>     0.6195     4.6410   109.6936 </r>
       <r>     0.6843     4.5078   109.9858 </r>
       <r>     0.7491     4.0496   110.2483 </r>
       <r>     0.8139     3.8654   110.4988 </r>
       <r>     0.8788     3.8898   110.7509 </r>
       <r>     0.9436     3.5300   110.9797 </r>
       <r>     1.0084     3.5468   111.2096 </r>
       <r>     1.0732     5.0298   111.5356 </r>
       <r>     1.1380     7.6131   112.0291 </r>
       <r>     1.2028     9.9214   112.6721 </r>
       <r>     1.2676    10.8534   113.3756 </r>
       <r>     1.3325    10.1085   114.0308 </r>
       <r>     1.3973     8.7784   114.5997 </r>
       <r>     1.4621     9.2055   115.1964 </r>
       <r>     1.5269    11.0080   115.9099 </r>
       <r>     1.5917    11.9863   116.6868 </r>
       <r>     1.6565    12.3859   117.4895 </r>
       <r>     1.7213    12.8820   118.3245 </r>
       <r>     1.7862    12.4332   119.1303 </r>
       <r>     1.8510    11.1443   119.8527 </r>
       <r>     1.9158    11.1167   120.5732 </r>
       <r>     1.9806    12.3269   121.3721 </r>
       <r>     2.0454    13.6919   122.2596 </r>
       <r>     2.1102    15.3549   123.2548 </r>
       <r>     2.1750    16.3686   124.3157 </r>
       <r>     2.2399    15.8295   125.3417 </r>
       <r>     2.3047    15.1032   126.3206 </r>
       <r>     2.3695    14.4924   127.2599 </r>
       <r>     2.4343    13.7967   128.1542 </r>
       <r>     2.4991    14.5226   129.0955 </r>
       <r>     2.5639    16.2028   130.1456 </r>
       <r>     2.6288    16.4435   131.2114 </r>
       <r>     2.6936    14.8567   132.1743 </r>
       <r>     2.7584    12.2422   132.9678 </r>
       <r>     2.8232     9.7962   133.6028 </r>
       <r>     2.8880     8.1406   134.1304 </r>
       <r>     2.9528     7.0809   134.5893 </r>
       <r>     3.0176     6.5070   135.0111 </r>
       <r>     3.0825     5.6450   135.3770 </r>
       <r>     3.1473     4.2558   135.6528 </r>
       <r>     3.2121     2.9273   135.8425 </r>
       <r>     3.2769     1.6673   135.9506 </r>
       <r>     3.3417     0.6195   135.9908 </r>
       <r>     3.4065     0.1282   135.9991 </r>
       <r>     3.4713     0.0137   136.0000 </r>
       <r>     3.5362     0.0007   136.0000 </r>
       <r>     3.6010     0.0000   136.0000 </r>
       <r>     3.6658     0.0000   136.0000 </r>
       <r>     3.7306     0.0000   136.0000 </r>
       <r>     3.7954     0.0000   136.0000 </r>
       <r>     3.8602     0.0000   136.0000 </r>
       <r>     3.9250     0.0000   136.0000 </r>
       <r>     3.9899     0.0000   136.0000 </r>
       <r>     4.0547     0.0000   136.0000 </r>
       <r>     4.1195     0.0000   136.0000 </r>
       <r>     4.1843     0.0000   136.0000 </r>
       <r>     4.2491     0.0000   136.0000 </r>
      </set>
     </set>
    </array>
   </total>
  </dos>
 </calculation>
 <structure name="finalpos" >
  <crystal>
   <varray name="basis" >
    <v>       3.54040000       0.00000000       0.00000000 </v>
    <v>      -1.77020000      10.29434800       0.00000000 </v>
    <v>       0.00000000       0.00000000      27.50142900 </v>
   </varray>
   <i name="volume">   1002.32009712 </i>
   <varray name="rec_basis" >
    <v>       0.28245396       0.04857034       0.00000000 </v>
    <v>       0.00000000       0.09714068       0.00000000 </v>
    <v>       0.00000000       0.00000000       0.03636175 </v>
   </varray>
  </crystal>
  <varray name="positions" >
   <v>       0.11402300       0.22804500       0.23316207 </v>
   <v>       0.31402300       0.02804500       0.51499159 </v>
   <v>       0.45808900       0.91617900       0.20939482 </v>
   <v>       0.65808900       0.71617900       0.49122434 </v>
   <v>       0.31085400       0.62170900       0.08414979 </v>
   <v>       0.31085400       0.62170900       0.36597930 </v>
   <v>       0.99923000       0.99846000       0.08631254 </v>
   <v>       0.99923000       0.99846000       0.36814206 </v>
   <v>       0.65492700       0.30985400       0.06041748 </v>
   <v>       0.65492700       0.30985400       0.34224700 </v>
   <v>       0.76973800       0.53947500       0.20725292 </v>
   <v>       0.96973800       0.33947500       0.48908244 </v>
   <v>       0.93971600       0.87943300       0.15783749 </v>
   <v>       0.13971600       0.67943300       0.43966701 </v>
   <v>       0.20515200       0.41030300       0.18578822 </v>
   <v>       0.40515200       0.21030300       0.46761774 </v>
   <v>       0.20184900       0.40369900       0.09969156 </v>
   <v>       0.20184900       0.40369900       0.38152107 </v>
   <v>       0.56380500       0.12761000       0.10779021 </v>
   <v>       0.56380500       0.12761000       0.38961973 </v>
   <v>       0.56710600       0.13421200       0.19387616 </v>
   <v>       0.76710600       0.93421200       0.47570568 </v>
   <v>       0.82923400       0.65846800       0.13571444 </v>
   <v>       0.02923400       0.45846800       0.41754396 </v>
  </varray>
 </structure>
</modeling>
