<?xml version="1.0" encoding="ISO-8859-1"?>
<modeling>
 <generator>
  <i name="program" type="string">vasp </i>
  <i name="version" type="string">5.3.5  </i>
  <i name="subversion" type="string">31Mar14 (build Oct 29 2014 16:16:03) complex                          parallel </i>
  <i name="platform" type="string">Linux-UFHPC </i>
  <i name="date" type="string">2016 02 09 </i>
  <i name="time" type="string">17:28:12 </i>
 </generator>
 <incar>
  <i type="string" name="PREC">accurate</i>
  <i type="int" name="IBRION">     2</i>
  <i name="EDIFF">      0.00000100</i>
  <i type="int" name="NSW">     0</i>
  <i type="int" name="ISIF">     3</i>
  <i name="ENCUT">    300.00000000</i>
  <i type="string" name="LREAL"> Auto</i>
  <i type="int" name="ISMEAR">     0</i>
  <i name="SIGMA">      0.10000000</i>
  <i type="logical" name="LWAVE"> F  </i>
  <i type="logical" name="LCHARG"> F  </i>
  <i type="logical" name="LAECHG"> F  </i>
  <i type="string" name="GGA"> Bo</i>
  <i name="PARAM1">      0.18333333</i>
  <i name="PARAM2">      0.22000000</i>
  <i type="logical" name="LUSE_VDW"> T  </i>
  <i name="AGGAC">      0.00000000</i>
 </incar>
 <kpoints>
  <generation param="Gamma">
   <v type="int" name="divisions">      13        4        2 </v>
   <v name="usershift">      0.00000000       0.00000000       0.00000000 </v>
   <v name="genvec1">      0.07692308      -0.00000000       0.00000000 </v>
   <v name="genvec2">      0.00000000       0.25000000       0.00000000 </v>
   <v name="genvec3">      0.00000000       0.00000000       0.50000000 </v>
   <v name="shift">      0.00000000       0.00000000       0.00000000 </v>
  </generation>
  <varray name="kpointlist" >
   <v>       0.00000000       0.00000000       0.00000000 </v>
   <v>       0.07692308      -0.00000000       0.00000000 </v>
   <v>       0.15384615      -0.00000000       0.00000000 </v>
   <v>       0.23076923      -0.00000000       0.00000000 </v>
   <v>       0.30769231      -0.00000000       0.00000000 </v>
   <v>       0.38461538      -0.00000000       0.00000000 </v>
   <v>       0.46153846      -0.00000000       0.00000000 </v>
   <v>       0.00000000       0.25000000       0.00000000 </v>
   <v>       0.07692308       0.25000000       0.00000000 </v>
   <v>       0.15384615       0.25000000       0.00000000 </v>
   <v>       0.23076923       0.25000000       0.00000000 </v>
   <v>       0.30769231       0.25000000       0.00000000 </v>
   <v>       0.38461538       0.25000000       0.00000000 </v>
   <v>       0.46153846       0.25000000       0.00000000 </v>
   <v>      -0.46153846       0.25000000       0.00000000 </v>
   <v>      -0.38461538       0.25000000       0.00000000 </v>
   <v>      -0.30769231       0.25000000       0.00000000 </v>
   <v>      -0.23076923       0.25000000       0.00000000 </v>
   <v>      -0.15384615       0.25000000       0.00000000 </v>
   <v>      -0.07692308       0.25000000       0.00000000 </v>
   <v>       0.00000000       0.50000000       0.00000000 </v>
   <v>       0.07692308       0.50000000       0.00000000 </v>
   <v>       0.15384615       0.50000000       0.00000000 </v>
   <v>       0.23076923       0.50000000       0.00000000 </v>
   <v>       0.30769231       0.50000000       0.00000000 </v>
   <v>       0.38461538       0.50000000       0.00000000 </v>
   <v>       0.46153846       0.50000000       0.00000000 </v>
   <v>       0.00000000       0.00000000       0.50000000 </v>
   <v>       0.07692308      -0.00000000       0.50000000 </v>
   <v>       0.15384615      -0.00000000       0.50000000 </v>
   <v>       0.23076923      -0.00000000       0.50000000 </v>
   <v>       0.30769231      -0.00000000       0.50000000 </v>
   <v>       0.38461538      -0.00000000       0.50000000 </v>
   <v>       0.46153846      -0.00000000       0.50000000 </v>
   <v>       0.00000000       0.25000000       0.50000000 </v>
   <v>       0.07692308       0.25000000       0.50000000 </v>
   <v>       0.15384615       0.25000000       0.50000000 </v>
   <v>       0.23076923       0.25000000       0.50000000 </v>
   <v>       0.30769231       0.25000000       0.50000000 </v>
   <v>       0.38461538       0.25000000       0.50000000 </v>
   <v>       0.46153846       0.25000000       0.50000000 </v>
   <v>      -0.46153846       0.25000000       0.50000000 </v>
   <v>      -0.38461538       0.25000000       0.50000000 </v>
   <v>      -0.30769231       0.25000000       0.50000000 </v>
   <v>      -0.23076923       0.25000000       0.50000000 </v>
   <v>      -0.15384615       0.25000000       0.50000000 </v>
   <v>      -0.07692308       0.25000000       0.50000000 </v>
   <v>       0.00000000       0.50000000       0.50000000 </v>
   <v>       0.07692308       0.50000000       0.50000000 </v>
   <v>       0.15384615       0.50000000       0.50000000 </v>
   <v>       0.23076923       0.50000000       0.50000000 </v>
   <v>       0.30769231       0.50000000       0.50000000 </v>
   <v>       0.38461538       0.50000000       0.50000000 </v>
   <v>       0.46153846       0.50000000       0.50000000 </v>
  </varray>
  <varray name="weights" >
   <v>       0.00961538 </v>
   <v>       0.01923077 </v>
   <v>       0.01923077 </v>
   <v>       0.01923077 </v>
   <v>       0.01923077 </v>
   <v>       0.01923077 </v>
   <v>       0.01923077 </v>
   <v>       0.01923077 </v>
   <v>       0.01923077 </v>
   <v>       0.01923077 </v>
   <v>       0.01923077 </v>
   <v>       0.01923077 </v>
   <v>       0.01923077 </v>
   <v>       0.01923077 </v>
   <v>       0.01923077 </v>
   <v>       0.01923077 </v>
   <v>       0.01923077 </v>
   <v>       0.01923077 </v>
   <v>       0.01923077 </v>
   <v>       0.01923077 </v>
   <v>       0.00961538 </v>
   <v>       0.01923077 </v>
   <v>       0.01923077 </v>
   <v>       0.01923077 </v>
   <v>       0.01923077 </v>
   <v>       0.01923077 </v>
   <v>       0.01923077 </v>
   <v>       0.00961538 </v>
   <v>       0.01923077 </v>
   <v>       0.01923077 </v>
   <v>       0.01923077 </v>
   <v>       0.01923077 </v>
   <v>       0.01923077 </v>
   <v>       0.01923077 </v>
   <v>       0.01923077 </v>
   <v>       0.01923077 </v>
   <v>       0.01923077 </v>
   <v>       0.01923077 </v>
   <v>       0.01923077 </v>
   <v>       0.01923077 </v>
   <v>       0.01923077 </v>
   <v>       0.01923077 </v>
   <v>       0.01923077 </v>
   <v>       0.01923077 </v>
   <v>       0.01923077 </v>
   <v>       0.01923077 </v>
   <v>       0.01923077 </v>
   <v>       0.00961538 </v>
   <v>       0.01923077 </v>
   <v>       0.01923077 </v>
   <v>       0.01923077 </v>
   <v>       0.01923077 </v>
   <v>       0.01923077 </v>
   <v>       0.01923077 </v>
  </varray>
 </kpoints>
 <parameters>
  <separator name="general" >
   <i type="string" name="SYSTEM">unknown system</i>
   <i type="logical" name="LCOMPAT"> F  </i>
  </separator>
  <separator name="electronic" >
   <i type="string" name="PREC">accura</i>
   <i name="ENMAX">    300.00000000</i>
   <i name="ENAUG">    342.92400000</i>
   <i name="EDIFF">      0.00000100</i>
   <i type="int" name="IALGO">    38</i>
   <i type="int" name="IWAVPR">    10</i>
   <i type="int" name="NBANDS">    68</i>
   <i name="NELECT">    108.00000000</i>
   <i type="int" name="TURBO">     0</i>
   <i type="int" name="IRESTART">     0</i>
   <i type="int" name="NREBOOT">     0</i>
   <i type="int" name="NMIN">     0</i>
   <i name="EREF">      0.00000000</i>
   <separator name="electronic smearing" >
    <i type="int" name="ISMEAR">     0</i>
    <i name="SIGMA">      0.10000000</i>
    <i name="KSPACING">      0.50000000</i>
    <i type="logical" name="KGAMMA"> T  </i>
   </separator>
   <separator name="electronic projectors" >
    <i type="logical" name="LREAL"> T  </i>
    <v name="ROPT">     -0.00025000     -0.00025000</v>
    <i type="int" name="LMAXPAW">  -100</i>
    <i type="int" name="LMAXMIX">     2</i>
    <i type="logical" name="NLSPLINE"> F  </i>
   </separator>
   <separator name="electronic startup" >
    <i type="int" name="ISTART">     0</i>
    <i type="int" name="ICHARG">     2</i>
    <i type="int" name="INIWAV">     1</i>
   </separator>
   <separator name="electronic spin" >
    <i type="int" name="ISPIN">     1</i>
    <i type="logical" name="LNONCOLLINEAR"> F  </i>
    <v name="MAGMOM">      1.00000000      1.00000000      1.00000000      1.00000000      1.00000000      1.00000000      1.00000000      1.00000000      1.00000000      1.00000000      1.00000000      1.00000000      1.00000000      1.00000000      1.00000000      1.00000000      1.00000000      1.00000000      1.00000000      1.00000000
      1.00000000      1.00000000      1.00000000      1.00000000</v>
    <i name="NUPDOWN">     -1.00000000</i>
    <i type="logical" name="LSORBIT"> F  </i>
    <v name="SAXIS">      0.00000000      0.00000000      1.00000000</v>
    <i type="logical" name="LSPIRAL"> F  </i>
    <v name="QSPIRAL">      0.00000000      0.00000000      0.00000000</v>
    <i type="logical" name="LZEROZ"> F  </i>
   </separator>
   <separator name="electronic exchange-correlation" >
    <i type="logical" name="LASPH"> F  </i>
    <i type="logical" name="LMETAGGA"> F  </i>
   </separator>
   <separator name="electronic convergence" >
    <i type="int" name="NELM">    60</i>
    <i type="int" name="NELMDL">    -5</i>
    <i type="int" name="NELMIN">     2</i>
    <i name="ENINI">    300.00000000</i>
    <separator name="electronic convergence detail" >
     <i type="logical" name="LDIAG"> T  </i>
     <i type="logical" name="LSUBROT"> F  </i>
     <i name="WEIMIN">      0.00000000</i>
     <i name="EBREAK">      0.00000000</i>
     <i name="DEPER">      0.30000000</i>
     <i type="int" name="NRMM">     4</i>
     <i name="TIME">      0.40000000</i>
    </separator>
   </separator>
   <separator name="electronic mixer" >
    <i name="AMIX">      0.40000000</i>
    <i name="BMIX">      1.00000000</i>
    <i name="AMIN">      0.10000000</i>
    <i name="AMIX_MAG">      1.60000000</i>
    <i name="BMIX_MAG">      1.00000000</i>
    <separator name="electronic mixer details" >
     <i type="int" name="IMIX">     4</i>
     <i type="int" name="MAXMIX">   -45</i>
     <i name="WC">    100.00000000</i>
     <i type="int" name="INIMIX">     1</i>
     <i type="int" name="MIXPRE">     1</i>
     <i type="int" name="MREMOVE">     5</i>
    </separator>
   </separator>
   <separator name="electronic dipolcorrection" >
    <i type="logical" name="LDIPOL"> F  </i>
    <i type="logical" name="LMONO"> F  </i>
    <i type="int" name="IDIPOL">     0</i>
    <i name="EPSILON">      1.00000000</i>
    <v name="DIPOL">   -100.00000000   -100.00000000   -100.00000000</v>
    <i name="EFIELD">      0.00000000</i>
   </separator>
  </separator>
  <separator name="grids" >
   <i type="int" name="NGX">    20</i>
   <i type="int" name="NGY">    60</i>
   <i type="int" name="NGZ">   160</i>
   <i type="int" name="NGXF">    40</i>
   <i type="int" name="NGYF">   120</i>
   <i type="int" name="NGZF">   320</i>
   <i type="logical" name="ADDGRID"> F  </i>
  </separator>
  <separator name="ionic" >
   <i type="int" name="NSW">     0</i>
   <i type="int" name="IBRION">    -1</i>
   <i type="int" name="ISIF">     3</i>
   <i name="PSTRESS">      0.00000000</i>
   <i name="EDIFFG">      0.00001000</i>
   <i type="int" name="NFREE">     1</i>
   <i name="POTIM">      0.50000000</i>
   <i name="SMASS">     -3.00000000</i>
   <i name="SCALEE">      1.00000000</i>
  </separator>
  <separator name="ionic md" >
   <i name="TEBEG">      0.00010000</i>
   <i name="TEEND">      0.00010000</i>
   <i type="int" name="NBLOCK">     1</i>
   <i type="int" name="KBLOCK">     1</i>
   <i type="int" name="NPACO">   256</i>
   <i name="APACO">     16.00000000</i>
  </separator>
  <separator name="symmetry" >
   <i type="int" name="ISYM">     2</i>
   <i name="SYMPREC">      0.00001000</i>
  </separator>
  <separator name="dos" >
   <i type="logical" name="LORBIT"> F  </i>
   <v name="RWIGS">     -1.00000000     -1.00000000</v>
   <i type="int" name="NEDOS">   301</i>
   <i name="EMIN">     10.00000000</i>
   <i name="EMAX">    -10.00000000</i>
   <i name="EFERMI">      0.00000000</i>
  </separator>
  <separator name="writing" >
   <i type="int" name="NWRITE">     2</i>
   <i type="logical" name="LWAVE"> F  </i>
   <i type="logical" name="LCHARG"> F  </i>
   <i type="logical" name="LPARD"> F  </i>
   <i type="logical" name="LVTOT"> F  </i>
   <i type="logical" name="LVHAR"> F  </i>
   <i type="logical" name="LELF"> F  </i>
   <i type="logical" name="LOPTICS"> F  </i>
   <v name="STM">      0.00000000      0.00000000      0.00000000      0.00000000      0.00000000      0.00000000      0.00000000</v>
  </separator>
  <separator name="performance" >
   <i type="int" name="NPAR">     4</i>
   <i type="int" name="NSIM">     4</i>
   <i type="int" name="NBLK">    -1</i>
   <i type="logical" name="LPLANE"> T  </i>
   <i type="logical" name="LSCALAPACK"> T  </i>
   <i type="logical" name="LSCAAWARE"> F  </i>
   <i type="logical" name="LSCALU"> F  </i>
   <i type="logical" name="LASYNC"> F  </i>
   <i type="logical" name="LORBITALREAL"> F  </i>
  </separator>
  <separator name="miscellaneous" >
   <i type="int" name="IDIOT">     3</i>
   <i type="logical" name="LMUSIC"> F  </i>
   <v name="POMASS">     30.97400000     28.08500000</v>
   <v name="DARWINR">      0.00000000      0.00000000</v>
   <v name="DARWINV">      1.00000000      1.00000000</v>
   <i type="logical" name="LCORR"> T  </i>
  </separator>
  <i type="logical" name="GGA_COMPAT"> T  </i>
  <i type="logical" name="LBERRY"> F  </i>
  <i type="int" name="ICORELEVEL">     0</i>
  <i type="logical" name="LDAU"> F  </i>
  <i type="int" name="I_CONSTRAINED_M">     0</i>
  <separator name="electronic exchange-correlation" >
   <i type="string" name="GGA">BO</i>
   <i type="int" name="VOSKOWN">     0</i>
   <i type="logical" name="LHFCALC"> F  </i>
   <i type="string" name="PRECFOCK"></i>
   <i type="logical" name="LSYMGRAD"> F  </i>
   <i type="logical" name="LHFONE"> F  </i>
   <i type="logical" name="LRHFCALC"> F  </i>
   <i type="logical" name="LTHOMAS"> F  </i>
   <i type="logical" name="LMODELHF"> F  </i>
   <i name="ENCUT4O">     -1.00000000</i>
   <i type="int" name="EXXOEP">     0</i>
   <i type="int" name="FOURORBIT">     0</i>
   <i name="AEXX">      0.00000000</i>
   <i name="HFALPHA">      0.00000000</i>
   <i name="MCALPHA">      0.00000000</i>
   <i name="ALDAX">      1.00000000</i>
   <i name="AGGAX">      1.00000000</i>
   <i name="ALDAC">      1.00000000</i>
   <i name="AGGAC">      0.00000000</i>
   <i type="int" name="NKREDX">     1</i>
   <i type="int" name="NKREDY">     1</i>
   <i type="int" name="NKREDZ">     1</i>
   <i type="logical" name="SHIFTRED"> F  </i>
   <i type="logical" name="ODDONLY"> F  </i>
   <i type="logical" name="EVENONLY"> F  </i>
   <i type="int" name="LMAXFOCK">     0</i>
   <i type="int" name="NMAXFOCKAE">     0</i>
   <i type="logical" name="LFOCKAEDFT"> F  </i>
   <i name="HFSCREEN">      0.00000000</i>
   <i name="HFSCREENC">      0.00000000</i>
   <i type="int" name="NBANDSGWLOW">     0</i>
  </separator>
  <separator name="vdW DFT" >
   <i type="logical" name="LUSE_VDW"> T  </i>
   <i name="Zab_VDW">     -0.84910000</i>
   <i name="PARAM1">      0.18333333</i>
   <i name="PARAM2">      0.22000000</i>
   <i name="PARAM3">      0.00000000</i>
  </separator>
  <separator name="model GW" >
   <i type="int" name="MODEL_GW">     0</i>
   <i name="MODEL_EPS0">     25.05800243</i>
   <i name="MODEL_ALPHA">      1.00000000</i>
  </separator>
  <separator name="linear response parameters" >
   <i type="logical" name="LEPSILON"> F  </i>
   <i type="logical" name="LRPA"> F  </i>
   <i type="logical" name="LNABLA"> F  </i>
   <i type="logical" name="LVEL"> F  </i>
   <i type="int" name="KINTER">     0</i>
   <i name="CSHIFT">      0.10000000</i>
   <i name="OMEGAMAX">     -1.00000000</i>
   <i name="DEG_THRESHOLD">      0.00200000</i>
  </separator>
  <separator name="orbital magnetization" >
   <i type="logical" name="NUCIND"> F  </i>
   <v name="MAGPOS">      0.00000000      0.00000000      0.00000000</v>
   <i type="logical" name="LNICSALL"> T  </i>
   <i type="logical" name="ORBITALMAG"> F  </i>
   <i type="logical" name="LMAGBLOCH"> F  </i>
   <i type="logical" name="LCHIMAG"> F  </i>
   <i type="logical" name="LGAUGE"> T  </i>
   <i type="int" name="MAGATOM">     0</i>
   <v name="MAGDIPOL">      0.00000000      0.00000000      0.00000000</v>
   <v name="AVECCONST">      0.00000000      0.00000000      0.00000000</v>
  </separator>
  <separator name="response functions" >
   <i type="logical" name="LADDER"> F  </i>
   <i type="logical" name="LFXC"> F  </i>
   <i type="logical" name="LHARTREE"> T  </i>
   <i type="int" name="IBSE">     0</i>
   <i type="logical" name="LTCTE"> F  </i>
   <i type="logical" name="LTETE"> F  </i>
   <i type="logical" name="LTRIPLET"> F  </i>
   <i type="logical" name="LFXCEPS"> F  </i>
   <i type="logical" name="LFXHEG"> F  </i>
   <i type="logical" name="L2ORDER"> F  </i>
   <i type="logical" name="LUSEW"> F  </i>
   <i name="ENCUTGW">     -2.00000000</i>
   <i name="ENCUTGWSOFT">     -2.00000000</i>
   <i name="ENCUTLF">     -1.00000000</i>
   <i type="int" name="LMAXMP2">    -1</i>
   <i name="SCISSOR">      0.00000000</i>
   <i type="int" name="NOMEGA">     0</i>
   <i type="int" name="NOMEGAR">     0</i>
   <i type="int" name="NBANDSGW">    -1</i>
   <i type="int" name="NBANDSO">    -1</i>
   <i type="int" name="NBANDSV">    -1</i>
   <i type="int" name="NELM">     1</i>
   <i type="int" name="DIM">     3</i>
   <i type="int" name="ANTIRES">     0</i>
   <i name="OMEGAMAX">    -30.00000000</i>
   <i name="OMEGAMIN">    -30.00000000</i>
   <i name="OMEGATL">   -200.00000000</i>
   <i type="int" name="OMEGAGRID">     0</i>
   <i name="CSHIFT">     -0.10000000</i>
   <i type="logical" name="SELFENERGY"> F  </i>
   <i type="logical" name="LSPECTRAL"> F  </i>
   <i type="logical" name="ODDONLYGW"> F  </i>
   <i type="logical" name="EVENONLYGW"> F  </i>
   <i type="int" name="NKREDLFX">     1</i>
   <i type="int" name="NKREDLFY">     1</i>
   <i type="int" name="NKREDLFZ">     1</i>
   <i type="int" name="MAXMEM">  1800</i>
   <i type="int" name="TELESCOPE">     0</i>
   <i type="int" name="TAUPAR">     1</i>
  </separator>
  <separator name="External order field" >
   <i name="OFIELD_KAPPA">      0.00000000</i>
   <v name="OFIELD_K">      0.00000000      0.00000000      0.00000000</v>
   <i name="OFIELD_Q6_NEAR">      0.00000000</i>
   <i name="OFIELD_Q6_FAR">      0.00000000</i>
   <i name="OFIELD_A">      0.00000000</i>
  </separator>
 </parameters>
 <atominfo>
  <atoms>      24 </atoms>
  <types>       2 </types>
  <array name="atoms" >
   <dimension dim="1">ion</dimension>
   <field type="string">element</field>
   <field type="int">atomtype</field>
   <set>
    <rc><c>P </c><c>   1</c></rc>
    <rc><c>P </c><c>   1</c></rc>
    <rc><c>P </c><c>   1</c></rc>
    <rc><c>P </c><c>   1</c></rc>
    <rc><c>P </c><c>   1</c></rc>
    <rc><c>P </c><c>   1</c></rc>
    <rc><c>P </c><c>   1</c></rc>
    <rc><c>P </c><c>   1</c></rc>
    <rc><c>P </c><c>   1</c></rc>
    <rc><c>P </c><c>   1</c></rc>
    <rc><c>P </c><c>   1</c></rc>
    <rc><c>P </c><c>   1</c></rc>
    <rc><c>Si</c><c>   2</c></rc>
    <rc><c>Si</c><c>   2</c></rc>
    <rc><c>Si</c><c>   2</c></rc>
    <rc><c>Si</c><c>   2</c></rc>
    <rc><c>Si</c><c>   2</c></rc>
    <rc><c>Si</c><c>   2</c></rc>
    <rc><c>Si</c><c>   2</c></rc>
    <rc><c>Si</c><c>   2</c></rc>
    <rc><c>Si</c><c>   2</c></rc>
    <rc><c>Si</c><c>   2</c></rc>
    <rc><c>Si</c><c>   2</c></rc>
    <rc><c>Si</c><c>   2</c></rc>
   </set>
  </array>
  <array name="atomtypes" >
   <dimension dim="1">type</dimension>
   <field type="int">atomspertype</field>
   <field type="string">element</field>
   <field>mass</field>
   <field>valence</field>
   <field type="string">pseudopotential</field>
   <set>
    <rc><c>  12</c><c>P </c><c>     30.97400000</c><c>      5.00000000</c><c>  PAW_PBE P 17Jan2003                   </c></rc>
    <rc><c>  12</c><c>Si</c><c>     28.08500000</c><c>      4.00000000</c><c> PAW_PBE Si 05Jan2001                   </c></rc>
   </set>
  </array>
 </atominfo>
 <structure name="initialpos" >
  <crystal>
   <varray name="basis" >
    <v>       3.54040000       0.00000000       0.00000000 </v>
    <v>      -1.77020000      10.29434800       0.00000000 </v>
    <v>       0.00000000       0.00000000      27.50142900 </v>
   </varray>
   <i name="volume">   1002.32009712 </i>
   <varray name="rec_basis" >
    <v>       0.28245396       0.04857034       0.00000000 </v>
    <v>       0.00000000       0.09714068       0.00000000 </v>
    <v>       0.00000000       0.00000000       0.03636175 </v>
   </varray>
  </crystal>
  <varray name="positions" >
   <v>       0.11402300       0.22804500       0.23316207 </v>
   <v>       0.31402300       0.42804500       0.51499159 </v>
   <v>       0.45808900       0.91617900       0.20939482 </v>
   <v>       0.65808900       0.11617900       0.49122434 </v>
   <v>       0.31085400       0.62170900       0.08414979 </v>
   <v>       0.31085400       0.62170900       0.36597930 </v>
   <v>       0.99923000       0.99846000       0.08631254 </v>
   <v>       0.99923000       0.99846000       0.36814206 </v>
   <v>       0.65492700       0.30985400       0.06041748 </v>
   <v>       0.65492700       0.30985400       0.34224700 </v>
   <v>       0.76973800       0.53947500       0.20725292 </v>
   <v>       0.96973800       0.73947500       0.48908244 </v>
   <v>       0.93971600       0.87943300       0.15783749 </v>
   <v>       0.13971600       0.07943300       0.43966701 </v>
   <v>       0.20515200       0.41030300       0.18578822 </v>
   <v>       0.40515200       0.61030300       0.46761774 </v>
   <v>       0.20184900       0.40369900       0.09969156 </v>
   <v>       0.20184900       0.40369900       0.38152107 </v>
   <v>       0.56380500       0.12761000       0.10779021 </v>
   <v>       0.56380500       0.12761000       0.38961973 </v>
   <v>       0.56710600       0.13421200       0.19387616 </v>
   <v>       0.76710600       0.33421200       0.47570568 </v>
   <v>       0.82923400       0.65846800       0.13571444 </v>
   <v>       0.02923400       0.85846800       0.41754396 </v>
  </varray>
 </structure>
 <calculation>
  <scstep>
   <time name="dav">   56.05   56.08</time>
   <time name="total">   71.95   71.99</time>
   <energy>
    <i name="alphaZ">     36.80884744 </i>
    <i name="ewald">  11927.23705817 </i>
    <i name="hartreedc"> -14976.12484783 </i>
    <i name="XCdc">    -87.83189898 </i>
    <i name="pawpsdc">   1056.43050070 </i>
    <i name="pawaedc">   -732.41190547 </i>
    <i name="eentropy">     -0.04812158 </i>
    <i name="bandstr">    -88.22223990 </i>
    <i name="atom">   3354.04126044 </i>
    <i name="e_fr_energy">    489.87865299 </i>
    <i name="e_wo_entrp">    489.92677457 </i>
    <i name="e_0_energy">    489.90271378 </i>
   </energy>
  </scstep>
  <scstep>
   <time name="dav">   69.83   69.86</time>
   <time name="total">   69.84   69.87</time>
   <energy>
    <i name="e_fr_energy">    -67.12500406 </i>
    <i name="e_wo_entrp">    -67.10017200 </i>
    <i name="e_0_energy">    -67.11258803 </i>
   </energy>
  </scstep>
  <scstep>
   <time name="dav">   64.20   64.24</time>
   <time name="total">   64.22   64.25</time>
   <energy>
    <i name="e_fr_energy">   -122.73080087 </i>
    <i name="e_wo_entrp">   -122.71183397 </i>
    <i name="e_0_energy">   -122.72131742 </i>
   </energy>
  </scstep>
  <scstep>
   <time name="dav">   77.07   77.11</time>
   <time name="total">   77.08   77.12</time>
   <energy>
    <i name="e_fr_energy">   -125.27691448 </i>
    <i name="e_wo_entrp">   -125.25478320 </i>
    <i name="e_0_energy">   -125.26584884 </i>
   </energy>
  </scstep>
  <scstep>
   <time name="dav">   71.39   71.43</time>
   <time name="total">   75.30   75.35</time>
   <energy>
    <i name="e_fr_energy">   -125.33849231 </i>
    <i name="e_wo_entrp">   -125.31630315 </i>
    <i name="e_0_energy">   -125.32739773 </i>
   </energy>
  </scstep>
  <scstep>
   <time name="dav">   63.31   63.36</time>
   <time name="total">   81.63   81.69</time>
   <energy>
    <i name="e_fr_energy">   -123.30596080 </i>
    <i name="e_wo_entrp">   -123.28450865 </i>
    <i name="e_0_energy">   -123.29523473 </i>
   </energy>
  </scstep>
  <scstep>
   <time name="dav">   65.51   65.54</time>
   <time name="total">   83.80   83.85</time>
   <energy>
    <i name="e_fr_energy">   -123.09237184 </i>
    <i name="e_wo_entrp">   -123.06173621 </i>
    <i name="e_0_energy">   -123.07705403 </i>
   </energy>
  </scstep>
  <scstep>
   <time name="dav">   66.31   66.35</time>
   <time name="total">   84.60   84.65</time>
   <energy>
    <i name="e_fr_energy">   -123.07132309 </i>
    <i name="e_wo_entrp">   -123.04535736 </i>
    <i name="e_0_energy">   -123.05834022 </i>
   </energy>
  </scstep>
  <scstep>
   <time name="dav">   64.91   64.96</time>
   <time name="total">   83.22   83.28</time>
   <energy>
    <i name="e_fr_energy">   -123.04640006 </i>
    <i name="e_wo_entrp">   -123.02088005 </i>
    <i name="e_0_energy">   -123.03364005 </i>
   </energy>
  </scstep>
  <scstep>
   <time name="dav">   65.70   65.74</time>
   <time name="total">   83.98   84.03</time>
   <energy>
    <i name="e_fr_energy">   -123.03290257 </i>
    <i name="e_wo_entrp">   -123.00723655 </i>
    <i name="e_0_energy">   -123.02006956 </i>
   </energy>
  </scstep>
  <scstep>
   <time name="dav">   64.93   64.98</time>
   <time name="total">   83.23   83.29</time>
   <energy>
    <i name="e_fr_energy">   -123.02585330 </i>
    <i name="e_wo_entrp">   -122.99993324 </i>
    <i name="e_0_energy">   -123.01289327 </i>
   </energy>
  </scstep>
  <scstep>
   <time name="dav">   66.81   66.85</time>
   <time name="total">   85.14   85.18</time>
   <energy>
    <i name="e_fr_energy">   -123.02022979 </i>
    <i name="e_wo_entrp">   -122.99444012 </i>
    <i name="e_0_energy">   -123.00733495 </i>
   </energy>
  </scstep>
  <scstep>
   <time name="dav">   67.31   67.34</time>
   <time name="total">   85.61   85.66</time>
   <energy>
    <i name="e_fr_energy">   -123.01661903 </i>
    <i name="e_wo_entrp">   -122.99089052 </i>
    <i name="e_0_energy">   -123.00375478 </i>
   </energy>
  </scstep>
  <scstep>
   <time name="dav">   67.17   67.22</time>
   <time name="total">   85.56   85.62</time>
   <energy>
    <i name="e_fr_energy">   -123.01533051 </i>
    <i name="e_wo_entrp">   -122.98958259 </i>
    <i name="e_0_energy">   -123.00245655 </i>
   </energy>
  </scstep>
  <scstep>
   <time name="dav">   61.98   62.01</time>
   <time name="total">   80.42   80.47</time>
   <energy>
    <i name="e_fr_energy">   -123.01510211 </i>
    <i name="e_wo_entrp">   -122.98936857 </i>
    <i name="e_0_energy">   -123.00223534 </i>
   </energy>
  </scstep>
  <scstep>
   <time name="dav">   61.63   61.66</time>
   <time name="total">   80.31   80.35</time>
   <energy>
    <i name="e_fr_energy">   -123.01563971 </i>
    <i name="e_wo_entrp">   -122.98991191 </i>
    <i name="e_0_energy">   -123.00277581 </i>
   </energy>
  </scstep>
  <scstep>
   <time name="dav">   60.59   60.62</time>
   <time name="total">   79.28   79.33</time>
   <energy>
    <i name="e_fr_energy">   -123.01595145 </i>
    <i name="e_wo_entrp">   -122.99022307 </i>
    <i name="e_0_energy">   -123.00308726 </i>
   </energy>
  </scstep>
  <scstep>
   <time name="dav">   57.30   57.34</time>
   <time name="total">   75.97   76.01</time>
   <energy>
    <i name="e_fr_energy">   -123.01598381 </i>
    <i name="e_wo_entrp">   -122.99025238 </i>
    <i name="e_0_energy">   -123.00311809 </i>
   </energy>
  </scstep>
  <scstep>
   <time name="dav">   52.18   52.21</time>
   <time name="total">   70.83   70.88</time>
   <energy>
    <i name="e_fr_energy">   -123.01602904 </i>
    <i name="e_wo_entrp">   -122.99029939 </i>
    <i name="e_0_energy">   -123.00316421 </i>
   </energy>
  </scstep>
  <scstep>
   <time name="dav">   54.53   54.56</time>
   <time name="total">   73.21   73.25</time>
   <energy>
    <i name="e_fr_energy">   -123.01604995 </i>
    <i name="e_wo_entrp">   -122.99032071 </i>
    <i name="e_0_energy">   -123.00318533 </i>
   </energy>
  </scstep>
  <scstep>
   <time name="dav">   51.51   51.54</time>
   <time name="total">   70.18   70.21</time>
   <energy>
    <i name="e_fr_energy">   -123.01599944 </i>
    <i name="e_wo_entrp">   -122.99027012 </i>
    <i name="e_0_energy">   -123.00313478 </i>
   </energy>
  </scstep>
  <scstep>
   <time name="dav">   50.94   50.97</time>
   <time name="total">   69.61   69.65</time>
   <energy>
    <i name="e_fr_energy">   -123.01594812 </i>
    <i name="e_wo_entrp">   -122.99021907 </i>
    <i name="e_0_energy">   -123.00308360 </i>
   </energy>
  </scstep>
  <scstep>
   <time name="dav">   50.25   50.28</time>
   <time name="total">   68.92   68.98</time>
   <energy>
    <i name="e_fr_energy">   -123.01593373 </i>
    <i name="e_wo_entrp">   -122.99020468 </i>
    <i name="e_0_energy">   -123.00306921 </i>
   </energy>
  </scstep>
  <scstep>
   <time name="dav">   52.33   52.36</time>
   <time name="total">   71.02   71.06</time>
   <energy>
    <i name="e_fr_energy">   -123.01591751 </i>
    <i name="e_wo_entrp">   -122.99018865 </i>
    <i name="e_0_energy">   -123.00305308 </i>
   </energy>
  </scstep>
  <scstep>
   <time name="dav">   49.61   49.64</time>
   <time name="total">   64.36   64.39</time>
   <energy>
    <i name="alphaZ">     36.80884744 </i>
    <i name="ewald">  11927.23705817 </i>
    <i name="hartreedc"> -15067.72137333 </i>
    <i name="XCdc">    -80.50859190 </i>
    <i name="pawpsdc">   1155.68210836 </i>
    <i name="pawaedc">   -834.45450217 </i>
    <i name="eentropy">     -0.02572885 </i>
    <i name="bandstr">   -614.07499531 </i>
    <i name="atom">   3354.04126044 </i>
    <i name="e_fr_energy">   -123.01591714 </i>
    <i name="e_wo_entrp">   -122.99018828 </i>
    <i name="e_0_energy">   -123.00305271 </i>
   </energy>
  </scstep>
  <structure>
   <crystal>
    <varray name="basis" >
     <v>       3.54040000       0.00000000       0.00000000 </v>
     <v>      -1.77020000      10.29434800       0.00000000 </v>
     <v>       0.00000000       0.00000000      27.50142900 </v>
    </varray>
    <i name="volume">   1002.32009712 </i>
    <varray name="rec_basis" >
     <v>       0.28245396       0.04857034       0.00000000 </v>
     <v>       0.00000000       0.09714068       0.00000000 </v>
     <v>       0.00000000       0.00000000       0.03636175 </v>
    </varray>
   </crystal>
   <varray name="positions" >
    <v>       0.11402300       0.22804500       0.23316207 </v>
    <v>       0.31402300       0.42804500       0.51499159 </v>
    <v>       0.45808900       0.91617900       0.20939482 </v>
    <v>       0.65808900       0.11617900       0.49122434 </v>
    <v>       0.31085400       0.62170900       0.08414979 </v>
    <v>       0.31085400       0.62170900       0.36597930 </v>
    <v>       0.99923000       0.99846000       0.08631254 </v>
    <v>       0.99923000       0.99846000       0.36814206 </v>
    <v>       0.65492700       0.30985400       0.06041748 </v>
    <v>       0.65492700       0.30985400       0.34224700 </v>
    <v>       0.76973800       0.53947500       0.20725292 </v>
    <v>       0.96973800       0.73947500       0.48908244 </v>
    <v>       0.93971600       0.87943300       0.15783749 </v>
    <v>       0.13971600       0.07943300       0.43966701 </v>
    <v>       0.20515200       0.41030300       0.18578822 </v>
    <v>       0.40515200       0.61030300       0.46761774 </v>
    <v>       0.20184900       0.40369900       0.09969156 </v>
    <v>       0.20184900       0.40369900       0.38152107 </v>
    <v>       0.56380500       0.12761000       0.10779021 </v>
    <v>       0.56380500       0.12761000       0.38961973 </v>
    <v>       0.56710600       0.13421200       0.19387616 </v>
    <v>       0.76710600       0.33421200       0.47570568 </v>
    <v>       0.82923400       0.65846800       0.13571444 </v>
    <v>       0.02923400       0.85846800       0.41754396 </v>
   </varray>
  </structure>
  <varray name="forces" >
   <v>      -0.01838405      -0.05686199       0.01998875 </v>
   <v>       0.12296751       0.38695847       0.38168689 </v>
   <v>      -0.00175067      -0.00585440       0.07888091 </v>
   <v>       0.45102320       0.09058102       0.91835168 </v>
   <v>       0.00041919       0.00165862       0.00654503 </v>
   <v>       0.40110500      -0.59269573       1.69119716 </v>
   <v>      -0.00442496      -0.01651232      -0.00356790 </v>
   <v>      -1.58655591       0.56854331      -4.95147598 </v>
   <v>       0.00127933      -0.00085935       0.01128384 </v>
   <v>      -0.29859727      -0.45880874      -0.46194480 </v>
   <v>       0.00089841       0.00665318       0.09323264 </v>
   <v>      -0.54932641       0.34854897       0.13766653 </v>
   <v>       0.00239054      -0.00490983      -0.00201293 </v>
   <v>      -2.53422989      -0.06912124       5.59369571 </v>
   <v>      -0.00246941      -0.00611281       0.06107911 </v>
   <v>      -0.03810147       0.31598215      -1.31979282 </v>
   <v>      -0.00014805       0.00107269      -0.01606806 </v>
   <v>      -0.70224098       0.14436314       0.40341431 </v>
   <v>      -0.00540736      -0.02400596       0.01139816 </v>
   <v>       2.76377937       2.50244271      -4.34983534 </v>
   <v>       0.00470052       0.02030430      -0.03691393 </v>
   <v>       0.65702220       0.47800245      -0.71730876 </v>
   <v>       0.00081840       0.00683925      -0.00243747 </v>
   <v>       1.33523277      -3.63620787       2.45293727 </v>
  </varray>
  <varray name="stress" >
   <v>       9.59291760       3.20283817       0.83474013 </v>
   <v>       3.20283827       8.63558383       4.06862515 </v>
   <v>       0.83474018       4.06862553      15.12839155 </v>
  </varray>
  <energy>
   <i name="e_fr_energy">   -123.01591714 </i>
   <i name="e_wo_entrp">   -123.00305271 </i>
   <i name="e_0_energy">     -0.02572885 </i>
  </energy>
  <time name="totalsc"> 2025.61 2026.88</time>
  <eigenvalues>
   <array>
    <dimension dim="1">band</dimension>
    <dimension dim="2">kpoint</dimension>
    <dimension dim="3">spin</dimension>
    <field>eigene</field>
    <field>occ</field>
    <set>
     <set comment="spin 1">
      <set comment="kpoint 1">
       <r>  -15.0794    1.0000 </r>
       <r>  -13.5357    1.0000 </r>
       <r>  -12.8116    1.0000 </r>
       <r>  -12.8006    1.0000 </r>
       <r>  -12.4778    1.0000 </r>
       <r>  -12.3243    1.0000 </r>
       <r>  -12.1456    1.0000 </r>
       <r>  -12.0527    1.0000 </r>
       <r>  -11.4291    1.0000 </r>
       <r>  -11.3636    1.0000 </r>
       <r>  -10.9895    1.0000 </r>
       <r>  -10.0122    1.0000 </r>
       <r>   -8.7496    1.0000 </r>
       <r>   -8.0293    1.0000 </r>
       <r>   -7.8216    1.0000 </r>
       <r>   -7.5292    1.0000 </r>
       <r>   -6.9136    1.0000 </r>
       <r>   -6.8189    1.0000 </r>
       <r>   -6.4876    1.0000 </r>
       <r>   -6.3409    1.0000 </r>
       <r>   -5.8258    1.0000 </r>
       <r>   -5.6423    1.0000 </r>
       <r>   -4.8067    1.0000 </r>
       <r>   -4.6939    1.0000 </r>
       <r>   -4.3465    1.0000 </r>
       <r>   -4.1830    1.0000 </r>
       <r>   -3.7715    1.0000 </r>
       <r>   -3.6914    1.0000 </r>
       <r>   -3.5163    1.0000 </r>
       <r>   -3.3705    1.0000 </r>
       <r>   -3.0476    1.0000 </r>
       <r>   -2.9344    1.0000 </r>
       <r>   -2.8463    1.0000 </r>
       <r>   -2.6150    1.0000 </r>
       <r>   -2.4934    1.0000 </r>
       <r>   -2.4404    1.0000 </r>
       <r>   -2.3821    1.0000 </r>
       <r>   -2.3241    1.0000 </r>
       <r>   -2.2178    1.0000 </r>
       <r>   -2.0165    1.0000 </r>
       <r>   -1.9160    1.0000 </r>
       <r>   -1.8630    1.0000 </r>
       <r>   -1.7297    1.0000 </r>
       <r>   -1.6338    1.0000 </r>
       <r>   -1.5975    1.0000 </r>
       <r>   -1.5706    1.0000 </r>
       <r>   -1.4280    1.0000 </r>
       <r>   -1.3747    1.0000 </r>
       <r>   -1.1416    1.0000 </r>
       <r>   -1.0228    1.0000 </r>
       <r>   -0.9910    1.0000 </r>
       <r>   -0.5215    1.0000 </r>
       <r>    0.0354    0.9913 </r>
       <r>    0.2933    0.1024 </r>
       <r>    0.6238    0.0000 </r>
       <r>    1.1597    0.0000 </r>
       <r>    1.1785    0.0000 </r>
       <r>    1.2581    0.0000 </r>
       <r>    1.3240    0.0000 </r>
       <r>    1.6338    0.0000 </r>
       <r>    1.6980    0.0000 </r>
       <r>    1.8716    0.0000 </r>
       <r>    1.9769    0.0000 </r>
       <r>    1.9874    0.0000 </r>
       <r>    2.0894    0.0000 </r>
       <r>    2.1749    0.0000 </r>
       <r>    2.4399    0.0000 </r>
       <r>    2.6081    0.0000 </r>
      </set>
      <set comment="kpoint 2">
       <r>  -15.0264    1.0000 </r>
       <r>  -13.4744    1.0000 </r>
       <r>  -12.7589    1.0000 </r>
       <r>  -12.7484    1.0000 </r>
       <r>  -12.4222    1.0000 </r>
       <r>  -12.2742    1.0000 </r>
       <r>  -12.0876    1.0000 </r>
       <r>  -11.9928    1.0000 </r>
       <r>  -11.3803    1.0000 </r>
       <r>  -11.3170    1.0000 </r>
       <r>  -10.9410    1.0000 </r>
       <r>   -9.9800    1.0000 </r>
       <r>   -8.7235    1.0000 </r>
       <r>   -8.0661    1.0000 </r>
       <r>   -7.7846    1.0000 </r>
       <r>   -7.5148    1.0000 </r>
       <r>   -6.8928    1.0000 </r>
       <r>   -6.7897    1.0000 </r>
       <r>   -6.4817    1.0000 </r>
       <r>   -6.3352    1.0000 </r>
       <r>   -5.7921    1.0000 </r>
       <r>   -5.6573    1.0000 </r>
       <r>   -4.9791    1.0000 </r>
       <r>   -4.7526    1.0000 </r>
       <r>   -4.5076    1.0000 </r>
       <r>   -4.1481    1.0000 </r>
       <r>   -3.7814    1.0000 </r>
       <r>   -3.7037    1.0000 </r>
       <r>   -3.5551    1.0000 </r>
       <r>   -3.5187    1.0000 </r>
       <r>   -3.3349    1.0000 </r>
       <r>   -3.2465    1.0000 </r>
       <r>   -3.0463    1.0000 </r>
       <r>   -2.9282    1.0000 </r>
       <r>   -2.7300    1.0000 </r>
       <r>   -2.6400    1.0000 </r>
       <r>   -2.4765    1.0000 </r>
       <r>   -2.4221    1.0000 </r>
       <r>   -2.3045    1.0000 </r>
       <r>   -2.2405    1.0000 </r>
       <r>   -2.1942    1.0000 </r>
       <r>   -2.0239    1.0000 </r>
       <r>   -1.9680    1.0000 </r>
       <r>   -1.9603    1.0000 </r>
       <r>   -1.8401    1.0000 </r>
       <r>   -1.7383    1.0000 </r>
       <r>   -1.5151    1.0000 </r>
       <r>   -1.3080    1.0000 </r>
       <r>   -1.1082    1.0000 </r>
       <r>   -0.9957    1.0000 </r>
       <r>   -0.9330    1.0000 </r>
       <r>   -0.2048    1.0000 </r>
       <r>    0.0520    0.9840 </r>
       <r>    0.3936    0.0036 </r>
       <r>    0.7386    0.0000 </r>
       <r>    0.9583    0.0000 </r>
       <r>    1.3536    0.0000 </r>
       <r>    1.5799    0.0000 </r>
       <r>    1.5920    0.0000 </r>
       <r>    1.7664    0.0000 </r>
       <r>    1.9504    0.0000 </r>
       <r>    2.0997    0.0000 </r>
       <r>    2.1564    0.0000 </r>
       <r>    2.2298    0.0000 </r>
       <r>    2.2968    0.0000 </r>
       <r>    2.4011    0.0000 </r>
       <r>    2.6171    0.0000 </r>
       <r>    2.7758    0.0000 </r>
      </set>
      <set comment="kpoint 3">
       <r>  -14.8704    1.0000 </r>
       <r>  -13.2913    1.0000 </r>
       <r>  -12.6042    1.0000 </r>
       <r>  -12.5928    1.0000 </r>
       <r>  -12.2574    1.0000 </r>
       <r>  -12.1276    1.0000 </r>
       <r>  -11.9185    1.0000 </r>
       <r>  -11.8157    1.0000 </r>
       <r>  -11.2387    1.0000 </r>
       <r>  -11.1824    1.0000 </r>
       <r>  -10.8021    1.0000 </r>
       <r>   -9.8921    1.0000 </r>
       <r>   -8.6569    1.0000 </r>
       <r>   -8.1625    1.0000 </r>
       <r>   -7.7424    1.0000 </r>
       <r>   -7.5050    1.0000 </r>
       <r>   -6.8938    1.0000 </r>
       <r>   -6.7237    1.0000 </r>
       <r>   -6.4933    1.0000 </r>
       <r>   -6.3949    1.0000 </r>
       <r>   -5.8600    1.0000 </r>
       <r>   -5.7157    1.0000 </r>
       <r>   -5.3626    1.0000 </r>
       <r>   -4.8677    1.0000 </r>
       <r>   -4.6067    1.0000 </r>
       <r>   -4.2195    1.0000 </r>
       <r>   -4.1582    1.0000 </r>
       <r>   -4.0767    1.0000 </r>
       <r>   -3.9769    1.0000 </r>
       <r>   -3.8308    1.0000 </r>
       <r>   -3.7673    1.0000 </r>
       <r>   -3.6752    1.0000 </r>
       <r>   -3.4742    1.0000 </r>
       <r>   -3.2781    1.0000 </r>
       <r>   -3.1445    1.0000 </r>
       <r>   -3.0428    1.0000 </r>
       <r>   -2.9958    1.0000 </r>
       <r>   -2.9617    1.0000 </r>
       <r>   -2.8631    1.0000 </r>
       <r>   -2.6177    1.0000 </r>
       <r>   -2.4272    1.0000 </r>
       <r>   -2.3794    1.0000 </r>
       <r>   -2.2547    1.0000 </r>
       <r>   -2.1383    1.0000 </r>
       <r>   -1.9419    1.0000 </r>
       <r>   -1.7688    1.0000 </r>
       <r>   -1.6578    1.0000 </r>
       <r>   -1.2980    1.0000 </r>
       <r>   -1.1647    1.0000 </r>
       <r>   -0.9841    1.0000 </r>
       <r>   -0.9304    1.0000 </r>
       <r>   -0.1020    1.0000 </r>
       <r>    0.1462    0.7915 </r>
       <r>    0.3512    0.0184 </r>
       <r>    0.7183    0.0000 </r>
       <r>    0.9689    0.0000 </r>
       <r>    1.3811    0.0000 </r>
       <r>    1.4768    0.0000 </r>
       <r>    1.8790    0.0000 </r>
       <r>    1.9636    0.0000 </r>
       <r>    2.2553    0.0000 </r>
       <r>    2.3954    0.0000 </r>
       <r>    2.4446    0.0000 </r>
       <r>    2.6117    0.0000 </r>
       <r>    2.6682    0.0000 </r>
       <r>    2.8107    0.0000 </r>
       <r>    2.9610    0.0000 </r>
       <r>    3.0759    0.0000 </r>
      </set>
      <set comment="kpoint 4">
       <r>  -14.6216    1.0000 </r>
       <r>  -12.9902    1.0000 </r>
       <r>  -12.3608    1.0000 </r>
       <r>  -12.3367    1.0000 </r>
       <r>  -11.9906    1.0000 </r>
       <r>  -11.8972    1.0000 </r>
       <r>  -11.6528    1.0000 </r>
       <r>  -11.5335    1.0000 </r>
       <r>  -11.0225    1.0000 </r>
       <r>  -10.9798    1.0000 </r>
       <r>  -10.5986    1.0000 </r>
       <r>   -9.7784    1.0000 </r>
       <r>   -8.6044    1.0000 </r>
       <r>   -8.3538    1.0000 </r>
       <r>   -7.8163    1.0000 </r>
       <r>   -7.6379    1.0000 </r>
       <r>   -7.1204    1.0000 </r>
       <r>   -6.7024    1.0000 </r>
       <r>   -6.6264    1.0000 </r>
       <r>   -6.5998    1.0000 </r>
       <r>   -6.0411    1.0000 </r>
       <r>   -5.7376    1.0000 </r>
       <r>   -5.5546    1.0000 </r>
       <r>   -5.3335    1.0000 </r>
       <r>   -4.9527    1.0000 </r>
       <r>   -4.8043    1.0000 </r>
       <r>   -4.5983    1.0000 </r>
       <r>   -4.5165    1.0000 </r>
       <r>   -4.4726    1.0000 </r>
       <r>   -4.2206    1.0000 </r>
       <r>   -4.1679    1.0000 </r>
       <r>   -4.1194    1.0000 </r>
       <r>   -3.7987    1.0000 </r>
       <r>   -3.6984    1.0000 </r>
       <r>   -3.4650    1.0000 </r>
       <r>   -3.4308    1.0000 </r>
       <r>   -3.2425    1.0000 </r>
       <r>   -3.1118    1.0000 </r>
       <r>   -2.9885    1.0000 </r>
       <r>   -2.6930    1.0000 </r>
       <r>   -2.5956    1.0000 </r>
       <r>   -2.5261    1.0000 </r>
       <r>   -2.4295    1.0000 </r>
       <r>   -2.3207    1.0000 </r>
       <r>   -1.9121    1.0000 </r>
       <r>   -1.8360    1.0000 </r>
       <r>   -1.7354    1.0000 </r>
       <r>   -1.4698    1.0000 </r>
       <r>   -1.3361    1.0000 </r>
       <r>   -1.0939    1.0000 </r>
       <r>   -1.0417    1.0000 </r>
       <r>   -0.4931    1.0000 </r>
       <r>   -0.2047    1.0000 </r>
       <r>    0.1077    0.9125 </r>
       <r>    0.5948    0.0000 </r>
       <r>    0.9607    0.0000 </r>
       <r>    1.1621    0.0000 </r>
       <r>    1.5188    0.0000 </r>
       <r>    1.8706    0.0000 </r>
       <r>    1.9981    0.0000 </r>
       <r>    2.1087    0.0000 </r>
       <r>    2.2658    0.0000 </r>
       <r>    2.3621    0.0000 </r>
       <r>    2.4832    0.0000 </r>
       <r>    2.6765    0.0000 </r>
       <r>    2.7853    0.0000 </r>
       <r>    2.8844    0.0000 </r>
       <r>    2.9690    0.0000 </r>
      </set>
      <set comment="kpoint 5">
       <r>  -14.3036    1.0000 </r>
       <r>  -12.5784    1.0000 </r>
       <r>  -12.0677    1.0000 </r>
       <r>  -11.9886    1.0000 </r>
       <r>  -11.6392    1.0000 </r>
       <r>  -11.6079    1.0000 </r>
       <r>  -11.3157    1.0000 </r>
       <r>  -11.1793    1.0000 </r>
       <r>  -10.7793    1.0000 </r>
       <r>  -10.7556    1.0000 </r>
       <r>  -10.4122    1.0000 </r>
       <r>   -9.6936    1.0000 </r>
       <r>   -8.7159    1.0000 </r>
       <r>   -8.6484    1.0000 </r>
       <r>   -8.0776    1.0000 </r>
       <r>   -7.8916    1.0000 </r>
       <r>   -7.4147    1.0000 </r>
       <r>   -6.9887    1.0000 </r>
       <r>   -6.9040    1.0000 </r>
       <r>   -6.8826    1.0000 </r>
       <r>   -6.3163    1.0000 </r>
       <r>   -6.1660    1.0000 </r>
       <r>   -5.9846    1.0000 </r>
       <r>   -5.9448    1.0000 </r>
       <r>   -5.2103    1.0000 </r>
       <r>   -5.1346    1.0000 </r>
       <r>   -4.9245    1.0000 </r>
       <r>   -4.7853    1.0000 </r>
       <r>   -4.6950    1.0000 </r>
       <r>   -4.4881    1.0000 </r>
       <r>   -4.3120    1.0000 </r>
       <r>   -4.2213    1.0000 </r>
       <r>   -4.1551    1.0000 </r>
       <r>   -3.7849    1.0000 </r>
       <r>   -3.4991    1.0000 </r>
       <r>   -3.3945    1.0000 </r>
       <r>   -3.2440    1.0000 </r>
       <r>   -3.0941    1.0000 </r>
       <r>   -3.0251    1.0000 </r>
       <r>   -2.8426    1.0000 </r>
       <r>   -2.8148    1.0000 </r>
       <r>   -2.6267    1.0000 </r>
       <r>   -2.4616    1.0000 </r>
       <r>   -2.3546    1.0000 </r>
       <r>   -2.0584    1.0000 </r>
       <r>   -1.8941    1.0000 </r>
       <r>   -1.8752    1.0000 </r>
       <r>   -1.7254    1.0000 </r>
       <r>   -1.5733    1.0000 </r>
       <r>   -1.3782    1.0000 </r>
       <r>   -1.2707    1.0000 </r>
       <r>   -0.8583    1.0000 </r>
       <r>   -0.4710    1.0000 </r>
       <r>   -0.1520    1.0000 </r>
       <r>    0.2522    0.2458 </r>
       <r>    0.7042    0.0000 </r>
       <r>    1.1111    0.0000 </r>
       <r>    1.4542    0.0000 </r>
       <r>    1.6051    0.0000 </r>
       <r>    1.8040    0.0000 </r>
       <r>    1.9593    0.0000 </r>
       <r>    2.0081    0.0000 </r>
       <r>    2.1878    0.0000 </r>
       <r>    2.3107    0.0000 </r>
       <r>    2.3869    0.0000 </r>
       <r>    2.5070    0.0000 </r>
       <r>    2.6937    0.0000 </r>
       <r>    2.7812    0.0000 </r>
      </set>
      <set comment="kpoint 6">
       <r>  -13.9684    1.0000 </r>
       <r>  -12.0700    1.0000 </r>
       <r>  -11.8351    1.0000 </r>
       <r>  -11.5699    1.0000 </r>
       <r>  -11.2865    1.0000 </r>
       <r>  -11.2373    1.0000 </r>
       <r>  -10.9533    1.0000 </r>
       <r>  -10.8388    1.0000 </r>
       <r>  -10.6260    1.0000 </r>
       <r>  -10.5956    1.0000 </r>
       <r>  -10.4513    1.0000 </r>
       <r>   -9.6856    1.0000 </r>
       <r>   -8.9617    1.0000 </r>
       <r>   -8.8261    1.0000 </r>
       <r>   -8.3703    1.0000 </r>
       <r>   -8.0448    1.0000 </r>
       <r>   -7.6348    1.0000 </r>
       <r>   -7.4550    1.0000 </r>
       <r>   -7.4049    1.0000 </r>
       <r>   -7.2796    1.0000 </r>
       <r>   -6.8507    1.0000 </r>
       <r>   -6.7623    1.0000 </r>
       <r>   -6.6517    1.0000 </r>
       <r>   -6.3947    1.0000 </r>
       <r>   -5.2104    1.0000 </r>
       <r>   -5.2072    1.0000 </r>
       <r>   -4.8476    1.0000 </r>
       <r>   -4.6389    1.0000 </r>
       <r>   -4.5231    1.0000 </r>
       <r>   -4.4002    1.0000 </r>
       <r>   -4.2414    1.0000 </r>
       <r>   -4.1702    1.0000 </r>
       <r>   -4.0635    1.0000 </r>
       <r>   -3.8216    1.0000 </r>
       <r>   -3.6572    1.0000 </r>
       <r>   -3.6383    1.0000 </r>
       <r>   -3.2699    1.0000 </r>
       <r>   -3.1989    1.0000 </r>
       <r>   -3.1512    1.0000 </r>
       <r>   -3.0350    1.0000 </r>
       <r>   -2.7976    1.0000 </r>
       <r>   -2.6704    1.0000 </r>
       <r>   -2.4415    1.0000 </r>
       <r>   -2.3511    1.0000 </r>
       <r>   -2.2711    1.0000 </r>
       <r>   -2.0809    1.0000 </r>
       <r>   -2.0284    1.0000 </r>
       <r>   -1.8548    1.0000 </r>
       <r>   -1.7381    1.0000 </r>
       <r>   -1.6761    1.0000 </r>
       <r>   -1.3894    1.0000 </r>
       <r>   -1.1588    1.0000 </r>
       <r>   -0.6528    1.0000 </r>
       <r>   -0.5202    1.0000 </r>
       <r>    0.0470    0.9866 </r>
       <r>    0.4672    0.0001 </r>
       <r>    1.0898    0.0000 </r>
       <r>    1.3840    0.0000 </r>
       <r>    1.4559    0.0000 </r>
       <r>    1.7139    0.0000 </r>
       <r>    1.7442    0.0000 </r>
       <r>    1.7960    0.0000 </r>
       <r>    2.0548    0.0000 </r>
       <r>    2.1369    0.0000 </r>
       <r>    2.2569    0.0000 </r>
       <r>    2.3038    0.0000 </r>
       <r>    2.4292    0.0000 </r>
       <r>    2.6126    0.0000 </r>
      </set>
      <set comment="kpoint 7">
       <r>  -13.7263    1.0000 </r>
       <r>  -11.7781    1.0000 </r>
       <r>  -11.4959    1.0000 </r>
       <r>  -11.1481    1.0000 </r>
       <r>  -10.9465    1.0000 </r>
       <r>  -10.9312    1.0000 </r>
       <r>  -10.8424    1.0000 </r>
       <r>  -10.7289    1.0000 </r>
       <r>  -10.6751    1.0000 </r>
       <r>  -10.6283    1.0000 </r>
       <r>  -10.5958    1.0000 </r>
       <r>   -9.7345    1.0000 </r>
       <r>   -9.0931    1.0000 </r>
       <r>   -8.6864    1.0000 </r>
       <r>   -8.4317    1.0000 </r>
       <r>   -8.1851    1.0000 </r>
       <r>   -8.0745    1.0000 </r>
       <r>   -7.7488    1.0000 </r>
       <r>   -7.5603    1.0000 </r>
       <r>   -7.5008    1.0000 </r>
       <r>   -7.2787    1.0000 </r>
       <r>   -7.2318    1.0000 </r>
       <r>   -7.1828    1.0000 </r>
       <r>   -6.6970    1.0000 </r>
       <r>   -5.0346    1.0000 </r>
       <r>   -4.9159    1.0000 </r>
       <r>   -4.7004    1.0000 </r>
       <r>   -4.5045    1.0000 </r>
       <r>   -4.4241    1.0000 </r>
       <r>   -4.2570    1.0000 </r>
       <r>   -4.2281    1.0000 </r>
       <r>   -4.0522    1.0000 </r>
       <r>   -3.9451    1.0000 </r>
       <r>   -3.8350    1.0000 </r>
       <r>   -3.8054    1.0000 </r>
       <r>   -3.5904    1.0000 </r>
       <r>   -3.5406    1.0000 </r>
       <r>   -3.3503    1.0000 </r>
       <r>   -3.2547    1.0000 </r>
       <r>   -3.1479    1.0000 </r>
       <r>   -2.9979    1.0000 </r>
       <r>   -2.7020    1.0000 </r>
       <r>   -2.6037    1.0000 </r>
       <r>   -2.3656    1.0000 </r>
       <r>   -2.3271    1.0000 </r>
       <r>   -2.1741    1.0000 </r>
       <r>   -2.1061    1.0000 </r>
       <r>   -1.8864    1.0000 </r>
       <r>   -1.7246    1.0000 </r>
       <r>   -1.5875    1.0000 </r>
       <r>   -1.5179    1.0000 </r>
       <r>   -1.3611    1.0000 </r>
       <r>   -0.8944    1.0000 </r>
       <r>   -0.7036    1.0000 </r>
       <r>   -0.0194    0.9992 </r>
       <r>    0.3353    0.0313 </r>
       <r>    1.0131    0.0000 </r>
       <r>    1.3534    0.0000 </r>
       <r>    1.4111    0.0000 </r>
       <r>    1.6170    0.0000 </r>
       <r>    1.6430    0.0000 </r>
       <r>    1.7103    0.0000 </r>
       <r>    1.8675    0.0000 </r>
       <r>    2.0026    0.0000 </r>
       <r>    2.0819    0.0000 </r>
       <r>    2.3441    0.0000 </r>
       <r>    2.4003    0.0000 </r>
       <r>    2.4615    0.0000 </r>
      </set>
      <set comment="kpoint 8">
       <r>  -15.0778    1.0000 </r>
       <r>  -13.4798    1.0000 </r>
       <r>  -12.9746    1.0000 </r>
       <r>  -12.8591    1.0000 </r>
       <r>  -12.4768    1.0000 </r>
       <r>  -12.2910    1.0000 </r>
       <r>  -12.0785    1.0000 </r>
       <r>  -11.8630    1.0000 </r>
       <r>  -11.4741    1.0000 </r>
       <r>  -11.3890    1.0000 </r>
       <r>  -10.9973    1.0000 </r>
       <r>   -9.9703    1.0000 </r>
       <r>   -8.8294    1.0000 </r>
       <r>   -8.5123    1.0000 </r>
       <r>   -7.7049    1.0000 </r>
       <r>   -7.3728    1.0000 </r>
       <r>   -6.7244    1.0000 </r>
       <r>   -6.6619    1.0000 </r>
       <r>   -6.5947    1.0000 </r>
       <r>   -6.3188    1.0000 </r>
       <r>   -5.7487    1.0000 </r>
       <r>   -5.5179    1.0000 </r>
       <r>   -4.6945    1.0000 </r>
       <r>   -4.5920    1.0000 </r>
       <r>   -4.3754    1.0000 </r>
       <r>   -4.2103    1.0000 </r>
       <r>   -4.0161    1.0000 </r>
       <r>   -3.7584    1.0000 </r>
       <r>   -3.5721    1.0000 </r>
       <r>   -3.3725    1.0000 </r>
       <r>   -3.1219    1.0000 </r>
       <r>   -3.0585    1.0000 </r>
       <r>   -2.7454    1.0000 </r>
       <r>   -2.7089    1.0000 </r>
       <r>   -2.5774    1.0000 </r>
       <r>   -2.3867    1.0000 </r>
       <r>   -2.3826    1.0000 </r>
       <r>   -2.2988    1.0000 </r>
       <r>   -2.2377    1.0000 </r>
       <r>   -2.1459    1.0000 </r>
       <r>   -1.9827    1.0000 </r>
       <r>   -1.9453    1.0000 </r>
       <r>   -1.8746    1.0000 </r>
       <r>   -1.6208    1.0000 </r>
       <r>   -1.5908    1.0000 </r>
       <r>   -1.4931    1.0000 </r>
       <r>   -1.3604    1.0000 </r>
       <r>   -1.3118    1.0000 </r>
       <r>   -1.1385    1.0000 </r>
       <r>   -1.0231    1.0000 </r>
       <r>   -0.9634    1.0000 </r>
       <r>   -0.4006    1.0000 </r>
       <r>    0.0480    0.9861 </r>
       <r>    0.4202    0.0011 </r>
       <r>    0.7947    0.0000 </r>
       <r>    1.1368    0.0000 </r>
       <r>    1.2031    0.0000 </r>
       <r>    1.2974    0.0000 </r>
       <r>    1.4143    0.0000 </r>
       <r>    1.6520    0.0000 </r>
       <r>    1.7411    0.0000 </r>
       <r>    1.8431    0.0000 </r>
       <r>    1.9376    0.0000 </r>
       <r>    2.0072    0.0000 </r>
       <r>    2.1459    0.0000 </r>
       <r>    2.2684    0.0000 </r>
       <r>    2.5614    0.0000 </r>
       <r>    2.6303    0.0000 </r>
      </set>
      <set comment="kpoint 9">
       <r>  -15.0246    1.0000 </r>
       <r>  -13.4027    1.0000 </r>
       <r>  -12.9557    1.0000 </r>
       <r>  -12.8151    1.0000 </r>
       <r>  -12.4198    1.0000 </r>
       <r>  -12.2333    1.0000 </r>
       <r>  -12.0146    1.0000 </r>
       <r>  -11.7646    1.0000 </r>
       <r>  -11.4326    1.0000 </r>
       <r>  -11.3468    1.0000 </r>
       <r>  -10.9528    1.0000 </r>
       <r>   -9.9346    1.0000 </r>
       <r>   -8.8101    1.0000 </r>
       <r>   -8.5708    1.0000 </r>
       <r>   -7.7115    1.0000 </r>
       <r>   -7.3230    1.0000 </r>
       <r>   -6.7004    1.0000 </r>
       <r>   -6.6691    1.0000 </r>
       <r>   -6.5287    1.0000 </r>
       <r>   -6.2934    1.0000 </r>
       <r>   -5.7006    1.0000 </r>
       <r>   -5.4833    1.0000 </r>
       <r>   -4.9638    1.0000 </r>
       <r>   -4.6906    1.0000 </r>
       <r>   -4.5163    1.0000 </r>
       <r>   -4.1516    1.0000 </r>
       <r>   -4.0667    1.0000 </r>
       <r>   -3.7465    1.0000 </r>
       <r>   -3.6324    1.0000 </r>
       <r>   -3.5417    1.0000 </r>
       <r>   -3.3870    1.0000 </r>
       <r>   -3.1586    1.0000 </r>
       <r>   -3.0259    1.0000 </r>
       <r>   -2.9528    1.0000 </r>
       <r>   -2.7576    1.0000 </r>
       <r>   -2.6792    1.0000 </r>
       <r>   -2.5142    1.0000 </r>
       <r>   -2.4877    1.0000 </r>
       <r>   -2.3918    1.0000 </r>
       <r>   -2.2955    1.0000 </r>
       <r>   -2.2329    1.0000 </r>
       <r>   -2.1484    1.0000 </r>
       <r>   -2.0119    1.0000 </r>
       <r>   -1.9121    1.0000 </r>
       <r>   -1.8358    1.0000 </r>
       <r>   -1.7521    1.0000 </r>
       <r>   -1.4456    1.0000 </r>
       <r>   -1.2928    1.0000 </r>
       <r>   -1.0831    1.0000 </r>
       <r>   -0.9614    1.0000 </r>
       <r>   -0.9035    1.0000 </r>
       <r>   -0.0573    0.9999 </r>
       <r>    0.0954    0.9371 </r>
       <r>    0.4735    0.0001 </r>
       <r>    0.8510    0.0000 </r>
       <r>    0.9408    0.0000 </r>
       <r>    1.3183    0.0000 </r>
       <r>    1.5858    0.0000 </r>
       <r>    1.6922    0.0000 </r>
       <r>    1.7949    0.0000 </r>
       <r>    1.9513    0.0000 </r>
       <r>    2.0230    0.0000 </r>
       <r>    2.2069    0.0000 </r>
       <r>    2.2712    0.0000 </r>
       <r>    2.4086    0.0000 </r>
       <r>    2.5350    0.0000 </r>
       <r>    2.6617    0.0000 </r>
       <r>    2.8635    0.0000 </r>
      </set>
      <set comment="kpoint 10">
       <r>  -14.8684    1.0000 </r>
       <r>  -13.2058    1.0000 </r>
       <r>  -12.8194    1.0000 </r>
       <r>  -12.6651    1.0000 </r>
       <r>  -12.2534    1.0000 </r>
       <r>  -12.0760    1.0000 </r>
       <r>  -11.8533    1.0000 </r>
       <r>  -11.5677    1.0000 </r>
       <r>  -11.2930    1.0000 </r>
       <r>  -11.2140    1.0000 </r>
       <r>  -10.8113    1.0000 </r>
       <r>   -9.8553    1.0000 </r>
       <r>   -8.7215    1.0000 </r>
       <r>   -8.6353    1.0000 </r>
       <r>   -7.7076    1.0000 </r>
       <r>   -7.2922    1.0000 </r>
       <r>   -6.7510    1.0000 </r>
       <r>   -6.6508    1.0000 </r>
       <r>   -6.5037    1.0000 </r>
       <r>   -6.3097    1.0000 </r>
       <r>   -5.7468    1.0000 </r>
       <r>   -5.6505    1.0000 </r>
       <r>   -5.3369    1.0000 </r>
       <r>   -4.8356    1.0000 </r>
       <r>   -4.6237    1.0000 </r>
       <r>   -4.3755    1.0000 </r>
       <r>   -4.2963    1.0000 </r>
       <r>   -4.1590    1.0000 </r>
       <r>   -3.9795    1.0000 </r>
       <r>   -3.9216    1.0000 </r>
       <r>   -3.7540    1.0000 </r>
       <r>   -3.6330    1.0000 </r>
       <r>   -3.4812    1.0000 </r>
       <r>   -3.2425    1.0000 </r>
       <r>   -3.0993    1.0000 </r>
       <r>   -2.9635    1.0000 </r>
       <r>   -2.9524    1.0000 </r>
       <r>   -2.8302    1.0000 </r>
       <r>   -2.8024    1.0000 </r>
       <r>   -2.6393    1.0000 </r>
       <r>   -2.5864    1.0000 </r>
       <r>   -2.4284    1.0000 </r>
       <r>   -2.3510    1.0000 </r>
       <r>   -2.2627    1.0000 </r>
       <r>   -1.9678    1.0000 </r>
       <r>   -1.8882    1.0000 </r>
       <r>   -1.5026    1.0000 </r>
       <r>   -1.3583    1.0000 </r>
       <r>   -1.1332    1.0000 </r>
       <r>   -0.9637    1.0000 </r>
       <r>   -0.8996    1.0000 </r>
       <r>   -0.0017    0.9982 </r>
       <r>    0.0473    0.9865 </r>
       <r>    0.3717    0.0087 </r>
       <r>    0.8234    0.0000 </r>
       <r>    0.9630    0.0000 </r>
       <r>    1.2625    0.0000 </r>
       <r>    1.5027    0.0000 </r>
       <r>    1.6994    0.0000 </r>
       <r>    1.9440    0.0000 </r>
       <r>    2.1198    0.0000 </r>
       <r>    2.3381    0.0000 </r>
       <r>    2.4570    0.0000 </r>
       <r>    2.6870    0.0000 </r>
       <r>    2.7726    0.0000 </r>
       <r>    2.9423    0.0000 </r>
       <r>    3.0589    0.0000 </r>
       <r>    3.0891    0.0000 </r>
      </set>
      <set comment="kpoint 11">
       <r>  -14.6198    1.0000 </r>
       <r>  -12.8940    1.0000 </r>
       <r>  -12.5684    1.0000 </r>
       <r>  -12.4209    1.0000 </r>
       <r>  -11.9854    1.0000 </r>
       <r>  -11.8329    1.0000 </r>
       <r>  -11.6085    1.0000 </r>
       <r>  -11.2921    1.0000 </r>
       <r>  -11.0711    1.0000 </r>
       <r>  -11.0096    1.0000 </r>
       <r>  -10.5939    1.0000 </r>
       <r>   -9.7629    1.0000 </r>
       <r>   -8.7686    1.0000 </r>
       <r>   -8.6087    1.0000 </r>
       <r>   -7.7767    1.0000 </r>
       <r>   -7.3817    1.0000 </r>
       <r>   -7.1493    1.0000 </r>
       <r>   -6.6897    1.0000 </r>
       <r>   -6.6448    1.0000 </r>
       <r>   -6.4209    1.0000 </r>
       <r>   -6.0140    1.0000 </r>
       <r>   -5.8218    1.0000 </r>
       <r>   -5.6283    1.0000 </r>
       <r>   -5.1995    1.0000 </r>
       <r>   -5.0282    1.0000 </r>
       <r>   -4.7805    1.0000 </r>
       <r>   -4.6649    1.0000 </r>
       <r>   -4.5938    1.0000 </r>
       <r>   -4.5387    1.0000 </r>
       <r>   -4.4130    1.0000 </r>
       <r>   -4.1061    1.0000 </r>
       <r>   -4.0026    1.0000 </r>
       <r>   -3.7466    1.0000 </r>
       <r>   -3.6346    1.0000 </r>
       <r>   -3.4090    1.0000 </r>
       <r>   -3.2389    1.0000 </r>
       <r>   -3.1961    1.0000 </r>
       <r>   -3.0887    1.0000 </r>
       <r>   -2.8672    1.0000 </r>
       <r>   -2.6835    1.0000 </r>
       <r>   -2.6160    1.0000 </r>
       <r>   -2.5344    1.0000 </r>
       <r>   -2.5210    1.0000 </r>
       <r>   -2.3175    1.0000 </r>
       <r>   -1.9898    1.0000 </r>
       <r>   -1.9123    1.0000 </r>
       <r>   -1.7724    1.0000 </r>
       <r>   -1.4388    1.0000 </r>
       <r>   -1.3742    1.0000 </r>
       <r>   -1.1137    1.0000 </r>
       <r>   -1.0211    1.0000 </r>
       <r>   -0.5026    1.0000 </r>
       <r>   -0.2636    1.0000 </r>
       <r>   -0.0389    0.9997 </r>
       <r>    0.5233    0.0000 </r>
       <r>    0.8142    0.0000 </r>
       <r>    1.1964    0.0000 </r>
       <r>    1.3688    0.0000 </r>
       <r>    1.4960    0.0000 </r>
       <r>    1.6229    0.0000 </r>
       <r>    2.0888    0.0000 </r>
       <r>    2.2344    0.0000 </r>
       <r>    2.4762    0.0000 </r>
       <r>    2.6088    0.0000 </r>
       <r>    2.7029    0.0000 </r>
       <r>    2.8032    0.0000 </r>
       <r>    3.0471    0.0000 </r>
       <r>    3.1963    0.0000 </r>
      </set>
      <set comment="kpoint 12">
       <r>  -14.3021    1.0000 </r>
       <r>  -12.4768    1.0000 </r>
       <r>  -12.2099    1.0000 </r>
       <r>  -12.1165    1.0000 </r>
       <r>  -11.6335    1.0000 </r>
       <r>  -11.5414    1.0000 </r>
       <r>  -11.3013    1.0000 </r>
       <r>  -10.9795    1.0000 </r>
       <r>  -10.8073    1.0000 </r>
       <r>  -10.7761    1.0000 </r>
       <r>  -10.3882    1.0000 </r>
       <r>   -9.7048    1.0000 </r>
       <r>   -8.9665    1.0000 </r>
       <r>   -8.6646    1.0000 </r>
       <r>   -7.8989    1.0000 </r>
       <r>   -7.6984    1.0000 </r>
       <r>   -7.5543    1.0000 </r>
       <r>   -7.1106    1.0000 </r>
       <r>   -6.9533    1.0000 </r>
       <r>   -6.6793    1.0000 </r>
       <r>   -6.3908    1.0000 </r>
       <r>   -6.1963    1.0000 </r>
       <r>   -6.1318    1.0000 </r>
       <r>   -5.9067    1.0000 </r>
       <r>   -5.3802    1.0000 </r>
       <r>   -5.1066    1.0000 </r>
       <r>   -4.9388    1.0000 </r>
       <r>   -4.8641    1.0000 </r>
       <r>   -4.4809    1.0000 </r>
       <r>   -4.4220    1.0000 </r>
       <r>   -4.3629    1.0000 </r>
       <r>   -4.2513    1.0000 </r>
       <r>   -4.0114    1.0000 </r>
       <r>   -3.7163    1.0000 </r>
       <r>   -3.4422    1.0000 </r>
       <r>   -3.3380    1.0000 </r>
       <r>   -3.1209    1.0000 </r>
       <r>   -3.0016    1.0000 </r>
       <r>   -2.9390    1.0000 </r>
       <r>   -2.8663    1.0000 </r>
       <r>   -2.7130    1.0000 </r>
       <r>   -2.5446    1.0000 </r>
       <r>   -2.4242    1.0000 </r>
       <r>   -2.3440    1.0000 </r>
       <r>   -2.2386    1.0000 </r>
       <r>   -1.9583    1.0000 </r>
       <r>   -1.8961    1.0000 </r>
       <r>   -1.7532    1.0000 </r>
       <r>   -1.6308    1.0000 </r>
       <r>   -1.3645    1.0000 </r>
       <r>   -1.2688    1.0000 </r>
       <r>   -0.8706    1.0000 </r>
       <r>   -0.6697    1.0000 </r>
       <r>   -0.4066    1.0000 </r>
       <r>    0.1414    0.8104 </r>
       <r>    0.5039    0.0000 </r>
       <r>    0.9797    0.0000 </r>
       <r>    1.2194    0.0000 </r>
       <r>    1.2861    0.0000 </r>
       <r>    1.4477    0.0000 </r>
       <r>    1.8950    0.0000 </r>
       <r>    2.1767    0.0000 </r>
       <r>    2.2758    0.0000 </r>
       <r>    2.4058    0.0000 </r>
       <r>    2.4724    0.0000 </r>
       <r>    2.6142    0.0000 </r>
       <r>    2.7991    0.0000 </r>
       <r>    2.9569    0.0000 </r>
      </set>
      <set comment="kpoint 13">
       <r>  -13.9675    1.0000 </r>
       <r>  -11.9730    1.0000 </r>
       <r>  -11.8541    1.0000 </r>
       <r>  -11.7604    1.0000 </r>
       <r>  -11.2563    1.0000 </r>
       <r>  -11.2363    1.0000 </r>
       <r>  -10.9574    1.0000 </r>
       <r>  -10.7229    1.0000 </r>
       <r>  -10.5977    1.0000 </r>
       <r>  -10.5927    1.0000 </r>
       <r>  -10.4644    1.0000 </r>
       <r>   -9.7069    1.0000 </r>
       <r>   -8.9569    1.0000 </r>
       <r>   -8.9158    1.0000 </r>
       <r>   -8.1044    1.0000 </r>
       <r>   -8.0123    1.0000 </r>
       <r>   -7.7784    1.0000 </r>
       <r>   -7.7215    1.0000 </r>
       <r>   -7.3472    1.0000 </r>
       <r>   -7.0897    1.0000 </r>
       <r>   -6.9258    1.0000 </r>
       <r>   -6.6915    1.0000 </r>
       <r>   -6.6609    1.0000 </r>
       <r>   -6.5937    1.0000 </r>
       <r>   -5.3440    1.0000 </r>
       <r>   -5.2275    1.0000 </r>
       <r>   -4.7971    1.0000 </r>
       <r>   -4.7719    1.0000 </r>
       <r>   -4.4920    1.0000 </r>
       <r>   -4.4182    1.0000 </r>
       <r>   -4.1567    1.0000 </r>
       <r>   -4.1053    1.0000 </r>
       <r>   -3.8573    1.0000 </r>
       <r>   -3.7462    1.0000 </r>
       <r>   -3.5350    1.0000 </r>
       <r>   -3.3530    1.0000 </r>
       <r>   -3.2787    1.0000 </r>
       <r>   -3.1829    1.0000 </r>
       <r>   -3.1287    1.0000 </r>
       <r>   -2.9475    1.0000 </r>
       <r>   -2.8999    1.0000 </r>
       <r>   -2.7466    1.0000 </r>
       <r>   -2.5316    1.0000 </r>
       <r>   -2.3022    1.0000 </r>
       <r>   -2.2593    1.0000 </r>
       <r>   -2.0960    1.0000 </r>
       <r>   -2.0584    1.0000 </r>
       <r>   -1.8694    1.0000 </r>
       <r>   -1.7293    1.0000 </r>
       <r>   -1.5760    1.0000 </r>
       <r>   -1.4474    1.0000 </r>
       <r>   -1.1822    1.0000 </r>
       <r>   -0.8936    1.0000 </r>
       <r>   -0.7275    1.0000 </r>
       <r>   -0.0537    0.9999 </r>
       <r>    0.2981    0.0906 </r>
       <r>    0.8374    0.0000 </r>
       <r>    1.1898    0.0000 </r>
       <r>    1.3287    0.0000 </r>
       <r>    1.5003    0.0000 </r>
       <r>    1.7112    0.0000 </r>
       <r>    1.8263    0.0000 </r>
       <r>    2.0496    0.0000 </r>
       <r>    2.1630    0.0000 </r>
       <r>    2.2390    0.0000 </r>
       <r>    2.5349    0.0000 </r>
       <r>    2.6345    0.0000 </r>
       <r>    2.6842    0.0000 </r>
      </set>
      <set comment="kpoint 14">
       <r>  -13.7260    1.0000 </r>
       <r>  -11.7787    1.0000 </r>
       <r>  -11.4228    1.0000 </r>
       <r>  -11.2660    1.0000 </r>
       <r>  -10.9572    1.0000 </r>
       <r>  -10.9449    1.0000 </r>
       <r>  -10.8617    1.0000 </r>
       <r>  -10.7008    1.0000 </r>
       <r>  -10.6702    1.0000 </r>
       <r>  -10.5898    1.0000 </r>
       <r>  -10.5729    1.0000 </r>
       <r>   -9.7391    1.0000 </r>
       <r>   -9.0844    1.0000 </r>
       <r>   -8.5523    1.0000 </r>
       <r>   -8.3960    1.0000 </r>
       <r>   -8.3207    1.0000 </r>
       <r>   -8.1884    1.0000 </r>
       <r>   -7.7305    1.0000 </r>
       <r>   -7.5058    1.0000 </r>
       <r>   -7.4145    1.0000 </r>
       <r>   -7.3074    1.0000 </r>
       <r>   -7.2657    1.0000 </r>
       <r>   -7.1446    1.0000 </r>
       <r>   -6.8227    1.0000 </r>
       <r>   -5.0863    1.0000 </r>
       <r>   -5.0178    1.0000 </r>
       <r>   -4.6654    1.0000 </r>
       <r>   -4.4687    1.0000 </r>
       <r>   -4.4064    1.0000 </r>
       <r>   -4.1937    1.0000 </r>
       <r>   -4.1780    1.0000 </r>
       <r>   -4.1189    1.0000 </r>
       <r>   -3.9266    1.0000 </r>
       <r>   -3.7674    1.0000 </r>
       <r>   -3.6639    1.0000 </r>
       <r>   -3.5504    1.0000 </r>
       <r>   -3.4856    1.0000 </r>
       <r>   -3.3399    1.0000 </r>
       <r>   -3.2603    1.0000 </r>
       <r>   -3.1704    1.0000 </r>
       <r>   -2.9848    1.0000 </r>
       <r>   -2.6833    1.0000 </r>
       <r>   -2.6104    1.0000 </r>
       <r>   -2.5481    1.0000 </r>
       <r>   -2.3458    1.0000 </r>
       <r>   -2.1212    1.0000 </r>
       <r>   -2.1114    1.0000 </r>
       <r>   -1.8666    1.0000 </r>
       <r>   -1.6995    1.0000 </r>
       <r>   -1.6256    1.0000 </r>
       <r>   -1.5015    1.0000 </r>
       <r>   -1.3272    1.0000 </r>
       <r>   -0.9182    1.0000 </r>
       <r>   -0.8481    1.0000 </r>
       <r>   -0.0694    0.9999 </r>
       <r>    0.2033    0.5016 </r>
       <r>    0.8635    0.0000 </r>
       <r>    1.3883    0.0000 </r>
       <r>    1.4799    0.0000 </r>
       <r>    1.5162    0.0000 </r>
       <r>    1.5795    0.0000 </r>
       <r>    1.6758    0.0000 </r>
       <r>    1.8016    0.0000 </r>
       <r>    2.0757    0.0000 </r>
       <r>    2.1973    0.0000 </r>
       <r>    2.3910    0.0000 </r>
       <r>    2.4474    0.0000 </r>
       <r>    2.4891    0.0000 </r>
      </set>
      <set comment="kpoint 15">
       <r>  -13.7264    1.0000 </r>
       <r>  -11.7771    1.0000 </r>
       <r>  -11.5300    1.0000 </r>
       <r>  -11.0723    1.0000 </r>
       <r>  -10.9449    1.0000 </r>
       <r>  -10.9180    1.0000 </r>
       <r>  -10.8076    1.0000 </r>
       <r>  -10.7501    1.0000 </r>
       <r>  -10.7037    1.0000 </r>
       <r>  -10.6588    1.0000 </r>
       <r>  -10.6130    1.0000 </r>
       <r>   -9.7300    1.0000 </r>
       <r>   -9.1081    1.0000 </r>
       <r>   -8.7548    1.0000 </r>
       <r>   -8.4254    1.0000 </r>
       <r>   -8.1629    1.0000 </r>
       <r>   -7.9393    1.0000 </r>
       <r>   -7.7320    1.0000 </r>
       <r>   -7.5938    1.0000 </r>
       <r>   -7.5131    1.0000 </r>
       <r>   -7.2800    1.0000 </r>
       <r>   -7.2716    1.0000 </r>
       <r>   -7.2147    1.0000 </r>
       <r>   -6.6727    1.0000 </r>
       <r>   -5.0479    1.0000 </r>
       <r>   -4.7364    1.0000 </r>
       <r>   -4.6156    1.0000 </r>
       <r>   -4.5731    1.0000 </r>
       <r>   -4.4727    1.0000 </r>
       <r>   -4.3527    1.0000 </r>
       <r>   -4.2398    1.0000 </r>
       <r>   -4.0040    1.0000 </r>
       <r>   -3.9933    1.0000 </r>
       <r>   -3.8844    1.0000 </r>
       <r>   -3.7569    1.0000 </r>
       <r>   -3.6475    1.0000 </r>
       <r>   -3.5409    1.0000 </r>
       <r>   -3.3838    1.0000 </r>
       <r>   -3.3402    1.0000 </r>
       <r>   -3.1890    1.0000 </r>
       <r>   -2.8106    1.0000 </r>
       <r>   -2.7038    1.0000 </r>
       <r>   -2.6458    1.0000 </r>
       <r>   -2.3857    1.0000 </r>
       <r>   -2.3694    1.0000 </r>
       <r>   -2.1682    1.0000 </r>
       <r>   -2.1108    1.0000 </r>
       <r>   -1.9032    1.0000 </r>
       <r>   -1.7633    1.0000 </r>
       <r>   -1.6166    1.0000 </r>
       <r>   -1.4682    1.0000 </r>
       <r>   -1.2714    1.0000 </r>
       <r>   -0.8560    1.0000 </r>
       <r>   -0.6412    1.0000 </r>
       <r>   -0.0036    0.9983 </r>
       <r>    0.2718    0.1675 </r>
       <r>    1.0065    0.0000 </r>
       <r>    1.3483    0.0000 </r>
       <r>    1.4596    0.0000 </r>
       <r>    1.6720    0.0000 </r>
       <r>    1.7137    0.0000 </r>
       <r>    1.7948    0.0000 </r>
       <r>    1.8056    0.0000 </r>
       <r>    2.0494    0.0000 </r>
       <r>    2.2619    0.0000 </r>
       <r>    2.3072    0.0000 </r>
       <r>    2.3705    0.0000 </r>
       <r>    2.5721    0.0000 </r>
      </set>
      <set comment="kpoint 16">
       <r>  -13.9687    1.0000 </r>
       <r>  -12.0967    1.0000 </r>
       <r>  -11.8255    1.0000 </r>
       <r>  -11.4859    1.0000 </r>
       <r>  -11.3049    1.0000 </r>
       <r>  -11.2346    1.0000 </r>
       <r>  -10.9593    1.0000 </r>
       <r>  -10.9017    1.0000 </r>
       <r>  -10.6296    1.0000 </r>
       <r>  -10.5973    1.0000 </r>
       <r>  -10.4467    1.0000 </r>
       <r>   -9.6883    1.0000 </r>
       <r>   -8.9657    1.0000 </r>
       <r>   -8.7389    1.0000 </r>
       <r>   -8.4830    1.0000 </r>
       <r>   -8.0249    1.0000 </r>
       <r>   -7.6324    1.0000 </r>
       <r>   -7.4303    1.0000 </r>
       <r>   -7.3337    1.0000 </r>
       <r>   -7.3210    1.0000 </r>
       <r>   -6.8433    1.0000 </r>
       <r>   -6.8141    1.0000 </r>
       <r>   -6.6530    1.0000 </r>
       <r>   -6.3427    1.0000 </r>
       <r>   -5.2066    1.0000 </r>
       <r>   -5.0476    1.0000 </r>
       <r>   -4.8530    1.0000 </r>
       <r>   -4.7969    1.0000 </r>
       <r>   -4.5279    1.0000 </r>
       <r>   -4.3951    1.0000 </r>
       <r>   -4.2690    1.0000 </r>
       <r>   -4.1154    1.0000 </r>
       <r>   -4.0694    1.0000 </r>
       <r>   -3.7311    1.0000 </r>
       <r>   -3.7180    1.0000 </r>
       <r>   -3.6473    1.0000 </r>
       <r>   -3.4035    1.0000 </r>
       <r>   -3.2656    1.0000 </r>
       <r>   -3.1759    1.0000 </r>
       <r>   -3.1055    1.0000 </r>
       <r>   -2.7737    1.0000 </r>
       <r>   -2.6291    1.0000 </r>
       <r>   -2.4859    1.0000 </r>
       <r>   -2.4210    1.0000 </r>
       <r>   -2.2397    1.0000 </r>
       <r>   -2.0777    1.0000 </r>
       <r>   -1.9477    1.0000 </r>
       <r>   -1.8366    1.0000 </r>
       <r>   -1.7928    1.0000 </r>
       <r>   -1.6227    1.0000 </r>
       <r>   -1.3635    1.0000 </r>
       <r>   -1.1242    1.0000 </r>
       <r>   -0.7270    1.0000 </r>
       <r>   -0.3186    1.0000 </r>
       <r>    0.1022    0.9243 </r>
       <r>    0.4682    0.0001 </r>
       <r>    1.1524    0.0000 </r>
       <r>    1.3460    0.0000 </r>
       <r>    1.5080    0.0000 </r>
       <r>    1.7506    0.0000 </r>
       <r>    1.8686    0.0000 </r>
       <r>    1.9104    0.0000 </r>
       <r>    2.0626    0.0000 </r>
       <r>    2.1232    0.0000 </r>
       <r>    2.2477    0.0000 </r>
       <r>    2.3053    0.0000 </r>
       <r>    2.4321    0.0000 </r>
       <r>    2.6138    0.0000 </r>
      </set>
      <set comment="kpoint 17">
       <r>  -14.3038    1.0000 </r>
       <r>  -12.5908    1.0000 </r>
       <r>  -12.0572    1.0000 </r>
       <r>  -11.9473    1.0000 </r>
       <r>  -11.6406    1.0000 </r>
       <r>  -11.6210    1.0000 </r>
       <r>  -11.3212    1.0000 </r>
       <r>  -11.2201    1.0000 </r>
       <r>  -10.7712    1.0000 </r>
       <r>  -10.7505    1.0000 </r>
       <r>  -10.4183    1.0000 </r>
       <r>   -9.7009    1.0000 </r>
       <r>   -8.6907    1.0000 </r>
       <r>   -8.5503    1.0000 </r>
       <r>   -8.1800    1.0000 </r>
       <r>   -7.9440    1.0000 </r>
       <r>   -7.3339    1.0000 </r>
       <r>   -6.9932    1.0000 </r>
       <r>   -6.9537    1.0000 </r>
       <r>   -6.8624    1.0000 </r>
       <r>   -6.3010    1.0000 </r>
       <r>   -6.1610    1.0000 </r>
       <r>   -5.9840    1.0000 </r>
       <r>   -5.9539    1.0000 </r>
       <r>   -5.1827    1.0000 </r>
       <r>   -5.1338    1.0000 </r>
       <r>   -4.8908    1.0000 </r>
       <r>   -4.8582    1.0000 </r>
       <r>   -4.6457    1.0000 </r>
       <r>   -4.5356    1.0000 </r>
       <r>   -4.3083    1.0000 </r>
       <r>   -4.2395    1.0000 </r>
       <r>   -4.0857    1.0000 </r>
       <r>   -3.7505    1.0000 </r>
       <r>   -3.5474    1.0000 </r>
       <r>   -3.4550    1.0000 </r>
       <r>   -3.2753    1.0000 </r>
       <r>   -3.0976    1.0000 </r>
       <r>   -3.0404    1.0000 </r>
       <r>   -2.8345    1.0000 </r>
       <r>   -2.7799    1.0000 </r>
       <r>   -2.6553    1.0000 </r>
       <r>   -2.4869    1.0000 </r>
       <r>   -2.3646    1.0000 </r>
       <r>   -2.0234    1.0000 </r>
       <r>   -1.8844    1.0000 </r>
       <r>   -1.8705    1.0000 </r>
       <r>   -1.7217    1.0000 </r>
       <r>   -1.6111    1.0000 </r>
       <r>   -1.3093    1.0000 </r>
       <r>   -1.2606    1.0000 </r>
       <r>   -0.9242    1.0000 </r>
       <r>   -0.5208    1.0000 </r>
       <r>   -0.0601    0.9999 </r>
       <r>    0.2751    0.1559 </r>
       <r>    0.7172    0.0000 </r>
       <r>    1.2061    0.0000 </r>
       <r>    1.5070    0.0000 </r>
       <r>    1.6504    0.0000 </r>
       <r>    1.8736    0.0000 </r>
       <r>    1.9567    0.0000 </r>
       <r>    2.0252    0.0000 </r>
       <r>    2.2210    0.0000 </r>
       <r>    2.3235    0.0000 </r>
       <r>    2.3780    0.0000 </r>
       <r>    2.4344    0.0000 </r>
       <r>    2.6827    0.0000 </r>
       <r>    2.7516    0.0000 </r>
      </set>
      <set comment="kpoint 18">
       <r>  -14.6215    1.0000 </r>
       <r>  -12.9860    1.0000 </r>
       <r>  -12.3653    1.0000 </r>
       <r>  -12.3511    1.0000 </r>
       <r>  -11.9907    1.0000 </r>
       <r>  -11.8923    1.0000 </r>
       <r>  -11.6493    1.0000 </r>
       <r>  -11.5183    1.0000 </r>
       <r>  -11.0262    1.0000 </r>
       <r>  -10.9815    1.0000 </r>
       <r>  -10.5971    1.0000 </r>
       <r>   -9.7789    1.0000 </r>
       <r>   -8.5781    1.0000 </r>
       <r>   -8.3943    1.0000 </r>
       <r>   -7.7762    1.0000 </r>
       <r>   -7.7515    1.0000 </r>
       <r>   -6.9559    1.0000 </r>
       <r>   -6.7033    1.0000 </r>
       <r>   -6.6563    1.0000 </r>
       <r>   -6.6271    1.0000 </r>
       <r>   -6.0580    1.0000 </r>
       <r>   -5.7405    1.0000 </r>
       <r>   -5.5804    1.0000 </r>
       <r>   -5.3289    1.0000 </r>
       <r>   -4.9639    1.0000 </r>
       <r>   -4.8257    1.0000 </r>
       <r>   -4.5930    1.0000 </r>
       <r>   -4.5157    1.0000 </r>
       <r>   -4.4485    1.0000 </r>
       <r>   -4.2262    1.0000 </r>
       <r>   -4.1716    1.0000 </r>
       <r>   -4.0803    1.0000 </r>
       <r>   -3.7881    1.0000 </r>
       <r>   -3.6567    1.0000 </r>
       <r>   -3.4734    1.0000 </r>
       <r>   -3.4382    1.0000 </r>
       <r>   -3.2538    1.0000 </r>
       <r>   -3.1371    1.0000 </r>
       <r>   -2.9856    1.0000 </r>
       <r>   -2.7069    1.0000 </r>
       <r>   -2.5538    1.0000 </r>
       <r>   -2.5007    1.0000 </r>
       <r>   -2.4318    1.0000 </r>
       <r>   -2.3419    1.0000 </r>
       <r>   -1.9044    1.0000 </r>
       <r>   -1.8339    1.0000 </r>
       <r>   -1.7486    1.0000 </r>
       <r>   -1.4672    1.0000 </r>
       <r>   -1.3190    1.0000 </r>
       <r>   -1.1520    1.0000 </r>
       <r>   -1.0513    1.0000 </r>
       <r>   -0.5794    1.0000 </r>
       <r>   -0.1883    1.0000 </r>
       <r>    0.1846    0.6060 </r>
       <r>    0.4869    0.0000 </r>
       <r>    0.9947    0.0000 </r>
       <r>    1.1778    0.0000 </r>
       <r>    1.6701    0.0000 </r>
       <r>    1.8432    0.0000 </r>
       <r>    1.9455    0.0000 </r>
       <r>    2.0510    0.0000 </r>
       <r>    2.2361    0.0000 </r>
       <r>    2.4002    0.0000 </r>
       <r>    2.5060    0.0000 </r>
       <r>    2.6921    0.0000 </r>
       <r>    2.7310    0.0000 </r>
       <r>    2.9089    0.0000 </r>
       <r>    2.9488    0.0000 </r>
      </set>
      <set comment="kpoint 19">
       <r>  -14.8697    1.0000 </r>
       <r>  -13.2696    1.0000 </r>
       <r>  -12.6666    1.0000 </r>
       <r>  -12.6250    1.0000 </r>
       <r>  -12.2576    1.0000 </r>
       <r>  -12.1086    1.0000 </r>
       <r>  -11.8940    1.0000 </r>
       <r>  -11.7372    1.0000 </r>
       <r>  -11.2581    1.0000 </r>
       <r>  -11.1931    1.0000 </r>
       <r>  -10.7997    1.0000 </r>
       <r>   -9.8781    1.0000 </r>
       <r>   -8.6685    1.0000 </r>
[...]
       <r>    2.7265    0.0000 </r>
      </set>
      <set comment="kpoint 54">
       <r>  -13.7262    1.0000 </r>
       <r>  -11.7777    1.0000 </r>
       <r>  -11.4843    1.0000 </r>
       <r>  -11.1702    1.0000 </r>
       <r>  -10.9552    1.0000 </r>
       <r>  -10.9342    1.0000 </r>
       <r>  -10.8479    1.0000 </r>
       <r>  -10.7223    1.0000 </r>
       <r>  -10.6590    1.0000 </r>
       <r>  -10.6148    1.0000 </r>
       <r>  -10.6045    1.0000 </r>
       <r>   -9.7348    1.0000 </r>
       <r>   -9.0990    1.0000 </r>
       <r>   -8.6637    1.0000 </r>
       <r>   -8.4322    1.0000 </r>
       <r>   -8.1663    1.0000 </r>
       <r>   -8.1143    1.0000 </r>
       <r>   -7.7175    1.0000 </r>
       <r>   -7.5500    1.0000 </r>
       <r>   -7.4323    1.0000 </r>
       <r>   -7.3025    1.0000 </r>
       <r>   -7.2761    1.0000 </r>
       <r>   -7.1733    1.0000 </r>
       <r>   -6.8016    1.0000 </r>
       <r>   -5.0778    1.0000 </r>
       <r>   -4.9434    1.0000 </r>
       <r>   -4.6451    1.0000 </r>
       <r>   -4.4822    1.0000 </r>
       <r>   -4.4541    1.0000 </r>
       <r>   -4.2538    1.0000 </r>
       <r>   -4.0730    1.0000 </r>
       <r>   -4.0324    1.0000 </r>
       <r>   -3.9419    1.0000 </r>
       <r>   -3.7736    1.0000 </r>
       <r>   -3.7615    1.0000 </r>
       <r>   -3.6299    1.0000 </r>
       <r>   -3.5434    1.0000 </r>
       <r>   -3.4064    1.0000 </r>
       <r>   -3.2614    1.0000 </r>
       <r>   -3.1364    1.0000 </r>
       <r>   -3.0198    1.0000 </r>
       <r>   -2.7113    1.0000 </r>
       <r>   -2.6044    1.0000 </r>
       <r>   -2.3856    1.0000 </r>
       <r>   -2.3548    1.0000 </r>
       <r>   -2.1763    1.0000 </r>
       <r>   -2.0900    1.0000 </r>
       <r>   -1.8883    1.0000 </r>
       <r>   -1.7646    1.0000 </r>
       <r>   -1.6520    1.0000 </r>
       <r>   -1.4919    1.0000 </r>
       <r>   -1.2014    1.0000 </r>
       <r>   -1.0622    1.0000 </r>
       <r>   -0.6258    1.0000 </r>
       <r>   -0.0592    0.9999 </r>
       <r>    0.2084    0.4728 </r>
       <r>    0.8059    0.0000 </r>
       <r>    1.3314    0.0000 </r>
       <r>    1.5262    0.0000 </r>
       <r>    1.5901    0.0000 </r>
       <r>    1.6661    0.0000 </r>
       <r>    1.7302    0.0000 </r>
       <r>    1.8909    0.0000 </r>
       <r>    1.9797    0.0000 </r>
       <r>    2.0612    0.0000 </r>
       <r>    2.3574    0.0000 </r>
       <r>    2.4687    0.0000 </r>
       <r>    2.5910    0.0000 </r>
      </set>
     </set>
    </set>
   </array>
  </eigenvalues>
  <separator name="orbital magnetization" >
   <v name="MAGDIPOLOUT">      0.00000000      0.00000000      0.00000000</v>
  </separator>
  <dos>
   <i name="efermi">      0.20360164 </i>
   <total>
    <array>
     <dimension dim="1">gridpoints</dimension>
     <dimension dim="2">spin</dimension>
     <field>energy</field>
     <field>total</field>
     <field>integrated</field>
     <set>
      <set comment="spin 1">
       <r>   -16.0794     0.0000     0.0000 </r>
       <r>   -16.0118     0.0000     0.0000 </r>
       <r>   -15.9442     0.0000     0.0000 </r>
       <r>   -15.8766     0.0000     0.0000 </r>
       <r>   -15.8090     0.0000     0.0000 </r>
       <r>   -15.7414     0.0000     0.0000 </r>
       <r>   -15.6738     0.0000     0.0000 </r>
       <r>   -15.6062     0.0000     0.0000 </r>
       <r>   -15.5387     0.0000     0.0000 </r>
       <r>   -15.4711     0.0000     0.0000 </r>
       <r>   -15.4035     0.0000     0.0000 </r>
       <r>   -15.3359     0.0003     0.0000 </r>
       <r>   -15.2683     0.0091     0.0006 </r>
       <r>   -15.2007     0.1139     0.0083 </r>
       <r>   -15.1331     0.6591     0.0529 </r>
       <r>   -15.0655     1.8147     0.1755 </r>
       <r>   -14.9979     2.4945     0.3442 </r>
       <r>   -14.9303     2.1626     0.4903 </r>
       <r>   -14.8627     1.9622     0.6230 </r>
       <r>   -14.7951     1.5191     0.7257 </r>
       <r>   -14.7275     0.8386     0.7823 </r>
       <r>   -14.6599     1.1150     0.8577 </r>
       <r>   -14.5923     1.6742     0.9709 </r>
       <r>   -14.5247     1.1741     1.0502 </r>
       <r>   -14.4571     0.4141     1.0782 </r>
       <r>   -14.3896     0.4810     1.1107 </r>
       <r>   -14.3220     1.2942     1.1982 </r>
       <r>   -14.2544     1.6385     1.3090 </r>
       <r>   -14.1868     0.8954     1.3695 </r>
       <r>   -14.1192     0.2768     1.3882 </r>
       <r>   -14.0516     0.4874     1.4211 </r>
       <r>   -13.9840     1.3318     1.5112 </r>
       <r>   -13.9164     1.6388     1.6219 </r>
       <r>   -13.8488     1.0217     1.6910 </r>
       <r>   -13.7812     0.9954     1.7583 </r>
       <r>   -13.7136     1.6263     1.8682 </r>
       <r>   -13.6460     1.4209     1.9643 </r>
       <r>   -13.5784     0.8074     2.0188 </r>
       <r>   -13.5108     1.0587     2.0904 </r>
       <r>   -13.4432     1.7614     2.2094 </r>
       <r>   -13.3756     2.0091     2.3452 </r>
       <r>   -13.3080     1.9254     2.4754 </r>
       <r>   -13.2405     1.8473     2.6003 </r>
       <r>   -13.1729     1.7123     2.7160 </r>
       <r>   -13.1053     1.5335     2.8197 </r>
       <r>   -13.0377     1.6395     2.9305 </r>
       <r>   -12.9701     2.5378     3.1020 </r>
       <r>   -12.9025     3.8511     3.3623 </r>
       <r>   -12.8349     4.6663     3.6777 </r>
       <r>   -12.7673     4.3242     3.9700 </r>
       <r>   -12.6997     3.5993     4.2133 </r>
       <r>   -12.6321     3.8132     4.4711 </r>
       <r>   -12.5645     4.3626     4.7660 </r>
       <r>   -12.4969     4.5281     5.0720 </r>
       <r>   -12.4293     5.0802     5.4154 </r>
       <r>   -12.3617     5.5285     5.7891 </r>
       <r>   -12.2941     5.6693     6.1723 </r>
       <r>   -12.2265     5.9287     6.5731 </r>
       <r>   -12.1589     6.0772     6.9839 </r>
       <r>   -12.0914     7.3271     7.4791 </r>
       <r>   -12.0238     8.8879     8.0799 </r>
       <r>   -11.9562     8.7378     8.6705 </r>
       <r>   -11.8886     8.1342     9.2204 </r>
       <r>   -11.8210     8.3592     9.7854 </r>
       <r>   -11.7534     7.6194    10.3004 </r>
       <r>   -11.6858     6.5549    10.7435 </r>
       <r>   -11.6182     7.2326    11.2324 </r>
       <r>   -11.5506     7.9359    11.7688 </r>
       <r>   -11.4830     7.6637    12.2868 </r>
       <r>   -11.4154     7.3947    12.7867 </r>
       <r>   -11.3478     8.4073    13.3549 </r>
       <r>   -11.2802    10.5231    14.0662 </r>
       <r>   -11.2126    10.5200    14.7773 </r>
       <r>   -11.1450     7.5859    15.2901 </r>
       <r>   -11.0774     5.9075    15.6894 </r>
       <r>   -11.0098     8.3391    16.2531 </r>
       <r>   -10.9422    11.4256    17.0254 </r>
       <r>   -10.8747    11.0200    17.7703 </r>
       <r>   -10.8071     9.9656    18.4439 </r>
       <r>   -10.7395    10.1258    19.1284 </r>
       <r>   -10.6719    10.3333    19.8268 </r>
       <r>   -10.6043    10.8083    20.5574 </r>
       <r>   -10.5367     8.8713    21.1571 </r>
       <r>   -10.4691     5.3924    21.5216 </r>
       <r>   -10.4015     3.7447    21.7747 </r>
       <r>   -10.3339     2.3569    21.9340 </r>
       <r>   -10.2663     0.8265    21.9898 </r>
       <r>   -10.1987     0.1437    21.9996 </r>
       <r>   -10.1311     0.0766    22.0047 </r>
       <r>   -10.0635     0.4625    22.0360 </r>
       <r>    -9.9959     1.6329    22.1464 </r>
       <r>    -9.9283     3.1488    22.3592 </r>
       <r>    -9.8607     3.9674    22.6274 </r>
       <r>    -9.7931     4.8124    22.9527 </r>
       <r>    -9.7256     6.3159    23.3796 </r>
       <r>    -9.6580     5.7555    23.7686 </r>
       <r>    -9.5904     2.7387    23.9538 </r>
       <r>    -9.5228     0.6179    23.9955 </r>
       <r>    -9.4552     0.0633    23.9998 </r>
       <r>    -9.3876     0.0029    24.0000 </r>
       <r>    -9.3200     0.0038    24.0003 </r>
       <r>    -9.2524     0.0606    24.0044 </r>
       <r>    -9.1848     0.4252    24.0331 </r>
       <r>    -9.1172     1.3336    24.1232 </r>
       <r>    -9.0496     2.1996    24.2719 </r>
       <r>    -8.9820     2.9676    24.4725 </r>
       <r>    -8.9144     4.0675    24.7475 </r>
       <r>    -8.8468     4.8932    25.0782 </r>
       <r>    -8.7792     6.2307    25.4994 </r>
       <r>    -8.7116     8.0863    26.0460 </r>
       <r>    -8.6440     8.4696    26.6185 </r>
       <r>    -8.5765     6.9860    27.0907 </r>
       <r>    -8.5089     5.1638    27.4397 </r>
       <r>    -8.4413     4.4453    27.7402 </r>
       <r>    -8.3737     4.3716    28.0357 </r>
       <r>    -8.3061     3.4633    28.2698 </r>
       <r>    -8.2385     2.7983    28.4589 </r>
       <r>    -8.1709     3.6265    28.7041 </r>
       <r>    -8.1033     4.5871    29.0141 </r>
       <r>    -8.0357     4.7379    29.3344 </r>
       <r>    -7.9681     4.4270    29.6336 </r>
       <r>    -7.9005     4.3489    29.9276 </r>
       <r>    -7.8329     5.4100    30.2933 </r>
       <r>    -7.7653     7.6429    30.8099 </r>
       <r>    -7.6977     8.8348    31.4071 </r>
       <r>    -7.6301     7.7341    31.9298 </r>
       <r>    -7.5625     6.6856    32.3817 </r>
       <r>    -7.4949     6.8622    32.8456 </r>
       <r>    -7.4273     7.3323    33.3412 </r>
       <r>    -7.3598     8.1460    33.8918 </r>
       <r>    -7.2922     8.9535    34.4970 </r>
       <r>    -7.2246     8.3919    35.0643 </r>
       <r>    -7.1570     6.6191    35.5117 </r>
       <r>    -7.0894     4.9930    35.8492 </r>
       <r>    -7.0218     4.1946    36.1327 </r>
       <r>    -6.9542     4.9355    36.4663 </r>
       <r>    -6.8866     6.4633    36.9032 </r>
       <r>    -6.8190     7.7098    37.4244 </r>
       <r>    -6.7514    10.1379    38.1096 </r>
       <r>    -6.6838    13.9063    39.0496 </r>
       <r>    -6.6162    14.1923    40.0089 </r>
       <r>    -6.5486     9.7216    40.6660 </r>
       <r>    -6.4810     5.9255    41.0666 </r>
       <r>    -6.4134     5.4164    41.4327 </r>
       <r>    -6.3458     6.6464    41.8819 </r>
       <r>    -6.2782     6.5595    42.3253 </r>
       <r>    -6.2107     5.0228    42.6648 </r>
       <r>    -6.1431     4.4332    42.9645 </r>
       <r>    -6.0755     4.3686    43.2598 </r>
       <r>    -6.0079     4.1822    43.5425 </r>
       <r>    -5.9403     4.2547    43.8301 </r>
       <r>    -5.8727     4.2978    44.1206 </r>
       <r>    -5.8051     4.4891    44.4240 </r>
       <r>    -5.7375     5.1955    44.7752 </r>
       <r>    -5.6699     5.8027    45.1674 </r>
       <r>    -5.6023     5.4694    45.5371 </r>
       <r>    -5.5347     4.2007    45.8211 </r>
       <r>    -5.4671     3.0283    46.0258 </r>
       <r>    -5.3995     3.2812    46.2476 </r>
       <r>    -5.3319     4.7209    46.5667 </r>
       <r>    -5.2643     5.5811    46.9439 </r>
       <r>    -5.1967     5.9378    47.3453 </r>
       <r>    -5.1291     6.0905    47.7570 </r>
       <r>    -5.0616     6.2707    48.1808 </r>
       <r>    -4.9940     7.2511    48.6709 </r>
       <r>    -4.9264     8.6835    49.2579 </r>
       <r>    -4.8588     9.9534    49.9307 </r>
       <r>    -4.7912    10.2074    50.6207 </r>
       <r>    -4.7236     9.7750    51.2814 </r>
       <r>    -4.6560    10.5998    51.9979 </r>
       <r>    -4.5884    12.0322    52.8112 </r>
       <r>    -4.5208    13.2053    53.7038 </r>
       <r>    -4.4532    13.7193    54.6311 </r>
       <r>    -4.3856    12.3985    55.4692 </r>
       <r>    -4.3180    10.7618    56.1966 </r>
       <r>    -4.2504    11.5772    56.9792 </r>
       <r>    -4.1828    14.2460    57.9421 </r>
       <r>    -4.1152    15.7412    59.0061 </r>
       <r>    -4.0476    14.7516    60.0033 </r>
       <r>    -3.9800    12.1250    60.8228 </r>
       <r>    -3.9124     9.2228    61.4462 </r>
       <r>    -3.8449     8.5306    62.0229 </r>
       <r>    -3.7773    11.5700    62.8049 </r>
       <r>    -3.7097    14.8246    63.8070 </r>
       <r>    -3.6421    15.2310    64.8365 </r>
       <r>    -3.5745    14.5104    65.8173 </r>
       <r>    -3.5069    13.9958    66.7634 </r>
       <r>    -3.4393    13.1193    67.6502 </r>
       <r>    -3.3717    12.2361    68.4773 </r>
       <r>    -3.3041    12.4387    69.3180 </r>
       <r>    -3.2365    14.0616    70.2685 </r>
       <r>    -3.1689    15.8309    71.3386 </r>
       <r>    -3.1013    16.8263    72.4760 </r>
       <r>    -3.0337    16.9380    73.6209 </r>
       <r>    -2.9661    16.1371    74.7116 </r>
       <r>    -2.8985    13.9086    75.6518 </r>
       <r>    -2.8309    12.0390    76.4656 </r>
       <r>    -2.7633    12.7674    77.3286 </r>
       <r>    -2.6958    14.9547    78.3394 </r>
       <r>    -2.6282    16.2264    79.4362 </r>
       <r>    -2.5606    16.2977    80.5378 </r>
       <r>    -2.4930    16.4462    81.6495 </r>
       <r>    -2.4254    17.8860    82.8585 </r>
       <r>    -2.3578    19.7452    84.1932 </r>
       <r>    -2.2902    18.7136    85.4581 </r>
       <r>    -2.2226    15.2249    86.4872 </r>
       <r>    -2.1550    12.7887    87.3517 </r>
       <r>    -2.0874    12.2515    88.1798 </r>
       <r>    -2.0198    12.7943    89.0446 </r>
       <r>    -1.9522    15.0914    90.0647 </r>
       <r>    -1.8846    17.4994    91.2476 </r>
       <r>    -1.8170    16.8195    92.3845 </r>
       <r>    -1.7494    14.6983    93.3780 </r>
       <r>    -1.6818    12.7322    94.2386 </r>
       <r>    -1.6142    11.0962    94.9886 </r>
       <r>    -1.5467    10.1396    95.6740 </r>
       <r>    -1.4791     9.9796    96.3486 </r>
       <r>    -1.4115    10.9183    97.0866 </r>
       <r>    -1.3439    12.0708    97.9025 </r>
       <r>    -1.2763    11.7966    98.6999 </r>
       <r>    -1.2087     9.8996    99.3690 </r>
       <r>    -1.1411     9.3078    99.9982 </r>
       <r>    -1.0735    10.0048   100.6745 </r>
       <r>    -1.0059    10.5496   101.3876 </r>
       <r>    -0.9383    11.3497   102.1547 </r>
       <r>    -0.8707    10.5326   102.8667 </r>
       <r>    -0.8031     6.7790   103.3249 </r>
       <r>    -0.7355     3.7344   103.5773 </r>
       <r>    -0.6679     3.5721   103.8188 </r>
       <r>    -0.6003     4.1328   104.0981 </r>
       <r>    -0.5327     4.1186   104.3765 </r>
       <r>    -0.4651     3.6725   104.6248 </r>
       <r>    -0.3975     2.9222   104.8223 </r>
       <r>    -0.3300     2.4078   104.9850 </r>
       <r>    -0.2624     2.3919   105.1467 </r>
       <r>    -0.1948     3.2869   105.3689 </r>
       <r>    -0.1272     4.9458   105.7032 </r>
       <r>    -0.0596     6.6073   106.1498 </r>
       <r>     0.0080     7.6376   106.6661 </r>
       <r>     0.0756     7.7058   107.1869 </r>
       <r>     0.1432     6.9346   107.6557 </r>
       <r>     0.2108     5.6362   108.0366 </r>
       <r>     0.2784     4.7268   108.3562 </r>
       <r>     0.3460     4.6120   108.6679 </r>
       <r>     0.4136     5.1322   109.0148 </r>
       <r>     0.4812     5.8614   109.4110 </r>
       <r>     0.5488     5.2636   109.7668 </r>
       <r>     0.6164     3.6130   110.0110 </r>
       <r>     0.6840     3.0854   110.2196 </r>
       <r>     0.7516     3.9654   110.4876 </r>
       <r>     0.8191     5.0793   110.8309 </r>
       <r>     0.8867     5.7953   111.2227 </r>
       <r>     0.9543     6.7048   111.6759 </r>
       <r>     1.0219     7.0482   112.1523 </r>
       <r>     1.0895     5.9059   112.5515 </r>
       <r>     1.1571     5.9265   112.9521 </r>
       <r>     1.2247     7.2317   113.4409 </r>
       <r>     1.2923     8.5452   114.0185 </r>
       <r>     1.3599    10.2557   114.7117 </r>
       <r>     1.4275    11.3402   115.4783 </r>
       <r>     1.4951    11.8922   116.2821 </r>
       <r>     1.5627    12.0789   117.0986 </r>
       <r>     1.6303    12.2549   117.9269 </r>
       <r>     1.6979    13.1175   118.8136 </r>
       <r>     1.7655    13.2959   119.7123 </r>
       <r>     1.8331    12.7071   120.5713 </r>
       <r>     1.9007    12.4185   121.4107 </r>
       <r>     1.9682    13.0142   122.2904 </r>
       <r>     2.0358    14.0893   123.2427 </r>
       <r>     2.1034    14.2970   124.2091 </r>
       <r>     2.1710    14.0815   125.1609 </r>
       <r>     2.2386    14.9172   126.1692 </r>
       <r>     2.3062    15.6610   127.2278 </r>
       <r>     2.3738    15.6228   128.2839 </r>
       <r>     2.4414    15.8347   129.3542 </r>
       <r>     2.5090    14.6499   130.3444 </r>
       <r>     2.5766    12.3501   131.1792 </r>
       <r>     2.6442    11.8015   131.9769 </r>
       <r>     2.7118    11.9372   132.7838 </r>
       <r>     2.7794    11.0166   133.5285 </r>
       <r>     2.8470     9.0572   134.1407 </r>
       <r>     2.9146     7.0667   134.6184 </r>
       <r>     2.9822     6.0374   135.0265 </r>
       <r>     3.0498     5.4642   135.3958 </r>
       <r>     3.1174     4.5617   135.7042 </r>
       <r>     3.1849     2.8248   135.8951 </r>
       <r>     3.2525     1.1728   135.9744 </r>
       <r>     3.3201     0.3225   135.9962 </r>
       <r>     3.3877     0.0523   135.9997 </r>
       <r>     3.4553     0.0042   136.0000 </r>
       <r>     3.5229     0.0002   136.0000 </r>
       <r>     3.5905     0.0000   136.0000 </r>
       <r>     3.6581     0.0000   136.0000 </r>
       <r>     3.7257     0.0000   136.0000 </r>
       <r>     3.7933     0.0000   136.0000 </r>
       <r>     3.8609     0.0000   136.0000 </r>
       <r>     3.9285     0.0000   136.0000 </r>
       <r>     3.9961     0.0000   136.0000 </r>
       <r>     4.0637     0.0000   136.0000 </r>
       <r>     4.1313     0.0000   136.0000 </r>
       <r>     4.1989     0.0000   136.0000 </r>
      </set>
     </set>
    </array>
   </total>
  </dos>
 </calculation>
 <structure name="finalpos" >
  <crystal>
   <varray name="basis" >
    <v>       3.54040000       0.00000000       0.00000000 </v>
    <v>      -1.77020000      10.29434800       0.00000000 </v>
    <v>       0.00000000       0.00000000      27.50142900 </v>
   </varray>
   <i name="volume">   1002.32009712 </i>
   <varray name="rec_basis" >
    <v>       0.28245396       0.04857034       0.00000000 </v>
    <v>       0.00000000       0.09714068       0.00000000 </v>
    <v>       0.00000000       0.00000000       0.03636175 </v>
   </varray>
  </crystal>
  <varray name="positions" >
   <v>       0.11402300       0.22804500       0.23316207 </v>
   <v>       0.31402300       0.42804500       0.51499159 </v>
   <v>       0.45808900       0.91617900       0.20939482 </v>
   <v>       0.65808900       0.11617900       0.49122434 </v>
   <v>       0.31085400       0.62170900       0.08414979 </v>
   <v>       0.31085400       0.62170900       0.36597930 </v>
   <v>       0.99923000       0.99846000       0.08631254 </v>
   <v>       0.99923000       0.99846000       0.36814206 </v>
   <v>       0.65492700       0.30985400       0.06041748 </v>
   <v>       0.65492700       0.30985400       0.34224700 </v>
   <v>       0.76973800       0.53947500       0.20725292 </v>
   <v>       0.96973800       0.73947500       0.48908244 </v>
   <v>       0.93971600       0.87943300       0.15783749 </v>
   <v>       0.13971600       0.07943300       0.43966701 </v>
   <v>       0.20515200       0.41030300       0.18578822 </v>
   <v>       0.40515200       0.61030300       0.46761774 </v>
   <v>       0.20184900       0.40369900       0.09969156 </v>
   <v>       0.20184900       0.40369900       0.38152107 </v>
   <v>       0.56380500       0.12761000       0.10779021 </v>
   <v>       0.56380500       0.12761000       0.38961973 </v>
   <v>       0.56710600       0.13421200       0.19387616 </v>
   <v>       0.76710600       0.33421200       0.47570568 </v>
   <v>       0.82923400       0.65846800       0.13571444 </v>
   <v>       0.02923400       0.85846800       0.41754396 </v>
  </varray>
 </structure>
</modeling>
