<?xml version="1.0" encoding="ISO-8859-1"?>
<modeling>
 <generator>
  <i name="program" type="string">vasp </i>
  <i name="version" type="string">5.4.1  </i>
  <i name="subversion" type="string">24Jun15 (build May 10 2016 14:18:23) complex                          parallel </i>
  <i name="platform" type="string">IFC91_ompi </i>
  <i name="date" type="string">2016 12 12 </i>
  <i name="time" type="string">06:34:21 </i>
 </generator>
 <incar>
  <i type="string" name="PREC">accurate</i>
  <i type="string" name="ALGO"> Fast</i>
  <i type="int" name="ISPIN">     2</i>
  <i type="int" name="IBRION">     2</i>
  <i name="EDIFF">      0.00010000</i>
  <i type="int" name="NSW">     0</i>
  <i type="int" name="ISIF">     3</i>
  <i name="ENCUT">    500.00000000</i>
  <v name="MAGMOM">      6.00000000      0.50000000      0.50000000      6.00000000      0.50000000      0.50000000</v>
  <i type="string" name="LREAL"> Auto</i>
  <i type="int" name="ISMEAR">     1</i>
  <i name="SIGMA">      0.10000000</i>
  <i type="logical" name="LWAVE"> F  </i>
  <i type="logical" name="LCHARG"> F  </i>
  <i type="logical" name="LVTOT"> T  </i>
  <i type="logical" name="LVHAR"> T  </i>
  <i type="logical" name="LAECHG"> F  </i>
  <v type="int" name="KPOINT_BSE">    -1     0     0     0</v>
  <i type="string" name="GGA"> Bo</i>
  <i name="PARAM1">      0.18333333</i>
  <i name="PARAM2">      0.22000000</i>
  <i type="logical" name="LUSE_VDW"> T  </i>
  <i name="AGGAC">      0.00000000</i>
 </incar>
 <kpoints>
  <generation param="Gamma">
   <v type="int" name="divisions">      13       13        1 </v>
   <v name="usershift">      0.00000000       0.00000000       0.00000000 </v>
   <v name="genvec1">      0.07692308       0.00000000       0.00000000 </v>
   <v name="genvec2">      0.00000000       0.07692308       0.00000000 </v>
   <v name="genvec3">      0.00000000       0.00000000       1.00000000 </v>
   <v name="shift">      0.00000000       0.00000000       0.00000000 </v>
  </generation>
  <varray name="kpointlist" >
   <v>       0.00000000       0.00000000       0.00000000 </v>
   <v>       0.07692308      -0.00000000       0.00000000 </v>
   <v>       0.15384615       0.00000000       0.00000000 </v>
   <v>       0.23076923       0.00000000       0.00000000 </v>
   <v>       0.30769231      -0.00000000       0.00000000 </v>
   <v>       0.38461538       0.00000000       0.00000000 </v>
   <v>       0.46153846       0.00000000       0.00000000 </v>
   <v>       0.07692308       0.07692308       0.00000000 </v>
   <v>       0.15384615       0.07692308       0.00000000 </v>
   <v>       0.23076923       0.07692308       0.00000000 </v>
   <v>       0.30769231       0.07692308       0.00000000 </v>
   <v>       0.38461538       0.07692308       0.00000000 </v>
   <v>       0.46153846       0.07692308       0.00000000 </v>
   <v>       0.15384615       0.15384615       0.00000000 </v>
   <v>       0.23076923       0.15384615       0.00000000 </v>
   <v>       0.30769231       0.15384615       0.00000000 </v>
   <v>       0.38461538       0.15384615       0.00000000 </v>
   <v>       0.23076923       0.23076923       0.00000000 </v>
   <v>       0.30769231       0.23076923       0.00000000 </v>
   <v>       0.38461538       0.23076923       0.00000000 </v>
   <v>       0.30769231       0.30769231       0.00000000 </v>
  </varray>
  <varray name="weights" >
   <v>       0.00591716 </v>
   <v>       0.03550296 </v>
   <v>       0.03550296 </v>
   <v>       0.03550296 </v>
   <v>       0.03550296 </v>
   <v>       0.03550296 </v>
   <v>       0.03550296 </v>
   <v>       0.03550296 </v>
   <v>       0.07100592 </v>
   <v>       0.07100592 </v>
   <v>       0.07100592 </v>
   <v>       0.07100592 </v>
   <v>       0.03550296 </v>
   <v>       0.03550296 </v>
   <v>       0.07100592 </v>
   <v>       0.07100592 </v>
   <v>       0.07100592 </v>
   <v>       0.03550296 </v>
   <v>       0.07100592 </v>
   <v>       0.03550296 </v>
   <v>       0.03550296 </v>
  </varray>
 </kpoints>
 <parameters>
  <separator name="general" >
   <i type="string" name="SYSTEM">unknown system</i>
   <i type="logical" name="LCOMPAT"> F  </i>
  </separator>
  <separator name="electronic" >
   <i type="string" name="PREC">accura</i>
   <i name="ENMAX">    500.00000000</i>
   <i name="ENAUG">    392.42700000</i>
   <i name="EDIFF">      0.00010000</i>
   <i type="int" name="IALGO">    68</i>
   <i type="int" name="IWAVPR">    10</i>
   <i type="int" name="NBANDS">    36</i>
   <i name="NELECT">     48.00000000</i>
   <i type="int" name="TURBO">     0</i>
   <i type="int" name="IRESTART">     0</i>
   <i type="int" name="NREBOOT">     0</i>
   <i type="int" name="NMIN">     0</i>
   <i name="EREF">      0.00000000</i>
   <separator name="electronic smearing" >
    <i type="int" name="ISMEAR">     1</i>
    <i name="SIGMA">      0.10000000</i>
    <i name="KSPACING">      0.50000000</i>
    <i type="logical" name="KGAMMA"> T  </i>
   </separator>
   <separator name="electronic projectors" >
    <i type="logical" name="LREAL"> T  </i>
    <v name="ROPT">     -0.00025000     -0.00025000     -0.00025000     -0.00025000</v>
    <i type="int" name="LMAXPAW">  -100</i>
    <i type="int" name="LMAXMIX">     2</i>
    <i type="logical" name="NLSPLINE"> F  </i>
   </separator>
   <separator name="electronic startup" >
    <i type="int" name="ISTART">     0</i>
    <i type="int" name="ICHARG">     2</i>
    <i type="int" name="INIWAV">     1</i>
   </separator>
   <separator name="electronic spin" >
    <i type="int" name="ISPIN">     2</i>
    <i type="logical" name="LNONCOLLINEAR"> F  </i>
    <v name="MAGMOM">      6.00000000      0.50000000      0.50000000      6.00000000      0.50000000      0.50000000</v>
    <i name="NUPDOWN">     -1.00000000</i>
    <i type="logical" name="LSORBIT"> F  </i>
    <v name="SAXIS">      0.00000000      0.00000000      1.00000000</v>
    <i type="logical" name="LSPIRAL"> F  </i>
    <v name="QSPIRAL">      0.00000000      0.00000000      0.00000000</v>
    <i type="logical" name="LZEROZ"> F  </i>
   </separator>
   <separator name="electronic exchange-correlation" >
    <i type="logical" name="LASPH"> F  </i>
    <i type="logical" name="LMETAGGA"> F  </i>
   </separator>
   <separator name="electronic convergence" >
    <i type="int" name="NELM">    60</i>
    <i type="int" name="NELMDL">     0</i>
    <i type="int" name="NELMIN">     2</i>
    <i name="ENINI">    500.00000000</i>
    <separator name="electronic convergence detail" >
     <i type="logical" name="LDIAG"> T  </i>
     <i type="logical" name="LSUBROT"> F  </i>
     <i name="WEIMIN">      0.00000000</i>
     <i name="EBREAK">      0.00000069</i>
     <i name="DEPER">      0.30000000</i>
     <i type="int" name="NRMM">     4</i>
     <i name="TIME">      0.40000000</i>
    </separator>
   </separator>
   <separator name="electronic mixer" >
    <i name="AMIX">      0.40000000</i>
    <i name="BMIX">      1.00000000</i>
    <i name="AMIN">      0.10000000</i>
    <i name="AMIX_MAG">      1.60000000</i>
    <i name="BMIX_MAG">      1.00000000</i>
    <separator name="electronic mixer details" >
     <i type="int" name="IMIX">     4</i>
     <i type="logical" name="MIXFIRST"> F  </i>
     <i type="int" name="MAXMIX">   -45</i>
     <i name="WC">    100.00000000</i>
     <i type="int" name="INIMIX">     1</i>
     <i type="int" name="MIXPRE">     1</i>
     <i type="int" name="MREMOVE">     5</i>
    </separator>
   </separator>
   <separator name="electronic dipolcorrection" >
    <i type="logical" name="LDIPOL"> F  </i>
    <i type="logical" name="LMONO"> F  </i>
    <i type="int" name="IDIPOL">     0</i>
    <i name="EPSILON">      1.00000000</i>
    <v name="DIPOL">   -100.00000000   -100.00000000   -100.00000000</v>
    <i name="EFIELD">      0.00000000</i>
   </separator>
  </separator>
  <separator name="grids" >
   <i type="int" name="NGX">    24</i>
   <i type="int" name="NGY">    24</i>
   <i type="int" name="NGZ">   180</i>
   <i type="int" name="NGXF">    48</i>
   <i type="int" name="NGYF">    48</i>
   <i type="int" name="NGZF">   360</i>
   <i type="logical" name="ADDGRID"> F  </i>
  </separator>
  <separator name="ionic" >
   <i type="int" name="NSW">     0</i>
   <i type="int" name="IBRION">    -1</i>
   <i type="int" name="ISIF">     3</i>
   <i name="PSTRESS">      0.00000000</i>
   <i name="EDIFFG">      0.00100000</i>
   <i type="int" name="NFREE">     1</i>
   <i name="POTIM">      0.50000000</i>
   <i name="SMASS">     -3.00000000</i>
   <i name="SCALEE">      1.00000000</i>
  </separator>
  <separator name="ionic md" >
   <i name="TEBEG">      0.00010000</i>
   <i name="TEEND">      0.00010000</i>
   <i type="int" name="NBLOCK">     1</i>
   <i type="int" name="KBLOCK">     1</i>
   <i type="int" name="NPACO">   256</i>
   <i name="APACO">     16.00000000</i>
  </separator>
  <separator name="symmetry" >
   <i type="int" name="ISYM">     2</i>
   <i name="SYMPREC">      0.00001000</i>
  </separator>
  <separator name="dos" >
   <i type="logical" name="LORBIT"> F  </i>
   <v name="RWIGS">     -1.00000000     -1.00000000     -1.00000000     -1.00000000</v>
   <i type="int" name="NEDOS">   301</i>
   <i name="EMIN">     10.00000000</i>
   <i name="EMAX">    -10.00000000</i>
   <i name="EFERMI">      0.00000000</i>
  </separator>
  <separator name="writing" >
   <i type="int" name="NWRITE">     2</i>
   <i type="logical" name="LWAVE"> F  </i>
   <i type="logical" name="LCHARG"> F  </i>
   <i type="logical" name="LPARD"> F  </i>
   <i type="logical" name="LVTOT"> F  </i>
   <i type="logical" name="LVHAR"> T  </i>
   <i type="logical" name="LELF"> F  </i>
   <i type="logical" name="LOPTICS"> F  </i>
   <v name="STM">      0.00000000      0.00000000      0.00000000      0.00000000      0.00000000      0.00000000      0.00000000</v>
  </separator>
  <separator name="performance" >
   <i type="int" name="NPAR">     4</i>
   <i type="int" name="NSIM">     4</i>
   <i type="int" name="NBLK">    -1</i>
   <i type="logical" name="LPLANE"> T  </i>
   <i type="logical" name="LSCALAPACK"> T  </i>
   <i type="logical" name="LSCAAWARE"> F  </i>
   <i type="logical" name="LSCALU"> F  </i>
   <i type="logical" name="LASYNC"> F  </i>
   <i type="logical" name="LORBITALREAL"> F  </i>
  </separator>
  <separator name="miscellaneous" >
   <i type="int" name="IDIOT">     3</i>
   <i type="logical" name="LMUSIC"> F  </i>
   <v name="POMASS">     95.94000000     32.06600000     95.94000000     32.06600000</v>
   <v name="DARWINR">      0.00000000      0.00000000      0.00000000      0.00000000</v>
   <v name="DARWINV">      1.00000000      1.00000000      1.00000000      1.00000000</v>
   <i type="logical" name="LCORR"> T  </i>
  </separator>
  <i type="logical" name="GGA_COMPAT"> T  </i>
  <i type="logical" name="LBERRY"> F  </i>
  <i type="int" name="ICORELEVEL">     0</i>
  <i type="logical" name="LDAU"> F  </i>
  <i type="int" name="I_CONSTRAINED_M">     0</i>
  <separator name="electronic exchange-correlation" >
   <i type="string" name="GGA">BO</i>
   <i type="int" name="VOSKOWN">     0</i>
   <i type="logical" name="LHFCALC"> F  </i>
   <i type="string" name="PRECFOCK"></i>
   <i type="logical" name="LSYMGRAD"> F  </i>
   <i type="logical" name="LHFONE"> F  </i>
   <i type="logical" name="LRHFCALC"> F  </i>
   <i type="logical" name="LTHOMAS"> F  </i>
   <i type="logical" name="LMODELHF"> F  </i>
   <i name="ENCUT4O">     -1.00000000</i>
   <i type="int" name="EXXOEP">     0</i>
   <i type="int" name="FOURORBIT">     0</i>
   <i name="AEXX">      0.00000000</i>
   <i name="HFALPHA">      0.00000000</i>
   <i name="MCALPHA">      0.00000000</i>
   <i name="ALDAX">      1.00000000</i>
   <i name="AGGAX">      1.00000000</i>
   <i name="ALDAC">      1.00000000</i>
   <i name="AGGAC">      0.00000000</i>
   <i type="int" name="NKREDX">     1</i>
   <i type="int" name="NKREDY">     1</i>
   <i type="int" name="NKREDZ">     1</i>
   <i type="logical" name="SHIFTRED"> F  </i>
   <i type="logical" name="ODDONLY"> F  </i>
   <i type="logical" name="EVENONLY"> F  </i>
   <i type="int" name="LMAXFOCK">     0</i>
   <i type="int" name="NMAXFOCKAE">     0</i>
   <i type="logical" name="LFOCKAEDFT"> F  </i>
   <i name="HFSCREEN">      0.00000000</i>
   <i name="HFSCREENC">      0.00000000</i>
   <i type="int" name="NBANDSGWLOW">     0</i>
  </separator>
  <separator name="vdW DFT" >
   <i type="logical" name="LUSE_VDW"> T  </i>
   <i name="Zab_VDW">     -0.84910000</i>
   <i name="PARAM1">      0.18333333</i>
   <i name="PARAM2">      0.22000000</i>
   <i name="PARAM3">      0.00000000</i>
  </separator>
  <separator name="model GW" >
   <i type="int" name="MODEL_GW">     0</i>
   <i name="MODEL_EPS0">     20.39722663</i>
   <i name="MODEL_ALPHA">      1.00000000</i>
  </separator>
  <separator name="linear response parameters" >
   <i type="logical" name="LEPSILON"> F  </i>
   <i type="logical" name="LRPA"> F  </i>
   <i type="logical" name="LNABLA"> F  </i>
   <i type="logical" name="LVEL"> F  </i>
   <i type="int" name="KINTER">     0</i>
   <i name="CSHIFT">      0.10000000</i>
   <i name="OMEGAMAX">     -1.00000000</i>
   <i name="DEG_THRESHOLD">      0.00200000</i>
  </separator>
  <separator name="orbital magnetization" >
   <i type="logical" name="NUCIND"> F  </i>
   <v name="MAGPOS">      0.00000000      0.00000000      0.00000000</v>
   <i type="logical" name="LNICSALL"> T  </i>
   <i type="logical" name="ORBITALMAG"> F  </i>
   <i type="logical" name="LMAGBLOCH"> F  </i>
   <i type="logical" name="LCHIMAG"> F  </i>
   <i type="logical" name="LGAUGE"> T  </i>
   <i type="int" name="MAGATOM">     0</i>
   <v name="MAGDIPOL">      0.00000000      0.00000000      0.00000000</v>
   <v name="AVECCONST">      0.00000000      0.00000000      0.00000000</v>
  </separator>
  <separator name="response functions" >
   <i type="logical" name="LADDER"> F  </i>
   <i type="logical" name="LFXC"> F  </i>
   <i type="logical" name="LHARTREE"> T  </i>
   <i type="int" name="IBSE">     0</i>
   <v type="int" name="KPOINT">    -1     0     0     0</v>
   <i type="logical" name="LTCTE"> F  </i>
   <i type="logical" name="LTETE"> F  </i>
   <i type="logical" name="LTRIPLET"> F  </i>
   <i type="logical" name="LFXCEPS"> F  </i>
   <i type="logical" name="LFXHEG"> F  </i>
   <i type="int" name="NATURALO">     0</i>
   <i type="logical" name="L2ORDER"> F  </i>
   <i type="logical" name="LUSEW"> F  </i>
   <i name="ENCUTGW">     -2.00000000</i>
   <i name="ENCUTGWSOFT">     -2.00000000</i>
   <i name="ENCUTLF">     -1.00000000</i>
   <i type="int" name="LMAXMP2">    -1</i>
   <i name="SCISSOR">      0.00000000</i>
   <i type="int" name="NOMEGA">     0</i>
   <i type="int" name="NOMEGAR">     0</i>
   <i type="int" name="NBANDSGW">    -1</i>
   <i type="int" name="NBANDSO">    -1</i>
   <i type="int" name="NBANDSV">    -1</i>
   <i type="int" name="NELM">     1</i>
   <i type="int" name="NELMHF">     1</i>
   <i type="int" name="DIM">     3</i>
   <i type="int" name="ANTIRES">     0</i>
   <i name="OMEGAMAX">    -30.00000000</i>
   <i name="OMEGAMIN">    -30.00000000</i>
   <i name="OMEGATL">   -200.00000000</i>
   <i type="int" name="OMEGAGRID">     0</i>
   <i name="CSHIFT">     -0.10000000</i>
   <i type="logical" name="SELFENERGY"> F  </i>
   <i type="logical" name="LSPECTRAL"> F  </i>
   <i type="logical" name="LSPECTRALGW"> F  </i>
   <i type="logical" name="LSINGLES"> F  </i>
   <i type="logical" name="LFERMIGW"> F  </i>
   <i type="logical" name="ODDONLYGW"> F  </i>
   <i type="logical" name="EVENONLYGW"> F  </i>
   <i type="int" name="NKREDLFX">     1</i>
   <i type="int" name="NKREDLFY">     1</i>
   <i type="int" name="NKREDLFZ">     1</i>
   <i type="int" name="MAXMEM">  1800</i>
   <i type="int" name="TELESCOPE">     0</i>
   <i type="int" name="TAUPAR">     1</i>
   <i type="int" name="OMEGAPAR">    -1</i>
   <i name="LAMBDA">      1.00000000</i>
  </separator>
  <separator name="External order field" >
   <i name="OFIELD_KAPPA">      0.00000000</i>
   <v name="OFIELD_K">      0.00000000      0.00000000      0.00000000</v>
   <i name="OFIELD_Q6_NEAR">      0.00000000</i>
   <i name="OFIELD_Q6_FAR">      0.00000000</i>
   <i name="OFIELD_A">      0.00000000</i>
  </separator>
 </parameters>
 <atominfo>
  <atoms>       6 </atoms>
  <types>       4 </types>
  <array name="atoms" >
   <dimension dim="1">ion</dimension>
   <field type="string">element</field>
   <field type="int">atomtype</field>
   <set>
    <rc><c>Mo</c><c>   1</c></rc>
    <rc><c>S </c><c>   2</c></rc>
    <rc><c>S </c><c>   2</c></rc>
    <rc><c>Mo</c><c>   3</c></rc>
    <rc><c>S </c><c>   4</c></rc>
    <rc><c>S </c><c>   4</c></rc>
   </set>
  </array>
  <array name="atomtypes" >
   <dimension dim="1">type</dimension>
   <field type="int">atomspertype</field>
   <field type="string">element</field>
   <field>mass</field>
   <field>valence</field>
   <field type="string">pseudopotential</field>
   <set>
    <rc><c>   1</c><c>Mo</c><c>     95.94000000</c><c>     12.00000000</c><c> PAW_PBE Mo_pv 08Apr2002                </c></rc>
    <rc><c>   2</c><c>S </c><c>     32.06600000</c><c>      6.00000000</c><c>  PAW_PBE S 17Jan2003                   </c></rc>
    <rc><c>   1</c><c>Mo</c><c>     95.94000000</c><c>     12.00000000</c><c> PAW_PBE Mo_pv 08Apr2002                </c></rc>
    <rc><c>   2</c><c>S </c><c>     32.06600000</c><c>      6.00000000</c><c>  PAW_PBE S 17Jan2003                   </c></rc>
   </set>
  </array>
 </atominfo>
 <structure name="initialpos" >
  <crystal>
   <varray name="basis" >
    <v>       3.19031700       0.00000000       0.00000000 </v>
    <v>      -1.59515800       2.76289700       0.00000000 </v>
    <v>       0.00000000       0.00000000      23.14049200 </v>
   </varray>
   <i name="volume">    203.97226633 </i>
   <varray name="rec_basis" >
    <v>       0.31344848       0.18096941       0.00000000 </v>
    <v>       0.00000000       0.36193894       0.00000000 </v>
    <v>       0.00000000       0.00000000       0.04321429 </v>
   </varray>
  </crystal>
  <varray name="positions" >
   <v>       0.66666700       0.33333300       0.06785900 </v>
   <v>       0.33333300       0.66666700       0.00000000 </v>
   <v>       0.33333300       0.66666700       0.13571500 </v>
   <v>       0.66666700       0.33333300       0.37643000 </v>
   <v>       0.33333300       0.66666700       0.30857200 </v>
   <v>       0.33333300       0.66666700       0.44428600 </v>
  </varray>
 </structure>
 <calculation>
  <scstep>
   <time name="dav">   25.98   26.09</time>
   <time name="total">   45.61   45.75</time>
   <energy>
    <i name="alphaZ">    104.15310261 </i>
    <i name="ewald">   6503.54436767 </i>
    <i name="hartreedc">  -9913.68343452 </i>
    <i name="XCdc">    128.44265951 </i>
    <i name="pawpsdc">   2252.92270536 </i>
    <i name="pawaedc">  -2205.68654582 </i>
    <i name="eentropy">     -0.00050938 </i>
    <i name="bandstr">   -156.60988976 </i>
    <i name="atom">   3688.31848598 </i>
    <i name="e_fr_energy">    401.40094164 </i>
    <i name="e_wo_entrp">    401.40145102 </i>
    <i name="e_0_energy">    401.40111143 </i>
   </energy>
  </scstep>
  <scstep>
   <time name="dav">   27.84   27.86</time>
   <time name="total">   27.84   27.87</time>
   <energy>
    <i name="e_fr_energy">     -0.58491399 </i>
    <i name="e_wo_entrp">     -0.58306770 </i>
    <i name="e_0_energy">     -0.58429856 </i>
   </energy>
  </scstep>
  <scstep>
   <time name="dav">   29.39   29.42</time>
   <time name="total">   29.40   29.43</time>
   <energy>
    <i name="e_fr_energy">    -32.85784103 </i>
    <i name="e_wo_entrp">    -32.85872299 </i>
    <i name="e_0_energy">    -32.85813501 </i>
   </energy>
  </scstep>
  <scstep>
   <time name="dav">   28.08   28.12</time>
   <time name="total">   28.09   28.12</time>
   <energy>
    <i name="e_fr_energy">    -33.78895973 </i>
    <i name="e_wo_entrp">    -33.79025403 </i>
    <i name="e_0_energy">    -33.78939116 </i>
   </energy>
  </scstep>
  <scstep>
   <time name="dav">   29.20   29.23</time>
   <time name="total">   31.59   31.61</time>
   <energy>
    <i name="e_fr_energy">    -33.81702021 </i>
    <i name="e_wo_entrp">    -33.81834600 </i>
    <i name="e_0_energy">    -33.81746214 </i>
   </energy>
  </scstep>
  <scstep>
   <time name="diag">    5.62    5.62</time>
   <time name="diis">   18.99   19.09</time>
   <time name="orth">    0.19    0.20</time>
   <time name="total">   45.84   46.03</time>
   <energy>
    <i name="e_fr_energy">    -30.13698975 </i>
    <i name="e_wo_entrp">    -30.13644721 </i>
    <i name="e_0_energy">    -30.13680890 </i>
   </energy>
  </scstep>
  <scstep>
   <time name="diag">    5.73    5.77</time>
   <time name="diis">   19.29   19.31</time>
   <time name="orth">    0.20    0.20</time>
   <time name="total">   46.36   46.44</time>
   <energy>
    <i name="e_fr_energy">    -32.95510687 </i>
    <i name="e_wo_entrp">    -32.95538580 </i>
    <i name="e_0_energy">    -32.95519984 </i>
   </energy>
  </scstep>
  <scstep>
   <time name="diag">    5.65    5.73</time>
   <time name="diis">   20.38   20.40</time>
   <time name="orth">    0.19    0.20</time>
   <time name="total">   47.47   47.59</time>
   <energy>
    <i name="e_fr_energy">    -34.57909317 </i>
    <i name="e_wo_entrp">    -34.57928697 </i>
    <i name="e_0_energy">    -34.57915777 </i>
   </energy>
  </scstep>
  <scstep>
   <time name="diag">    5.62    5.62</time>
   <time name="diis">   18.93   18.94</time>
   <time name="orth">    0.19    0.19</time>
   <time name="total">   45.88   45.92</time>
   <energy>
    <i name="e_fr_energy">    -36.91642851 </i>
    <i name="e_wo_entrp">    -36.91658930 </i>
    <i name="e_0_energy">    -36.91648211 </i>
   </energy>
  </scstep>
  <scstep>
   <time name="diag">    5.59    5.59</time>
   <time name="diis">   17.44   17.45</time>
   <time name="orth">    0.19    0.19</time>
   <time name="total">   44.33   44.37</time>
   <energy>
    <i name="e_fr_energy">    -38.87664270 </i>
    <i name="e_wo_entrp">    -38.87680356 </i>
    <i name="e_0_energy">    -38.87669632 </i>
   </energy>
  </scstep>
  <scstep>
   <time name="diag">    5.63    5.64</time>
   <time name="diis">   18.27   18.28</time>
   <time name="orth">    0.19    0.19</time>
   <time name="total">   45.18   45.22</time>
   <energy>
    <i name="e_fr_energy">    -39.26559612 </i>
    <i name="e_wo_entrp">    -39.26591922 </i>
    <i name="e_0_energy">    -39.26570382 </i>
   </energy>
  </scstep>
  <scstep>
   <time name="diag">    5.59    5.60</time>
   <time name="diis">   18.85   18.86</time>
   <time name="orth">    0.19    0.19</time>
   <time name="total">   45.58   45.62</time>
   <energy>
    <i name="e_fr_energy">    -39.36083325 </i>
    <i name="e_wo_entrp">    -39.36116723 </i>
    <i name="e_0_energy">    -39.36094458 </i>
   </energy>
  </scstep>
  <scstep>
   <time name="diag">    5.59    5.60</time>
   <time name="diis">   19.39   19.40</time>
   <time name="orth">    0.19    0.19</time>
   <time name="total">   46.11   46.15</time>
   <energy>
    <i name="e_fr_energy">    -39.37014015 </i>
    <i name="e_wo_entrp">    -39.37046925 </i>
    <i name="e_0_energy">    -39.37024985 </i>
   </energy>
  </scstep>
  <scstep>
   <time name="diag">    5.59    5.59</time>
   <time name="diis">   18.86   18.87</time>
   <time name="orth">    0.18    0.18</time>
   <time name="total">   45.60   45.64</time>
   <energy>
    <i name="e_fr_energy">    -39.37304065 </i>
    <i name="e_wo_entrp">    -39.37336993 </i>
    <i name="e_0_energy">    -39.37315041 </i>
   </energy>
  </scstep>
  <scstep>
   <time name="diag">    5.54    5.55</time>
   <time name="diis">   16.55   16.56</time>
   <time name="orth">    0.18    0.18</time>
   <time name="total">   43.29   43.32</time>
   <energy>
    <i name="e_fr_energy">    -39.37210762 </i>
    <i name="e_wo_entrp">    -39.37243532 </i>
    <i name="e_0_energy">    -39.37221685 </i>
   </energy>
  </scstep>
  <scstep>
   <time name="diag">    5.65    5.66</time>
   <time name="diis">   14.38   14.39</time>
   <time name="orth">    0.18    0.18</time>
   <time name="total">   41.17   41.32</time>
   <energy>
    <i name="e_fr_energy">    -39.37227313 </i>
    <i name="e_wo_entrp">    -39.37260081 </i>
    <i name="e_0_energy">    -39.37238236 </i>
   </energy>
  </scstep>
  <scstep>
   <time name="diag">    5.53    5.54</time>
   <time name="diis">   13.30   13.31</time>
   <time name="orth">    0.19    0.19</time>
   <time name="total">   40.04   40.07</time>
   <energy>
    <i name="e_fr_energy">    -39.37250535 </i>
    <i name="e_wo_entrp">    -39.37283312 </i>
    <i name="e_0_energy">    -39.37261461 </i>
   </energy>
  </scstep>
  <scstep>
   <time name="diag">    5.64    5.64</time>
   <time name="diis">   12.77   12.78</time>
   <time name="orth">    0.18    0.18</time>
   <time name="total">   39.61   39.64</time>
   <energy>
    <i name="e_fr_energy">    -39.37279045 </i>
    <i name="e_wo_entrp">    -39.37311829 </i>
    <i name="e_0_energy">    -39.37289973 </i>
   </energy>
  </scstep>
  <scstep>
   <time name="diag">    5.51    5.51</time>
   <time name="diis">   12.63   12.65</time>
   <time name="orth">    0.19    0.19</time>
   <time name="total">   39.38   39.41</time>
   <energy>
    <i name="e_fr_energy">    -39.37316115 </i>
    <i name="e_wo_entrp">    -39.37348904 </i>
    <i name="e_0_energy">    -39.37327044 </i>
   </energy>
  </scstep>
  <scstep>
   <time name="diag">    5.57    5.57</time>
   <time name="diis">   12.75   12.76</time>
   <time name="orth">    0.18    0.18</time>
   <time name="total">   39.53   39.56</time>
   <energy>
    <i name="e_fr_energy">    -39.37336942 </i>
    <i name="e_wo_entrp">    -39.37369729 </i>
    <i name="e_0_energy">    -39.37347871 </i>
   </energy>
  </scstep>
  <scstep>
   <time name="diag">    5.55    5.55</time>
   <time name="diis">   11.94   11.94</time>
   <time name="orth">    0.19    0.19</time>
   <time name="total">   36.34   36.37</time>
   <energy>
    <i name="alphaZ">    104.15310261 </i>
    <i name="ewald">   6503.54436767 </i>
    <i name="hartreedc">  -9897.26001882 </i>
    <i name="XCdc">    122.65039696 </i>
    <i name="pawpsdc">   2399.25930715 </i>
    <i name="pawaedc">  -2361.44654596 </i>
    <i name="eentropy">      0.00032783 </i>
    <i name="bandstr">   -598.59284545 </i>
    <i name="atom">   3688.31848598 </i>
    <i name="e_fr_energy">    -39.37342204 </i>
    <i name="e_wo_entrp">    -39.37374987 </i>
    <i name="e_0_energy">    -39.37353131 </i>
   </energy>
  </scstep>
  <structure>
   <crystal>
    <varray name="basis" >
     <v>       3.19031700       0.00000000       0.00000000 </v>
     <v>      -1.59515800       2.76289700       0.00000000 </v>
     <v>       0.00000000       0.00000000      23.14049200 </v>
    </varray>
    <i name="volume">    203.97226633 </i>
    <varray name="rec_basis" >
     <v>       0.31344848       0.18096941       0.00000000 </v>
     <v>       0.00000000       0.36193894       0.00000000 </v>
     <v>       0.00000000       0.00000000       0.04321429 </v>
    </varray>
   </crystal>
   <varray name="positions" >
    <v>       0.66666700       0.33333300       0.06785900 </v>
    <v>       0.33333300       0.66666700       0.00000000 </v>
    <v>       0.33333300       0.66666700       0.13571500 </v>
    <v>       0.66666700       0.33333300       0.37643000 </v>
    <v>       0.33333300       0.66666700       0.30857200 </v>
    <v>       0.33333300       0.66666700       0.44428600 </v>
   </varray>
  </structure>
  <varray name="forces" >
   <v>      -0.00000000       0.00000000      -0.00470375 </v>
   <v>       0.00000000      -0.00000000      -0.05443346 </v>
   <v>       0.00000000      -0.00000000       0.11356210 </v>
   <v>      -0.00000000       0.00000000       0.00509396 </v>
   <v>       0.00000000      -0.00000000      -0.11937645 </v>
   <v>      -0.00000000      -0.00000000       0.05985761 </v>
  </varray>
  <varray name="stress" >
   <v>       3.11841046       0.00000056       0.00000000 </v>
   <v>       0.00000056       3.11841370       0.00000000 </v>
   <v>      -0.00000000       0.00000000      -0.13748501 </v>
  </varray>
  <energy>
   <i name="e_fr_energy">    -39.37342204 </i>
   <i name="e_wo_entrp">    -39.37353131 </i>
   <i name="e_0_energy">      0.00032783 </i>
  </energy>
  <time name="totalsc">  930.55  931.86</time>
  <eigenvalues>
   <array>
    <dimension dim="1">band</dimension>
    <dimension dim="2">kpoint</dimension>
    <dimension dim="3">spin</dimension>
    <field>eigene</field>
    <field>occ</field>
    <set>
     <set comment="spin 1">
      <set comment="kpoint 1">
       <r>  -34.9915    1.0000 </r>
       <r>  -34.9912    1.0000 </r>
       <r>  -34.8009    1.0000 </r>
       <r>  -34.8009    1.0000 </r>
       <r>  -34.8006    1.0000 </r>
       <r>  -34.8006    1.0000 </r>
       <r>  -13.9536    1.0000 </r>
       <r>  -13.9330    1.0000 </r>
       <r>  -12.6772    1.0000 </r>
       <r>  -12.6405    1.0000 </r>
       <r>   -5.6049    1.0000 </r>
       <r>   -5.4583    1.0000 </r>
       <r>   -2.6207    1.0000 </r>
       <r>   -2.6207    1.0000 </r>
       <r>   -2.6191    1.0000 </r>
       <r>   -2.6191    1.0000 </r>
       <r>   -2.0466    1.0000 </r>
       <r>   -1.6086    1.0000 </r>
       <r>   -1.5274    1.0000 </r>
       <r>   -1.5274    1.0000 </r>
       <r>   -1.5244    1.0000 </r>
       <r>   -1.5244    1.0000 </r>
       <r>   -0.1933    1.0000 </r>
       <r>    0.0949    0.8305 </r>
       <r>    2.7003   -0.0000 </r>
       <r>    2.7003   -0.0000 </r>
       <r>    2.7124   -0.0000 </r>
       <r>    2.7125   -0.0000 </r>
       <r>    2.8812    0.0000 </r>
       <r>    2.8812    0.0000 </r>
       <r>    2.8980    0.0000 </r>
       <r>    2.8980    0.0000 </r>
       <r>    5.2758    0.0000 </r>
       <r>    5.4225    0.0000 </r>
       <r>    6.2640    0.0000 </r>
       <r>    6.5408    0.0000 </r>
      </set>
      <set comment="kpoint 2">
       <r>  -34.9874    1.0000 </r>
       <r>  -34.9871    1.0000 </r>
       <r>  -34.8222    1.0000 </r>
       <r>  -34.8219    1.0000 </r>
       <r>  -34.8058    1.0000 </r>
       <r>  -34.8054    1.0000 </r>
       <r>  -13.8670    1.0000 </r>
       <r>  -13.8464    1.0000 </r>
       <r>  -12.6414    1.0000 </r>
       <r>  -12.6055    1.0000 </r>
       <r>   -5.5055    1.0000 </r>
       <r>   -5.3589    1.0000 </r>
       <r>   -2.8079    1.0000 </r>
       <r>   -2.8052    1.0000 </r>
       <r>   -2.5300    1.0000 </r>
       <r>   -2.5283    1.0000 </r>
       <r>   -2.3713    1.0000 </r>
       <r>   -2.1363    1.0000 </r>
       <r>   -1.6649    1.0000 </r>
       <r>   -1.6617    1.0000 </r>
       <r>   -1.3273    1.0000 </r>
       <r>   -1.1314    1.0000 </r>
       <r>   -0.2184    1.0000 </r>
       <r>    0.0369    1.0263 </r>
       <r>    2.5763   -0.0000 </r>
       <r>    2.6063   -0.0000 </r>
       <r>    2.6343   -0.0000 </r>
       <r>    2.7046   -0.0000 </r>
       <r>    2.7861   -0.0000 </r>
       <r>    2.8028   -0.0000 </r>
       <r>    2.8478   -0.0000 </r>
       <r>    2.8611   -0.0000 </r>
       <r>    5.4175    0.0000 </r>
       <r>    5.5618    0.0000 </r>
       <r>    6.5912    0.0000 </r>
       <r>    6.9230    0.0000 </r>
      </set>
      <set comment="kpoint 3">
       <r>  -34.9760    1.0000 </r>
       <r>  -34.9757    1.0000 </r>
       <r>  -34.8807    1.0000 </r>
       <r>  -34.8803    1.0000 </r>
       <r>  -34.8192    1.0000 </r>
       <r>  -34.8188    1.0000 </r>
       <r>  -13.6188    1.0000 </r>
       <r>  -13.5982    1.0000 </r>
       <r>  -12.5388    1.0000 </r>
       <r>  -12.5054    1.0000 </r>
       <r>   -5.2458    1.0000 </r>
       <r>   -5.1024    1.0000 </r>
       <r>   -3.2591    1.0000 </r>
       <r>   -3.2499    1.0000 </r>
       <r>   -2.8984    1.0000 </r>
       <r>   -2.7432    1.0000 </r>
       <r>   -2.2746    1.0000 </r>
       <r>   -2.2722    1.0000 </r>
       <r>   -2.0001    1.0000 </r>
       <r>   -1.9965    1.0000 </r>
       <r>   -1.2294    1.0000 </r>
       <r>   -0.9926    1.0000 </r>
       <r>   -0.3595    1.0000 </r>
       <r>   -0.1923    1.0000 </r>
       <r>    2.1725   -0.0000 </r>
       <r>    2.3345   -0.0000 </r>
       <r>    2.4896   -0.0000 </r>
       <r>    2.5580   -0.0000 </r>
       <r>    2.5754   -0.0000 </r>
       <r>    2.5847   -0.0000 </r>
       <r>    3.1949    0.0000 </r>
       <r>    3.2108    0.0000 </r>
       <r>    5.7712    0.0000 </r>
       <r>    5.9121    0.0000 </r>
       <r>    7.1546    0.0000 </r>
       <r>    7.8306    0.0000 </r>
      </set>
      <set comment="kpoint 4">
       <r>  -34.9621    1.0000 </r>
       <r>  -34.9618    1.0000 </r>
       <r>  -34.9599    1.0000 </r>
       <r>  -34.9596    1.0000 </r>
       <r>  -34.8380    1.0000 </r>
       <r>  -34.8377    1.0000 </r>
       <r>  -13.2444    1.0000 </r>
       <r>  -13.2242    1.0000 </r>
       <r>  -12.3850    1.0000 </r>
       <r>  -12.3551    1.0000 </r>
       <r>   -4.9913    1.0000 </r>
       <r>   -4.8744    1.0000 </r>
       <r>   -3.7152    1.0000 </r>
       <r>   -3.6755    1.0000 </r>
       <r>   -3.4539    1.0000 </r>
       <r>   -3.3523    1.0000 </r>
       <r>   -2.3952    1.0000 </r>
       <r>   -2.3912    1.0000 </r>
       <r>   -1.9056    1.0000 </r>
       <r>   -1.9017    1.0000 </r>
       <r>   -1.4045    1.0000 </r>
       <r>   -1.1729    1.0000 </r>
       <r>   -0.6880    1.0000 </r>
       <r>   -0.6017    1.0000 </r>
       <r>    1.9623   -0.0000 </r>
       <r>    2.1866   -0.0000 </r>
       <r>    2.3087   -0.0000 </r>
       <r>    2.3251   -0.0000 </r>
       <r>    2.6892   -0.0000 </r>
       <r>    2.8471   -0.0000 </r>
       <r>    3.5765    0.0000 </r>
       <r>    3.5976    0.0000 </r>
       <r>    6.2873    0.0000 </r>
       <r>    6.4189    0.0000 </r>
       <r>    7.4536    0.0000 </r>
       <r>    8.3112    0.0000 </r>
      </set>
      <set comment="kpoint 5">
       <r>  -35.0474    1.0000 </r>
       <r>  -35.0471    1.0000 </r>
       <r>  -34.9428    1.0000 </r>
       <r>  -34.9425    1.0000 </r>
       <r>  -34.8579    1.0000 </r>
       <r>  -34.8576    1.0000 </r>
       <r>  -12.8056    1.0000 </r>
       <r>  -12.7863    1.0000 </r>
       <r>  -12.2076    1.0000 </r>
       <r>  -12.1819    1.0000 </r>
       <r>   -5.0763    1.0000 </r>
       <r>   -5.0202    1.0000 </r>
       <r>   -4.0098    1.0000 </r>
       <r>   -3.9372    1.0000 </r>
       <r>   -3.8675    1.0000 </r>
       <r>   -3.7770    1.0000 </r>
       <r>   -2.7506    1.0000 </r>
       <r>   -2.7463    1.0000 </r>
       <r>   -1.6798    1.0000 </r>
       <r>   -1.5103    1.0000 </r>
       <r>   -1.5039    1.0000 </r>
       <r>   -1.4619    1.0000 </r>
       <r>   -0.9816    1.0000 </r>
       <r>   -0.9179    1.0000 </r>
       <r>    2.0670   -0.0000 </r>
       <r>    2.1407   -0.0000 </r>
       <r>    2.1540   -0.0000 </r>
       <r>    2.2677   -0.0000 </r>
       <r>    3.1013    0.0000 </r>
       <r>    3.2975    0.0000 </r>
       <r>    3.8789    0.0000 </r>
       <r>    3.9067    0.0000 </r>
       <r>    6.8996    0.0000 </r>
       <r>    7.0271    0.0000 </r>
       <r>    7.5549    0.0000 </r>
       <r>    8.1080    0.0000 </r>
      </set>
      <set comment="kpoint 6">
       <r>  -35.1171    1.0000 </r>
       <r>  -35.1168    1.0000 </r>
       <r>  -34.9285    1.0000 </r>
       <r>  -34.9282    1.0000 </r>
       <r>  -34.8744    1.0000 </r>
       <r>  -34.8740    1.0000 </r>
       <r>  -12.3969    1.0000 </r>
       <r>  -12.3788    1.0000 </r>
       <r>  -12.0469    1.0000 </r>
       <r>  -12.0251    1.0000 </r>
       <r>   -5.4115    1.0000 </r>
       <r>   -5.3799    1.0000 </r>
       <r>   -4.4501    1.0000 </r>
       <r>   -4.3981    1.0000 </r>
       <r>   -3.9375    1.0000 </r>
       <r>   -3.8370    1.0000 </r>
       <r>   -3.0105    1.0000 </r>
       <r>   -3.0059    1.0000 </r>
       <r>   -1.8923    1.0000 </r>
       <r>   -1.6860    1.0000 </r>
       <r>   -1.1934    1.0000 </r>
       <r>   -1.1835    1.0000 </r>
       <r>   -0.9353    1.0000 </r>
       <r>   -0.8545    1.0000 </r>
       <r>    2.0966   -0.0000 </r>
       <r>    2.1050   -0.0000 </r>
       <r>    2.3285   -0.0000 </r>
       <r>    2.4575   -0.0000 </r>
       <r>    3.4962    0.0000 </r>
       <r>    3.7012    0.0000 </r>
       <r>    4.0672    0.0000 </r>
       <r>    4.1011    0.0000 </r>
       <r>    6.7591    0.0000 </r>
       <r>    7.1789    0.0000 </r>
       <r>    7.5817    0.0000 </r>
       <r>    7.7491    0.0000 </r>
      </set>
      <set comment="kpoint 7">
       <r>  -35.1562    1.0000 </r>
       <r>  -35.1559    1.0000 </r>
       <r>  -34.9205    1.0000 </r>
       <r>  -34.9202    1.0000 </r>
       <r>  -34.8836    1.0000 </r>
       <r>  -34.8833    1.0000 </r>
       <r>  -12.1411    1.0000 </r>
       <r>  -12.1241    1.0000 </r>
       <r>  -11.9496    1.0000 </r>
       <r>  -11.9301    1.0000 </r>
       <r>   -5.6561    1.0000 </r>
       <r>   -5.6289    1.0000 </r>
       <r>   -4.7069    1.0000 </r>
       <r>   -4.6620    1.0000 </r>
       <r>   -4.0389    1.0000 </r>
       <r>   -3.9463    1.0000 </r>
       <r>   -3.1464    1.0000 </r>
       <r>   -3.1418    1.0000 </r>
       <r>   -1.9966    1.0000 </r>
       <r>   -1.7974    1.0000 </r>
       <r>   -1.0266    1.0000 </r>
       <r>   -1.0140    1.0000 </r>
       <r>   -0.7174    1.0000 </r>
       <r>   -0.6186    1.0000 </r>
       <r>    2.1233   -0.0000 </r>
       <r>    2.1276   -0.0000 </r>
       <r>    2.5683   -0.0000 </r>
       <r>    2.6269   -0.0000 </r>
       <r>    3.7105    0.0000 </r>
       <r>    3.9144    0.0000 </r>
       <r>    4.1527    0.0000 </r>
       <r>    4.1904    0.0000 </r>
       <r>    6.0025    0.0000 </r>
       <r>    6.4962    0.0000 </r>
       <r>    7.8381    0.0000 </r>
       <r>    7.9629    0.0000 </r>
      </set>
      <set comment="kpoint 8">
       <r>  -34.9796    1.0000 </r>
       <r>  -34.9793    1.0000 </r>
       <r>  -34.8611    1.0000 </r>
       <r>  -34.8608    1.0000 </r>
       <r>  -34.8158    1.0000 </r>
       <r>  -34.8155    1.0000 </r>
       <r>  -13.6995    1.0000 </r>
       <r>  -13.6789    1.0000 </r>
       <r>  -12.5721    1.0000 </r>
       <r>  -12.5379    1.0000 </r>
       <r>   -5.3239    1.0000 </r>
       <r>   -5.1786    1.0000 </r>
       <r>   -3.1223    1.0000 </r>
       <r>   -3.1164    1.0000 </r>
       <r>   -2.7275    1.0000 </r>
       <r>   -2.5467    1.0000 </r>
       <r>   -2.3621    1.0000 </r>
       <r>   -2.3597    1.0000 </r>
       <r>   -1.9798    1.0000 </r>
       <r>   -1.9727    1.0000 </r>
       <r>   -1.1607    1.0000 </r>
       <r>   -0.9381    1.0000 </r>
       <r>   -0.3010    1.0000 </r>
       <r>   -0.1070    1.0014 </r>
       <r>    2.2845   -0.0000 </r>
       <r>    2.4082   -0.0000 </r>
       <r>    2.4514   -0.0000 </r>
       <r>    2.5257   -0.0000 </r>
       <r>    2.6137   -0.0000 </r>
       <r>    2.6379   -0.0000 </r>
       <r>    3.1212    0.0000 </r>
       <r>    3.1441    0.0000 </r>
       <r>    5.6614    0.0000 </r>
       <r>    5.8039    0.0000 </r>
       <r>    7.0388    0.0000 </r>
       <r>    7.5869    0.0000 </r>
      </set>
      <set comment="kpoint 9">
       <r>  -34.9659    1.0000 </r>
       <r>  -34.9656    1.0000 </r>
       <r>  -34.9287    1.0000 </r>
       <r>  -34.9284    1.0000 </r>
       <r>  -34.8343    1.0000 </r>
       <r>  -34.8340    1.0000 </r>
       <r>  -13.3876    1.0000 </r>
       <r>  -13.3673    1.0000 </r>
       <r>  -12.4433    1.0000 </r>
       <r>  -12.4120    1.0000 </r>
       <r>   -5.0480    1.0000 </r>
       <r>   -4.9144    1.0000 </r>
       <r>   -3.5645    1.0000 </r>
       <r>   -3.5432    1.0000 </r>
       <r>   -3.1823    1.0000 </r>
       <r>   -3.0571    1.0000 </r>
       <r>   -2.4671    1.0000 </r>
       <r>   -2.4463    1.0000 </r>
       <r>   -2.0782    1.0000 </r>
       <r>   -2.0743    1.0000 </r>
       <r>   -1.1445    1.0000 </r>
       <r>   -0.9302    1.0000 </r>
       <r>   -0.5437    1.0000 </r>
       <r>   -0.4356    1.0000 </r>
       <r>    1.9634   -0.0000 </r>
       <r>    2.1526   -0.0000 </r>
       <r>    2.3849   -0.0000 </r>
       <r>    2.4271   -0.0000 </r>
       <r>    2.4566   -0.0000 </r>
       <r>    2.5744   -0.0000 </r>
       <r>    3.5210    0.0000 </r>
       <r>    3.5622    0.0000 </r>
       <r>    6.0977    0.0000 </r>
       <r>    6.2339    0.0000 </r>
       <r>    7.4436    0.0000 </r>
       <r>    8.4591    0.0000 </r>
      </set>
      <set comment="kpoint 10">
       <r>  -35.0090    1.0000 </r>
       <r>  -35.0087    1.0000 </r>
       <r>  -34.9493    1.0000 </r>
       <r>  -34.9490    1.0000 </r>
       <r>  -34.8567    1.0000 </r>
       <r>  -34.8564    1.0000 </r>
       <r>  -12.9789    1.0000 </r>
       <r>  -12.9592    1.0000 </r>
       <r>  -12.2757    1.0000 </r>
       <r>  -12.2484    1.0000 </r>
       <r>   -4.9458    1.0000 </r>
       <r>   -4.8644    1.0000 </r>
       <r>   -3.8404    1.0000 </r>
       <r>   -3.7643    1.0000 </r>
       <r>   -3.7123    1.0000 </r>
       <r>   -3.6408    1.0000 </r>
       <r>   -2.8555    1.0000 </r>
       <r>   -2.8166    1.0000 </r>
       <r>   -1.7958    1.0000 </r>
       <r>   -1.7881    1.0000 </r>
       <r>   -1.3641    1.0000 </r>
       <r>   -1.1691    1.0000 </r>
       <r>   -0.8522    1.0000 </r>
       <r>   -0.7950    1.0000 </r>
       <r>    1.8714   -0.0000 </r>
       <r>    2.0367   -0.0000 </r>
       <r>    2.2727   -0.0000 </r>
       <r>    2.3519   -0.0000 </r>
       <r>    2.7442   -0.0000 </r>
       <r>    2.8984    0.0000 </r>
       <r>    3.8678    0.0000 </r>
       <r>    3.9294    0.0000 </r>
       <r>    6.6833    0.0000 </r>
       <r>    6.8067    0.0000 </r>
       <r>    7.6553    0.0000 </r>
       <r>    8.4887    0.0000 </r>
      </set>
      <set comment="kpoint 11">
       <r>  -35.0836    1.0000 </r>
       <r>  -35.0833    1.0000 </r>
       <r>  -34.9336    1.0000 </r>
       <r>  -34.9333    1.0000 </r>
       <r>  -34.8777    1.0000 </r>
       <r>  -34.8774    1.0000 </r>
       <r>  -12.5501    1.0000 </r>
       <r>  -12.5315    1.0000 </r>
       <r>  -12.1030    1.0000 </r>
       <r>  -12.0797    1.0000 </r>
       <r>   -5.1946    1.0000 </r>
       <r>   -5.1560    1.0000 </r>
       <r>   -4.2667    1.0000 </r>
       <r>   -4.2180    1.0000 </r>
       <r>   -3.8596    1.0000 </r>
       <r>   -3.7554    1.0000 </r>
       <r>   -3.0673    1.0000 </r>
       <r>   -3.0300    1.0000 </r>
       <r>   -1.6803    1.0000 </r>
       <r>   -1.6236    1.0000 </r>
       <r>   -1.6219    1.0000 </r>
       <r>   -1.4738    1.0000 </r>
       <r>   -0.8743    1.0000 </r>
       <r>   -0.8291    1.0000 </r>
       <r>    1.9768   -0.0000 </r>
       <r>    2.0801   -0.0000 </r>
       <r>    2.3208   -0.0000 </r>
       <r>    2.4073   -0.0000 </r>
       <r>    3.1735    0.0000 </r>
       <r>    3.3358    0.0000 </r>
       <r>    4.0648    0.0000 </r>
       <r>    4.1487    0.0000 </r>
       <r>    7.1973    0.0000 </r>
       <r>    7.3951    0.0000 </r>
       <r>    7.5472    0.0000 </r>
       <r>    7.9856    0.0000 </r>
      </set>
      <set comment="kpoint 12">
       <r>  -35.1360    1.0000 </r>
       <r>  -35.1357    1.0000 </r>
       <r>  -34.9224    1.0000 </r>
       <r>  -34.9221    1.0000 </r>
       <r>  -34.8926    1.0000 </r>
       <r>  -34.8923    1.0000 </r>
       <r>  -12.2101    1.0000 </r>
       <r>  -12.1927    1.0000 </r>
       <r>  -11.9697    1.0000 </r>
       <r>  -11.9495    1.0000 </r>
       <r>   -5.4856    1.0000 </r>
       <r>   -5.4576    1.0000 </r>
       <r>   -4.6614    1.0000 </r>
       <r>   -4.6225    1.0000 </r>
       <r>   -3.9587    1.0000 </r>
       <r>   -3.8615    1.0000 </r>
       <r>   -3.1574    1.0000 </r>
       <r>   -3.1312    1.0000 </r>
       <r>   -1.9024    1.0000 </r>
       <r>   -1.7173    1.0000 </r>
       <r>   -1.4982    1.0000 </r>
       <r>   -1.4615    1.0000 </r>
       <r>   -0.6589    1.0000 </r>
       <r>   -0.6028    1.0000 </r>
       <r>    2.1100   -0.0000 </r>
       <r>    2.1534   -0.0000 </r>
       <r>    2.5036   -0.0000 </r>
       <r>    2.5717   -0.0000 </r>
       <r>    3.5750    0.0000 </r>
       <r>    3.7208    0.0000 </r>
       <r>    4.0680    0.0000 </r>
       <r>    4.1797    0.0000 </r>
       <r>    6.4070    0.0000 </r>
       <r>    6.8985    0.0000 </r>
       <r>    8.0062    0.0000 </r>
       <r>    8.0681    0.0000 </r>
      </set>
      <set comment="kpoint 13">
       <r>  -35.1548    1.0000 </r>
       <r>  -35.1544    1.0000 </r>
       <r>  -34.9184    1.0000 </r>
       <r>  -34.9181    1.0000 </r>
       <r>  -34.8979    1.0000 </r>
       <r>  -34.8976    1.0000 </r>
       <r>  -12.0778    1.0000 </r>
       <r>  -12.0611    1.0000 </r>
       <r>  -11.9189    1.0000 </r>
       <r>  -11.8999    1.0000 </r>
       <r>   -5.6047    1.0000 </r>
       <r>   -5.5782    1.0000 </r>
       <r>   -4.8057    1.0000 </r>
       <r>   -4.7690    1.0000 </r>
       <r>   -4.0278    1.0000 </r>
       <r>   -3.9359    1.0000 </r>
       <r>   -3.1797    1.0000 </r>
       <r>   -3.1594    1.0000 </r>
       <r>   -1.9896    1.0000 </r>
       <r>   -1.8019    1.0000 </r>
       <r>   -1.4309    1.0000 </r>
       <r>   -1.3926    1.0000 </r>
       <r>   -0.5251    1.0000 </r>
       <r>   -0.4595    1.0000 </r>
       <r>    2.1387   -0.0000 </r>
       <r>    2.1576   -0.0000 </r>
       <r>    2.6484   -0.0000 </r>
       <r>    2.6974   -0.0000 </r>
       <r>    3.8390    0.0000 </r>
       <r>    3.9309    0.0000 </r>
       <r>    3.9439    0.0000 </r>
       <r>    4.0875    0.0000 </r>
       <r>    5.9788    0.0000 </r>
       <r>    6.5002    0.0000 </r>
       <r>    8.2425    0.0000 </r>
       <r>    8.3836    0.0000 </r>
      </set>
      <set comment="kpoint 14">
       <r>  -34.9908    1.0000 </r>
       <r>  -34.9905    1.0000 </r>
       <r>  -34.9516    1.0000 </r>
       <r>  -34.9513    1.0000 </r>
       <r>  -34.8607    1.0000 </r>
       <r>  -34.8603    1.0000 </r>
       <r>  -13.0399    1.0000 </r>
       <r>  -13.0200    1.0000 </r>
       <r>  -12.2992    1.0000 </r>
       <r>  -12.2713    1.0000 </r>
       <r>   -4.8898    1.0000 </r>
       <r>   -4.7945    1.0000 </r>
       <r>   -3.7976    1.0000 </r>
       <r>   -3.7356    1.0000 </r>
       <r>   -3.4969    1.0000 </r>
       <r>   -3.4298    1.0000 </r>
       <r>   -3.0867    1.0000 </r>
       <r>   -3.0222    1.0000 </r>
       <r>   -1.9477    1.0000 </r>
       <r>   -1.9400    1.0000 </r>
       <r>   -1.1332    1.0000 </r>
       <r>   -0.9521    1.0000 </r>
       <r>   -0.7872    1.0000 </r>
       <r>   -0.7308    1.0000 </r>
       <r>    1.7805   -0.0000 </r>
       <r>    1.9571   -0.0000 </r>
       <r>    2.3173   -0.0000 </r>
       <r>    2.3981   -0.0000 </r>
       <r>    2.5121   -0.0000 </r>
       <r>    2.6483   -0.0000 </r>
       <r>    3.9061    0.0000 </r>
       <r>    3.9851    0.0000 </r>
       <r>    6.6154    0.0000 </r>
       <r>    6.7384    0.0000 </r>
       <r>    7.7557    0.0000 </r>
       <r>    8.5524    0.0000 </r>
      </set>
      <set comment="kpoint 15">
       <r>  -35.0536    1.0000 </r>
       <r>  -35.0533    1.0000 </r>
       <r>  -34.9365    1.0000 </r>
       <r>  -34.9361    1.0000 </r>
       <r>  -34.8910    1.0000 </r>
       <r>  -34.8907    1.0000 </r>
       <r>  -12.6355    1.0000 </r>
       <r>  -12.6166    1.0000 </r>
       <r>  -12.1319    1.0000 </r>
       <r>  -12.1077    1.0000 </r>
       <r>   -4.9921    1.0000 </r>
       <r>   -4.9447    1.0000 </r>
       <r>   -4.0861    1.0000 </r>
       <r>   -4.0573    1.0000 </r>
       <r>   -3.7693    1.0000 </r>
       <r>   -3.6624    1.0000 </r>
       <r>   -3.2908    1.0000 </r>
       <r>   -3.2055    1.0000 </r>
       <r>   -2.0742    1.0000 </r>
       <r>   -2.0596    1.0000 </r>
       <r>   -1.3550    1.0000 </r>
       <r>   -1.1923    1.0000 </r>
       <r>   -0.8426    1.0000 </r>
       <r>   -0.8160    1.0000 </r>
       <r>    1.8209   -0.0000 </r>
       <r>    2.0010   -0.0000 </r>
       <r>    2.3855   -0.0000 </r>
       <r>    2.4374   -0.0000 </r>
       <r>    2.7794   -0.0000 </r>
       <r>    2.9227    0.0000 </r>
       <r>    4.1571    0.0000 </r>
       <r>    4.2698    0.0000 </r>
       <r>    7.2434    0.0000 </r>
       <r>    7.3579    0.0000 </r>
       <r>    7.8464    0.0000 </r>
       <r>    8.3701    0.0000 </r>
      </set>
      <set comment="kpoint 16">
       <r>  -35.1042    1.0000 </r>
       <r>  -35.1039    1.0000 </r>
       <r>  -34.9239    1.0000 </r>
       <r>  -34.9235    1.0000 </r>
       <r>  -34.9170    1.0000 </r>
       <r>  -34.9166    1.0000 </r>
       <r>  -12.2636    1.0000 </r>
       <r>  -12.2459    1.0000 </r>
       <r>  -11.9791    1.0000 </r>
       <r>  -11.9582    1.0000 </r>
       <r>   -5.2052    1.0000 </r>
       <r>   -5.1749    1.0000 </r>
       <r>   -4.6343    1.0000 </r>
       <r>   -4.6104    1.0000 </r>
       <r>   -3.7891    1.0000 </r>
       <r>   -3.6829    1.0000 </r>
       <r>   -3.2618    1.0000 </r>
       <r>   -3.1932    1.0000 </r>
       <r>   -2.2098    1.0000 </r>
       <r>   -2.1785    1.0000 </r>
       <r>   -1.6903    1.0000 </r>
       <r>   -1.5313    1.0000 </r>
       <r>   -0.6687    1.0000 </r>
       <r>   -0.6423    1.0000 </r>
       <r>    2.0429   -0.0000 </r>
       <r>    2.1786   -0.0000 </r>
       <r>    2.5061   -0.0000 </r>
       <r>    2.5422   -0.0000 </r>
       <r>    3.1327    0.0000 </r>
       <r>    3.2634    0.0000 </r>
       <r>    4.2295    0.0000 </r>
       <r>    4.3742    0.0000 </r>
       <r>    7.0181    0.0000 </r>
       <r>    7.4919    0.0000 </r>
       <r>    8.0915    0.0000 </r>
       <r>    8.3230    0.0000 </r>
      </set>
      <set comment="kpoint 17">
       <r>  -35.1324    1.0000 </r>
       <r>  -35.1321    1.0000 </r>
       <r>  -34.9318    1.0000 </r>
       <r>  -34.9315    1.0000 </r>
       <r>  -34.9167    1.0000 </r>
       <r>  -34.9164    1.0000 </r>
       <r>  -12.0344    1.0000 </r>
       <r>  -12.0178    1.0000 </r>
       <r>  -11.8857    1.0000 </r>
       <r>  -11.8668    1.0000 </r>
       <r>   -5.3405    1.0000 </r>
       <r>   -5.3145    1.0000 </r>
       <r>   -4.9427    1.0000 </r>
       <r>   -4.9195    1.0000 </r>
       <r>   -3.9287    1.0000 </r>
       <r>   -3.8353    1.0000 </r>
       <r>   -3.1767    1.0000 </r>
       <r>   -3.1273    1.0000 </r>
       <r>   -2.2112    1.0000 </r>
       <r>   -2.1659    1.0000 </r>
       <r>   -1.9465    1.0000 </r>
       <r>   -1.7796    1.0000 </r>
       <r>   -0.4397    1.0000 </r>
       <r>   -0.4023    1.0000 </r>
       <r>    2.0653   -0.0000 </r>
       <r>    2.1008   -0.0000 </r>
       <r>    2.7685   -0.0000 </r>
       <r>    2.8473   -0.0000 </r>
       <r>    3.3958    0.0000 </r>
       <r>    3.5014    0.0000 </r>
       <r>    4.1794    0.0000 </r>
       <r>    4.3561    0.0000 </r>
       <r>    6.3200    0.0000 </r>
       <r>    6.8634    0.0000 </r>
       <r>    8.6018    0.0000 </r>
       <r>    8.8152    0.0000 </r>
      </set>
      <set comment="kpoint 18">
       <r>  -35.0861    1.0000 </r>
       <r>  -35.0858    1.0000 </r>
       <r>  -34.9325    1.0000 </r>
       <r>  -34.9322    1.0000 </r>
       <r>  -34.9244    1.0000 </r>
       <r>  -34.9240    1.0000 </r>
       <r>  -12.2837    1.0000 </r>
       <r>  -12.2659    1.0000 </r>
       <r>  -11.9815    1.0000 </r>
       <r>  -11.9603    1.0000 </r>
       <r>   -5.0564    1.0000 </r>
       <r>   -5.0238    1.0000 </r>
       <r>   -4.6208    1.0000 </r>
       <r>   -4.6054    1.0000 </r>
       <r>   -3.6410    1.0000 </r>
       <r>   -3.5222    1.0000 </r>
       <r>   -3.3229    1.0000 </r>
       <r>   -3.2350    1.0000 </r>
       <r>   -2.6041    1.0000 </r>
       <r>   -2.5858    1.0000 </r>
       <r>   -1.5767    1.0000 </r>
       <r>   -1.4293    1.0000 </r>
       <r>   -0.6920    1.0000 </r>
       <r>   -0.6774    1.0000 </r>
       <r>    1.9994   -0.0000 </r>
       <r>    2.1761   -0.0000 </r>
       <r>    2.5207   -0.0000 </r>
       <r>    2.5414   -0.0000 </r>
       <r>    2.9130    0.0000 </r>
       <r>    3.0489    0.0000 </r>
       <r>    4.3327    0.0000 </r>
       <r>    4.4781    0.0000 </r>
       <r>    7.4125    0.0000 </r>
       <r>    7.8141    0.0000 </r>
       <r>    8.0570    0.0000 </r>
       <r>    8.3617    0.0000 </r>
      </set>
      <set comment="kpoint 19">
       <r>  -35.1029    1.0000 </r>
       <r>  -35.1026    1.0000 </r>
       <r>  -34.9681    1.0000 </r>
       <r>  -34.9678    1.0000 </r>
       <r>  -34.9158    1.0000 </r>
       <r>  -34.9154    1.0000 </r>
       <r>  -12.0138    1.0000 </r>
       <r>  -11.9971    1.0000 </r>
       <r>  -11.8636    1.0000 </r>
       <r>  -11.8447    1.0000 </r>
       <r>   -5.0476    1.0000 </r>
       <r>   -5.0287    1.0000 </r>
       <r>   -5.0284    1.0000 </r>
       <r>   -5.0063    1.0000 </r>
       <r>   -3.7216    1.0000 </r>
       <r>   -3.6256    1.0000 </r>
       <r>   -3.1660    1.0000 </r>
       <r>   -3.0948    1.0000 </r>
       <r>   -2.9601    1.0000 </r>
       <r>   -2.9161    1.0000 </r>
       <r>   -1.9091    1.0000 </r>
       <r>   -1.7584    1.0000 </r>
       <r>   -0.4249    1.0000 </r>
       <r>   -0.4072    1.0000 </r>
       <r>    1.9580   -0.0000 </r>
       <r>    2.0070   -0.0000 </r>
       <r>    2.8562   -0.0000 </r>
       <r>    2.9656    0.0000 </r>
       <r>    3.0406    0.0000 </r>
       <r>    3.1707    0.0000 </r>
       <r>    4.4452    0.0000 </r>
       <r>    4.5999    0.0000 </r>
       <r>    6.8696    0.0000 </r>
       <r>    7.3989    0.0000 </r>
       <r>    8.2237    0.0000 </r>
       <r>    8.6348    0.0000 </r>
      </set>
      <set comment="kpoint 20">
       <r>  -35.1073    1.0000 </r>
       <r>  -35.1070    1.0000 </r>
       <r>  -34.9826    1.0000 </r>
       <r>  -34.9823    1.0000 </r>
       <r>  -34.9127    1.0000 </r>
       <r>  -34.9123    1.0000 </r>
       <r>  -11.9117    1.0000 </r>
       <r>  -11.8955    1.0000 </r>
       <r>  -11.8183    1.0000 </r>
       <r>  -11.8002    1.0000 </r>
       <r>   -5.1956    1.0000 </r>
       <r>   -5.1803    1.0000 </r>
       <r>   -4.9848    1.0000 </r>
       <r>   -4.9610    1.0000 </r>
       <r>   -3.8798    1.0000 </r>
       <r>   -3.7996    1.0000 </r>
       <r>   -3.0496    1.0000 </r>
       <r>   -3.0180    1.0000 </r>
       <r>   -2.9923    1.0000 </r>
       <r>   -2.9588    1.0000 </r>
       <r>   -2.0948    1.0000 </r>
       <r>   -1.9330    1.0000 </r>
       <r>   -0.2524    1.0000 </r>
       <r>   -0.2295    1.0000 </r>
       <r>    1.8273   -0.0000 </r>
       <r>    1.8399   -0.0000 </r>
       <r>    3.0581    0.0000 </r>
       <r>    3.1177    0.0000 </r>
       <r>    3.1899    0.0000 </r>
       <r>    3.2375    0.0000 </r>
       <r>    4.4895    0.0000 </r>
       <r>    4.6434    0.0000 </r>
       <r>    6.5428    0.0000 </r>
       <r>    7.0926    0.0000 </r>
       <r>    8.1820    0.0000 </r>
       <r>    8.6382    0.0000 </r>
      </set>
      <set comment="kpoint 21">
       <r>  -35.0828    1.0000 </r>
       <r>  -35.0825    1.0000 </r>
       <r>  -35.0164    1.0000 </r>
       <r>  -35.0161    1.0000 </r>
       <r>  -34.9112    1.0000 </r>
       <r>  -34.9109    1.0000 </r>
       <r>  -11.8681    1.0000 </r>
       <r>  -11.8521    1.0000 </r>
       <r>  -11.7921    1.0000 </r>
       <r>  -11.7743    1.0000 </r>
       <r>   -5.2945    1.0000 </r>
       <r>   -5.2816    1.0000 </r>
       <r>   -4.6949    1.0000 </r>
       <r>   -4.6711    1.0000 </r>
       <r>   -3.8392    1.0000 </r>
       <r>   -3.8047    1.0000 </r>
       <r>   -3.5086    1.0000 </r>
       <r>   -3.4009    1.0000 </r>
       <r>   -2.9436    1.0000 </r>
       <r>   -2.8910    1.0000 </r>
       <r>   -2.1917    1.0000 </r>
       <r>   -2.0281    1.0000 </r>
       <r>   -0.1544    1.0001 </r>
       <r>   -0.1379    1.0003 </r>
       <r>    1.6789   -0.0000 </r>
       <r>    1.6868   -0.0000 </r>
       <r>    2.9341    0.0000 </r>
       <r>    3.0794    0.0000 </r>
       <r>    3.2504    0.0000 </r>
       <r>    3.3856    0.0000 </r>
       <r>    4.6417    0.0000 </r>
       <r>    4.7792    0.0000 </r>
       <r>    6.9091    0.0000 </r>
       <r>    7.4134    0.0000 </r>
       <r>    7.5080    0.0000 </r>
       <r>    8.0477    0.0000 </r>
      </set>
     </set>
     <set comment="spin 2">
      <set comment="kpoint 1">
       <r>  -34.9915    1.0000 </r>
       <r>  -34.9912    1.0000 </r>
       <r>  -34.8010    1.0000 </r>
       <r>  -34.8009    1.0000 </r>
       <r>  -34.8006    1.0000 </r>
       <r>  -34.8006    1.0000 </r>
       <r>  -13.9536    1.0000 </r>
       <r>  -13.9330    1.0000 </r>
       <r>  -12.6772    1.0000 </r>
       <r>  -12.6405    1.0000 </r>
       <r>   -5.6049    1.0000 </r>
       <r>   -5.4583    1.0000 </r>
       <r>   -2.6207    1.0000 </r>
       <r>   -2.6207    1.0000 </r>
       <r>   -2.6191    1.0000 </r>
       <r>   -2.6191    1.0000 </r>
       <r>   -2.0466    1.0000 </r>
       <r>   -1.6087    1.0000 </r>
       <r>   -1.5275    1.0000 </r>
       <r>   -1.5274    1.0000 </r>
       <r>   -1.5244    1.0000 </r>
       <r>   -1.5244    1.0000 </r>
       <r>   -0.1933    1.0000 </r>
       <r>    0.0948    0.8308 </r>
       <r>    2.7003   -0.0000 </r>
       <r>    2.7003   -0.0000 </r>
       <r>    2.7124   -0.0000 </r>
       <r>    2.7124   -0.0000 </r>
       <r>    2.8812    0.0000 </r>
       <r>    2.8812    0.0000 </r>
       <r>    2.8979    0.0000 </r>
       <r>    2.8980    0.0000 </r>
       <r>    5.2716    0.0000 </r>
       <r>    5.4063    0.0000 </r>
       <r>    6.2867    0.0000 </r>
       <r>    6.5419    0.0000 </r>
      </set>
      <set comment="kpoint 2">
       <r>  -34.9874    1.0000 </r>
       <r>  -34.9871    1.0000 </r>
       <r>  -34.8222    1.0000 </r>
       <r>  -34.8219    1.0000 </r>
       <r>  -34.8058    1.0000 </r>
       <r>  -34.8055    1.0000 </r>
       <r>  -13.8670    1.0000 </r>
       <r>  -13.8464    1.0000 </r>
       <r>  -12.6414    1.0000 </r>
       <r>  -12.6055    1.0000 </r>
       <r>   -5.5055    1.0000 </r>
       <r>   -5.3590    1.0000 </r>
       <r>   -2.8079    1.0000 </r>
       <r>   -2.8052    1.0000 </r>
       <r>   -2.5300    1.0000 </r>
       <r>   -2.5283    1.0000 </r>
       <r>   -2.3713    1.0000 </r>
       <r>   -2.1363    1.0000 </r>
       <r>   -1.6649    1.0000 </r>
       <r>   -1.6617    1.0000 </r>
       <r>   -1.3274    1.0000 </r>
       <r>   -1.1315    1.0000 </r>
       <r>   -0.2185    1.0000 </r>
       <r>    0.0369    1.0263 </r>
       <r>    2.5763   -0.0000 </r>
       <r>    2.6063   -0.0000 </r>
       <r>    2.6342   -0.0000 </r>
       <r>    2.7046   -0.0000 </r>
       <r>    2.7861   -0.0000 </r>
       <r>    2.8028   -0.0000 </r>
       <r>    2.8478   -0.0000 </r>
       <r>    2.8611   -0.0000 </r>
       <r>    5.4113    0.0000 </r>
       <r>    5.5453    0.0000 </r>
       <r>    6.6299    0.0000 </r>
       <r>    6.9265    0.0000 </r>
      </set>
      <set comment="kpoint 3">
       <r>  -34.9760    1.0000 </r>
       <r>  -34.9757    1.0000 </r>
       <r>  -34.8807    1.0000 </r>
       <r>  -34.8804    1.0000 </r>
       <r>  -34.8192    1.0000 </r>
       <r>  -34.8189    1.0000 </r>
       <r>  -13.6188    1.0000 </r>
       <r>  -13.5983    1.0000 </r>
       <r>  -12.5388    1.0000 </r>
       <r>  -12.5054    1.0000 </r>
       <r>   -5.2458    1.0000 </r>
       <r>   -5.1024    1.0000 </r>
       <r>   -3.2591    1.0000 </r>
       <r>   -3.2499    1.0000 </r>
       <r>   -2.8984    1.0000 </r>
       <r>   -2.7432    1.0000 </r>
       <r>   -2.2746    1.0000 </r>
       <r>   -2.2722    1.0000 </r>
       <r>   -2.0001    1.0000 </r>
       <r>   -1.9965    1.0000 </r>
       <r>   -1.2295    1.0000 </r>
       <r>   -0.9926    1.0000 </r>
       <r>   -0.3595    1.0000 </r>
       <r>   -0.1923    1.0000 </r>
       <r>    2.1724   -0.0000 </r>
       <r>    2.3344   -0.0000 </r>
       <r>    2.4895   -0.0000 </r>
       <r>    2.5580   -0.0000 </r>
       <r>    2.5754   -0.0000 </r>
       <r>    2.5847   -0.0000 </r>
       <r>    3.1949    0.0000 </r>
       <r>    3.2108    0.0000 </r>
       <r>    5.7667    0.0000 </r>
       <r>    5.8964    0.0000 </r>
       <r>    7.1442    0.0000 </r>
       <r>    7.8555    0.0000 </r>
      </set>
      <set comment="kpoint 4">
       <r>  -34.9622    1.0000 </r>
       <r>  -34.9618    1.0000 </r>
       <r>  -34.9599    1.0000 </r>
       <r>  -34.9596    1.0000 </r>
       <r>  -34.8380    1.0000 </r>
       <r>  -34.8377    1.0000 </r>
       <r>  -13.2444    1.0000 </r>
       <r>  -13.2242    1.0000 </r>
       <r>  -12.3850    1.0000 </r>
       <r>  -12.3551    1.0000 </r>
       <r>   -4.9913    1.0000 </r>
       <r>   -4.8744    1.0000 </r>
       <r>   -3.7152    1.0000 </r>
       <r>   -3.6755    1.0000 </r>
       <r>   -3.4539    1.0000 </r>
       <r>   -3.3523    1.0000 </r>
       <r>   -2.3952    1.0000 </r>
       <r>   -2.3912    1.0000 </r>
       <r>   -1.9056    1.0000 </r>
       <r>   -1.9017    1.0000 </r>
       <r>   -1.4045    1.0000 </r>
       <r>   -1.1729    1.0000 </r>
       <r>   -0.6880    1.0000 </r>
       <r>   -0.6017    1.0000 </r>
       <r>    1.9623   -0.0000 </r>
       <r>    2.1865   -0.0000 </r>
       <r>    2.3087   -0.0000 </r>
       <r>    2.3251   -0.0000 </r>
       <r>    2.6891   -0.0000 </r>
       <r>    2.8471   -0.0000 </r>
       <r>    3.5765    0.0000 </r>
       <r>    3.5976    0.0000 </r>
       <r>    6.2826    0.0000 </r>
       <r>    6.4032    0.0000 </r>
       <r>    7.4516    0.0000 </r>
       <r>    8.3016    0.0000 </r>
      </set>
      <set comment="kpoint 5">
       <r>  -35.0474    1.0000 </r>
       <r>  -35.0471    1.0000 </r>
       <r>  -34.9428    1.0000 </r>
       <r>  -34.9425    1.0000 </r>
       <r>  -34.8579    1.0000 </r>
       <r>  -34.8576    1.0000 </r>
       <r>  -12.8056    1.0000 </r>
       <r>  -12.7863    1.0000 </r>
       <r>  -12.2076    1.0000 </r>
       <r>  -12.1819    1.0000 </r>
       <r>   -5.0763    1.0000 </r>
       <r>   -5.0202    1.0000 </r>
       <r>   -4.0098    1.0000 </r>
       <r>   -3.9373    1.0000 </r>
       <r>   -3.8676    1.0000 </r>
       <r>   -3.7770    1.0000 </r>
       <r>   -2.7506    1.0000 </r>
       <r>   -2.7463    1.0000 </r>
       <r>   -1.6799    1.0000 </r>
       <r>   -1.5103    1.0000 </r>
       <r>   -1.5039    1.0000 </r>
       <r>   -1.4619    1.0000 </r>
       <r>   -0.9816    1.0000 </r>
       <r>   -0.9179    1.0000 </r>
       <r>    2.0670   -0.0000 </r>
       <r>    2.1407   -0.0000 </r>
       <r>    2.1540   -0.0000 </r>
       <r>    2.2677   -0.0000 </r>
       <r>    3.1013    0.0000 </r>
       <r>    3.2974    0.0000 </r>
       <r>    3.8789    0.0000 </r>
       <r>    3.9067    0.0000 </r>
       <r>    6.8987    0.0000 </r>
       <r>    7.0137    0.0000 </r>
       <r>    7.5473    0.0000 </r>
       <r>    8.2207    0.0000 </r>
      </set>
      <set comment="kpoint 6">
       <r>  -35.1172    1.0000 </r>
       <r>  -35.1168    1.0000 </r>
       <r>  -34.9286    1.0000 </r>
       <r>  -34.9282    1.0000 </r>
       <r>  -34.8744    1.0000 </r>
       <r>  -34.8741    1.0000 </r>
       <r>  -12.3969    1.0000 </r>
       <r>  -12.3788    1.0000 </r>
       <r>  -12.0469    1.0000 </r>
       <r>  -12.0251    1.0000 </r>
       <r>   -5.4115    1.0000 </r>
       <r>   -5.3799    1.0000 </r>
       <r>   -4.4501    1.0000 </r>
       <r>   -4.3981    1.0000 </r>
       <r>   -3.9375    1.0000 </r>
       <r>   -3.8370    1.0000 </r>
       <r>   -3.0105    1.0000 </r>
       <r>   -3.0060    1.0000 </r>
       <r>   -1.8924    1.0000 </r>
       <r>   -1.6861    1.0000 </r>
       <r>   -1.1934    1.0000 </r>
       <r>   -1.1835    1.0000 </r>
       <r>   -0.9353    1.0000 </r>
       <r>   -0.8545    1.0000 </r>
       <r>    2.0966   -0.0000 </r>
       <r>    2.1050   -0.0000 </r>
       <r>    2.3284   -0.0000 </r>
       <r>    2.4575   -0.0000 </r>
       <r>    3.4962    0.0000 </r>
       <r>    3.7011    0.0000 </r>
       <r>    4.0671    0.0000 </r>
       <r>    4.1011    0.0000 </r>
       <r>    6.7599    0.0000 </r>
       <r>    7.1753    0.0000 </r>
       <r>    7.5782    0.0000 </r>
       <r>    7.8158    0.0000 </r>
      </set>
      <set comment="kpoint 7">
       <r>  -35.1562    1.0000 </r>
       <r>  -35.1559    1.0000 </r>
       <r>  -34.9205    1.0000 </r>
       <r>  -34.9202    1.0000 </r>
       <r>  -34.8836    1.0000 </r>
       <r>  -34.8833    1.0000 </r>
       <r>  -12.1411    1.0000 </r>
       <r>  -12.1242    1.0000 </r>
       <r>  -11.9496    1.0000 </r>
       <r>  -11.9301    1.0000 </r>
       <r>   -5.6561    1.0000 </r>
       <r>   -5.6289    1.0000 </r>
       <r>   -4.7069    1.0000 </r>
       <r>   -4.6620    1.0000 </r>
       <r>   -4.0389    1.0000 </r>
       <r>   -3.9463    1.0000 </r>
       <r>   -3.1464    1.0000 </r>
       <r>   -3.1418    1.0000 </r>
       <r>   -1.9966    1.0000 </r>
       <r>   -1.7975    1.0000 </r>
       <r>   -1.0266    1.0000 </r>
       <r>   -1.0140    1.0000 </r>
       <r>   -0.7174    1.0000 </r>
       <r>   -0.6186    1.0000 </r>
       <r>    2.1233   -0.0000 </r>
       <r>    2.1276   -0.0000 </r>
       <r>    2.5683   -0.0000 </r>
       <r>    2.6269   -0.0000 </r>
       <r>    3.7105    0.0000 </r>
       <r>    3.9143    0.0000 </r>
       <r>    4.1527    0.0000 </r>
       <r>    4.1903    0.0000 </r>
       <r>    6.0024    0.0000 </r>
       <r>    6.4959    0.0000 </r>
       <r>    7.8408    0.0000 </r>
       <r>    7.9646    0.0000 </r>
      </set>
      <set comment="kpoint 8">
       <r>  -34.9797    1.0000 </r>
       <r>  -34.9793    1.0000 </r>
       <r>  -34.8611    1.0000 </r>
       <r>  -34.8608    1.0000 </r>
       <r>  -34.8158    1.0000 </r>
       <r>  -34.8155    1.0000 </r>
       <r>  -13.6996    1.0000 </r>
       <r>  -13.6790    1.0000 </r>
       <r>  -12.5721    1.0000 </r>
       <r>  -12.5379    1.0000 </r>
       <r>   -5.3239    1.0000 </r>
       <r>   -5.1786    1.0000 </r>
       <r>   -3.1223    1.0000 </r>
       <r>   -3.1164    1.0000 </r>
       <r>   -2.7275    1.0000 </r>
       <r>   -2.5468    1.0000 </r>
       <r>   -2.3621    1.0000 </r>
       <r>   -2.3597    1.0000 </r>
       <r>   -1.9798    1.0000 </r>
       <r>   -1.9728    1.0000 </r>
       <r>   -1.1607    1.0000 </r>
       <r>   -0.9382    1.0000 </r>
       <r>   -0.3011    1.0000 </r>
       <r>   -0.1070    1.0014 </r>
       <r>    2.2845   -0.0000 </r>
       <r>    2.4080   -0.0000 </r>
       <r>    2.4513   -0.0000 </r>
       <r>    2.5257   -0.0000 </r>
       <r>    2.6137   -0.0000 </r>
       <r>    2.6379   -0.0000 </r>
       <r>    3.1212    0.0000 </r>
       <r>    3.1441    0.0000 </r>
       <r>    5.6572    0.0000 </r>
       <r>    5.7883    0.0000 </r>
       <r>    7.0329    0.0000 </r>
       <r>    7.7571    0.0000 </r>
      </set>
      <set comment="kpoint 9">
       <r>  -34.9659    1.0000 </r>
       <r>  -34.9656    1.0000 </r>
       <r>  -34.9287    1.0000 </r>
       <r>  -34.9284    1.0000 </r>
       <r>  -34.8343    1.0000 </r>
       <r>  -34.8340    1.0000 </r>
       <r>  -13.3876    1.0000 </r>
       <r>  -13.3673    1.0000 </r>
       <r>  -12.4433    1.0000 </r>
       <r>  -12.4120    1.0000 </r>
       <r>   -5.0480    1.0000 </r>
       <r>   -4.9144    1.0000 </r>
       <r>   -3.5645    1.0000 </r>
       <r>   -3.5432    1.0000 </r>
       <r>   -3.1823    1.0000 </r>
       <r>   -3.0571    1.0000 </r>
       <r>   -2.4671    1.0000 </r>
       <r>   -2.4463    1.0000 </r>
       <r>   -2.0782    1.0000 </r>
       <r>   -2.0743    1.0000 </r>
       <r>   -1.1445    1.0000 </r>
       <r>   -0.9302    1.0000 </r>
       <r>   -0.5437    1.0000 </r>
       <r>   -0.4356    1.0000 </r>
       <r>    1.9633   -0.0000 </r>
       <r>    2.1525   -0.0000 </r>
       <r>    2.3849   -0.0000 </r>
       <r>    2.4271   -0.0000 </r>
       <r>    2.4565   -0.0000 </r>
       <r>    2.5744   -0.0000 </r>
       <r>    3.5210    0.0000 </r>
       <r>    3.5621    0.0000 </r>
       <r>    6.0934    0.0000 </r>
       <r>    6.2177    0.0000 </r>
       <r>    7.4430    0.0000 </r>
       <r>    8.1413    0.0000 </r>
      </set>
      <set comment="kpoint 10">
       <r>  -35.0090    1.0000 </r>
       <r>  -35.0087    1.0000 </r>
       <r>  -34.9493    1.0000 </r>
       <r>  -34.9490    1.0000 </r>
       <r>  -34.8567    1.0000 </r>
       <r>  -34.8564    1.0000 </r>
       <r>  -12.9789    1.0000 </r>
       <r>  -12.9592    1.0000 </r>
       <r>  -12.2757    1.0000 </r>
       <r>  -12.2484    1.0000 </r>
       <r>   -4.9458    1.0000 </r>
       <r>   -4.8644    1.0000 </r>
       <r>   -3.8404    1.0000 </r>
       <r>   -3.7644    1.0000 </r>
       <r>   -3.7124    1.0000 </r>
       <r>   -3.6408    1.0000 </r>
       <r>   -2.8555    1.0000 </r>
       <r>   -2.8166    1.0000 </r>
       <r>   -1.7958    1.0000 </r>
       <r>   -1.7881    1.0000 </r>
       <r>   -1.3641    1.0000 </r>
       <r>   -1.1692    1.0000 </r>
       <r>   -0.8523    1.0000 </r>
       <r>   -0.7950    1.0000 </r>
       <r>    1.8713   -0.0000 </r>
       <r>    2.0367   -0.0000 </r>
       <r>    2.2727   -0.0000 </r>
       <r>    2.3518   -0.0000 </r>
       <r>    2.7442   -0.0000 </r>
       <r>    2.8983    0.0000 </r>
       <r>    3.8677    0.0000 </r>
       <r>    3.9293    0.0000 </r>
       <r>    6.6793    0.0000 </r>
       <r>    6.7921    0.0000 </r>
       <r>    7.6551    0.0000 </r>
       <r>    8.6293    0.0000 </r>
      </set>
      <set comment="kpoint 11">
       <r>  -35.0837    1.0000 </r>
       <r>  -35.0833    1.0000 </r>
       <r>  -34.9336    1.0000 </r>
       <r>  -34.9333    1.0000 </r>
       <r>  -34.8777    1.0000 </r>
       <r>  -34.8774    1.0000 </r>
       <r>  -12.5501    1.0000 </r>
       <r>  -12.5315    1.0000 </r>
       <r>  -12.1030    1.0000 </r>
       <r>  -12.0797    1.0000 </r>
       <r>   -5.1946    1.0000 </r>
       <r>   -5.1560    1.0000 </r>
       <r>   -4.2667    1.0000 </r>
       <r>   -4.2180    1.0000 </r>
       <r>   -3.8597    1.0000 </r>
       <r>   -3.7554    1.0000 </r>
       <r>   -3.0673    1.0000 </r>
       <r>   -3.0300    1.0000 </r>
       <r>   -1.6803    1.0000 </r>
       <r>   -1.6236    1.0000 </r>
       <r>   -1.6219    1.0000 </r>
       <r>   -1.4739    1.0000 </r>
       <r>   -0.8743    1.0000 </r>
       <r>   -0.8291    1.0000 </r>
       <r>    1.9768   -0.0000 </r>
       <r>    2.0800   -0.0000 </r>
       <r>    2.3208   -0.0000 </r>
       <r>    2.4072   -0.0000 </r>
       <r>    3.1734    0.0000 </r>
       <r>    3.3358    0.0000 </r>
       <r>    4.0648    0.0000 </r>
       <r>    4.1487    0.0000 </r>
       <r>    7.1950    0.0000 </r>
       <r>    7.3828    0.0000 </r>
       <r>    7.5470    0.0000 </r>
       <r>    7.9552    0.0000 </r>
      </set>
      <set comment="kpoint 12">
       <r>  -35.1360    1.0000 </r>
       <r>  -35.1357    1.0000 </r>
       <r>  -34.9225    1.0000 </r>
       <r>  -34.9221    1.0000 </r>
       <r>  -34.8926    1.0000 </r>
       <r>  -34.8923    1.0000 </r>
       <r>  -12.2101    1.0000 </r>
       <r>  -12.1928    1.0000 </r>
       <r>  -11.9697    1.0000 </r>
       <r>  -11.9495    1.0000 </r>
       <r>   -5.4856    1.0000 </r>
       <r>   -5.4576    1.0000 </r>
       <r>   -4.6615    1.0000 </r>
       <r>   -4.6225    1.0000 </r>
       <r>   -3.9587    1.0000 </r>
       <r>   -3.8615    1.0000 </r>
       <r>   -3.1574    1.0000 </r>
       <r>   -3.1312    1.0000 </r>
       <r>   -1.9024    1.0000 </r>
       <r>   -1.7173    1.0000 </r>
       <r>   -1.4983    1.0000 </r>
       <r>   -1.4615    1.0000 </r>
       <r>   -0.6589    1.0000 </r>
       <r>   -0.6029    1.0000 </r>
       <r>    2.1100   -0.0000 </r>
       <r>    2.1534   -0.0000 </r>
       <r>    2.5035   -0.0000 </r>
       <r>    2.5717   -0.0000 </r>
       <r>    3.5749    0.0000 </r>
       <r>    3.7207    0.0000 </r>
       <r>    4.0680    0.0000 </r>
       <r>    4.1797    0.0000 </r>
       <r>    6.4068    0.0000 </r>
       <r>    6.8980    0.0000 </r>
       <r>    8.0068    0.0000 </r>
       <r>    8.1123    0.0000 </r>
      </set>
      <set comment="kpoint 13">
       <r>  -35.1548    1.0000 </r>
       <r>  -35.1545    1.0000 </r>
       <r>  -34.9185    1.0000 </r>
       <r>  -34.9181    1.0000 </r>
       <r>  -34.8980    1.0000 </r>
       <r>  -34.8976    1.0000 </r>
       <r>  -12.0778    1.0000 </r>
       <r>  -12.0611    1.0000 </r>
       <r>  -11.9189    1.0000 </r>
       <r>  -11.8999    1.0000 </r>
       <r>   -5.6047    1.0000 </r>
       <r>   -5.5782    1.0000 </r>
       <r>   -4.8057    1.0000 </r>
       <r>   -4.7690    1.0000 </r>
       <r>   -4.0278    1.0000 </r>
       <r>   -3.9360    1.0000 </r>
       <r>   -3.1797    1.0000 </r>
       <r>   -3.1595    1.0000 </r>
       <r>   -1.9896    1.0000 </r>
       <r>   -1.8019    1.0000 </r>
       <r>   -1.4309    1.0000 </r>
       <r>   -1.3926    1.0000 </r>
       <r>   -0.5251    1.0000 </r>
       <r>   -0.4595    1.0000 </r>
       <r>    2.1387   -0.0000 </r>
       <r>    2.1576   -0.0000 </r>
       <r>    2.6484   -0.0000 </r>
       <r>    2.6974   -0.0000 </r>
       <r>    3.8390    0.0000 </r>
       <r>    3.9308    0.0000 </r>
       <r>    3.9439    0.0000 </r>
       <r>    4.0875    0.0000 </r>
       <r>    5.9787    0.0000 </r>
       <r>    6.4999    0.0000 </r>
       <r>    8.2379    0.0000 </r>
       <r>    8.3320    0.0000 </r>
      </set>
      <set comment="kpoint 14">
       <r>  -34.9908    1.0000 </r>
       <r>  -34.9905    1.0000 </r>
       <r>  -34.9517    1.0000 </r>
       <r>  -34.9513    1.0000 </r>
       <r>  -34.8607    1.0000 </r>
       <r>  -34.8604    1.0000 </r>
       <r>  -13.0399    1.0000 </r>
       <r>  -13.0201    1.0000 </r>
       <r>  -12.2992    1.0000 </r>
       <r>  -12.2713    1.0000 </r>
       <r>   -4.8898    1.0000 </r>
       <r>   -4.7945    1.0000 </r>
       <r>   -3.7976    1.0000 </r>
       <r>   -3.7356    1.0000 </r>
       <r>   -3.4969    1.0000 </r>
       <r>   -3.4298    1.0000 </r>
       <r>   -3.0868    1.0000 </r>
       <r>   -3.0222    1.0000 </r>
       <r>   -1.9477    1.0000 </r>
       <r>   -1.9400    1.0000 </r>
       <r>   -1.1332    1.0000 </r>
       <r>   -0.9522    1.0000 </r>
       <r>   -0.7872    1.0000 </r>
       <r>   -0.7308    1.0000 </r>
       <r>    1.7805   -0.0000 </r>
       <r>    1.9571   -0.0000 </r>
       <r>    2.3173   -0.0000 </r>
       <r>    2.3980   -0.0000 </r>
       <r>    2.5121   -0.0000 </r>
       <r>    2.6482   -0.0000 </r>
       <r>    3.9060    0.0000 </r>
       <r>    3.9850    0.0000 </r>
       <r>    6.6084    0.0000 </r>
       <r>    6.7228    0.0000 </r>
       <r>    7.7560    0.0000 </r>
       <r>    8.6143    0.0000 </r>
      </set>
      <set comment="kpoint 15">
       <r>  -35.0536    1.0000 </r>
       <r>  -35.0533    1.0000 </r>
       <r>  -34.9365    1.0000 </r>
       <r>  -34.9362    1.0000 </r>
       <r>  -34.8910    1.0000 </r>
       <r>  -34.8907    1.0000 </r>
       <r>  -12.6355    1.0000 </r>
       <r>  -12.6166    1.0000 </r>
       <r>  -12.1319    1.0000 </r>
       <r>  -12.1077    1.0000 </r>
       <r>   -4.9921    1.0000 </r>
       <r>   -4.9447    1.0000 </r>
       <r>   -4.0861    1.0000 </r>
       <r>   -4.0573    1.0000 </r>
       <r>   -3.7693    1.0000 </r>
       <r>   -3.6624    1.0000 </r>
       <r>   -3.2908    1.0000 </r>
       <r>   -3.2056    1.0000 </r>
       <r>   -2.0742    1.0000 </r>
       <r>   -2.0596    1.0000 </r>
       <r>   -1.3551    1.0000 </r>
       <r>   -1.1924    1.0000 </r>
       <r>   -0.8426    1.0000 </r>
       <r>   -0.8160    1.0000 </r>
       <r>    1.8209   -0.0000 </r>
       <r>    2.0010   -0.0000 </r>
       <r>    2.3855   -0.0000 </r>
       <r>    2.4373   -0.0000 </r>
       <r>    2.7793   -0.0000 </r>
       <r>    2.9226    0.0000 </r>
       <r>    4.1571    0.0000 </r>
       <r>    4.2698    0.0000 </r>
       <r>    7.2426    0.0000 </r>
       <r>    7.3453    0.0000 </r>
       <r>    7.8514    0.0000 </r>
       <r>    8.8578    0.0000 </r>
      </set>
      <set comment="kpoint 16">
       <r>  -35.1042    1.0000 </r>
       <r>  -35.1039    1.0000 </r>
       <r>  -34.9239    1.0000 </r>
       <r>  -34.9236    1.0000 </r>
       <r>  -34.9170    1.0000 </r>
       <r>  -34.9167    1.0000 </r>
       <r>  -12.2636    1.0000 </r>
       <r>  -12.2459    1.0000 </r>
       <r>  -11.9791    1.0000 </r>
       <r>  -11.9582    1.0000 </r>
       <r>   -5.2052    1.0000 </r>
       <r>   -5.1749    1.0000 </r>
       <r>   -4.6343    1.0000 </r>
       <r>   -4.6104    1.0000 </r>
       <r>   -3.7892    1.0000 </r>
       <r>   -3.6829    1.0000 </r>
       <r>   -3.2618    1.0000 </r>
       <r>   -3.1932    1.0000 </r>
       <r>   -2.2098    1.0000 </r>
       <r>   -2.1786    1.0000 </r>
       <r>   -1.6903    1.0000 </r>
       <r>   -1.5313    1.0000 </r>
       <r>   -0.6687    1.0000 </r>
       <r>   -0.6423    1.0000 </r>
       <r>    2.0428   -0.0000 </r>
       <r>    2.1786   -0.0000 </r>
       <r>    2.5061   -0.0000 </r>
       <r>    2.5422   -0.0000 </r>
       <r>    3.1326    0.0000 </r>
       <r>    3.2633    0.0000 </r>
       <r>    4.2295    0.0000 </r>
       <r>    4.3741    0.0000 </r>
       <r>    7.0177    0.0000 </r>
       <r>    7.4888    0.0000 </r>
       <r>    8.0688    0.0000 </r>
       <r>    8.3163    0.0000 </r>
      </set>
      <set comment="kpoint 17">
       <r>  -35.1324    1.0000 </r>
       <r>  -35.1321    1.0000 </r>
       <r>  -34.9319    1.0000 </r>
       <r>  -34.9315    1.0000 </r>
       <r>  -34.9168    1.0000 </r>
       <r>  -34.9164    1.0000 </r>
       <r>  -12.0344    1.0000 </r>
       <r>  -12.0178    1.0000 </r>
       <r>  -11.8857    1.0000 </r>
       <r>  -11.8668    1.0000 </r>
       <r>   -5.3405    1.0000 </r>
       <r>   -5.3145    1.0000 </r>
       <r>   -4.9427    1.0000 </r>
       <r>   -4.9195    1.0000 </r>
       <r>   -3.9287    1.0000 </r>
       <r>   -3.8353    1.0000 </r>
       <r>   -3.1767    1.0000 </r>
       <r>   -3.1273    1.0000 </r>
       <r>   -2.2112    1.0000 </r>
       <r>   -2.1659    1.0000 </r>
       <r>   -1.9465    1.0000 </r>
       <r>   -1.7796    1.0000 </r>
       <r>   -0.4397    1.0000 </r>
       <r>   -0.4023    1.0000 </r>
       <r>    2.0653   -0.0000 </r>
       <r>    2.1008   -0.0000 </r>
       <r>    2.7685   -0.0000 </r>
       <r>    2.8472   -0.0000 </r>
       <r>    3.3958    0.0000 </r>
       <r>    3.5013    0.0000 </r>
       <r>    4.1793    0.0000 </r>
       <r>    4.3561    0.0000 </r>
       <r>    6.3200    0.0000 </r>
       <r>    6.8631    0.0000 </r>
       <r>    8.6003    0.0000 </r>
       <r>    8.7703    0.0000 </r>
      </set>
      <set comment="kpoint 18">
       <r>  -35.0861    1.0000 </r>
       <r>  -35.0858    1.0000 </r>
       <r>  -34.9326    1.0000 </r>
       <r>  -34.9322    1.0000 </r>
       <r>  -34.9244    1.0000 </r>
[...]
       <r>    -2.3365     1.7584    18.2016 </r>
       <r>    -2.1751     1.8933    18.5071 </r>
       <r>    -2.0137     3.3703    19.0510 </r>
       <r>    -1.8523     3.7405    19.6547 </r>
       <r>    -1.6909     3.3089    20.1887 </r>
       <r>    -1.5295     2.8907    20.6552 </r>
       <r>    -1.3681     3.1449    21.1628 </r>
       <r>    -1.2068     1.5063    21.4059 </r>
       <r>    -1.0454     2.3220    21.7806 </r>
       <r>    -0.8840     2.3352    22.1574 </r>
       <r>    -0.7226     3.2230    22.6776 </r>
       <r>    -0.5612     2.8844    23.1431 </r>
       <r>    -0.3998     2.3539    23.5230 </r>
       <r>    -0.2385     1.4750    23.7610 </r>
       <r>    -0.0771     1.1646    23.9489 </r>
       <r>     0.0843     0.2666    23.9920 </r>
       <r>     0.2457     0.0521    24.0004 </r>
       <r>     0.4071    -0.0023    24.0000 </r>
       <r>     0.5685    -0.0000    24.0000 </r>
       <r>     0.7299    -0.0000    24.0000 </r>
       <r>     0.8912    -0.0000    24.0000 </r>
       <r>     1.0526    -0.0000    24.0000 </r>
       <r>     1.2140    -0.0000    24.0000 </r>
       <r>     1.3754    -0.0000    24.0000 </r>
       <r>     1.5368    -0.0134    23.9978 </r>
       <r>     1.6982     0.2516    24.0384 </r>
       <r>     1.8595     1.1634    24.2262 </r>
       <r>     2.0209     3.2459    24.7500 </r>
       <r>     2.1823     5.7894    25.6844 </r>
       <r>     2.3437     3.2569    26.2100 </r>
       <r>     2.5051     5.0795    27.0297 </r>
       <r>     2.6665     4.8784    27.8170 </r>
       <r>     2.8278     2.9782    28.2977 </r>
       <r>     2.9892     3.0460    28.7892 </r>
       <r>     3.1506     2.4949    29.1919 </r>
       <r>     3.3120     2.6916    29.6263 </r>
       <r>     3.4734     1.3060    29.8370 </r>
       <r>     3.6348     2.1183    30.1789 </r>
       <r>     3.7962     0.9452    30.3314 </r>
       <r>     3.9575     2.0691    30.6654 </r>
       <r>     4.1189     2.1731    31.0161 </r>
       <r>     4.2803     2.8704    31.4793 </r>
       <r>     4.4417     1.5156    31.7239 </r>
       <r>     4.6031     0.9521    31.8776 </r>
       <r>     4.7645     0.6465    31.9819 </r>
       <r>     4.9258     0.1187    32.0011 </r>
       <r>     5.0872    -0.0069    31.9999 </r>
       <r>     5.2486     0.0058    32.0009 </r>
       <r>     5.4100     0.1369    32.0230 </r>
       <r>     5.5714     0.2806    32.0683 </r>
       <r>     5.7328     0.3549    32.1255 </r>
       <r>     5.8942     0.4732    32.2019 </r>
       <r>     6.0555     0.6299    32.3036 </r>
       <r>     6.2169     0.5619    32.3942 </r>
       <r>     6.3783     1.0822    32.5689 </r>
       <r>     6.5397     1.0678    32.7412 </r>
       <r>     6.7011     0.9419    32.8932 </r>
       <r>     6.8625     1.5492    33.1432 </r>
       <r>     7.0238     1.8976    33.4495 </r>
       <r>     7.1852     1.1350    33.6327 </r>
       <r>     7.3466     1.1156    33.8127 </r>
       <r>     7.5080     2.6164    34.2349 </r>
       <r>     7.6694     1.5468    34.4846 </r>
       <r>     7.8308     1.0729    34.6577 </r>
       <r>     7.9922     1.2424    34.8582 </r>
       <r>     8.1535     2.0428    35.1879 </r>
       <r>     8.3149     1.2356    35.3873 </r>
       <r>     8.4763     1.6289    35.6502 </r>
       <r>     8.6377     1.3252    35.8641 </r>
       <r>     8.7991     0.5816    35.9579 </r>
       <r>     8.9605     0.2737    36.0021 </r>
       <r>     9.1218    -0.0131    36.0000 </r>
       <r>     9.2832    -0.0000    36.0000 </r>
       <r>     9.4446    -0.0000    36.0000 </r>
       <r>     9.6060     0.0000    36.0000 </r>
       <r>     9.7674     0.0000    36.0000 </r>
       <r>     9.9288     0.0000    36.0000 </r>
       <r>    10.0902     0.0000    36.0000 </r>
       <r>    10.2515     0.0000    36.0000 </r>
       <r>    10.4129     0.0000    36.0000 </r>
       <r>    10.5743     0.0000    36.0000 </r>
       <r>    10.7357     0.0000    36.0000 </r>
       <r>    10.8971     0.0000    36.0000 </r>
       <r>    11.0585     0.0000    36.0000 </r>
      </set>
      <set comment="spin 2">
       <r>   -37.3569     0.0000     0.0000 </r>
       <r>   -37.1955     0.0000     0.0000 </r>
       <r>   -37.0341     0.0000     0.0000 </r>
       <r>   -36.8727     0.0000     0.0000 </r>
       <r>   -36.7113     0.0000     0.0000 </r>
       <r>   -36.5500     0.0000     0.0000 </r>
       <r>   -36.3886     0.0000     0.0000 </r>
       <r>   -36.2272     0.0000     0.0000 </r>
       <r>   -36.0658    -0.0000    -0.0000 </r>
       <r>   -35.9044    -0.0000    -0.0000 </r>
       <r>   -35.7430    -0.0000    -0.0000 </r>
       <r>   -35.5817    -0.0000    -0.0000 </r>
       <r>   -35.4203    -0.0010    -0.0002 </r>
       <r>   -35.2589    -0.1963    -0.0318 </r>
       <r>   -35.0975     4.3406     0.6687 </r>
       <r>   -34.9361    15.4923     3.1689 </r>
       <r>   -34.7747    17.5914     6.0079 </r>
       <r>   -34.6134    -0.0232     6.0041 </r>
       <r>   -34.4520    -0.0256     6.0000 </r>
       <r>   -34.2906    -0.0000     6.0000 </r>
       <r>   -34.1292    -0.0000     6.0000 </r>
       <r>   -33.9678     0.0000     6.0000 </r>
       <r>   -33.8064     0.0000     6.0000 </r>
       <r>   -33.6450     0.0000     6.0000 </r>
       <r>   -33.4837     0.0000     6.0000 </r>
       <r>   -33.3223     0.0000     6.0000 </r>
       <r>   -33.1609     0.0000     6.0000 </r>
       <r>   -32.9995     0.0000     6.0000 </r>
       <r>   -32.8381     0.0000     6.0000 </r>
       <r>   -32.6767     0.0000     6.0000 </r>
       <r>   -32.5154     0.0000     6.0000 </r>
       <r>   -32.3540     0.0000     6.0000 </r>
       <r>   -32.1926     0.0000     6.0000 </r>
       <r>   -32.0312     0.0000     6.0000 </r>
       <r>   -31.8698     0.0000     6.0000 </r>
       <r>   -31.7084     0.0000     6.0000 </r>
       <r>   -31.5470     0.0000     6.0000 </r>
       <r>   -31.3857     0.0000     6.0000 </r>
       <r>   -31.2243     0.0000     6.0000 </r>
       <r>   -31.0629     0.0000     6.0000 </r>
       <r>   -30.9015     0.0000     6.0000 </r>
       <r>   -30.7401     0.0000     6.0000 </r>
       <r>   -30.5787     0.0000     6.0000 </r>
       <r>   -30.4174     0.0000     6.0000 </r>
       <r>   -30.2560     0.0000     6.0000 </r>
       <r>   -30.0946     0.0000     6.0000 </r>
       <r>   -29.9332     0.0000     6.0000 </r>
       <r>   -29.7718     0.0000     6.0000 </r>
       <r>   -29.6104     0.0000     6.0000 </r>
       <r>   -29.4490     0.0000     6.0000 </r>
       <r>   -29.2877     0.0000     6.0000 </r>
       <r>   -29.1263     0.0000     6.0000 </r>
       <r>   -28.9649     0.0000     6.0000 </r>
       <r>   -28.8035     0.0000     6.0000 </r>
       <r>   -28.6421     0.0000     6.0000 </r>
       <r>   -28.4807     0.0000     6.0000 </r>
       <r>   -28.3194     0.0000     6.0000 </r>
       <r>   -28.1580     0.0000     6.0000 </r>
       <r>   -27.9966     0.0000     6.0000 </r>
       <r>   -27.8352     0.0000     6.0000 </r>
       <r>   -27.6738     0.0000     6.0000 </r>
       <r>   -27.5124     0.0000     6.0000 </r>
       <r>   -27.3510     0.0000     6.0000 </r>
       <r>   -27.1897     0.0000     6.0000 </r>
       <r>   -27.0283     0.0000     6.0000 </r>
       <r>   -26.8669     0.0000     6.0000 </r>
       <r>   -26.7055     0.0000     6.0000 </r>
       <r>   -26.5441     0.0000     6.0000 </r>
       <r>   -26.3827     0.0000     6.0000 </r>
       <r>   -26.2214     0.0000     6.0000 </r>
       <r>   -26.0600     0.0000     6.0000 </r>
       <r>   -25.8986     0.0000     6.0000 </r>
       <r>   -25.7372     0.0000     6.0000 </r>
       <r>   -25.5758     0.0000     6.0000 </r>
       <r>   -25.4144     0.0000     6.0000 </r>
       <r>   -25.2531     0.0000     6.0000 </r>
       <r>   -25.0917     0.0000     6.0000 </r>
       <r>   -24.9303     0.0000     6.0000 </r>
       <r>   -24.7689     0.0000     6.0000 </r>
       <r>   -24.6075     0.0000     6.0000 </r>
       <r>   -24.4461     0.0000     6.0000 </r>
       <r>   -24.2847     0.0000     6.0000 </r>
       <r>   -24.1234     0.0000     6.0000 </r>
       <r>   -23.9620     0.0000     6.0000 </r>
       <r>   -23.8006     0.0000     6.0000 </r>
       <r>   -23.6392     0.0000     6.0000 </r>
       <r>   -23.4778     0.0000     6.0000 </r>
       <r>   -23.3164     0.0000     6.0000 </r>
       <r>   -23.1551     0.0000     6.0000 </r>
       <r>   -22.9937     0.0000     6.0000 </r>
       <r>   -22.8323     0.0000     6.0000 </r>
       <r>   -22.6709     0.0000     6.0000 </r>
       <r>   -22.5095     0.0000     6.0000 </r>
       <r>   -22.3481     0.0000     6.0000 </r>
       <r>   -22.1867     0.0000     6.0000 </r>
       <r>   -22.0254     0.0000     6.0000 </r>
       <r>   -21.8640     0.0000     6.0000 </r>
       <r>   -21.7026     0.0000     6.0000 </r>
       <r>   -21.5412     0.0000     6.0000 </r>
       <r>   -21.3798     0.0000     6.0000 </r>
       <r>   -21.2184     0.0000     6.0000 </r>
       <r>   -21.0571     0.0000     6.0000 </r>
       <r>   -20.8957     0.0000     6.0000 </r>
       <r>   -20.7343     0.0000     6.0000 </r>
       <r>   -20.5729     0.0000     6.0000 </r>
       <r>   -20.4115     0.0000     6.0000 </r>
       <r>   -20.2501     0.0000     6.0000 </r>
       <r>   -20.0887     0.0000     6.0000 </r>
       <r>   -19.9274     0.0000     6.0000 </r>
       <r>   -19.7660     0.0000     6.0000 </r>
       <r>   -19.6046     0.0000     6.0000 </r>
       <r>   -19.4432     0.0000     6.0000 </r>
       <r>   -19.2818     0.0000     6.0000 </r>
       <r>   -19.1204     0.0000     6.0000 </r>
       <r>   -18.9591     0.0000     6.0000 </r>
       <r>   -18.7977     0.0000     6.0000 </r>
       <r>   -18.6363     0.0000     6.0000 </r>
       <r>   -18.4749     0.0000     6.0000 </r>
       <r>   -18.3135     0.0000     6.0000 </r>
       <r>   -18.1521     0.0000     6.0000 </r>
       <r>   -17.9907     0.0000     6.0000 </r>
       <r>   -17.8294     0.0000     6.0000 </r>
       <r>   -17.6680     0.0000     6.0000 </r>
       <r>   -17.5066     0.0000     6.0000 </r>
       <r>   -17.3452     0.0000     6.0000 </r>
       <r>   -17.1838     0.0000     6.0000 </r>
       <r>   -17.0224     0.0000     6.0000 </r>
       <r>   -16.8611     0.0000     6.0000 </r>
       <r>   -16.6997     0.0000     6.0000 </r>
       <r>   -16.5383     0.0000     6.0000 </r>
       <r>   -16.3769     0.0000     6.0000 </r>
       <r>   -16.2155     0.0000     6.0000 </r>
       <r>   -16.0541     0.0000     6.0000 </r>
       <r>   -15.8928     0.0000     6.0000 </r>
       <r>   -15.7314     0.0000     6.0000 </r>
       <r>   -15.5700     0.0000     6.0000 </r>
       <r>   -15.4086     0.0000     6.0000 </r>
       <r>   -15.2472     0.0000     6.0000 </r>
       <r>   -15.0858     0.0000     6.0000 </r>
       <r>   -14.9244     0.0000     6.0000 </r>
       <r>   -14.7631    -0.0000     6.0000 </r>
       <r>   -14.6017    -0.0000     6.0000 </r>
       <r>   -14.4403    -0.0000     6.0000 </r>
       <r>   -14.2789    -0.0000     6.0000 </r>
       <r>   -14.1175    -0.0016     5.9997 </r>
       <r>   -13.9561     0.0209     6.0031 </r>
       <r>   -13.7948     0.4448     6.0749 </r>
       <r>   -13.6334     0.5760     6.1679 </r>
       <r>   -13.4720     0.3553     6.2252 </r>
       <r>   -13.3106     0.8386     6.3605 </r>
       <r>   -13.1492     0.4532     6.4337 </r>
       <r>   -12.9878     0.6876     6.5446 </r>
       <r>   -12.8264     0.7892     6.6720 </r>
       <r>   -12.6651     0.5619     6.7627 </r>
       <r>   -12.5037     2.5360     7.1720 </r>
       <r>   -12.3423     1.9748     7.4907 </r>
       <r>   -12.1809     3.6870     8.0857 </r>
       <r>   -12.0195     4.3029     8.7801 </r>
       <r>   -11.8581     5.7477     9.7077 </r>
       <r>   -11.6968     1.8771    10.0106 </r>
       <r>   -11.5354    -0.0651    10.0001 </r>
       <r>   -11.3740    -0.0008    10.0000 </r>
       <r>   -11.2126    -0.0000    10.0000 </r>
       <r>   -11.0512    -0.0000    10.0000 </r>
       <r>   -10.8898     0.0000    10.0000 </r>
       <r>   -10.7284     0.0000    10.0000 </r>
       <r>   -10.5671     0.0000    10.0000 </r>
       <r>   -10.4057     0.0000    10.0000 </r>
       <r>   -10.2443     0.0000    10.0000 </r>
       <r>   -10.0829     0.0000    10.0000 </r>
       <r>    -9.9215     0.0000    10.0000 </r>
       <r>    -9.7601     0.0000    10.0000 </r>
       <r>    -9.5988     0.0000    10.0000 </r>
       <r>    -9.4374     0.0000    10.0000 </r>
       <r>    -9.2760     0.0000    10.0000 </r>
       <r>    -9.1146     0.0000    10.0000 </r>
       <r>    -8.9532     0.0000    10.0000 </r>
       <r>    -8.7918     0.0000    10.0000 </r>
       <r>    -8.6304     0.0000    10.0000 </r>
       <r>    -8.4691     0.0000    10.0000 </r>
       <r>    -8.3077     0.0000    10.0000 </r>
       <r>    -8.1463     0.0000    10.0000 </r>
       <r>    -7.9849     0.0000    10.0000 </r>
       <r>    -7.8235     0.0000    10.0000 </r>
       <r>    -7.6621     0.0000    10.0000 </r>
       <r>    -7.5008     0.0000    10.0000 </r>
       <r>    -7.3394     0.0000    10.0000 </r>
       <r>    -7.1780     0.0000    10.0000 </r>
       <r>    -7.0166     0.0000    10.0000 </r>
       <r>    -6.8552     0.0000    10.0000 </r>
       <r>    -6.6938     0.0000    10.0000 </r>
       <r>    -6.5325    -0.0000    10.0000 </r>
       <r>    -6.3711    -0.0000    10.0000 </r>
       <r>    -6.2097    -0.0000    10.0000 </r>
       <r>    -6.0483    -0.0000    10.0000 </r>
       <r>    -5.8869    -0.0008     9.9999 </r>
       <r>    -5.7255    -0.0119     9.9979 </r>
       <r>    -5.5641     0.7853    10.1247 </r>
       <r>    -5.4028     1.4720    10.3622 </r>
       <r>    -5.2414     2.2950    10.7326 </r>
       <r>    -5.0800     3.0178    11.2196 </r>
       <r>    -4.9186     5.2413    12.0655 </r>
       <r>    -4.7572     2.1128    12.4065 </r>
       <r>    -4.5958     2.6349    12.8317 </r>
       <r>    -4.4345     0.7665    12.9554 </r>
       <r>    -4.2731     0.4847    13.0336 </r>
       <r>    -4.1117     0.8005    13.1628 </r>
       <r>    -3.9503     2.0380    13.4917 </r>
       <r>    -3.7889     4.6560    14.2431 </r>
       <r>    -3.6275     4.6817    14.9987 </r>
       <r>    -3.4661     2.1341    15.3431 </r>
       <r>    -3.3048     1.1572    15.5298 </r>
       <r>    -3.1434     4.5791    16.2688 </r>
       <r>    -2.9820     4.9620    17.0696 </r>
       <r>    -2.8206     2.5755    17.4852 </r>
       <r>    -2.6592     1.4803    17.7241 </r>
       <r>    -2.4978     1.2001    17.9178 </r>
       <r>    -2.3365     1.7584    18.2016 </r>
       <r>    -2.1751     1.8935    18.5072 </r>
       <r>    -2.0137     3.3705    19.0511 </r>
       <r>    -1.8523     3.7405    19.6548 </r>
       <r>    -1.6909     3.3091    20.1888 </r>
       <r>    -1.5295     2.8904    20.6553 </r>
       <r>    -1.3681     3.1449    21.1628 </r>
       <r>    -1.2068     1.5066    21.4060 </r>
       <r>    -1.0454     2.3216    21.7806 </r>
       <r>    -0.8840     2.3355    22.1575 </r>
       <r>    -0.7226     3.2226    22.6776 </r>
       <r>    -0.5612     2.8844    23.1431 </r>
       <r>    -0.3998     2.3539    23.5230 </r>
       <r>    -0.2385     1.4750    23.7610 </r>
       <r>    -0.0771     1.1644    23.9490 </r>
       <r>     0.0843     0.2666    23.9920 </r>
       <r>     0.2457     0.0520    24.0004 </r>
       <r>     0.4071    -0.0023    24.0000 </r>
       <r>     0.5685    -0.0000    24.0000 </r>
       <r>     0.7299    -0.0000    24.0000 </r>
       <r>     0.8912    -0.0000    24.0000 </r>
       <r>     1.0526    -0.0000    24.0000 </r>
       <r>     1.2140    -0.0000    24.0000 </r>
       <r>     1.3754    -0.0000    24.0000 </r>
       <r>     1.5368    -0.0134    23.9978 </r>
       <r>     1.6982     0.2517    24.0385 </r>
       <r>     1.8595     1.1636    24.2262 </r>
       <r>     2.0209     3.2466    24.7502 </r>
       <r>     2.1823     5.7895    25.6845 </r>
       <r>     2.3437     3.2569    26.2101 </r>
       <r>     2.5051     5.0795    27.0299 </r>
       <r>     2.6665     4.8780    27.8171 </r>
       <r>     2.8278     2.9781    28.2978 </r>
       <r>     2.9892     3.0458    28.7893 </r>
       <r>     3.1506     2.4953    29.1920 </r>
       <r>     3.3120     2.6913    29.6263 </r>
       <r>     3.4734     1.3059    29.8371 </r>
       <r>     3.6348     2.1182    30.1789 </r>
       <r>     3.7962     0.9451    30.3315 </r>
       <r>     3.9575     2.0694    30.6654 </r>
       <r>     4.1189     2.1733    31.0162 </r>
       <r>     4.2803     2.8702    31.4794 </r>
       <r>     4.4417     1.5156    31.7240 </r>
       <r>     4.6031     0.9520    31.8776 </r>
       <r>     4.7645     0.6463    31.9819 </r>
       <r>     4.9258     0.1187    32.0011 </r>
       <r>     5.0872    -0.0070    31.9999 </r>
       <r>     5.2486     0.0062    32.0009 </r>
       <r>     5.4100     0.1515    32.0254 </r>
       <r>     5.5714     0.2949    32.0730 </r>
       <r>     5.7328     0.3466    32.1289 </r>
       <r>     5.8942     0.4843    32.2071 </r>
       <r>     6.0555     0.6054    32.3048 </r>
       <r>     6.2169     0.6129    32.4037 </r>
       <r>     6.3783     1.0467    32.5726 </r>
       <r>     6.5397     1.0183    32.7369 </r>
       <r>     6.7011     1.0015    32.8986 </r>
       <r>     6.8625     1.5408    33.1472 </r>
       <r>     7.0238     1.9069    33.4550 </r>
       <r>     7.1852     1.1276    33.6370 </r>
       <r>     7.3466     1.1697    33.8257 </r>
       <r>     7.5080     2.5588    34.2387 </r>
       <r>     7.6694     1.2978    34.4481 </r>
       <r>     7.8308     1.1681    34.6366 </r>
       <r>     7.9922     1.4673    34.8734 </r>
       <r>     8.1535     1.9830    35.1935 </r>
       <r>     8.3149     1.7423    35.4746 </r>
       <r>     8.4763     0.6067    35.5726 </r>
       <r>     8.6377     0.8254    35.7058 </r>
       <r>     8.7991     1.3389    35.9218 </r>
       <r>     8.9605     0.5017    36.0028 </r>
       <r>     9.1218    -0.0170    36.0000 </r>
       <r>     9.2832    -0.0003    36.0000 </r>
       <r>     9.4446    -0.0000    36.0000 </r>
       <r>     9.6060    -0.0000    36.0000 </r>
       <r>     9.7674     0.0000    36.0000 </r>
       <r>     9.9288     0.0000    36.0000 </r>
       <r>    10.0902     0.0000    36.0000 </r>
       <r>    10.2515     0.0000    36.0000 </r>
       <r>    10.4129     0.0000    36.0000 </r>
       <r>    10.5743     0.0000    36.0000 </r>
       <r>    10.7357     0.0000    36.0000 </r>
       <r>    10.8971     0.0000    36.0000 </r>
       <r>    11.0585     0.0000    36.0000 </r>
      </set>
     </set>
    </array>
   </total>
  </dos>
 </calculation>
 <structure name="finalpos" >
  <crystal>
   <varray name="basis" >
    <v>       3.19031700       0.00000000       0.00000000 </v>
    <v>      -1.59515800       2.76289700       0.00000000 </v>
    <v>       0.00000000       0.00000000      23.14049200 </v>
   </varray>
   <i name="volume">    203.97226633 </i>
   <varray name="rec_basis" >
    <v>       0.31344848       0.18096941       0.00000000 </v>
    <v>       0.00000000       0.36193894       0.00000000 </v>
    <v>       0.00000000       0.00000000       0.04321429 </v>
   </varray>
  </crystal>
  <varray name="positions" >
   <v>       0.66666700       0.33333300       0.06785900 </v>
   <v>       0.33333300       0.66666700       0.00000000 </v>
   <v>       0.33333300       0.66666700       0.13571500 </v>
   <v>       0.66666700       0.33333300       0.37643000 </v>
   <v>       0.33333300       0.66666700       0.30857200 </v>
   <v>       0.33333300       0.66666700       0.44428600 </v>
  </varray>
 </structure>
</modeling>
