 running on    8 total cores
 distrk:  each k-point on    8 cores,    1 groups
 distr:  one band on    2 cores,    4 groups
 using from now: INCAR     
 vasp.5.3.5 31Mar14 (build Oct 29 2014 16:16:03) complex                        
  
 POSCAR found type information on POSCAR  P  Si
 POSCAR found :  2 types and      24 ions
 scaLAPACK will be used

 ----------------------------------------------------------------------------- 
|                                                                             |
|  ADVICE TO THIS USER RUNNING 'VASP/VAMP'   (HEAR YOUR MASTER'S VOICE ...):  |
|                                                                             |
|      You have switched on vdW-DFT.                                          |
|      This routine was written and supplied by Jiri Klimes.                  |
|      We recommed that you carefully read and cite the following             |
|      publication                                                            |
|      J. Klimes, D.R. Bowler, A. Michelides                                  |
|        J. Phys.: Cond Matt. 22 022201 (2010)                                |
|      J. Klimes, D.R. Bowler, A. Michelides                                  |
|        Phys. Rev. B. 83, 195131 (2011)                                      |
|      and references therein.                                                |
|                                                                             |
 ----------------------------------------------------------------------------- 


 ----------------------------------------------------------------------------- 
|                                                                             |
|  ADVICE TO THIS USER RUNNING 'VASP/VAMP'   (HEAR YOUR MASTER'S VOICE ...):  |
|                                                                             |
|      You enforced a specific xc-type in the INCAR file,                     |
|      a different type was found on the POTCAR file                          |
|          I HOPE YOU KNOW, WHAT YOU ARE  DOING                               |
|                                                                             |
 ----------------------------------------------------------------------------- 

 LDA part: xc-table for Pade appr. of Perdew

 ----------------------------------------------------------------------------- 
|                                                                             |
|           W    W    AA    RRRRR   N    N  II  N    N   GGGG   !!!           |
|           W    W   A  A   R    R  NN   N  II  NN   N  G    G  !!!           |
|           W    W  A    A  R    R  N N  N  II  N N  N  G       !!!           |
|           W WW W  AAAAAA  RRRRR   N  N N  II  N  N N  G  GGG   !            |
|           WW  WW  A    A  R   R   N   NN  II  N   NN  G    G                |
|           W    W  A    A  R    R  N    N  II  N    N   GGGG   !!!           |
|                                                                             |
|      The distance between some ions is very small                           |
|      please check the nearest neigbor list in the OUTCAR file               |
|          I HOPE YOU KNOW, WHAT YOU ARE  DOING                               |
|                                                                             |
 ----------------------------------------------------------------------------- 



 VERY BAD NEWS! internal error in subroutine IBZKPT:
 Reciprocal lattice and k-lattice belong to different class of lattices. Often results are still useful...      96


 VERY BAD NEWS! internal error in subroutine IBZKPT:
 Reciprocal lattice and k-lattice belong to different class of lattices. Often results are still useful...      96


 VERY BAD NEWS! internal error in subroutine IBZKPT:
 Reciprocal lattice and k-lattice belong to different class of lattices. Often results are still useful...      96


 VERY BAD NEWS! internal error in subroutine IBZKPT:
 Reciprocal lattice and k-lattice belong to different class of lattices. Often results are still useful...      96


 VERY BAD NEWS! internal error in subroutine IBZKPT:
 Reciprocal lattice and k-lattice belong to different class of lattices. Often results are still useful...      96


 VERY BAD NEWS! internal error in subroutine IBZKPT:
 Reciprocal lattice and k-lattice belong to different class of lattices. Often results are still useful...      96
 POSCAR, INCAR and KPOINTS ok, starting setup


 VERY BAD NEWS! internal error in subroutine IBZKPT:
 Reciprocal lattice and k-lattice belong to different class of lattices. Often results are still useful...      96


 VERY BAD NEWS! internal error in subroutine IBZKPT:
 Reciprocal lattice and k-lattice belong to different class of lattices. Often results are still useful...      96
 WARNING: small aliasing (wrap around) errors must be expected
 FFT: planning ...
 WAVECAR not read
 entering main loop
       N       E                     dE             d eps       ncg     rms          rms(c)
Total vdW correction in eV:     16.0303654
DAV:   1     0.596634279899E+03    0.59663E+03   -0.28755E+04  7360   0.790E+02
DAV:   2     0.292979198803E+02   -0.56734E+03   -0.55263E+03  9816   0.191E+02
DAV:   3    -0.344504597676E+02   -0.63748E+02   -0.62380E+02 10004   0.648E+01
DAV:   4    -0.381252490222E+02   -0.36748E+01   -0.36336E+01 11200   0.160E+01
DAV:   5    -0.382208484716E+02   -0.95599E-01   -0.95364E-01 10576   0.269E+00    0.158E+01
Total vdW correction in eV:     16.4156771
DAV:   6    -0.310714733513E+02    0.71494E+01   -0.33045E+01 10488   0.169E+01    0.652E+00
Total vdW correction in eV:     16.6974099
DAV:   7    -0.310423486444E+02    0.29125E-01   -0.17515E+01  8012   0.986E+00    0.391E+00
Total vdW correction in eV:     16.9286056
DAV:   8    -0.310146228602E+02    0.27726E-01   -0.26565E+00  9096   0.451E+00    0.198E+00
Total vdW correction in eV:     17.1180814
DAV:   9    -0.310742802654E+02   -0.59657E-01   -0.52518E-01  9208   0.195E+00    0.742E-01
Total vdW correction in eV:     17.1697647
DAV:  10    -0.310710713131E+02    0.32090E-02   -0.10294E-01  9160   0.881E-01    0.355E-01
Total vdW correction in eV:     17.1907055
DAV:  11    -0.310630740267E+02    0.79973E-02   -0.26805E-02  8944   0.460E-01    0.165E-01
Total vdW correction in eV:     17.2010041
DAV:  12    -0.310529532328E+02    0.10121E-01   -0.63948E-03  9224   0.239E-01    0.774E-02
Total vdW correction in eV:     17.2065930
DAV:  13    -0.310468556210E+02    0.60976E-02   -0.13532E-03  9056   0.120E-01    0.350E-02
Total vdW correction in eV:     17.2110018
DAV:  14    -0.310440158947E+02    0.28397E-02   -0.40266E-04  9432   0.563E-02    0.228E-02
Total vdW correction in eV:     17.2153840
DAV:  15    -0.310420807660E+02    0.19351E-02   -0.14077E-04  9400   0.320E-02    0.117E-02
Total vdW correction in eV:     17.2183935
DAV:  16    -0.310413804524E+02    0.70031E-03   -0.56684E-05  8704   0.212E-02    0.732E-03
Total vdW correction in eV:     17.2204752
DAV:  17    -0.310419189832E+02   -0.53853E-03   -0.70430E-05  8000   0.197E-02    0.441E-03
Total vdW correction in eV:     17.2213174
DAV:  18    -0.310423685764E+02   -0.44959E-03   -0.16044E-04  8112   0.228E-02    0.233E-03
Total vdW correction in eV:     17.2212125
DAV:  19    -0.310424832157E+02   -0.11464E-03   -0.58018E-05  7552   0.138E-02    0.177E-03
Total vdW correction in eV:     17.2210854
DAV:  20    -0.310425004142E+02   -0.17199E-04   -0.87891E-06  6792   0.766E-03    0.100E-03
Total vdW correction in eV:     17.2208849
DAV:  21    -0.310425070522E+02   -0.66379E-05   -0.17309E-05  6848   0.892E-03    0.769E-04
Total vdW correction in eV:     17.2207771
DAV:  22    -0.310425084885E+02   -0.14364E-05   -0.14477E-05  7112   0.890E-03    0.492E-04
Total vdW correction in eV:     17.2206795
DAV:  23    -0.310424498854E+02    0.58603E-04   -0.22830E-05  7100   0.114E-02    0.223E-04
Total vdW correction in eV:     17.2206782
DAV:  24    -0.310424260699E+02    0.23815E-04   -0.67492E-06  6496   0.857E-03    0.124E-04
Total vdW correction in eV:     17.2206771
DAV:  25    -0.310424100603E+02    0.16010E-04   -0.68956E-06  7004   0.872E-03    0.564E-05
Total vdW correction in eV:     17.2206789
DAV:  26    -0.310424081661E+02    0.18942E-05   -0.37655E-06  6208   0.734E-03    0.317E-05
Total vdW correction in eV:     17.2206789
DAV:  27    -0.310424043803E+02    0.37858E-05   -0.32990E-06  6056   0.655E-03    0.183E-05
Total vdW correction in eV:     17.2206781
DAV:  28    -0.310424030315E+02    0.13487E-05   -0.16199E-06  6000   0.489E-03    0.107E-05
Total vdW correction in eV:     17.2206782
DAV:  29    -0.310424019828E+02    0.10487E-05   -0.10385E-06  5664   0.429E-03    0.678E-06
Total vdW correction in eV:     17.2206783
DAV:  30    -0.310424017617E+02    0.22110E-06   -0.88044E-07  5168   0.391E-03
Total vdW correction in eV:     17.2206779
Total vdW correction in eV:     17.2206781
   1 F= -.31042402E+02 E0= -.31024825E+02  d E =-.351536E-01
