 vasp.5.3.5 31Mar14 (build Oct 29 2014 16:16:03) complex                        
  
 executed on          Linux-UFHPC date 2016.02.09  18:41:00
 running on    8 total cores
 distrk:  each k-point on    8 cores,    1 groups
 distr:  one band on NCORES_PER_BAND=   2 cores,    4 groups


--------------------------------------------------------------------------------------------------------


 INCAR:
 POTCAR:    PAW_PBE P 17Jan2003                   
 POTCAR:   PAW_PBE Si 05Jan2001                   

 ----------------------------------------------------------------------------- 
|                                                                             |
|  ADVICE TO THIS USER RUNNING 'VASP/VAMP'   (HEAR YOUR MASTER'S VOICE ...):  |
|                                                                             |
|      You have switched on vdW-DFT.                                          |
|      This routine was written and supplied by Jiri Klimes.                  |
|      We recommed that you carefully read and cite the following             |
|      publication                                                            |
|      J. Klimes, D.R. Bowler, A. Michelides                                  |
|        J. Phys.: Cond Matt. 22 022201 (2010)                                |
|      J. Klimes, D.R. Bowler, A. Michelides                                  |
|        Phys. Rev. B. 83, 195131 (2011)                                      |
|      and references therein.                                                |
|                                                                             |
 ----------------------------------------------------------------------------- 

 POTCAR:    PAW_PBE P 17Jan2003                   
   VRHFIN =P : s2p3                                                             
   LEXCH  = PE                                                                  
   EATOM  =   176.0430 eV,   12.9388 Ry                                         
                                                                                
   TITEL  = PAW_PBE P 17Jan2003                                                 
   LULTRA =        F    use ultrasoft PP ?                                      
   IUNSCR =        1    unscreen: 0-lin 1-nonlin 2-no                           
   RPACOR =    1.500    partial core radius                                     
   POMASS =   30.974; ZVAL   =    5.000    mass and valenz                      
   RCORE  =    1.900    outmost cutoff radius                                   
   RWIGS  =    2.330; RWIGS  =    1.233    wigner-seitz radius (au A)           
   ENMAX  =  270.000; ENMIN  =  191.280 eV                                      
   ICORE  =        2    local potential                                         
   LCOR   =        T    correct aug charges                                     
   LPAW   =        T    paw PP                                                  
   EAUG   =  342.924                                                            
   DEXC   =    -.002                                                            
   RMAX   =    2.887    core radius for proj-oper                               
   RAUG   =    1.300    factor for augmentation sphere                          
   RDEP   =    1.931    radius for radial grids                                 
   QCUT   =   -4.330; QGAM   =    8.659    optimization parameters              
                                                                                
   Description                                                                  
     l     E      TYP  RCUT    TYP  RCUT                                        
     0   .000     23  1.900                                                     
     0   .000     23  1.900                                                     
     1   .000     23  1.900                                                     
     1   .000     23  1.900                                                     
     2   .000     23  1.900                                                     
  local pseudopotential read in
  partial core-charges read in
  atomic valenz-charges read in
  non local Contribution for L=           0  read in
    real space projection operators read in
  non local Contribution for L=           0  read in
    real space projection operators read in
  non local Contribution for L=           1  read in
    real space projection operators read in
  non local Contribution for L=           1  read in
    real space projection operators read in
    PAW grid and wavefunctions read in
 
   number of l-projection  operators is LMAX  =           4
   number of lm-projection operators is LMMAX =           8
 
 POTCAR:   PAW_PBE Si 05Jan2001                   
   VRHFIN =Si: s2p2                                                             
   LEXCH  = PE                                                                  
   EATOM  =   103.0669 eV,    7.5752 Ry                                         
                                                                                
   TITEL  = PAW_PBE Si 05Jan2001                                                
   LULTRA =        F    use ultrasoft PP ?                                      
   IUNSCR =        1    unscreen: 0-lin 1-nonlin 2-no                           
   RPACOR =    1.500    partial core radius                                     
   POMASS =   28.085; ZVAL   =    4.000    mass and valenz                      
   RCORE  =    1.900    outmost cutoff radius                                   
   RWIGS  =    2.480; RWIGS  =    1.312    wigner-seitz radius (au A)           
   ENMAX  =  245.345; ENMIN  =  184.009 eV                                      
   ICORE  =        2    local potential                                         
   LCOR   =        T    correct aug charges                                     
   LPAW   =        T    paw PP                                                  
   EAUG   =  322.069                                                            
   DEXC   =    -.007                                                            
   RMAX   =    2.944    core radius for proj-oper                               
   RAUG   =    1.300    factor for augmentation sphere                          
   RDEP   =    1.993    radius for radial grids                                 
   QCUT   =   -4.246; QGAM   =    8.493    optimization parameters              
                                                                                
   Description                                                                  
     l     E      TYP  RCUT    TYP  RCUT                                        
     0   .000     23  1.900                                                     
     0   .000     23  1.900                                                     
     1   .000     23  1.900                                                     
     1   .000     23  1.900                                                     
     2   .000      7  1.900                                                     
  local pseudopotential read in
  partial core-charges read in
  atomic valenz-charges read in
  non local Contribution for L=           0  read in
    real space projection operators read in
  non local Contribution for L=           0  read in
    real space projection operators read in
  non local Contribution for L=           1  read in
    real space projection operators read in
  non local Contribution for L=           1  read in
    real space projection operators read in
    PAW grid and wavefunctions read in
 
   number of l-projection  operators is LMAX  =           4
   number of lm-projection operators is LMMAX =           8
 
 Optimization of the real space projectors (new method)

 maximal supplied QI-value         = 19.84
 optimisation between [QCUT,QGAM] = [  8.73, 17.66] = [ 21.34, 87.33] Ry 
 Optimized for a Real-space Cutoff    1.50 Angstroem

   l    n(q)    QCUT    max X(q) W(low)/X(q) W(high)/X(q)  e(spline) 
   0      8     8.731     6.651    0.16E-04    0.15E-04    0.77E-08
   0      8     8.731    90.285    0.16E-03    0.90E-04    0.16E-06
   1      7     8.731     4.328    0.47E-04    0.36E-04    0.45E-07
   1      7     8.731    54.583    0.13E-03    0.39E-03    0.20E-06
 Optimization of the real space projectors (new method)

 maximal supplied QI-value         = 19.84
 optimisation between [QCUT,QGAM] = [  8.73, 17.66] = [ 21.34, 87.33] Ry 
 Optimized for a Real-space Cutoff    1.46 Angstroem

   l    n(q)    QCUT    max X(q) W(low)/X(q) W(high)/X(q)  e(spline) 
   0      8     8.731     8.708    0.16E-04    0.11E-04    0.68E-08
   0      8     8.731   106.241    0.24E-03    0.77E-04    0.13E-06
   1      7     8.731     5.901    0.34E-04    0.38E-04    0.36E-07
   1      7     8.731    73.241    0.12E-03    0.39E-03    0.15E-06

 ----------------------------------------------------------------------------- 
|                                                                             |
|  ADVICE TO THIS USER RUNNING 'VASP/VAMP'   (HEAR YOUR MASTER'S VOICE ...):  |
|                                                                             |
|      You enforced a specific xc-type in the INCAR file,                     |
|      a different type was found on the POTCAR file                          |
|          I HOPE YOU KNOW, WHAT YOU ARE  DOING                               |
|                                                                             |
 ----------------------------------------------------------------------------- 

  PAW_PBE P 17Jan2003                   :
 energy of atom  1       EATOM= -176.0430
 kinetic energy error for atom=    0.0040 (will be added to EATOM!!)
 PAW_PBE Si 05Jan2001                   :
 energy of atom  2       EATOM= -103.0669
 kinetic energy error for atom=    0.0021 (will be added to EATOM!!)
 
 
 POSCAR: Si12                                    
  positions in direct lattice
  No initial velocities read in
 exchange correlation table for  LEXCH =       42
   RHO(1)=    0.500       N(1)  =     2000
   RHO(2)=  100.500       N(2)  =     4000
 


--------------------------------------------------------------------------------------------------------


 ion  position               nearest neighbor table
   1  0.114  0.228  0.233-  15 2.28  21 2.29  21 2.29
   2  0.914  0.728  0.515-  16 2.28  22 2.29  22 2.29
   3  0.458  0.916  0.209-  21 2.28  13 2.30  13 2.30
   4  0.258  0.416  0.491-  22 2.28  14 2.30  14 2.30  18 3.02
   5  0.311  0.622  0.084-  17 2.28  23 2.30  23 2.30
   6  0.311  0.622  0.366-  18 2.28  22 3.03
   7  0.999  0.998  0.086-  19 2.29  19 2.29  13 2.32
   8  0.999  0.998  0.368-  20 2.29  20 2.29  24 2.66  16 2.89  24 2.89
   9  0.655  0.310  0.060-  19 2.28  17 2.29  17 2.29
  10  0.655  0.310  0.342-  20 2.28  18 2.29  18 2.29  24 2.60  14 2.78
  11  0.770  0.539  0.207-  15 2.29  15 2.29  23 2.32
  12  0.570  0.039  0.489-  16 2.29  16 2.29  24 2.32  20 2.89
  13  0.940  0.879  0.158-   3 2.30   3 2.30   7 2.32  23 2.35
  14  0.740  0.379  0.440-  18 2.27   4 2.30   4 2.30  24 2.35  18 2.53  10 2.78  20 2.94
  15  0.205  0.410  0.186-   1 2.28  11 2.29  11 2.29  17 2.37
  16  0.005  0.910  0.468-   2 2.28  12 2.29  12 2.29   8 2.89
  17  0.202  0.404  0.100-   5 2.28   9 2.29   9 2.29  15 2.37
  18  0.202  0.404  0.382-  14 2.27   6 2.28  10 2.29  10 2.29  14 2.53   4 3.02  24 3.15
  19  0.564  0.128  0.108-   9 2.28   7 2.29   7 2.29  21 2.37
  20  0.564  0.128  0.390-  24 0.85  10 2.28   8 2.29   8 2.29  12 2.89  14 2.94
  21  0.567  0.134  0.194-   3 2.28   1 2.29   1 2.29  19 2.37
  22  0.367  0.634  0.476-   4 2.28   2 2.29   2 2.29   6 3.03
  23  0.829  0.658  0.136-   5 2.30   5 2.30  11 2.32  13 2.35
  24  0.629  0.158  0.418-  20 0.85  12 2.32  14 2.35  10 2.60   8 2.66   8 2.89  18 3.15
 

 ----------------------------------------------------------------------------- 
|                                                                             |
|           W    W    AA    RRRRR   N    N  II  N    N   GGGG   !!!           |
|           W    W   A  A   R    R  NN   N  II  NN   N  G    G  !!!           |
|           W    W  A    A  R    R  N N  N  II  N N  N  G       !!!           |
|           W WW W  AAAAAA  RRRRR   N  N N  II  N  N N  G  GGG   !            |
|           WW  WW  A    A  R   R   N   NN  II  N   NN  G    G                |
|           W    W  A    A  R    R  N    N  II  N    N   GGGG   !!!           |
|                                                                             |
|      The distance between some ions is very small                           |
|      please check the nearest neigbor list in the OUTCAR file               |
|          I HOPE YOU KNOW, WHAT YOU ARE  DOING                               |
|                                                                             |
 ----------------------------------------------------------------------------- 

  LATTYP: Found a base centered orthorhombic cell.
 ALAT       =     3.5404000000
 B/A-ratio  =     5.8153587165
 C/A-ratio  =     7.7678875268
  
  Lattice vectors:
  
 A1 = (   1.7702000000,  10.2943480000,   0.0000000000)
 A2 = (   1.7702000000, -10.2943480000,   0.0000000000)
 A3 = (   0.0000000000,   0.0000000000, -27.5014290000)


Analysis of symmetry for initial positions (statically):
=====================================================================
 Subroutine PRICEL returns:
 Original cell was already a primitive cell.
 

 Routine SETGRP: Setting up the symmetry group for a 
 base centered orthorhombic supercell.


 Subroutine GETGRP returns: Found  1 space group operations
 (whereof  1 operations were pure point group operations)
 out of a pool of  8 trial point group operations.


The static configuration has the point symmetry C_1 .


Analysis of symmetry for dynamics (positions and initial velocities):
=====================================================================
 Subroutine PRICEL returns:
 Original cell was already a primitive cell.
 

 Routine SETGRP: Setting up the symmetry group for a 
 base centered orthorhombic supercell.


 Subroutine GETGRP returns: Found  1 space group operations
 (whereof  1 operations were pure point group operations)
 out of a pool of  8 trial point group operations.


The dynamic configuration has the point symmetry C_1 .
 
 
 KPOINTS: pymatgen generated KPOINTS with grid den

Automatic generation of k-mesh.
Space group operators:
 irot       det(A)        alpha          n_x          n_y          n_z        tau_x        tau_y        tau_z
    1     1.000000     0.000000     1.000000     0.000000     0.000000     0.000000     0.000000     0.000000
 
 Subroutine IBZKPT returns following result:
 ===========================================
 
 Found     54 irreducible k-points:
 
 Following reciprocal coordinates:
            Coordinates               Weight
  0.000000  0.000000  0.000000      1.000000
  0.076923 -0.000000  0.000000      2.000000
  0.153846 -0.000000  0.000000      2.000000
  0.230769 -0.000000  0.000000      2.000000
  0.307692 -0.000000  0.000000      2.000000
  0.384615 -0.000000  0.000000      2.000000
  0.461538 -0.000000  0.000000      2.000000
  0.000000  0.250000  0.000000      2.000000
  0.076923  0.250000  0.000000      2.000000
  0.153846  0.250000  0.000000      2.000000
  0.230769  0.250000  0.000000      2.000000
  0.307692  0.250000  0.000000      2.000000
  0.384615  0.250000  0.000000      2.000000
  0.461538  0.250000  0.000000      2.000000
 -0.461538  0.250000  0.000000      2.000000
 -0.384615  0.250000  0.000000      2.000000
 -0.307692  0.250000  0.000000      2.000000
 -0.230769  0.250000  0.000000      2.000000
 -0.153846  0.250000  0.000000      2.000000
 -0.076923  0.250000  0.000000      2.000000
  0.000000  0.500000  0.000000      1.000000
  0.076923  0.500000  0.000000      2.000000
  0.153846  0.500000  0.000000      2.000000
  0.230769  0.500000  0.000000      2.000000
  0.307692  0.500000  0.000000      2.000000
  0.384615  0.500000  0.000000      2.000000
  0.461538  0.500000  0.000000      2.000000
  0.000000  0.000000  0.500000      1.000000
  0.076923 -0.000000  0.500000      2.000000
  0.153846 -0.000000  0.500000      2.000000
  0.230769 -0.000000  0.500000      2.000000
  0.307692 -0.000000  0.500000      2.000000
  0.384615 -0.000000  0.500000      2.000000
  0.461538 -0.000000  0.500000      2.000000
  0.000000  0.250000  0.500000      2.000000
  0.076923  0.250000  0.500000      2.000000
  0.153846  0.250000  0.500000      2.000000
  0.230769  0.250000  0.500000      2.000000
  0.307692  0.250000  0.500000      2.000000
  0.384615  0.250000  0.500000      2.000000
  0.461538  0.250000  0.500000      2.000000
 -0.461538  0.250000  0.500000      2.000000
 -0.384615  0.250000  0.500000      2.000000
 -0.307692  0.250000  0.500000      2.000000
 -0.230769  0.250000  0.500000      2.000000
 -0.153846  0.250000  0.500000      2.000000
 -0.076923  0.250000  0.500000      2.000000
  0.000000  0.500000  0.500000      1.000000
  0.076923  0.500000  0.500000      2.000000
  0.153846  0.500000  0.500000      2.000000
  0.230769  0.500000  0.500000      2.000000
  0.307692  0.500000  0.500000      2.000000
  0.384615  0.500000  0.500000      2.000000
  0.461538  0.500000  0.500000      2.000000
 
 Following cartesian coordinates:
            Coordinates               Weight
  0.000000  0.000000  0.000000      1.000000
  0.021727  0.003736  0.000000      2.000000
  0.043454  0.007472  0.000000      2.000000
  0.065182  0.011209  0.000000      2.000000
  0.086909  0.014945  0.000000      2.000000
  0.108636  0.018681  0.000000      2.000000
  0.130363  0.022417  0.000000      2.000000
  0.000000  0.024285  0.000000      2.000000
  0.021727  0.028021  0.000000      2.000000
  0.043454  0.031758  0.000000      2.000000
  0.065182  0.035494  0.000000      2.000000
  0.086909  0.039230  0.000000      2.000000
  0.108636  0.042966  0.000000      2.000000
  0.130363  0.046702  0.000000      2.000000
 -0.130363  0.001868  0.000000      2.000000
 -0.108636  0.005604  0.000000      2.000000
 -0.086909  0.009340  0.000000      2.000000
 -0.065182  0.013077  0.000000      2.000000
 -0.043454  0.016813  0.000000      2.000000
 -0.021727  0.020549  0.000000      2.000000
  0.000000  0.048570  0.000000      1.000000
  0.021727  0.052307  0.000000      2.000000
  0.043454  0.056043  0.000000      2.000000
  0.065182  0.059779  0.000000      2.000000
  0.086909  0.063515  0.000000      2.000000
  0.108636  0.067251  0.000000      2.000000
  0.130363  0.070987  0.000000      2.000000
  0.000000  0.000000  0.018181      1.000000
  0.021727  0.003736  0.018181      2.000000
  0.043454  0.007472  0.018181      2.000000
  0.065182  0.011209  0.018181      2.000000
  0.086909  0.014945  0.018181      2.000000
  0.108636  0.018681  0.018181      2.000000
  0.130363  0.022417  0.018181      2.000000
  0.000000  0.024285  0.018181      2.000000
  0.021727  0.028021  0.018181      2.000000
  0.043454  0.031758  0.018181      2.000000
  0.065182  0.035494  0.018181      2.000000
  0.086909  0.039230  0.018181      2.000000
  0.108636  0.042966  0.018181      2.000000
  0.130363  0.046702  0.018181      2.000000
 -0.130363  0.001868  0.018181      2.000000
 -0.108636  0.005604  0.018181      2.000000
 -0.086909  0.009340  0.018181      2.000000
 -0.065182  0.013077  0.018181      2.000000
 -0.043454  0.016813  0.018181      2.000000
 -0.021727  0.020549  0.018181      2.000000
  0.000000  0.048570  0.018181      1.000000
  0.021727  0.052307  0.018181      2.000000
  0.043454  0.056043  0.018181      2.000000
  0.065182  0.059779  0.018181      2.000000
  0.086909  0.063515  0.018181      2.000000
  0.108636  0.067251  0.018181      2.000000
  0.130363  0.070987  0.018181      2.000000
 


--------------------------------------------------------------------------------------------------------




 Dimension of arrays:
   k-points           NKPTS =     54   k-points in BZ     NKDIM =     54   number of bands    NBANDS=     68
   number of dos      NEDOS =    301   number of ions     NIONS =     24
   non local maximal  LDIM  =      4   non local SUM 2l+1 LMDIM =      8
   total plane-waves  NPLWV = 192000
   max r-space proj   IRMAX =   2772   max aug-charges    IRDMAX=   6603
   dimension x,y,z NGX =    20 NGY =   60 NGZ =  160
   dimension x,y,z NGXF=    40 NGYF=  120 NGZF=  320
   support grid    NGXF=    40 NGYF=  120 NGZF=  320
   ions per type =              12  12
 NGX,Y,Z   is equivalent  to a cutoff of   9.39,  9.55,  9.67 a.u.
 NGXF,Y,Z  is equivalent  to a cutoff of  18.78, 19.10, 19.34 a.u.


 I would recommend the setting:
   dimension x,y,z NGX =    20 NGY =   59 NGZ =  155
 SYSTEM =  unknown system                          
 POSCAR =  Si12                                    

 Startparameter for this run:
   NWRITE =      2    write-flag & timer
   PREC   = accura    normal or accurate (medium, high low for compatibility)
   ISTART =      0    job   : 0-new  1-cont  2-samecut
   ICHARG =      2    charge: 1-file 2-atom 10-const
   ISPIN  =      1    spin polarized calculation?
   LNONCOLLINEAR =      F non collinear calculations
   LSORBIT =      F    spin-orbit coupling
   INIWAV =      1    electr: 0-lowe 1-rand  2-diag
   LASPH  =      F    aspherical Exc in radial PAW
   METAGGA=      F    non-selfconsistent MetaGGA calc.

 Electronic Relaxation 1
   ENCUT  =  300.0 eV  22.05 Ry    4.70 a.u.   5.00 14.75 38.84*2*pi/ulx,y,z
   ENINI  =  300.0     initial cutoff
   ENAUG  =  342.9 eV  augmentation charge cutoff
   NELM   =     60;   NELMIN=  2; NELMDL= -5     # of ELM steps 
   EDIFF  = 0.1E-05   stopping-criterion for ELM
   LREAL  =      T    real-space projection
   NLSPLINE    = F    spline interpolate recip. space projectors
   LCOMPAT=      F    compatible to vasp.4.4
   GGA_COMPAT  = T    GGA compatible to vasp.4.4-vasp.4.6
   LMAXPAW     = -100 max onsite density
   LMAXMIX     =    2 max onsite mixed and CHGCAR
   VOSKOWN=      0    Vosko Wilk Nusair interpolation
   ROPT   =   -0.00025  -0.00025
 Ionic relaxation
   EDIFFG = 0.1E-04   stopping-criterion for IOM
   NSW    =      0    number of steps for IOM
   NBLOCK =      1;   KBLOCK =      1    inner block; outer block 
   IBRION =     -1    ionic relax: 0-MD 1-quasi-New 2-CG
   NFREE  =      1    steps in history (QN), initial steepest desc. (CG)
   ISIF   =      3    stress and relaxation
   IWAVPR =     10    prediction:  0-non 1-charg 2-wave 3-comb
   ISYM   =      2    0-nonsym 1-usesym 2-fastsym
   LCORR  =      T    Harris-Foulkes like correction to forces

   POTIM  = 0.5000    time-step for ionic-motion
   TEIN   =    0.0    initial temperature
   TEBEG  =    0.0;   TEEND  =   0.0 temperature during run
   SMASS  =  -3.00    Nose mass-parameter (am)
   estimated Nose-frequenzy (Omega)   =  0.10E-29 period in steps =****** mass=  -0.286E-27a.u.
   SCALEE = 1.0000    scale energy and forces
   NPACO  =    256;   APACO  = 16.0  distance and # of slots for P.C.
   PSTRESS=    0.0 pullay stress

  Mass of Ions in am
   POMASS =  30.97 28.09
  Ionic Valenz
   ZVAL   =   5.00  4.00
  Atomic Wigner-Seitz radii
   RWIGS  =  -1.00 -1.00
  virtual crystal weights 
   VCA    =   1.00  1.00
   NELECT =     108.0000    total number of electrons
   NUPDOWN=      -1.0000    fix difference up-down

 DOS related values:
   EMIN   =  10.00;   EMAX   =-10.00  energy-range for DOS
   EFERMI =   0.00
   ISMEAR =     0;   SIGMA  =   0.10  broadening in eV -4-tet -1-fermi 0-gaus

 Electronic relaxation 2 (details)
   IALGO  =     38    algorithm
   LDIAG  =      T    sub-space diagonalisation (order eigenvalues)
   LSUBROT=      F    optimize rotation matrix (better conditioning)
   TURBO    =      0    0=normal 1=particle mesh
   IRESTART =      0    0=no restart 2=restart with 2 vectors
   NREBOOT  =      0    no. of reboots
   NMIN     =      0    reboot dimension
   EREF     =   0.00    reference energy to select bands
   IMIX   =      4    mixing-type and parameters
     AMIX     =   0.40;   BMIX     =  1.00
     AMIX_MAG =   1.60;   BMIX_MAG =  1.00
     AMIN     =   0.10
     WC   =   100.;   INIMIX=   1;  MIXPRE=   1;  MAXMIX= -45

 Intra band minimization:
   WEIMIN = 0.0000     energy-eigenvalue tresh-hold
   EBREAK =  0.37E-08  absolut break condition
   DEPER  =   0.30     relativ break condition  

   TIME   =   0.40     timestep for ELM

  volume/ion in A,a.u.               =      41.76       281.83
  Fermi-wavevector in a.u.,A,eV,Ry     =   0.779018  1.472130  8.256946  0.606868
  Thomas-Fermi vector in A             =   1.882034
 
 Write flags
   LWAVE  =      F    write WAVECAR
   LCHARG =      F    write CHGCAR
   LVTOT  =      F    write LOCPOT, total local potential
   LVHAR  =      F    write LOCPOT, Hartree potential only
   LELF   =      F    write electronic localiz. function (ELF)
   LORBIT =      0    0 simple, 1 ext, 2 COOP (PROOUT)


 Dipole corrections
   LMONO  =      F    monopole corrections only (constant potential shift)
   LDIPOL =      F    correct potential (dipole corrections)
   IDIPOL =      0    1-x, 2-y, 3-z, 4-all directions 
   EPSILON=  1.0000000 bulk dielectric constant

 Exchange correlation treatment:
   GGA     =    BO    GGA type
   LEXCH   =    42    internal setting for exchange type
   VOSKOWN=      0    Vosko Wilk Nusair interpolation
   LHFCALC =     F    Hartree Fock is set to
   LHFONE  =     F    Hartree Fock one center treatment
   AEXX    =    0.0000 exact exchange contribution

 vdW DFT:
   LUSE_VDW   =     T    switch on vdW DFT
   Zab_VDW    =-.8491    correlation parameter
   PARAM1     =0.1833
   PARAM2     =0.2200
   PARAM3     =0.0000

 Linear response parameters
   LEPSILON=     F    determine dielectric tensor
   LRPA    =     F    only Hartree local field effects (RPA)
   LNABLA  =     F    use nabla operator in PAW spheres
   LVEL    =     F    velocity operator in full k-point grid
   LINTERFAST=   F  fast interpolation
   KINTER  =     0    interpolate to denser k-point grid
   CSHIFT  =0.1000    complex shift for real part using Kramers Kronig
   OMEGAMAX=  -1.0    maximum frequency
   DEG_THRESHOLD= 0.2000000E-02 threshold for treating states as degnerate
   RTIME   =    0.100 relaxation time in fs

 Orbital magnetization related:
   ORBITALMAG=     F  switch on orbital magnetization
   LCHIMAG   =     F  perturbation theory with respect to B field
   DQ        =  0.001000  dq finite difference perturbation B field



--------------------------------------------------------------------------------------------------------


 Static calculation
 charge density and potential will be updated during run
 non-spin polarized calculation
 Variant of blocked Davidson
 Davidson routine will perform the subspace rotation
 perform sub-space diagonalisation
    after iterative eigenvector-optimisation
 modified Broyden-mixing scheme, WC =      100.0
 initial mixing is a Kerker type mixing with AMIX =  0.4000 and BMIX =      1.0000
 Hartree-type preconditioning will be used
 using additional bands           14
 real space projection scheme for non local part
 use partial core corrections
 calculate Harris-corrections to forces 
   (improved forces if not selfconsistent)
 use gradient corrections 
 use of overlap-Matrix (Vanderbilt PP)
 Gauss-broadening in eV      SIGMA  =   0.10


--------------------------------------------------------------------------------------------------------


  energy-cutoff  :      300.00
  volume of cell :     1002.32
      direct lattice vectors                 reciprocal lattice vectors
     3.540400000  0.000000000  0.000000000     0.282453960  0.048570342  0.000000000
    -1.770200000 10.294348000  0.000000000     0.000000000  0.097140683  0.000000000
     0.000000000  0.000000000 27.501429000     0.000000000  0.000000000  0.036361747

  length of vectors
     3.540400000 10.445439617 27.501429000     0.286599577  0.097140683  0.036361747


 
 k-points in units of 2pi/SCALE and weight: pymatgen generated KPOINTS with grid den
   0.00000000  0.00000000  0.00000000       0.010
   0.02172723  0.00373618  0.00000000       0.019
   0.04345446  0.00747236  0.00000000       0.019
   0.06518168  0.01120854  0.00000000       0.019
   0.08690891  0.01494472  0.00000000       0.019
   0.10863614  0.01868090  0.00000000       0.019
   0.13036337  0.02241708  0.00000000       0.019
   0.00000000  0.02428517  0.00000000       0.019
   0.02172723  0.02802135  0.00000000       0.019
   0.04345446  0.03175753  0.00000000       0.019
   0.06518168  0.03549371  0.00000000       0.019
   0.08690891  0.03922989  0.00000000       0.019
   0.10863614  0.04296607  0.00000000       0.019
   0.13036337  0.04670225  0.00000000       0.019
  -0.13036337  0.00186809  0.00000000       0.019
  -0.10863614  0.00560427  0.00000000       0.019
  -0.08690891  0.00934045  0.00000000       0.019
  -0.06518168  0.01307663  0.00000000       0.019
  -0.04345446  0.01681281  0.00000000       0.019
  -0.02172723  0.02054899  0.00000000       0.019
   0.00000000  0.04857034  0.00000000       0.010
   0.02172723  0.05230652  0.00000000       0.019
   0.04345446  0.05604270  0.00000000       0.019
   0.06518168  0.05977888  0.00000000       0.019
   0.08690891  0.06351506  0.00000000       0.019
   0.10863614  0.06725124  0.00000000       0.019
   0.13036337  0.07098742  0.00000000       0.019
   0.00000000  0.00000000  0.01818087       0.010
   0.02172723  0.00373618  0.01818087       0.019
   0.04345446  0.00747236  0.01818087       0.019
   0.06518168  0.01120854  0.01818087       0.019
   0.08690891  0.01494472  0.01818087       0.019
   0.10863614  0.01868090  0.01818087       0.019
   0.13036337  0.02241708  0.01818087       0.019
   0.00000000  0.02428517  0.01818087       0.019
   0.02172723  0.02802135  0.01818087       0.019
   0.04345446  0.03175753  0.01818087       0.019
   0.06518168  0.03549371  0.01818087       0.019
   0.08690891  0.03922989  0.01818087       0.019
   0.10863614  0.04296607  0.01818087       0.019
   0.13036337  0.04670225  0.01818087       0.019
  -0.13036337  0.00186809  0.01818087       0.019
  -0.10863614  0.00560427  0.01818087       0.019
  -0.08690891  0.00934045  0.01818087       0.019
  -0.06518168  0.01307663  0.01818087       0.019
  -0.04345446  0.01681281  0.01818087       0.019
  -0.02172723  0.02054899  0.01818087       0.019
   0.00000000  0.04857034  0.01818087       0.010
   0.02172723  0.05230652  0.01818087       0.019
   0.04345446  0.05604270  0.01818087       0.019
   0.06518168  0.05977888  0.01818087       0.019
   0.08690891  0.06351506  0.01818087       0.019
   0.10863614  0.06725124  0.01818087       0.019
   0.13036337  0.07098742  0.01818087       0.019
 
 k-points in reciprocal lattice and weights: pymatgen generated KPOINTS with grid den
   0.00000000  0.00000000  0.00000000       0.010
   0.07692308 -0.00000000  0.00000000       0.019
   0.15384615 -0.00000000  0.00000000       0.019
   0.23076923 -0.00000000  0.00000000       0.019
   0.30769231 -0.00000000  0.00000000       0.019
   0.38461538 -0.00000000  0.00000000       0.019
   0.46153846 -0.00000000  0.00000000       0.019
   0.00000000  0.25000000  0.00000000       0.019
   0.07692308  0.25000000  0.00000000       0.019
   0.15384615  0.25000000  0.00000000       0.019
   0.23076923  0.25000000  0.00000000       0.019
   0.30769231  0.25000000  0.00000000       0.019
   0.38461538  0.25000000  0.00000000       0.019
   0.46153846  0.25000000  0.00000000       0.019
  -0.46153846  0.25000000  0.00000000       0.019
  -0.38461538  0.25000000  0.00000000       0.019
  -0.30769231  0.25000000  0.00000000       0.019
  -0.23076923  0.25000000  0.00000000       0.019
  -0.15384615  0.25000000  0.00000000       0.019
  -0.07692308  0.25000000  0.00000000       0.019
   0.00000000  0.50000000  0.00000000       0.010
   0.07692308  0.50000000  0.00000000       0.019
   0.15384615  0.50000000  0.00000000       0.019
   0.23076923  0.50000000  0.00000000       0.019
   0.30769231  0.50000000  0.00000000       0.019
   0.38461538  0.50000000  0.00000000       0.019
   0.46153846  0.50000000  0.00000000       0.019
   0.00000000  0.00000000  0.50000000       0.010
   0.07692308 -0.00000000  0.50000000       0.019
   0.15384615 -0.00000000  0.50000000       0.019
   0.23076923 -0.00000000  0.50000000       0.019
   0.30769231 -0.00000000  0.50000000       0.019
   0.38461538 -0.00000000  0.50000000       0.019
   0.46153846 -0.00000000  0.50000000       0.019
   0.00000000  0.25000000  0.50000000       0.019
   0.07692308  0.25000000  0.50000000       0.019
   0.15384615  0.25000000  0.50000000       0.019
   0.23076923  0.25000000  0.50000000       0.019
   0.30769231  0.25000000  0.50000000       0.019
   0.38461538  0.25000000  0.50000000       0.019
   0.46153846  0.25000000  0.50000000       0.019
  -0.46153846  0.25000000  0.50000000       0.019
  -0.38461538  0.25000000  0.50000000       0.019
  -0.30769231  0.25000000  0.50000000       0.019
  -0.23076923  0.25000000  0.50000000       0.019
  -0.15384615  0.25000000  0.50000000       0.019
  -0.07692308  0.25000000  0.50000000       0.019
   0.00000000  0.50000000  0.50000000       0.010
   0.07692308  0.50000000  0.50000000       0.019
   0.15384615  0.50000000  0.50000000       0.019
   0.23076923  0.50000000  0.50000000       0.019
   0.30769231  0.50000000  0.50000000       0.019
   0.38461538  0.50000000  0.50000000       0.019
   0.46153846  0.50000000  0.50000000       0.019
 
 position of ions in fractional coordinates (direct lattice) 
   0.11402300  0.22804500  0.23316207
   0.91402300  0.72804500  0.51499159
   0.45808900  0.91617900  0.20939482
   0.25808900  0.41617900  0.49122434
   0.31085400  0.62170900  0.08414979
   0.31085400  0.62170900  0.36597930
   0.99923000  0.99846000  0.08631254
   0.99923000  0.99846000  0.36814206
   0.65492700  0.30985400  0.06041748
   0.65492700  0.30985400  0.34224700
   0.76973800  0.53947500  0.20725292
   0.56973800  0.03947500  0.48908244
   0.93971600  0.87943300  0.15783749
   0.73971600  0.37943300  0.43966701
   0.20515200  0.41030300  0.18578822
   0.00515200  0.91030300  0.46761774
   0.20184900  0.40369900  0.09969156
   0.20184900  0.40369900  0.38152107
   0.56380500  0.12761000  0.10779021
   0.56380500  0.12761000  0.38961973
   0.56710600  0.13421200  0.19387616
   0.36710600  0.63421200  0.47570568
   0.82923400  0.65846800  0.13571444
   0.62923400  0.15846800  0.41754396
 
 position of ions in cartesian coordinates  (Angst):
   0.00000177  2.34757459  6.41229012
   1.94722177  7.49474859 14.16300462
  -0.00000177  9.43146546  5.75865686
   0.17701823  4.28429146 13.50937136
  -0.00000177  6.40008880  2.31423934
  -0.00000177  6.40008880 10.06495384
   1.77020000 10.27849470  2.37371832
   1.77020000 10.27849470 10.12443282
   1.77020000  3.18974491  1.66156717
   1.77020000  3.18974491  9.41228167
   1.77020177  5.55354339  5.69975143
   1.94722177  0.40636939 13.45046593
   1.77019823  9.05318934  4.34075665
   1.94721823  3.90601534 12.09147115
   0.00000177  4.22380187  5.10944151
  -1.59317823  9.37097587 12.86015601
  -0.00000177  4.15581799  2.74166024
  -0.00000177  4.15581799 10.49237474
   1.77020000  1.31366175  2.96438477
   1.77020000  1.31366175 10.71509927
   1.77020000  1.38162503  5.33187152
   0.17702000  6.52879903 13.08258602
   1.77020000  6.77849874  3.73234107
   1.94722000  1.63132474 11.48305557
 


--------------------------------------------------------------------------------------------------------


 k-point  1 :   0.0000 0.0000 0.0000  plane waves:   11717
 k-point  2 :   0.0769-0.0000 0.0000  plane waves:   11762
 k-point  3 :   0.1538-0.0000 0.0000  plane waves:   11805
 k-point  4 :   0.2308-0.0000 0.0000  plane waves:   11824
 k-point  5 :   0.3077-0.0000 0.0000  plane waves:   11875
 k-point  6 :   0.3846-0.0000 0.0000  plane waves:   11864
 k-point  7 :   0.4615-0.0000 0.0000  plane waves:   11883
 k-point  8 :   0.0000 0.2500 0.0000  plane waves:   11683
 k-point  9 :   0.0769 0.2500 0.0000  plane waves:   11756
 k-point 10 :   0.1538 0.2500 0.0000  plane waves:   11807
 k-point 11 :   0.2308 0.2500 0.0000  plane waves:   11853
 k-point 12 :   0.3077 0.2500 0.0000  plane waves:   11866
 k-point 13 :   0.3846 0.2500 0.0000  plane waves:   11889
 k-point 14 :   0.4615 0.2500 0.0000  plane waves:   11885
 k-point 15 :  -0.4615 0.2500 0.0000  plane waves:   11886
 k-point 16 :  -0.3846 0.2500 0.0000  plane waves:   11867
 k-point 17 :  -0.3077 0.2500 0.0000  plane waves:   11849
 k-point 18 :  -0.2308 0.2500 0.0000  plane waves:   11827
 k-point 19 :  -0.1538 0.2500 0.0000  plane waves:   11801
 k-point 20 :  -0.0769 0.2500 0.0000  plane waves:   11757
 k-point 21 :   0.0000 0.5000 0.0000  plane waves:   11710
 k-point 22 :   0.0769 0.5000 0.0000  plane waves:   11762
 k-point 23 :   0.1538 0.5000 0.0000  plane waves:   11782
 k-point 24 :   0.2308 0.5000 0.0000  plane waves:   11841
 k-point 25 :   0.3077 0.5000 0.0000  plane waves:   11876
 k-point 26 :   0.3846 0.5000 0.0000  plane waves:   11889
 k-point 27 :   0.4615 0.5000 0.0000  plane waves:   11881
 k-point 28 :   0.0000 0.0000 0.5000  plane waves:   11698
 k-point 29 :   0.0769-0.0000 0.5000  plane waves:   11752
 k-point 30 :   0.1538-0.0000 0.5000  plane waves:   11800
 k-point 31 :   0.2308-0.0000 0.5000  plane waves:   11834
 k-point 32 :   0.3077-0.0000 0.5000  plane waves:   11850
 k-point 33 :   0.3846-0.0000 0.5000  plane waves:   11888
 k-point 34 :   0.4615-0.0000 0.5000  plane waves:   11896
 k-point 35 :   0.0000 0.2500 0.5000  plane waves:   11714
 k-point 36 :   0.0769 0.2500 0.5000  plane waves:   11754
 k-point 37 :   0.1538 0.2500 0.5000  plane waves:   11802
 k-point 38 :   0.2308 0.2500 0.5000  plane waves:   11840
 k-point 39 :   0.3077 0.2500 0.5000  plane waves:   11858
 k-point 40 :   0.3846 0.2500 0.5000  plane waves:   11896
 k-point 41 :   0.4615 0.2500 0.5000  plane waves:   11886
 k-point 42 :  -0.4615 0.2500 0.5000  plane waves:   11852
 k-point 43 :  -0.3846 0.2500 0.5000  plane waves:   11838
 k-point 44 :  -0.3077 0.2500 0.5000  plane waves:   11842
 k-point 45 :  -0.2308 0.2500 0.5000  plane waves:   11840
 k-point 46 :  -0.1538 0.2500 0.5000  plane waves:   11804
 k-point 47 :  -0.0769 0.2500 0.5000  plane waves:   11748
 k-point 48 :   0.0000 0.5000 0.5000  plane waves:   11724
 k-point 49 :   0.0769 0.5000 0.5000  plane waves:   11748
 k-point 50 :   0.1538 0.5000 0.5000  plane waves:   11814
 k-point 51 :   0.2308 0.5000 0.5000  plane waves:   11832
 k-point 52 :   0.3077 0.5000 0.5000  plane waves:   11868
 k-point 53 :   0.3846 0.5000 0.5000  plane waves:   11892
 k-point 54 :   0.4615 0.5000 0.5000  plane waves:   11878

 maximum and minimum number of plane-waves per node :      5964     5832

 maximum number of plane-waves:     11896
 maximum index in each direction: 
   IXMAX=    5   IYMAX=   14   IZMAX=   38
   IXMIN=   -5   IYMIN=  -15   IZMIN=  -39

 WARNING: aliasing errors must be expected set NGX to  22 to avoid them
 NGY is ok and might be reduce to  60
 NGZ is ok and might be reduce to 156
 aliasing errors are usually negligible using standard VASP settings
 and one can safely disregard these warnings

 real space projection operators:
  total allocation   :       3793.25 KBytes
  max/ min on nodes  :       1899.38       1893.88


 parallel 3D FFT for wavefunctions:
    minimum data exchange during FFTs selected (reduces bandwidth)
 parallel 3D FFT for charge:
    minimum data exchange during FFTs selected (reduces bandwidth)


 total amount of memory used by VASP on root node   146493. kBytes
========================================================================

   base      :      30000. kBytes
   nonlr-proj:       3452. kBytes
   fftplans  :       9347. kBytes
   grid      :      14649. kBytes
   one-center:         36. kBytes
   wavefun   :      89009. kBytes
 
     INWAV:  cpu time    0.00: real time    0.00
 Broyden mixing: mesh for mixing (old mesh)
   NGX =  9   NGY = 29   NGZ = 77
  (NGX  = 40   NGY  =120   NGZ  =320)
  gives a total of  20097 points

 initial charge density was supplied:
 charge density of overlapping atoms calculated
 number of electron     108.0000000 magnetization 
 keeping initial charge density in first step


--------------------------------------------------------------------------------------------------------


 Maximum index for non-local projection operator         1333
 Maximum index for augmentation-charges          822 (set IRDMAX)


--------------------------------------------------------------------------------------------------------


 First call to EWALD:  gamma=   0.177
 Maximum number of real-space cells 7x 3x 1
 Maximum number of reciprocal cells 1x 3x 7

 FEWALD executed in parallel
    FEWALD:  cpu time    0.00: real time    0.00


----------------------------------------- Iteration    1(   1)  ---------------------------------------


vdW kernel read from vdw_kernel.bindat
  0.0000  0.2424  0.5071  0.7962  1.1119  1.4567  1.8333  2.2446  2.6937  3.1842
  3.7199  4.3049  4.9438  5.6415  6.4036  7.2358  8.1446  9.1372 10.2212 11.4050
 12.6979 14.1099 15.6519 17.3360 19.1751 21.1837 23.3773 25.7729 28.3892 31.2465
 34.3669 37.7748 41.4965 45.5611 50.0000
 
    POTLOK:  cpu time   16.11: real time   16.11
    SETDIJ:  cpu time    0.01: real time    0.01
     EDDAV:  cpu time   69.86: real time   69.88
       DOS:  cpu time    0.01: real time    0.01
    --------------------------------------------
      LOOP:  cpu time   85.99: real time   86.02

 eigenvalue-minimisations  :  7360
 total energy-change (2. order) : 0.5966343E+03  (-0.2875534E+04)
 number of electron     108.0000000 magnetization 
 augmentation part      108.0000000 magnetization 

 Free energy of the ion-electron system (eV)
  ---------------------------------------------------
  alpha Z        PSCENC =        36.80884744
  Ewald energy   TEWEN  =     12130.11151244
  -Hartree energ DENC   =    -15066.39490378
  -exchange      EXHF   =         0.00000000
  -V(xc)+E(xc)   XCENC  =       -88.09398107
  PAW double counting   =      1056.43050070     -732.41190547
  entropy T*S    EENTRO =        -0.03903416
  eigenvalues    EBANDS =       -93.81801664
  atomic energy  EATOM  =      3354.04126044
  ---------------------------------------------------
  free energy    TOTEN  =       596.63427990 eV

  energy without entropy =      596.67331406  energy(sigma->0) =      596.65379698


--------------------------------------------------------------------------------------------------------




----------------------------------------- Iteration    1(   2)  ---------------------------------------


     EDDAV:  cpu time   90.15: real time   90.18
       DOS:  cpu time    0.01: real time    0.01
    --------------------------------------------
      LOOP:  cpu time   90.17: real time   90.19

 eigenvalue-minimisations  :  9816
 total energy-change (2. order) :-0.5673364E+03  (-0.5526331E+03)
 number of electron     108.0000000 magnetization 
 augmentation part      108.0000000 magnetization 

 Free energy of the ion-electron system (eV)
  ---------------------------------------------------
  alpha Z        PSCENC =        36.80884744
  Ewald energy   TEWEN  =     12130.11151244
  -Hartree energ DENC   =    -15066.39490378
  -exchange      EXHF   =         0.00000000
  -V(xc)+E(xc)   XCENC  =       -88.09398107
  PAW double counting   =      1056.43050070     -732.41190547
  entropy T*S    EENTRO =        -0.02193042
  eigenvalues    EBANDS =      -661.17148040
  atomic energy  EATOM  =      3354.04126044
  ---------------------------------------------------
  free energy    TOTEN  =        29.29791988 eV

  energy without entropy =       29.31985030  energy(sigma->0) =       29.30888509


--------------------------------------------------------------------------------------------------------




----------------------------------------- Iteration    1(   3)  ---------------------------------------


     EDDAV:  cpu time   86.87: real time   86.90
       DOS:  cpu time    0.01: real time    0.01
    --------------------------------------------
      LOOP:  cpu time   86.88: real time   86.91

 eigenvalue-minimisations  : 10004
 total energy-change (2. order) :-0.6374838E+02  (-0.6237977E+02)
 number of electron     108.0000000 magnetization 
 augmentation part      108.0000000 magnetization 

 Free energy of the ion-electron system (eV)
  ---------------------------------------------------
  alpha Z        PSCENC =        36.80884744
  Ewald energy   TEWEN  =     12130.11151244
  -Hartree energ DENC   =    -15066.39490378
  -exchange      EXHF   =         0.00000000
  -V(xc)+E(xc)   XCENC  =       -88.09398107
  PAW double counting   =      1056.43050070     -732.41190547
  entropy T*S    EENTRO =        -0.03595928
  eigenvalues    EBANDS =      -724.90583118
  atomic energy  EATOM  =      3354.04126044
  ---------------------------------------------------
  free energy    TOTEN  =       -34.45045977 eV

  energy without entropy =      -34.41450048  energy(sigma->0) =      -34.43248013


--------------------------------------------------------------------------------------------------------




----------------------------------------- Iteration    1(   4)  ---------------------------------------


     EDDAV:  cpu time   96.29: real time   96.32
       DOS:  cpu time    0.01: real time    0.01
    --------------------------------------------
      LOOP:  cpu time   96.31: real time   96.33

 eigenvalue-minimisations  : 11200
 total energy-change (2. order) :-0.3674789E+01  (-0.3633586E+01)
 number of electron     108.0000000 magnetization 
 augmentation part      108.0000000 magnetization 

 Free energy of the ion-electron system (eV)
  ---------------------------------------------------
  alpha Z        PSCENC =        36.80884744
  Ewald energy   TEWEN  =     12130.11151244
  -Hartree energ DENC   =    -15066.39490378
  -exchange      EXHF   =         0.00000000
  -V(xc)+E(xc)   XCENC  =       -88.09398107
  PAW double counting   =      1056.43050070     -732.41190547
  entropy T*S    EENTRO =        -0.03219393
  eigenvalues    EBANDS =      -728.58438579
  atomic energy  EATOM  =      3354.04126044
  ---------------------------------------------------
  free energy    TOTEN  =       -38.12524902 eV

  energy without entropy =      -38.09305509  energy(sigma->0) =      -38.10915206


--------------------------------------------------------------------------------------------------------




----------------------------------------- Iteration    1(   5)  ---------------------------------------


     EDDAV:  cpu time   93.07: real time   93.10
       DOS:  cpu time    0.01: real time    0.01
    CHARGE:  cpu time    4.21: real time    4.21
    MIXING:  cpu time    0.01: real time    0.01
    --------------------------------------------
      LOOP:  cpu time   97.30: real time   97.33

 eigenvalue-minimisations  : 10576
 total energy-change (2. order) :-0.9559945E-01  (-0.9536416E-01)
 number of electron     107.9999997 magnetization 
 augmentation part       -9.6676473 magnetization 

 Broyden mixing:
  rms(total) = 0.15819E+01    rms(broyden)= 0.15789E+01
  rms(prec ) = 0.17321E+01
  weight for this iteration     100.00

 Free energy of the ion-electron system (eV)
  ---------------------------------------------------
  alpha Z        PSCENC =        36.80884744
  Ewald energy   TEWEN  =     12130.11151244
  -Hartree energ DENC   =    -15066.39490378
  -exchange      EXHF   =         0.00000000
  -V(xc)+E(xc)   XCENC  =       -88.09398107
  PAW double counting   =      1056.43050070     -732.41190547
  entropy T*S    EENTRO =        -0.03241443
  eigenvalues    EBANDS =      -728.67976474
  atomic energy  EATOM  =      3354.04126044
  ---------------------------------------------------
  free energy    TOTEN  =       -38.22084847 eV

  energy without entropy =      -38.18843404  energy(sigma->0) =      -38.20464126


--------------------------------------------------------------------------------------------------------




----------------------------------------- Iteration    1(   6)  ---------------------------------------


    POTLOK:  cpu time   15.21: real time   15.22
    SETDIJ:  cpu time    0.03: real time    0.03
     EDDAV:  cpu time   91.29: real time   91.32
       DOS:  cpu time    0.01: real time    0.01
    CHARGE:  cpu time    4.19: real time    4.19
    MIXING:  cpu time    0.01: real time    0.01
    --------------------------------------------
      LOOP:  cpu time  110.74: real time  110.77

 eigenvalue-minimisations  : 10488
 total energy-change (2. order) : 0.7149375E+01  (-0.3304489E+01)
 number of electron     107.9999997 magnetization 
 augmentation part       -9.4733419 magnetization 

 Broyden mixing:
  rms(total) = 0.65160E+00    rms(broyden)= 0.65070E+00
  rms(prec ) = 0.73995E+00
  weight for this iteration     100.00

 eigenvalues of (default mixing * dielectric matrix)
  average eigenvalue GAMMA=   1.1090
  1.1090

 Free energy of the ion-electron system (eV)
  ---------------------------------------------------
  alpha Z        PSCENC =        36.80884744
  Ewald energy   TEWEN  =     12130.11151244
  -Hartree energ DENC   =    -15130.68753709
  -exchange      EXHF   =         0.00000000
  -V(xc)+E(xc)   XCENC  =       -84.75753477
  PAW double counting   =      1133.90048735     -812.36934500
  entropy T*S    EENTRO =        -0.03459163
  eigenvalues    EBANDS =      -658.08457254
  atomic energy  EATOM  =      3354.04126044
  ---------------------------------------------------
  free energy    TOTEN  =       -31.07147335 eV

  energy without entropy =      -31.03688172  energy(sigma->0) =      -31.05417754


--------------------------------------------------------------------------------------------------------




----------------------------------------- Iteration    1(   7)  ---------------------------------------


    POTLOK:  cpu time   15.41: real time   15.41
    SETDIJ:  cpu time    0.02: real time    0.02
     EDDAV:  cpu time   75.63: real time   75.66
       DOS:  cpu time    0.01: real time    0.01
    CHARGE:  cpu time    4.05: real time    4.05
    MIXING:  cpu time    0.01: real time    0.01
    --------------------------------------------
      LOOP:  cpu time   95.13: real time   95.16

 eigenvalue-minimisations  :  8012
 total energy-change (2. order) : 0.2912471E-01  (-0.1751490E+01)
 number of electron     107.9999996 magnetization 
 augmentation part       -9.4404309 magnetization 

 Broyden mixing:
  rms(total) = 0.39124E+00    rms(broyden)= 0.39111E+00
  rms(prec ) = 0.41990E+00
  weight for this iteration     100.00

 eigenvalues of (default mixing * dielectric matrix)
  average eigenvalue GAMMA=   1.1394
  0.7800  1.4988

 Free energy of the ion-electron system (eV)
  ---------------------------------------------------
  alpha Z        PSCENC =        36.80884744
  Ewald energy   TEWEN  =     12130.11151244
  -Hartree energ DENC   =    -15137.44967073
  -exchange      EXHF   =         0.00000000
  -V(xc)+E(xc)   XCENC  =       -82.89318134
  PAW double counting   =      1170.49410617     -850.04199378
  entropy T*S    EENTRO =        -0.03661241
  eigenvalues    EBANDS =      -652.07661687
  atomic energy  EATOM  =      3354.04126044
  ---------------------------------------------------
  free energy    TOTEN  =       -31.04234864 eV

  energy without entropy =      -31.00573624  energy(sigma->0) =      -31.02404244


--------------------------------------------------------------------------------------------------------




----------------------------------------- Iteration    1(   8)  ---------------------------------------


    POTLOK:  cpu time   14.78: real time   14.79
    SETDIJ:  cpu time    0.01: real time    0.01
     EDDAV:  cpu time   82.07: real time   82.10
       DOS:  cpu time    0.01: real time    0.01
    CHARGE:  cpu time    5.42: real time    5.42
    MIXING:  cpu time    0.01: real time    0.01
    --------------------------------------------
      LOOP:  cpu time  102.31: real time  102.36

 eigenvalue-minimisations  :  9096
 total energy-change (2. order) : 0.2772578E-01  (-0.2656476E+00)
 number of electron     107.9999996 magnetization 
 augmentation part       -9.3962163 magnetization 

 Broyden mixing:
  rms(total) = 0.19767E+00    rms(broyden)= 0.19764E+00
  rms(prec ) = 0.20695E+00
  weight for this iteration     100.00

 eigenvalues of (default mixing * dielectric matrix)
  average eigenvalue GAMMA=   1.3027
  2.1896  0.9372  0.7813

 Free energy of the ion-electron system (eV)
  ---------------------------------------------------
  alpha Z        PSCENC =        36.80884744
  Ewald energy   TEWEN  =     12130.11151244
  -Hartree energ DENC   =    -15153.53935897
  -exchange      EXHF   =         0.00000000
  -V(xc)+E(xc)   XCENC  =       -81.37074050
  PAW double counting   =      1196.78712895     -877.13500417
  entropy T*S    EENTRO =        -0.03386426
  eigenvalues    EBANDS =      -636.68440424
  atomic energy  EATOM  =      3354.04126044
  ---------------------------------------------------
  free energy    TOTEN  =       -31.01462286 eV

  energy without entropy =      -30.98075860  energy(sigma->0) =      -30.99769073


--------------------------------------------------------------------------------------------------------




----------------------------------------- Iteration    1(   9)  ---------------------------------------


    POTLOK:  cpu time   14.55: real time   14.55
    SETDIJ:  cpu time    0.01: real time    0.01
     EDDAV:  cpu time   83.09: real time   83.12
       DOS:  cpu time    0.01: real time    0.01
    CHARGE:  cpu time    4.47: real time    4.47
    MIXING:  cpu time    0.02: real time    0.02
    --------------------------------------------
      LOOP:  cpu time  102.15: real time  102.19

 eigenvalue-minimisations  :  9208
 total energy-change (2. order) :-0.5965741E-01  (-0.5251842E-01)
 number of electron     107.9999997 magnetization 
 augmentation part       -9.3822864 magnetization 

 Broyden mixing:
  rms(total) = 0.74186E-01    rms(broyden)= 0.74144E-01
  rms(prec ) = 0.80598E-01
  weight for this iteration     100.00

 eigenvalues of (default mixing * dielectric matrix)
  average eigenvalue GAMMA=   1.2827
  2.4183  0.9735  0.9735  0.7654

 Free energy of the ion-electron system (eV)
  ---------------------------------------------------
  alpha Z        PSCENC =        36.80884744
  Ewald energy   TEWEN  =     12130.11151244
  -Hartree energ DENC   =    -15163.81976705
  -exchange      EXHF   =         0.00000000
  -V(xc)+E(xc)   XCENC  =       -80.18489013
  PAW double counting   =      1213.05927080     -893.93052182
  entropy T*S    EENTRO =        -0.03664546
  eigenvalues    EBANDS =      -627.12334694
  atomic energy  EATOM  =      3354.04126044
  ---------------------------------------------------
  free energy    TOTEN  =       -31.07428027 eV

  energy without entropy =      -31.03763480  energy(sigma->0) =      -31.05595753


--------------------------------------------------------------------------------------------------------




----------------------------------------- Iteration    1(  10)  ---------------------------------------


    POTLOK:  cpu time   14.82: real time   14.83
    SETDIJ:  cpu time    0.01: real time    0.01
     EDDAV:  cpu time   82.27: real time   82.29
       DOS:  cpu time    0.01: real time    0.01
    CHARGE:  cpu time    4.77: real time    4.78
    MIXING:  cpu time    0.02: real time    0.02
    --------------------------------------------
      LOOP:  cpu time  101.91: real time  101.94

 eigenvalue-minimisations  :  9160
 total energy-change (2. order) : 0.3208952E-02  (-0.1029377E-01)
 number of electron     107.9999997 magnetization 
 augmentation part       -9.3831246 magnetization 

 Broyden mixing:
  rms(total) = 0.35504E-01    rms(broyden)= 0.35468E-01
  rms(prec ) = 0.39577E-01
  weight for this iteration     100.00

 eigenvalues of (default mixing * dielectric matrix)
  average eigenvalue GAMMA=   1.2580
  2.5469  1.1327  1.1327  0.7388  0.7388

 Free energy of the ion-electron system (eV)
  ---------------------------------------------------
  alpha Z        PSCENC =        36.80884744
  Ewald energy   TEWEN  =     12130.11151244
  -Hartree energ DENC   =    -15167.62905492
  -exchange      EXHF   =         0.00000000
  -V(xc)+E(xc)   XCENC  =       -79.91522323
  PAW double counting   =      1214.39547320     -895.32773642
  entropy T*S    EENTRO =        -0.03435650
  eigenvalues    EBANDS =      -623.52179376
  atomic energy  EATOM  =      3354.04126044
  ---------------------------------------------------
  free energy    TOTEN  =       -31.07107131 eV

  energy without entropy =      -31.03671481  energy(sigma->0) =      -31.05389306


--------------------------------------------------------------------------------------------------------




----------------------------------------- Iteration    1(  11)  ---------------------------------------


    POTLOK:  cpu time   15.01: real time   15.02
    SETDIJ:  cpu time    0.01: real time    0.01
     EDDAV:  cpu time   79.08: real time   79.11
       DOS:  cpu time    0.01: real time    0.01
    CHARGE:  cpu time    6.05: real time    6.05
    MIXING:  cpu time    0.01: real time    0.02
    --------------------------------------------
      LOOP:  cpu time  100.18: real time  100.21

 eigenvalue-minimisations  :  8944
 total energy-change (2. order) : 0.7997286E-02  (-0.2680539E-02)
 number of electron     107.9999996 magnetization 
 augmentation part       -9.3841975 magnetization 

 Broyden mixing:
  rms(total) = 0.16549E-01    rms(broyden)= 0.16540E-01
  rms(prec ) = 0.18744E-01
  weight for this iteration     100.00

 eigenvalues of (default mixing * dielectric matrix)
  average eigenvalue GAMMA=   1.2557
  2.5893  1.5548  0.9553  0.9553  0.6914  0.7879

 Free energy of the ion-electron system (eV)
  ---------------------------------------------------
  alpha Z        PSCENC =        36.80884744
  Ewald energy   TEWEN  =     12130.11151244
  -Hartree energ DENC   =    -15168.60022894
  -exchange      EXHF   =         0.00000000
  -V(xc)+E(xc)   XCENC  =       -79.83085444
  PAW double counting   =      1213.34487971     -894.25978193
  entropy T*S    EENTRO =        -0.03520703
  eigenvalues    EBANDS =      -622.64350172
  atomic energy  EATOM  =      3354.04126044
  ---------------------------------------------------
  free energy    TOTEN  =       -31.06307403 eV

  energy without entropy =      -31.02786699  energy(sigma->0) =      -31.04547051


--------------------------------------------------------------------------------------------------------




----------------------------------------- Iteration    1(  12)  ---------------------------------------


    POTLOK:  cpu time   15.45: real time   15.46
    SETDIJ:  cpu time    0.02: real time    0.02
     EDDAV:  cpu time   81.82: real time   81.85
       DOS:  cpu time    0.01: real time    0.01
    CHARGE:  cpu time    4.26: real time    4.26
    MIXING:  cpu time    0.01: real time    0.01
    --------------------------------------------
      LOOP:  cpu time  101.58: real time  101.61

 eigenvalue-minimisations  :  9224
 total energy-change (2. order) : 0.1012079E-01  (-0.6394793E-03)
 number of electron     107.9999997 magnetization 
 augmentation part       -9.3860543 magnetization 

 Broyden mixing:
  rms(total) = 0.77410E-02    rms(broyden)= 0.77349E-02
  rms(prec ) = 0.92789E-02
  weight for this iteration     100.00

 eigenvalues of (default mixing * dielectric matrix)
  average eigenvalue GAMMA=   1.2645
  2.6262  1.9112  1.0201  1.0201  0.8202  0.8202  0.6334

 Free energy of the ion-electron system (eV)
  ---------------------------------------------------
  alpha Z        PSCENC =        36.80884744
  Ewald energy   TEWEN  =     12130.11151244
  -Hartree energ DENC   =    -15169.88418427
  -exchange      EXHF   =         0.00000000
  -V(xc)+E(xc)   XCENC  =       -79.81306669
  PAW double counting   =      1211.81943592     -892.69513848
  entropy T*S    EENTRO =        -0.03510620
  eigenvalues    EBANDS =      -621.40651384
  atomic energy  EATOM  =      3354.04126044
  ---------------------------------------------------
  free energy    TOTEN  =       -31.05295323 eV

  energy without entropy =      -31.01784704  energy(sigma->0) =      -31.03540013


--------------------------------------------------------------------------------------------------------




----------------------------------------- Iteration    1(  13)  ---------------------------------------


    POTLOK:  cpu time   15.05: real time   15.06
    SETDIJ:  cpu time    0.01: real time    0.01
     EDDAV:  cpu time   80.66: real time   80.68
       DOS:  cpu time    0.01: real time    0.01
    CHARGE:  cpu time    4.29: real time    4.29
    MIXING:  cpu time    0.01: real time    0.01
    --------------------------------------------
      LOOP:  cpu time  100.04: real time  100.07

 eigenvalue-minimisations  :  9056
 total energy-change (2. order) : 0.6097612E-02  (-0.1353193E-03)
 number of electron     107.9999997 magnetization 
 augmentation part       -9.3867487 magnetization 

 Broyden mixing:
  rms(total) = 0.34981E-02    rms(broyden)= 0.34960E-02
  rms(prec ) = 0.48763E-02
  weight for this iteration     100.00

 eigenvalues of (default mixing * dielectric matrix)
  average eigenvalue GAMMA=   1.2852
  2.6794  2.0442  1.3057  1.0148  1.0148  0.7998  0.7998  0.6235

 Free energy of the ion-electron system (eV)
  ---------------------------------------------------
  alpha Z        PSCENC =        36.80884744
  Ewald energy   TEWEN  =     12130.11151244
  -Hartree energ DENC   =    -15170.48498525
  -exchange      EXHF   =         0.00000000
  -V(xc)+E(xc)   XCENC  =       -79.80963743
  PAW double counting   =      1210.85038409     -891.70047694
  entropy T*S    EENTRO =        -0.03520939
  eigenvalues    EBANDS =      -620.82855103
  atomic energy  EATOM  =      3354.04126044
  ---------------------------------------------------
  free energy    TOTEN  =       -31.04685562 eV

  energy without entropy =      -31.01164623  energy(sigma->0) =      -31.02925093


--------------------------------------------------------------------------------------------------------




----------------------------------------- Iteration    1(  14)  ---------------------------------------


    POTLOK:  cpu time   14.62: real time   14.62
    SETDIJ:  cpu time    0.01: real time    0.01
     EDDAV:  cpu time   85.98: real time   86.00
       DOS:  cpu time    0.01: real time    0.01
    CHARGE:  cpu time    4.50: real time    4.50
    MIXING:  cpu time    0.01: real time    0.01
    --------------------------------------------
      LOOP:  cpu time  105.13: real time  105.16

 eigenvalue-minimisations  :  9432
 total energy-change (2. order) : 0.2839726E-02  (-0.4026606E-04)
 number of electron     107.9999997 magnetization 
 augmentation part       -9.3866036 magnetization 

 Broyden mixing:
  rms(total) = 0.22762E-02    rms(broyden)= 0.22743E-02
  rms(prec ) = 0.33657E-02
  weight for this iteration     100.00

 eigenvalues of (default mixing * dielectric matrix)
  average eigenvalue GAMMA=   1.3118
  2.7534  2.3298  1.7044  1.0303  1.0303  0.8088  0.8088  0.7281  0.6125

 Free energy of the ion-electron system (eV)
  ---------------------------------------------------
  alpha Z        PSCENC =        36.80884744
  Ewald energy   TEWEN  =     12130.11151244
  -Hartree energ DENC   =    -15171.41185194
  -exchange      EXHF   =         0.00000000
  -V(xc)+E(xc)   XCENC  =       -79.80289702
  PAW double counting   =      1210.48745859     -891.32822799
  entropy T*S    EENTRO =        -0.03518716
  eigenvalues    EBANDS =      -619.91493069
  atomic energy  EATOM  =      3354.04126044
  ---------------------------------------------------
  free energy    TOTEN  =       -31.04401589 eV

  energy without entropy =      -31.00882873  energy(sigma->0) =      -31.02642231


--------------------------------------------------------------------------------------------------------




----------------------------------------- Iteration    1(  15)  ---------------------------------------


    POTLOK:  cpu time   14.76: real time   14.77
    SETDIJ:  cpu time    0.01: real time    0.01
     EDDAV:  cpu time   84.37: real time   84.40
       DOS:  cpu time    0.01: real time    0.01
    CHARGE:  cpu time    4.05: real time    4.06
    MIXING:  cpu time    0.01: real time    0.01
    --------------------------------------------
      LOOP:  cpu time  103.23: real time  103.27

 eigenvalue-minimisations  :  9400
 total energy-change (2. order) : 0.1935129E-02  (-0.1407664E-04)
 number of electron     107.9999997 magnetization 
 augmentation part       -9.3861611 magnetization 

 Broyden mixing:
  rms(total) = 0.11685E-02    rms(broyden)= 0.11683E-02
  rms(prec ) = 0.20135E-02
  weight for this iteration     100.00

 eigenvalues of (default mixing * dielectric matrix)
  average eigenvalue GAMMA=   1.3554
  2.9747  2.5716  1.4865  1.4865  1.0360  1.0360  0.8098  0.8098  0.7213  0.6220

 Free energy of the ion-electron system (eV)
  ---------------------------------------------------
  alpha Z        PSCENC =        36.80884744
  Ewald energy   TEWEN  =     12130.11151244
  -Hartree energ DENC   =    -15172.34346222
  -exchange      EXHF   =         0.00000000
  -V(xc)+E(xc)   XCENC  =       -79.79676097
  PAW double counting   =      1210.23928213     -891.07414395
  entropy T*S    EENTRO =        -0.03514151
  eigenvalues    EBANDS =      -618.99347456
  atomic energy  EATOM  =      3354.04126044
  ---------------------------------------------------
  free energy    TOTEN  =       -31.04208077 eV

  energy without entropy =      -31.00693925  energy(sigma->0) =      -31.02451001


--------------------------------------------------------------------------------------------------------




----------------------------------------- Iteration    1(  16)  ---------------------------------------


    POTLOK:  cpu time   14.58: real time   14.59
    SETDIJ:  cpu time    0.01: real time    0.01
     EDDAV:  cpu time   80.58: real time   80.61
       DOS:  cpu time    0.01: real time    0.01
    CHARGE:  cpu time    4.78: real time    4.78
    MIXING:  cpu time    0.01: real time    0.02
    --------------------------------------------
      LOOP:  cpu time   99.98: real time  100.02

 eigenvalue-minimisations  :  8704
 total energy-change (2. order) : 0.7003136E-03  (-0.5668404E-05)
 number of electron     107.9999997 magnetization 
 augmentation part       -9.3861239 magnetization 

 Broyden mixing:
  rms(total) = 0.73178E-03    rms(broyden)= 0.73156E-03
  rms(prec ) = 0.12721E-02
  weight for this iteration     100.00

 eigenvalues of (default mixing * dielectric matrix)
  average eigenvalue GAMMA=   1.4228
  3.2992  2.6308  1.8743  1.8743  1.0303  1.0303  0.9589  0.8124  0.8124  0.6221
  0.7056

 Free energy of the ion-electron system (eV)
  ---------------------------------------------------
  alpha Z        PSCENC =        36.80884744
  Ewald energy   TEWEN  =     12130.11151244
  -Hartree energ DENC   =    -15173.08526290
  -exchange      EXHF   =         0.00000000
  -V(xc)+E(xc)   XCENC  =       -79.79347801
  PAW double counting   =      1210.10977227     -890.94147164
  entropy T*S    EENTRO =        -0.03516743
  eigenvalues    EBANDS =      -618.25739308
  atomic energy  EATOM  =      3354.04126044
  ---------------------------------------------------
  free energy    TOTEN  =       -31.04138045 eV

  energy without entropy =      -31.00621302  energy(sigma->0) =      -31.02379674


--------------------------------------------------------------------------------------------------------




----------------------------------------- Iteration    1(  17)  ---------------------------------------


    POTLOK:  cpu time   15.20: real time   15.21
    SETDIJ:  cpu time    0.02: real time    0.02
     EDDAV:  cpu time   73.53: real time   73.55
       DOS:  cpu time    0.02: real time    0.02
    CHARGE:  cpu time    4.26: real time    4.27
    MIXING:  cpu time    0.01: real time    0.01
    --------------------------------------------
      LOOP:  cpu time   93.05: real time   93.07

 eigenvalue-minimisations  :  8000
 total energy-change (2. order) :-0.5385307E-03  (-0.7042966E-05)
 number of electron     107.9999997 magnetization 
 augmentation part       -9.3860208 magnetization 

 Broyden mixing:
  rms(total) = 0.44139E-03    rms(broyden)= 0.44133E-03
  rms(prec ) = 0.73491E-03
  weight for this iteration     100.00

 eigenvalues of (default mixing * dielectric matrix)
  average eigenvalue GAMMA=   1.5485
  4.4981  2.7517  2.3606  1.4645  1.4645  1.0324  1.0324  1.0328  0.8066  0.8066
  0.6226  0.7091

 Free energy of the ion-electron system (eV)
  ---------------------------------------------------
  alpha Z        PSCENC =        36.80884744
  Ewald energy   TEWEN  =     12130.11151244
  -Hartree energ DENC   =    -15173.74763890
  -exchange      EXHF   =         0.00000000
  -V(xc)+E(xc)   XCENC  =       -79.78941470
  PAW double counting   =      1210.14373420     -890.97640973
  entropy T*S    EENTRO =        -0.03515066
  eigenvalues    EBANDS =      -617.59865952
  atomic energy  EATOM  =      3354.04126044
  ---------------------------------------------------
  free energy    TOTEN  =       -31.04191898 eV

  energy without entropy =      -31.00676832  energy(sigma->0) =      -31.02434365


--------------------------------------------------------------------------------------------------------




----------------------------------------- Iteration    1(  18)  ---------------------------------------


    POTLOK:  cpu time   15.40: real time   15.41
    SETDIJ:  cpu time    0.01: real time    0.01
     EDDAV:  cpu time   76.06: real time   76.08
       DOS:  cpu time    0.01: real time    0.01
    CHARGE:  cpu time    4.87: real time    4.87
    MIXING:  cpu time    0.02: real time    0.02
    --------------------------------------------
      LOOP:  cpu time   96.38: real time   96.41

 eigenvalue-minimisations  :  8112
 total energy-change (2. order) :-0.4495932E-03  (-0.1604424E-04)
 number of electron     107.9999997 magnetization 
 augmentation part       -9.3859622 magnetization 

 Broyden mixing:
  rms(total) = 0.23298E-03    rms(broyden)= 0.23293E-03
  rms(prec ) = 0.39412E-03
  weight for this iteration     100.00

 eigenvalues of (default mixing * dielectric matrix)
  average eigenvalue GAMMA=   1.6490
  5.5928  2.8351  2.4787  1.7560  1.7560  1.0341  1.0341  1.0030  1.0030  0.8059
  0.8059  0.6228  0.7097

 Free energy of the ion-electron system (eV)
  ---------------------------------------------------
  alpha Z        PSCENC =        36.80884744
  Ewald energy   TEWEN  =     12130.11151244
  -Hartree energ DENC   =    -15174.19912307
  -exchange      EXHF   =         0.00000000
  -V(xc)+E(xc)   XCENC  =       -79.78703945
  PAW double counting   =      1210.17200892     -891.00529703
  entropy T*S    EENTRO =        -0.03515454
  eigenvalues    EBANDS =      -617.14938374
  atomic energy  EATOM  =      3354.04126044
  ---------------------------------------------------
  free energy    TOTEN  =       -31.04236858 eV

  energy without entropy =      -31.00721404  energy(sigma->0) =      -31.02479131


--------------------------------------------------------------------------------------------------------




----------------------------------------- Iteration    1(  19)  ---------------------------------------


    POTLOK:  cpu time   14.75: real time   14.75
    SETDIJ:  cpu time    0.01: real time    0.01
     EDDAV:  cpu time   71.58: real time   71.60
       DOS:  cpu time    0.01: real time    0.01
    CHARGE:  cpu time    4.73: real time    4.73
    MIXING:  cpu time    0.02: real time    0.02
    --------------------------------------------
      LOOP:  cpu time   91.10: real time   91.13

 eigenvalue-minimisations  :  7552
 total energy-change (2. order) :-0.1146393E-03  (-0.5801761E-05)
 number of electron     107.9999997 magnetization 
 augmentation part       -9.3859492 magnetization 

 Broyden mixing:
  rms(total) = 0.17678E-03    rms(broyden)= 0.17668E-03
  rms(prec ) = 0.27710E-03
  weight for this iteration     100.00

 eigenvalues of (default mixing * dielectric matrix)
  average eigenvalue GAMMA=   1.6766
  6.1096  2.8455  2.6079  1.9860  1.5345  1.2328  1.2328  1.0279  1.0279  0.9231
  0.8053  0.8053  0.6228  0.7103

 Free energy of the ion-electron system (eV)
  ---------------------------------------------------
  alpha Z        PSCENC =        36.80884744
  Ewald energy   TEWEN  =     12130.11151244
  -Hartree energ DENC   =    -15174.40753501
  -exchange      EXHF   =         0.00000000
  -V(xc)+E(xc)   XCENC  =       -79.78618201
  PAW double counting   =      1210.18283332     -891.01628132
  entropy T*S    EENTRO =        -0.03515470
  eigenvalues    EBANDS =      -616.94178384
  atomic energy  EATOM  =      3354.04126044
  ---------------------------------------------------
  free energy    TOTEN  =       -31.04248322 eV

  energy without entropy =      -31.00732852  energy(sigma->0) =      -31.02490587


--------------------------------------------------------------------------------------------------------




----------------------------------------- Iteration    1(  20)  ---------------------------------------


    POTLOK:  cpu time   14.77: real time   14.77
    SETDIJ:  cpu time    0.01: real time    0.01
     EDDAV:  cpu time   65.71: real time   65.73
       DOS:  cpu time    0.01: real time    0.01
    CHARGE:  cpu time    4.20: real time    4.20
    MIXING:  cpu time    0.02: real time    0.02
    --------------------------------------------
      LOOP:  cpu time   84.72: real time   84.75

 eigenvalue-minimisations  :  6792
 total energy-change (2. order) :-0.1719857E-04  (-0.8789095E-06)
 number of electron     107.9999997 magnetization 
 augmentation part       -9.3859455 magnetization 

 Broyden mixing:
  rms(total) = 0.99983E-04    rms(broyden)= 0.99937E-04
  rms(prec ) = 0.18198E-03
  weight for this iteration     100.00

 eigenvalues of (default mixing * dielectric matrix)
  average eigenvalue GAMMA=   1.7205
  6.5384  2.9902  2.6331  2.2739  1.5151  1.3691  1.2606  1.2606  1.0256  1.0256
  0.9708  0.8057  0.8057  0.6227  0.7101

 Free energy of the ion-electron system (eV)
  ---------------------------------------------------
  alpha Z        PSCENC =        36.80884744
  Ewald energy   TEWEN  =     12130.11151244
  -Hartree energ DENC   =    -15174.48934383
  -exchange      EXHF   =         0.00000000
  -V(xc)+E(xc)   XCENC  =       -79.78591118
  PAW double counting   =      1210.18101664     -891.01442349
  entropy T*S    EENTRO =        -0.03515154
  eigenvalues    EBANDS =      -616.86030734
  atomic energy  EATOM  =      3354.04126044
  ---------------------------------------------------
  free energy    TOTEN  =       -31.04250041 eV

  energy without entropy =      -31.00734888  energy(sigma->0) =      -31.02492465


--------------------------------------------------------------------------------------------------------




----------------------------------------- Iteration    1(  21)  ---------------------------------------


    POTLOK:  cpu time   15.75: real time   15.75
    SETDIJ:  cpu time    0.02: real time    0.02
     EDDAV:  cpu time   64.67: real time   64.69
       DOS:  cpu time    0.01: real time    0.01
    CHARGE:  cpu time    4.56: real time    4.56
    MIXING:  cpu time    0.02: real time    0.02
    --------------------------------------------
      LOOP:  cpu time   85.04: real time   85.06

 eigenvalue-minimisations  :  6848
 total energy-change (2. order) :-0.6637918E-05  (-0.1730877E-05)
 number of electron     107.9999997 magnetization 
 augmentation part       -9.3859431 magnetization 

 Broyden mixing:
  rms(total) = 0.76906E-04    rms(broyden)= 0.76886E-04
  rms(prec ) = 0.11938E-03
  weight for this iteration     100.00

 eigenvalues of (default mixing * dielectric matrix)
  average eigenvalue GAMMA=   1.7477
  6.8008  3.2640  2.6946  2.3937  1.7119  1.7119  1.2342  1.2342  1.0230  1.0230
  0.9634  0.9634  0.8058  0.8058  0.6227  0.7099

 Free energy of the ion-electron system (eV)
  ---------------------------------------------------
  alpha Z        PSCENC =        36.80884744
  Ewald energy   TEWEN  =     12130.11151244
  -Hartree energ DENC   =    -15174.55999129
  -exchange      EXHF   =         0.00000000
  -V(xc)+E(xc)   XCENC  =       -79.78586990
  PAW double counting   =      1210.17698393     -891.01027803
  entropy T*S    EENTRO =        -0.03515204
  eigenvalues    EBANDS =      -616.78982004
  atomic energy  EATOM  =      3354.04126044
  ---------------------------------------------------
  free energy    TOTEN  =       -31.04250705 eV

  energy without entropy =      -31.00735501  energy(sigma->0) =      -31.02493103


--------------------------------------------------------------------------------------------------------




----------------------------------------- Iteration    1(  22)  ---------------------------------------


    POTLOK:  cpu time   14.75: real time   14.76
    SETDIJ:  cpu time    0.01: real time    0.01
     EDDAV:  cpu time   69.35: real time   69.37
       DOS:  cpu time    0.01: real time    0.01
    CHARGE:  cpu time    4.40: real time    4.40
    MIXING:  cpu time    0.02: real time    0.02
    --------------------------------------------
      LOOP:  cpu time   88.54: real time   88.57

 eigenvalue-minimisations  :  7112
 total energy-change (2. order) :-0.1436370E-05  (-0.1447650E-05)
 number of electron     107.9999997 magnetization 
 augmentation part       -9.3859440 magnetization 

 Broyden mixing:
  rms(total) = 0.49207E-04    rms(broyden)= 0.49189E-04
  rms(prec ) = 0.73047E-04
  weight for this iteration     100.00

 eigenvalues of (default mixing * dielectric matrix)
  average eigenvalue GAMMA=   1.8802
  7.1400  4.8370  2.8262  2.5617  2.0196  1.7316  1.3471  1.3471  1.2404  1.0259
  1.0259  0.6227  0.8057  0.8057  0.7098  0.9867  0.9297

 Free energy of the ion-electron system (eV)
  ---------------------------------------------------
  alpha Z        PSCENC =        36.80884744
  Ewald energy   TEWEN  =     12130.11151244
  -Hartree energ DENC   =    -15174.58535797
  -exchange      EXHF   =         0.00000000
  -V(xc)+E(xc)   XCENC  =       -79.78593019
  PAW double counting   =      1210.17473882     -891.00798425
  entropy T*S    EENTRO =        -0.03515309
  eigenvalues    EBANDS =      -616.76444215
  atomic energy  EATOM  =      3354.04126044
  ---------------------------------------------------
  free energy    TOTEN  =       -31.04250849 eV

  energy without entropy =      -31.00735540  energy(sigma->0) =      -31.02493194


--------------------------------------------------------------------------------------------------------




----------------------------------------- Iteration    1(  23)  ---------------------------------------


    POTLOK:  cpu time   15.10: real time   15.11
    SETDIJ:  cpu time    0.01: real time    0.01
     EDDAV:  cpu time   71.37: real time   71.39
       DOS:  cpu time    0.01: real time    0.01
    CHARGE:  cpu time    4.04: real time    4.04
    MIXING:  cpu time    0.02: real time    0.02
    --------------------------------------------
      LOOP:  cpu time   90.55: real time   90.57

 eigenvalue-minimisations  :  7100
 total energy-change (2. order) : 0.5860317E-04  (-0.2282979E-05)
[...]
     31      -4.2495      2.00000
     32      -3.9788      2.00000
     33      -3.7467      2.00000
     34      -3.6840      2.00000
     35      -3.4534      2.00000
     36      -3.2134      2.00000
     37      -3.1676      2.00000
     38      -3.0415      2.00000
     39      -3.0325      2.00000
     40      -2.8125      2.00000
     41      -2.5647      2.00000
     42      -2.5129      2.00000
     43      -2.2542      2.00000
     44      -1.9903      2.00000
     45      -1.9020      2.00000
     46      -1.7509      2.00000
     47      -1.6417      2.00000
     48      -1.4113      2.00000
     49      -1.3590      2.00000
     50      -1.1503      2.00000
     51      -1.0538      2.00000
     52      -0.9523      2.00000
     53      -0.6208      2.00000
     54      -0.1747      1.99526
     55       0.3666      0.00000
     56       0.4921      0.00000
     57       1.2080      0.00000
     58       1.4465      0.00000
     59       1.5584      0.00000
     60       1.6251      0.00000
     61       1.7000      0.00000
     62       2.1584      0.00000
     63       2.2687      0.00000
     64       2.5861      0.00000
     65       2.7209      0.00000
     66       2.8403      0.00000
     67       2.9711      0.00000
     68       3.0700      0.00000

 k-point    52 :       0.3077    0.5000    0.5000
  band No.  band energies     occupation 
      1     -13.2372      2.00000
      2     -12.4860      2.00000
      3     -12.3176      2.00000
      4     -12.1403      2.00000
      5     -11.7560      2.00000
      6     -11.6164      2.00000
      7     -11.2942      2.00000
      8     -10.9936      2.00000
      9     -10.7873      2.00000
     10     -10.6743      2.00000
     11     -10.3717      2.00000
     12      -9.8063      2.00000
     13      -8.8996      2.00000
     14      -8.5101      2.00000
     15      -8.2379      2.00000
     16      -7.7530      2.00000
     17      -7.4427      2.00000
     18      -7.0770      2.00000
     19      -7.0392      2.00000
     20      -6.9439      2.00000
     21      -6.7674      2.00000
     22      -6.2925      2.00000
     23      -6.1600      2.00000
     24      -5.9073      2.00000
     25      -5.8716      2.00000
     26      -5.3364      2.00000
     27      -5.2408      2.00000
     28      -4.8779      2.00000
     29      -4.7620      2.00000
     30      -4.4718      2.00000
     31      -4.4187      2.00000
     32      -4.2898      2.00000
     33      -4.0593      2.00000
     34      -3.8896      2.00000
     35      -3.4924      2.00000
     36      -3.2302      2.00000
     37      -3.2192      2.00000
     38      -3.0606      2.00000
     39      -2.8958      2.00000
     40      -2.8656      2.00000
     41      -2.7577      2.00000
     42      -2.5035      2.00000
     43      -2.3039      2.00000
     44      -2.2391      2.00000
     45      -1.9415      2.00000
     46      -1.8749      2.00000
     47      -1.7600      2.00000
     48      -1.6983      2.00000
     49      -1.5620      2.00000
     50      -1.2826      2.00000
     51      -1.1954      2.00000
     52      -1.0236      2.00000
     53      -0.8832      2.00000
     54      -0.4154      2.00000
     55       0.1080      0.24031
     56       0.4766      0.00000
     57       1.0955      0.00000
     58       1.2694      0.00000
     59       1.3254      0.00000
     60       1.3988      0.00000
     61       1.5594      0.00000
     62       1.9044      0.00000
     63       2.1875      0.00000
     64       2.2878      0.00000
     65       2.4800      0.00000
     66       2.5668      0.00000
     67       2.6244      0.00000
     68       2.8309      0.00000

 k-point    53 :       0.3846    0.5000    0.5000
  band No.  band energies     occupation 
      1     -12.8327      2.00000
      2     -12.0098      2.00000
      3     -11.8633      2.00000
      4     -11.6434      2.00000
      5     -11.4497      2.00000
      6     -11.2237      2.00000
      7     -11.0319      2.00000
      8     -10.7507      2.00000
      9     -10.7241      2.00000
     10     -10.5955      2.00000
     11     -10.4386      2.00000
     12      -9.7693      2.00000
     13      -8.8842      2.00000
     14      -8.5950      2.00000
     15      -8.4872      2.00000
     16      -8.2268      2.00000
     17      -7.9373      2.00000
     18      -7.5920      2.00000
     19      -7.3701      2.00000
     20      -7.3365      2.00000
     21      -6.9858      2.00000
     22      -6.7800      2.00000
     23      -6.6955      2.00000
     24      -6.6349      2.00000
     25      -5.9125      2.00000
     26      -5.5201      2.00000
     27      -5.2741      2.00000
     28      -4.9224      2.00000
     29      -4.6524      2.00000
     30      -4.4814      2.00000
     31      -4.3217      2.00000
     32      -4.1108      2.00000
     33      -4.0239      2.00000
     34      -3.8604      2.00000
     35      -3.6457      2.00000
     36      -3.5040      2.00000
     37      -3.3299      2.00000
     38      -3.1695      2.00000
     39      -3.1023      2.00000
     40      -2.8625      2.00000
     41      -2.7253      2.00000
     42      -2.5294      2.00000
     43      -2.4123      2.00000
     44      -2.2912      2.00000
     45      -2.1500      2.00000
     46      -2.0498      2.00000
     47      -1.8638      2.00000
     48      -1.8582      2.00000
     49      -1.7219      2.00000
     50      -1.4356      2.00000
     51      -1.3556      2.00000
     52      -1.1982      2.00000
     53      -0.8467      2.00000
     54      -0.4497      2.00000
     55      -0.0033      1.31033
     56       0.4122      0.00000
     57       0.9616      0.00000
     58       1.0846      0.00000
     59       1.2950      0.00000
     60       1.3727      0.00000
     61       1.5526      0.00000
     62       1.8144      0.00000
     63       1.8854      0.00000
     64       2.1053      0.00000
     65       2.1833      0.00000
     66       2.3467      0.00000
     67       2.4283      0.00000
     68       2.5910      0.00000

 k-point    54 :       0.4615    0.5000    0.5000
  band No.  band energies     occupation 
      1     -12.4924      2.00000
      2     -11.4671      2.00000
      3     -11.4353      2.00000
      4     -11.2441      2.00000
      5     -11.1448      2.00000
      6     -11.0871      2.00000
      7     -10.9287      2.00000
      8     -10.8291      2.00000
      9     -10.8196      2.00000
     10     -10.6979      2.00000
     11     -10.5997      2.00000
     12      -9.7304      2.00000
     13      -8.7823      2.00000
     14      -8.6421      2.00000
     15      -8.4835      2.00000
     16      -8.4143      2.00000
     17      -8.1915      2.00000
     18      -8.0952      2.00000
     19      -7.6819      2.00000
     20      -7.5375      2.00000
     21      -7.3700      2.00000
     22      -7.2659      2.00000
     23      -7.1456      2.00000
     24      -6.7432      2.00000
     25      -5.8854      2.00000
     26      -5.6730      2.00000
     27      -4.9384      2.00000
     28      -4.8114      2.00000
     29      -4.4823      2.00000
     30      -4.3966      2.00000
     31      -4.2299      2.00000
     32      -4.0572      2.00000
     33      -3.9186      2.00000
     34      -3.9062      2.00000
     35      -3.7433      2.00000
     36      -3.6390      2.00000
     37      -3.5332      2.00000
     38      -3.3022      2.00000
     39      -3.2327      2.00000
     40      -3.0080      2.00000
     41      -2.6954      2.00000
     42      -2.6616      2.00000
     43      -2.6014      2.00000
     44      -2.3463      2.00000
     45      -2.1759      2.00000
     46      -2.0967      2.00000
     47      -2.0105      2.00000
     48      -1.8225      2.00000
     49      -1.6846      2.00000
     50      -1.5186      2.00000
     51      -1.4730      2.00000
     52      -1.2506      2.00000
     53      -0.8204      2.00000
     54      -0.4552      2.00000
     55       0.0048      1.22467
     56       0.4506      0.00000
     57       0.7002      0.00000
     58       1.0603      0.00000
     59       1.2595      0.00000
     60       1.3805      0.00000
     61       1.6211      0.00000
     62       1.6776      0.00000
     63       1.8674      0.00000
     64       1.9474      0.00000
     65       2.0737      0.00000
     66       2.2159      0.00000
     67       2.3709      0.00000
     68       2.4825      0.00000


--------------------------------------------------------------------------------------------------------


 soft charge-density along one line, spin component           1
         0         1         2         3         4         5         6         7         8         9
 total charge-density along one line
 
 pseudopotential strength for first ion, spin component:           1
 29.773   0.008  -0.001  -0.023   0.000  -0.000  -0.001  -0.000
  0.008   0.009   0.000  -0.000  -0.000  -0.000   0.000   0.000
 -0.001   0.000   6.547  -0.001   0.000  -0.003   0.000  -0.000
 -0.023  -0.000  -0.001   6.542   0.000   0.000  -0.002  -0.000
  0.000  -0.000   0.000   0.000   6.548  -0.000  -0.000  -0.003
 -0.000  -0.000  -0.003   0.000  -0.000   0.015  -0.000   0.000
 -0.001   0.000   0.000  -0.002  -0.000  -0.000   0.015   0.000
 -0.000   0.000  -0.000  -0.000  -0.003   0.000   0.000   0.015
 total augmentation occupancy for first ion, spin component:           1
  1.817  -0.346   0.004   0.252   0.001   0.003   0.117   0.000
 -0.346   1.301   0.019   0.857   0.001   0.004  -0.431   0.000
  0.004   0.019   1.143   0.011  -0.000  -0.502   0.013   0.000
  0.252   0.857   0.011   1.281  -0.000   0.013  -0.416   0.001
  0.001   0.001  -0.000  -0.000   1.145   0.000   0.000  -0.526
  0.003   0.004  -0.502   0.013   0.000   0.291  -0.015  -0.000
  0.117  -0.431   0.013  -0.416   0.000  -0.015   0.226  -0.000
  0.000   0.000   0.000   0.001  -0.526  -0.000  -0.000   0.324


------------------------ aborting loop because EDIFF is reached ----------------------------------------


    CHARGE:  cpu time    5.50: real time    5.50
    FORLOC:  cpu time    0.09: real time    0.09
    FORNL :  cpu time   23.21: real time   23.21
    STRESS:  cpu time   61.69: real time   61.71
    FORCOR:  cpu time   14.70: real time   14.71
    FORHAR:  cpu time    0.14: real time    0.14
    MIXING:  cpu time    0.02: real time    0.02
    OFIELD:  cpu time    0.00: real time    0.00

  FORCE on cell =-STRESS in cart. coord.  units (eV):
  Direction    XX          YY          ZZ          XY          YZ          ZX
  --------------------------------------------------------------------------------------
  Alpha Z    36.80885    36.80885    36.80885
  Ewald   14463.66631 13900.59328-16234.15530    18.80531    48.33236    44.48875
  Hartree 15001.48172 14567.04776-14393.92154     0.24554   -16.66225     1.54348
  E(xc)    -362.17170  -362.06689  -361.68089    -0.23959    -0.87721    -0.28130
  Local  -31083.03128-30063.81907 29178.05189    -2.36831    48.57945     2.59615
  n-local  1199.64176  1193.46515  1161.30134    -0.24072    -5.30906    -6.80990
  augment  -207.78115  -206.70213  -201.95589     0.05841     2.43861     1.85785
  Kinetic   959.32048   966.29452  1004.69677     2.76575     3.34836     0.61464
  Fock        0.00000     0.00000     0.00000     0.00000     0.00000     0.00000
  -------------------------------------------------------------------------------------
  Total       7.93497    31.62147   189.14521    19.02638    79.85026    44.00967
  in kB      12.68381    50.54594   302.34271    30.41307   127.63815    70.34807
  external pressure =      121.86 kB  Pullay stress =        0.00 kB


 VOLUME and BASIS-vectors are now :
 -----------------------------------------------------------------------------
  energy-cutoff  :      300.00
  volume of cell :     1002.32
      direct lattice vectors                 reciprocal lattice vectors
     3.540400000  0.000000000  0.000000000     0.282453960  0.048570342  0.000000000
    -1.770200000 10.294348000  0.000000000     0.000000000  0.097140683  0.000000000
     0.000000000  0.000000000 27.501429000     0.000000000  0.000000000  0.036361747

  length of vectors
     3.540400000 10.445439617 27.501429000     0.286599577  0.097140683  0.036361747


 FORCES acting on ions
    electron-ion (+dipol)            ewald-force                    non-local-force                 convergence-correction
 -----------------------------------------------------------------------------------------------
   -.395E-01 0.764E+01 0.341E+02   0.996E-02 -.749E+01 -.296E+02   0.447E-03 -.170E+00 -.443E+01   0.944E-08 -.145E-06 -.845E-06
   -.228E-01 -.429E+01 -.544E+03   -.537E-01 0.498E+01 0.548E+03   0.593E-01 -.662E+00 -.403E+01   0.578E-08 -.741E-06 0.654E-05
   -.772E-03 0.670E+02 0.476E+02   -.953E-03 -.686E+02 -.433E+02   0.619E-03 0.156E+01 -.419E+01   -.900E-08 -.128E-05 0.548E-06
   -.718E+00 0.181E+02 -.551E+03   0.422E+00 -.195E+02 0.554E+03   0.437E+00 0.199E+01 -.163E+01   0.217E-06 0.138E-05 0.365E-05
   0.654E-03 -.575E+02 0.526E+03   0.876E-04 0.590E+02 -.530E+03   -.601E-03 -.153E+01 0.427E+01   0.476E-08 -.241E-06 0.195E-05
   0.167E+00 -.985E+02 -.844E+02   -.110E+00 0.102E+03 0.811E+02   0.580E-01 -.344E+01 0.459E+01   0.163E-06 0.158E-05 -.161E-05
   -.194E-02 0.544E+02 0.526E+03   0.195E-04 -.563E+02 -.530E+03   0.696E-03 0.191E+01 0.415E+01   0.668E-08 -.360E-06 0.158E-05
   -.214E+01 0.136E+03 -.632E+02   0.210E+01 -.137E+03 0.598E+02   -.483E+00 -.901E+00 0.344E+01   -.347E-06 -.940E-06 -.199E-05
   -.465E-04 0.159E+01 0.573E+03   -.880E-04 -.180E+01 -.577E+03   0.128E-02 0.207E+00 0.476E+01   0.279E-07 0.183E-05 -.157E-05
   0.121E+01 -.362E+02 0.144E+02   -.173E+01 0.354E+02 -.196E+02   0.295E+00 0.162E+00 0.272E+01   -.496E-06 -.821E-06 -.242E-05
   -.200E-03 -.676E+02 0.573E+02   -.640E-03 0.695E+02 -.532E+02   0.116E-02 -.191E+01 -.404E+01   -.604E-08 0.341E-06 0.727E-08
   -.206E+00 -.785E+01 -.543E+03   0.305E+00 0.104E+02 0.547E+03   -.339E-01 -.305E+01 -.278E+01   0.424E-07 -.142E-05 0.839E-06
   0.524E-02 0.320E+02 0.208E+03   0.246E-04 -.342E+02 -.208E+03   -.238E-02 0.211E+01 0.323E+00   0.475E-08 -.184E-05 0.134E-05
   0.613E+01 -.335E+02 -.303E+03   -.412E+01 0.325E+02 0.301E+03   -.212E+01 0.986E+00 0.476E+01   -.291E-07 -.208E-08 0.595E-06
   -.162E-02 -.143E+02 0.139E+03   0.444E-03 0.146E+02 -.142E+03   -.243E-02 -.248E+00 0.252E+01   -.486E-08 0.104E-05 0.231E-06
   0.110E+00 0.366E+02 -.298E+03   0.225E+00 -.354E+02 0.300E+03   -.381E+00 -.426E+00 -.272E+01   -.565E-07 -.125E-05 0.943E-06
   0.170E-02 -.565E+01 0.346E+03   0.790E-04 0.613E+01 -.343E+03   -.110E-02 -.472E+00 -.254E+01   -.148E-07 0.941E-06 0.937E-06
   -.656E+01 -.561E+02 -.114E+03   0.501E+01 0.588E+02 0.115E+03   0.174E+01 -.858E+00 -.293E+01   0.936E-07 0.192E-05 -.966E-06
   -.235E-02 0.101E+02 0.336E+03   -.195E-04 -.103E+02 -.333E+03   -.314E-02 0.244E+00 -.252E+01   0.303E-08 0.729E-06 0.133E-05
   0.180E+02 0.754E+02 -.706E+02   -.633E+02 -.153E+03 -.120E+03   -.104E+02 -.229E+02 -.512E+02   0.147E-06 -.123E-05 -.593E-06
   0.288E-01 0.124E+02 0.129E+03   -.973E-03 -.128E+02 -.131E+03   -.218E-01 0.371E+00 0.253E+01   0.978E-08 0.188E-06 0.833E-06
   -.675E+00 -.229E+02 -.305E+03   0.563E+00 0.223E+02 0.305E+03   0.244E-01 0.336E-01 -.967E+00   0.370E-07 0.163E-05 0.238E-05
   -.356E-03 -.316E+02 0.253E+03   -.950E-04 0.338E+02 -.253E+03   0.173E-02 -.215E+01 -.359E+00   -.279E-08 0.839E-07 0.110E-05
   -.190E+02 -.308E+01 -.311E+03   0.607E+02 0.869E+02 0.504E+03   0.146E+02 0.166E+02 0.489E+02   0.124E-06 -.958E-06 -.305E-06
 -----------------------------------------------------------------------------------------------
   -.376E+01 0.126E+02 0.130E+01   -.213E-13 0.142E-13 0.114E-12   0.377E+01 -.126E+02 -.129E+01   -.700E-07 0.433E-06 0.145E-04
 
 
 POSITION                                       TOTAL-FORCE (eV/Angst)
 -----------------------------------------------------------------------------------
      0.00000      2.34757      6.41229        -0.029341     -0.019046      0.048284
      1.94722      7.49475     14.16300        -0.017494      0.028020     -0.504688
     -0.00000      9.43147      5.75866        -0.001356     -0.016291      0.082082
      0.17702      4.28429     13.50937         0.141061      0.590703      1.860251
     -0.00000      6.40009      2.31424        -0.000110     -0.004701      0.008003
     -0.00000      6.40009     10.06495         0.114572     -0.394622      1.290274
      1.77020     10.27849      2.37372        -0.001476      0.002298     -0.002725
      1.77020     10.27849     10.12443        -0.525813     -1.332711      0.048813
      1.77020      3.18974      1.66157         0.000892     -0.000491      0.019657
      1.77020      3.18974      9.41228        -0.229952     -0.664959     -2.512407
      1.77020      5.55354      5.69975         0.000069      0.004206      0.094975
      1.94722      0.40637     13.45047         0.064759     -0.503296      0.611352
      1.77020      9.05319      4.34076         0.002628      0.004481      0.011252
      1.94722      3.90602     12.09147        -0.117094     -0.045633      1.936628
      0.00000      4.22380      5.10944        -0.003854      0.004253      0.042063
     -1.59318      9.37098     12.86016        -0.045646      0.842618     -0.789728
     -0.00000      4.15582      2.74166         0.000431      0.003359     -0.024810
     -0.00000      4.15582     10.49237         0.187567      1.880937     -1.947269
      1.77020      1.31366      2.96438        -0.005760     -0.017459     -0.029653
      1.77020      1.31366     10.71510       -55.741759   -100.274218   -241.446968
      1.77020      1.38163      5.33187         0.005687     -0.020295      0.024063
      0.17702      6.52880     13.08259        -0.088659     -0.531113     -1.212988
      1.77020      6.77850      3.73234         0.001029      0.015892     -0.002653
      1.94722      1.63132     11.48306        56.289617    100.448067    242.396192
 -----------------------------------------------------------------------------------
    total drift:                                0.006013     -0.000577      0.003979


--------------------------------------------------------------------------------------------------------



  FREE ENERGIE OF THE ION-ELECTRON SYSTEM (eV)
  ---------------------------------------------------
  free  energy   TOTEN  =       -31.04240176 eV

  energy  without entropy=      -31.00724818  energy(sigma->0) =      -31.02482497
 


--------------------------------------------------------------------------------------------------------


    POTLOK:  cpu time   15.40: real time   15.40


--------------------------------------------------------------------------------------------------------


     LOOP+:  cpu time 2890.74: real time 2891.71
    4ORBIT:  cpu time    0.00: real time    0.00

 total amount of memory used by VASP on root node   146493. kBytes
========================================================================

   base      :      30000. kBytes
   nonlr-proj:       3452. kBytes
   fftplans  :       9347. kBytes
   grid      :      14649. kBytes
   one-center:         36. kBytes
   wavefun   :      89009. kBytes
 
  
  
 General timing and accounting informations for this job:
 ========================================================
  
                  Total CPU time used (sec):     2908.296
                            User time (sec):     2870.351
                          System time (sec):       37.945
                         Elapsed time (sec):     2910.287
  
                   Maximum memory used (kb):      335552.
                   Average memory used (kb):           0.
  
                          Minor page faults:      8708095
                          Major page faults:            9
                 Voluntary context switches:         1479
