<?xml version="1.0" encoding="ISO-8859-1"?>
<modeling>
 <generator>
  <i name="program" type="string">vasp </i>
  <i name="version" type="string">5.3.5  </i>
  <i name="subversion" type="string">31Mar14 (build Oct 29 2014 16:16:03) complex                          parallel </i>
  <i name="platform" type="string">Linux-UFHPC </i>
  <i name="date" type="string">2016 02 09 </i>
  <i name="time" type="string">18:48:04 </i>
 </generator>
 <incar>
  <i type="string" name="PREC">accurate</i>
  <i type="int" name="IBRION">     2</i>
  <i name="EDIFF">      0.00000100</i>
  <i type="int" name="NSW">     0</i>
  <i type="int" name="ISIF">     3</i>
  <i name="ENCUT">    300.00000000</i>
  <i type="string" name="LREAL"> Auto</i>
  <i type="int" name="ISMEAR">     0</i>
  <i name="SIGMA">      0.10000000</i>
  <i type="logical" name="LWAVE"> F  </i>
  <i type="logical" name="LCHARG"> F  </i>
  <i type="logical" name="LAECHG"> F  </i>
  <i type="string" name="GGA"> Bo</i>
  <i name="PARAM1">      0.18333333</i>
  <i name="PARAM2">      0.22000000</i>
  <i type="logical" name="LUSE_VDW"> T  </i>
  <i name="AGGAC">      0.00000000</i>
 </incar>
 <kpoints>
  <generation param="Gamma">
   <v type="int" name="divisions">      13        4        2 </v>
   <v name="usershift">      0.00000000       0.00000000       0.00000000 </v>
   <v name="genvec1">      0.07692308      -0.00000000       0.00000000 </v>
   <v name="genvec2">      0.00000000       0.25000000       0.00000000 </v>
   <v name="genvec3">      0.00000000       0.00000000       0.50000000 </v>
   <v name="shift">      0.00000000       0.00000000       0.00000000 </v>
  </generation>
  <varray name="kpointlist" >
   <v>       0.00000000       0.00000000       0.00000000 </v>
   <v>       0.07692308      -0.00000000       0.00000000 </v>
   <v>       0.15384615      -0.00000000       0.00000000 </v>
   <v>       0.23076923      -0.00000000       0.00000000 </v>
   <v>       0.30769231      -0.00000000       0.00000000 </v>
   <v>       0.38461538      -0.00000000       0.00000000 </v>
   <v>       0.46153846      -0.00000000       0.00000000 </v>
   <v>       0.00000000       0.25000000       0.00000000 </v>
   <v>       0.07692308       0.25000000       0.00000000 </v>
   <v>       0.15384615       0.25000000       0.00000000 </v>
   <v>       0.23076923       0.25000000       0.00000000 </v>
   <v>       0.30769231       0.25000000       0.00000000 </v>
   <v>       0.38461538       0.25000000       0.00000000 </v>
   <v>       0.46153846       0.25000000       0.00000000 </v>
   <v>      -0.46153846       0.25000000       0.00000000 </v>
   <v>      -0.38461538       0.25000000       0.00000000 </v>
   <v>      -0.30769231       0.25000000       0.00000000 </v>
   <v>      -0.23076923       0.25000000       0.00000000 </v>
   <v>      -0.15384615       0.25000000       0.00000000 </v>
   <v>      -0.07692308       0.25000000       0.00000000 </v>
   <v>       0.00000000       0.50000000       0.00000000 </v>
   <v>       0.07692308       0.50000000       0.00000000 </v>
   <v>       0.15384615       0.50000000       0.00000000 </v>
   <v>       0.23076923       0.50000000       0.00000000 </v>
   <v>       0.30769231       0.50000000       0.00000000 </v>
   <v>       0.38461538       0.50000000       0.00000000 </v>
   <v>       0.46153846       0.50000000       0.00000000 </v>
   <v>       0.00000000       0.00000000       0.50000000 </v>
   <v>       0.07692308      -0.00000000       0.50000000 </v>
   <v>       0.15384615      -0.00000000       0.50000000 </v>
   <v>       0.23076923      -0.00000000       0.50000000 </v>
   <v>       0.30769231      -0.00000000       0.50000000 </v>
   <v>       0.38461538      -0.00000000       0.50000000 </v>
   <v>       0.46153846      -0.00000000       0.50000000 </v>
   <v>       0.00000000       0.25000000       0.50000000 </v>
   <v>       0.07692308       0.25000000       0.50000000 </v>
   <v>       0.15384615       0.25000000       0.50000000 </v>
   <v>       0.23076923       0.25000000       0.50000000 </v>
   <v>       0.30769231       0.25000000       0.50000000 </v>
   <v>       0.38461538       0.25000000       0.50000000 </v>
   <v>       0.46153846       0.25000000       0.50000000 </v>
   <v>      -0.46153846       0.25000000       0.50000000 </v>
   <v>      -0.38461538       0.25000000       0.50000000 </v>
   <v>      -0.30769231       0.25000000       0.50000000 </v>
   <v>      -0.23076923       0.25000000       0.50000000 </v>
   <v>      -0.15384615       0.25000000       0.50000000 </v>
   <v>      -0.07692308       0.25000000       0.50000000 </v>
   <v>       0.00000000       0.50000000       0.50000000 </v>
   <v>       0.07692308       0.50000000       0.50000000 </v>
   <v>       0.15384615       0.50000000       0.50000000 </v>
   <v>       0.23076923       0.50000000       0.50000000 </v>
   <v>       0.30769231       0.50000000       0.50000000 </v>
   <v>       0.38461538       0.50000000       0.50000000 </v>
   <v>       0.46153846       0.50000000       0.50000000 </v>
  </varray>
  <varray name="weights" >
   <v>       0.00961538 </v>
   <v>       0.01923077 </v>
   <v>       0.01923077 </v>
   <v>       0.01923077 </v>
   <v>       0.01923077 </v>
   <v>       0.01923077 </v>
   <v>       0.01923077 </v>
   <v>       0.01923077 </v>
   <v>       0.01923077 </v>
   <v>       0.01923077 </v>
   <v>       0.01923077 </v>
   <v>       0.01923077 </v>
   <v>       0.01923077 </v>
   <v>       0.01923077 </v>
   <v>       0.01923077 </v>
   <v>       0.01923077 </v>
   <v>       0.01923077 </v>
   <v>       0.01923077 </v>
   <v>       0.01923077 </v>
   <v>       0.01923077 </v>
   <v>       0.00961538 </v>
   <v>       0.01923077 </v>
   <v>       0.01923077 </v>
   <v>       0.01923077 </v>
   <v>       0.01923077 </v>
   <v>       0.01923077 </v>
   <v>       0.01923077 </v>
   <v>       0.00961538 </v>
   <v>       0.01923077 </v>
   <v>       0.01923077 </v>
   <v>       0.01923077 </v>
   <v>       0.01923077 </v>
   <v>       0.01923077 </v>
   <v>       0.01923077 </v>
   <v>       0.01923077 </v>
   <v>       0.01923077 </v>
   <v>       0.01923077 </v>
   <v>       0.01923077 </v>
   <v>       0.01923077 </v>
   <v>       0.01923077 </v>
   <v>       0.01923077 </v>
   <v>       0.01923077 </v>
   <v>       0.01923077 </v>
   <v>       0.01923077 </v>
   <v>       0.01923077 </v>
   <v>       0.01923077 </v>
   <v>       0.01923077 </v>
   <v>       0.00961538 </v>
   <v>       0.01923077 </v>
   <v>       0.01923077 </v>
   <v>       0.01923077 </v>
   <v>       0.01923077 </v>
   <v>       0.01923077 </v>
   <v>       0.01923077 </v>
  </varray>
 </kpoints>
 <parameters>
  <separator name="general" >
   <i type="string" name="SYSTEM">unknown system</i>
   <i type="logical" name="LCOMPAT"> F  </i>
  </separator>
  <separator name="electronic" >
   <i type="string" name="PREC">accura</i>
   <i name="ENMAX">    300.00000000</i>
   <i name="ENAUG">    342.92400000</i>
   <i name="EDIFF">      0.00000100</i>
   <i type="int" name="IALGO">    38</i>
   <i type="int" name="IWAVPR">    10</i>
   <i type="int" name="NBANDS">    68</i>
   <i name="NELECT">    108.00000000</i>
   <i type="int" name="TURBO">     0</i>
   <i type="int" name="IRESTART">     0</i>
   <i type="int" name="NREBOOT">     0</i>
   <i type="int" name="NMIN">     0</i>
   <i name="EREF">      0.00000000</i>
   <separator name="electronic smearing" >
    <i type="int" name="ISMEAR">     0</i>
    <i name="SIGMA">      0.10000000</i>
    <i name="KSPACING">      0.50000000</i>
    <i type="logical" name="KGAMMA"> T  </i>
   </separator>
   <separator name="electronic projectors" >
    <i type="logical" name="LREAL"> T  </i>
    <v name="ROPT">     -0.00025000     -0.00025000</v>
    <i type="int" name="LMAXPAW">  -100</i>
    <i type="int" name="LMAXMIX">     2</i>
    <i type="logical" name="NLSPLINE"> F  </i>
   </separator>
   <separator name="electronic startup" >
    <i type="int" name="ISTART">     0</i>
    <i type="int" name="ICHARG">     2</i>
    <i type="int" name="INIWAV">     1</i>
   </separator>
   <separator name="electronic spin" >
    <i type="int" name="ISPIN">     1</i>
    <i type="logical" name="LNONCOLLINEAR"> F  </i>
    <v name="MAGMOM">      1.00000000      1.00000000      1.00000000      1.00000000      1.00000000      1.00000000      1.00000000      1.00000000      1.00000000      1.00000000      1.00000000      1.00000000      1.00000000      1.00000000      1.00000000      1.00000000      1.00000000      1.00000000      1.00000000      1.00000000
      1.00000000      1.00000000      1.00000000      1.00000000</v>
    <i name="NUPDOWN">     -1.00000000</i>
    <i type="logical" name="LSORBIT"> F  </i>
    <v name="SAXIS">      0.00000000      0.00000000      1.00000000</v>
    <i type="logical" name="LSPIRAL"> F  </i>
    <v name="QSPIRAL">      0.00000000      0.00000000      0.00000000</v>
    <i type="logical" name="LZEROZ"> F  </i>
   </separator>
   <separator name="electronic exchange-correlation" >
    <i type="logical" name="LASPH"> F  </i>
    <i type="logical" name="LMETAGGA"> F  </i>
   </separator>
   <separator name="electronic convergence" >
    <i type="int" name="NELM">    60</i>
    <i type="int" name="NELMDL">    -5</i>
    <i type="int" name="NELMIN">     2</i>
    <i name="ENINI">    300.00000000</i>
    <separator name="electronic convergence detail" >
     <i type="logical" name="LDIAG"> T  </i>
     <i type="logical" name="LSUBROT"> F  </i>
     <i name="WEIMIN">      0.00000000</i>
     <i name="EBREAK">      0.00000000</i>
     <i name="DEPER">      0.30000000</i>
     <i type="int" name="NRMM">     4</i>
     <i name="TIME">      0.40000000</i>
    </separator>
   </separator>
   <separator name="electronic mixer" >
    <i name="AMIX">      0.40000000</i>
    <i name="BMIX">      1.00000000</i>
    <i name="AMIN">      0.10000000</i>
    <i name="AMIX_MAG">      1.60000000</i>
    <i name="BMIX_MAG">      1.00000000</i>
    <separator name="electronic mixer details" >
     <i type="int" name="IMIX">     4</i>
     <i type="int" name="MAXMIX">   -45</i>
     <i name="WC">    100.00000000</i>
     <i type="int" name="INIMIX">     1</i>
     <i type="int" name="MIXPRE">     1</i>
     <i type="int" name="MREMOVE">     5</i>
    </separator>
   </separator>
   <separator name="electronic dipolcorrection" >
    <i type="logical" name="LDIPOL"> F  </i>
    <i type="logical" name="LMONO"> F  </i>
    <i type="int" name="IDIPOL">     0</i>
    <i name="EPSILON">      1.00000000</i>
    <v name="DIPOL">   -100.00000000   -100.00000000   -100.00000000</v>
    <i name="EFIELD">      0.00000000</i>
   </separator>
  </separator>
  <separator name="grids" >
   <i type="int" name="NGX">    20</i>
   <i type="int" name="NGY">    60</i>
   <i type="int" name="NGZ">   160</i>
   <i type="int" name="NGXF">    40</i>
   <i type="int" name="NGYF">   120</i>
   <i type="int" name="NGZF">   320</i>
   <i type="logical" name="ADDGRID"> F  </i>
  </separator>
  <separator name="ionic" >
   <i type="int" name="NSW">     0</i>
   <i type="int" name="IBRION">    -1</i>
   <i type="int" name="ISIF">     3</i>
   <i name="PSTRESS">      0.00000000</i>
   <i name="EDIFFG">      0.00001000</i>
   <i type="int" name="NFREE">     1</i>
   <i name="POTIM">      0.50000000</i>
   <i name="SMASS">     -3.00000000</i>
   <i name="SCALEE">      1.00000000</i>
  </separator>
  <separator name="ionic md" >
   <i name="TEBEG">      0.00010000</i>
   <i name="TEEND">      0.00010000</i>
   <i type="int" name="NBLOCK">     1</i>
   <i type="int" name="KBLOCK">     1</i>
   <i type="int" name="NPACO">   256</i>
   <i name="APACO">     16.00000000</i>
  </separator>
  <separator name="symmetry" >
   <i type="int" name="ISYM">     2</i>
   <i name="SYMPREC">      0.00001000</i>
  </separator>
  <separator name="dos" >
   <i type="logical" name="LORBIT"> F  </i>
   <v name="RWIGS">     -1.00000000     -1.00000000</v>
   <i type="int" name="NEDOS">   301</i>
   <i name="EMIN">     10.00000000</i>
   <i name="EMAX">    -10.00000000</i>
   <i name="EFERMI">      0.00000000</i>
  </separator>
  <separator name="writing" >
   <i type="int" name="NWRITE">     2</i>
   <i type="logical" name="LWAVE"> F  </i>
   <i type="logical" name="LCHARG"> F  </i>
   <i type="logical" name="LPARD"> F  </i>
   <i type="logical" name="LVTOT"> F  </i>
   <i type="logical" name="LVHAR"> F  </i>
   <i type="logical" name="LELF"> F  </i>
   <i type="logical" name="LOPTICS"> F  </i>
   <v name="STM">      0.00000000      0.00000000      0.00000000      0.00000000      0.00000000      0.00000000      0.00000000</v>
  </separator>
  <separator name="performance" >
   <i type="int" name="NPAR">     4</i>
   <i type="int" name="NSIM">     4</i>
   <i type="int" name="NBLK">    -1</i>
   <i type="logical" name="LPLANE"> T  </i>
   <i type="logical" name="LSCALAPACK"> T  </i>
   <i type="logical" name="LSCAAWARE"> F  </i>
   <i type="logical" name="LSCALU"> F  </i>
   <i type="logical" name="LASYNC"> F  </i>
   <i type="logical" name="LORBITALREAL"> F  </i>
  </separator>
  <separator name="miscellaneous" >
   <i type="int" name="IDIOT">     3</i>
   <i type="logical" name="LMUSIC"> F  </i>
   <v name="POMASS">     30.97400000     28.08500000</v>
   <v name="DARWINR">      0.00000000      0.00000000</v>
   <v name="DARWINV">      1.00000000      1.00000000</v>
   <i type="logical" name="LCORR"> T  </i>
  </separator>
  <i type="logical" name="GGA_COMPAT"> T  </i>
  <i type="logical" name="LBERRY"> F  </i>
  <i type="int" name="ICORELEVEL">     0</i>
  <i type="logical" name="LDAU"> F  </i>
  <i type="int" name="I_CONSTRAINED_M">     0</i>
  <separator name="electronic exchange-correlation" >
   <i type="string" name="GGA">BO</i>
   <i type="int" name="VOSKOWN">     0</i>
   <i type="logical" name="LHFCALC"> F  </i>
   <i type="string" name="PRECFOCK"></i>
   <i type="logical" name="LSYMGRAD"> F  </i>
   <i type="logical" name="LHFONE"> F  </i>
   <i type="logical" name="LRHFCALC"> F  </i>
   <i type="logical" name="LTHOMAS"> F  </i>
   <i type="logical" name="LMODELHF"> F  </i>
   <i name="ENCUT4O">     -1.00000000</i>
   <i type="int" name="EXXOEP">     0</i>
   <i type="int" name="FOURORBIT">     0</i>
   <i name="AEXX">      0.00000000</i>
   <i name="HFALPHA">      0.00000000</i>
   <i name="MCALPHA">      0.00000000</i>
   <i name="ALDAX">      1.00000000</i>
   <i name="AGGAX">      1.00000000</i>
   <i name="ALDAC">      1.00000000</i>
   <i name="AGGAC">      0.00000000</i>
   <i type="int" name="NKREDX">     1</i>
   <i type="int" name="NKREDY">     1</i>
   <i type="int" name="NKREDZ">     1</i>
   <i type="logical" name="SHIFTRED"> F  </i>
   <i type="logical" name="ODDONLY"> F  </i>
   <i type="logical" name="EVENONLY"> F  </i>
   <i type="int" name="LMAXFOCK">     0</i>
   <i type="int" name="NMAXFOCKAE">     0</i>
   <i type="logical" name="LFOCKAEDFT"> F  </i>
   <i name="HFSCREEN">      0.00000000</i>
   <i name="HFSCREENC">      0.00000000</i>
   <i type="int" name="NBANDSGWLOW">     0</i>
  </separator>
  <separator name="vdW DFT" >
   <i type="logical" name="LUSE_VDW"> T  </i>
   <i name="Zab_VDW">     -0.84910000</i>
   <i name="PARAM1">      0.18333333</i>
   <i name="PARAM2">      0.22000000</i>
   <i name="PARAM3">      0.00000000</i>
  </separator>
  <separator name="model GW" >
   <i type="int" name="MODEL_GW">     0</i>
   <i name="MODEL_EPS0">     25.05800243</i>
   <i name="MODEL_ALPHA">      1.00000000</i>
  </separator>
  <separator name="linear response parameters" >
   <i type="logical" name="LEPSILON"> F  </i>
   <i type="logical" name="LRPA"> F  </i>
   <i type="logical" name="LNABLA"> F  </i>
   <i type="logical" name="LVEL"> F  </i>
   <i type="int" name="KINTER">     0</i>
   <i name="CSHIFT">      0.10000000</i>
   <i name="OMEGAMAX">     -1.00000000</i>
   <i name="DEG_THRESHOLD">      0.00200000</i>
  </separator>
  <separator name="orbital magnetization" >
   <i type="logical" name="NUCIND"> F  </i>
   <v name="MAGPOS">      0.00000000      0.00000000      0.00000000</v>
   <i type="logical" name="LNICSALL"> T  </i>
   <i type="logical" name="ORBITALMAG"> F  </i>
   <i type="logical" name="LMAGBLOCH"> F  </i>
   <i type="logical" name="LCHIMAG"> F  </i>
   <i type="logical" name="LGAUGE"> T  </i>
   <i type="int" name="MAGATOM">     0</i>
   <v name="MAGDIPOL">      0.00000000      0.00000000      0.00000000</v>
   <v name="AVECCONST">      0.00000000      0.00000000      0.00000000</v>
  </separator>
  <separator name="response functions" >
   <i type="logical" name="LADDER"> F  </i>
   <i type="logical" name="LFXC"> F  </i>
   <i type="logical" name="LHARTREE"> T  </i>
   <i type="int" name="IBSE">     0</i>
   <i type="logical" name="LTCTE"> F  </i>
   <i type="logical" name="LTETE"> F  </i>
   <i type="logical" name="LTRIPLET"> F  </i>
   <i type="logical" name="LFXCEPS"> F  </i>
   <i type="logical" name="LFXHEG"> F  </i>
   <i type="logical" name="L2ORDER"> F  </i>
   <i type="logical" name="LUSEW"> F  </i>
   <i name="ENCUTGW">     -2.00000000</i>
   <i name="ENCUTGWSOFT">     -2.00000000</i>
   <i name="ENCUTLF">     -1.00000000</i>
   <i type="int" name="LMAXMP2">    -1</i>
   <i name="SCISSOR">      0.00000000</i>
   <i type="int" name="NOMEGA">     0</i>
   <i type="int" name="NOMEGAR">     0</i>
   <i type="int" name="NBANDSGW">    -1</i>
   <i type="int" name="NBANDSO">    -1</i>
   <i type="int" name="NBANDSV">    -1</i>
   <i type="int" name="NELM">     1</i>
   <i type="int" name="DIM">     3</i>
   <i type="int" name="ANTIRES">     0</i>
   <i name="OMEGAMAX">    -30.00000000</i>
   <i name="OMEGAMIN">    -30.00000000</i>
   <i name="OMEGATL">   -200.00000000</i>
   <i type="int" name="OMEGAGRID">     0</i>
   <i name="CSHIFT">     -0.10000000</i>
   <i type="logical" name="SELFENERGY"> F  </i>
   <i type="logical" name="LSPECTRAL"> F  </i>
   <i type="logical" name="ODDONLYGW"> F  </i>
   <i type="logical" name="EVENONLYGW"> F  </i>
   <i type="int" name="NKREDLFX">     1</i>
   <i type="int" name="NKREDLFY">     1</i>
   <i type="int" name="NKREDLFZ">     1</i>
   <i type="int" name="MAXMEM">  1800</i>
   <i type="int" name="TELESCOPE">     0</i>
   <i type="int" name="TAUPAR">     1</i>
  </separator>
  <separator name="External order field" >
   <i name="OFIELD_KAPPA">      0.00000000</i>
   <v name="OFIELD_K">      0.00000000      0.00000000      0.00000000</v>
   <i name="OFIELD_Q6_NEAR">      0.00000000</i>
   <i name="OFIELD_Q6_FAR">      0.00000000</i>
   <i name="OFIELD_A">      0.00000000</i>
  </separator>
 </parameters>
 <atominfo>
  <atoms>      24 </atoms>
  <types>       2 </types>
  <array name="atoms" >
   <dimension dim="1">ion</dimension>
   <field type="string">element</field>
   <field type="int">atomtype</field>
   <set>
    <rc><c>P </c><c>   1</c></rc>
    <rc><c>P </c><c>   1</c></rc>
    <rc><c>P </c><c>   1</c></rc>
    <rc><c>P </c><c>   1</c></rc>
    <rc><c>P </c><c>   1</c></rc>
    <rc><c>P </c><c>   1</c></rc>
    <rc><c>P </c><c>   1</c></rc>
    <rc><c>P </c><c>   1</c></rc>
    <rc><c>P </c><c>   1</c></rc>
    <rc><c>P </c><c>   1</c></rc>
    <rc><c>P </c><c>   1</c></rc>
    <rc><c>P </c><c>   1</c></rc>
    <rc><c>Si</c><c>   2</c></rc>
    <rc><c>Si</c><c>   2</c></rc>
    <rc><c>Si</c><c>   2</c></rc>
    <rc><c>Si</c><c>   2</c></rc>
    <rc><c>Si</c><c>   2</c></rc>
    <rc><c>Si</c><c>   2</c></rc>
    <rc><c>Si</c><c>   2</c></rc>
    <rc><c>Si</c><c>   2</c></rc>
    <rc><c>Si</c><c>   2</c></rc>
    <rc><c>Si</c><c>   2</c></rc>
    <rc><c>Si</c><c>   2</c></rc>
    <rc><c>Si</c><c>   2</c></rc>
   </set>
  </array>
  <array name="atomtypes" >
   <dimension dim="1">type</dimension>
   <field type="int">atomspertype</field>
   <field type="string">element</field>
   <field>mass</field>
   <field>valence</field>
   <field type="string">pseudopotential</field>
   <set>
    <rc><c>  12</c><c>P </c><c>     30.97400000</c><c>      5.00000000</c><c>  PAW_PBE P 17Jan2003                   </c></rc>
    <rc><c>  12</c><c>Si</c><c>     28.08500000</c><c>      4.00000000</c><c> PAW_PBE Si 05Jan2001                   </c></rc>
   </set>
  </array>
 </atominfo>
 <structure name="initialpos" >
  <crystal>
   <varray name="basis" >
    <v>       3.54040000       0.00000000       0.00000000 </v>
    <v>      -1.77020000      10.29434800       0.00000000 </v>
    <v>       0.00000000       0.00000000      27.50142900 </v>
   </varray>
   <i name="volume">   1002.32009712 </i>
   <varray name="rec_basis" >
    <v>       0.28245396       0.04857034       0.00000000 </v>
    <v>       0.00000000       0.09714068       0.00000000 </v>
    <v>       0.00000000       0.00000000       0.03636175 </v>
   </varray>
  </crystal>
  <varray name="positions" >
   <v>       0.11402300       0.22804500       0.23316207 </v>
   <v>       0.01402300       0.32804500       0.51499159 </v>
   <v>       0.45808900       0.91617900       0.20939482 </v>
   <v>       0.35808900       0.01617900       0.49122434 </v>
   <v>       0.31085400       0.62170900       0.08414979 </v>
   <v>       0.31085400       0.62170900       0.36597930 </v>
   <v>       0.99923000       0.99846000       0.08631254 </v>
   <v>       0.99923000       0.99846000       0.36814206 </v>
   <v>       0.65492700       0.30985400       0.06041748 </v>
   <v>       0.65492700       0.30985400       0.34224700 </v>
   <v>       0.76973800       0.53947500       0.20725292 </v>
   <v>       0.66973800       0.63947500       0.48908244 </v>
   <v>       0.93971600       0.87943300       0.15783749 </v>
   <v>       0.83971600       0.97943300       0.43966701 </v>
   <v>       0.20515200       0.41030300       0.18578822 </v>
   <v>       0.10515200       0.51030300       0.46761774 </v>
   <v>       0.20184900       0.40369900       0.09969156 </v>
   <v>       0.20184900       0.40369900       0.38152107 </v>
   <v>       0.56380500       0.12761000       0.10779021 </v>
   <v>       0.56380500       0.12761000       0.38961973 </v>
   <v>       0.56710600       0.13421200       0.19387616 </v>
   <v>       0.46710600       0.23421200       0.47570568 </v>
   <v>       0.82923400       0.65846800       0.13571444 </v>
   <v>       0.72923400       0.75846800       0.41754396 </v>
  </varray>
 </structure>
 <calculation>
  <scstep>
   <time name="dav">   62.24   62.31</time>
   <time name="total">   78.20   78.29</time>
   <energy>
    <i name="alphaZ">     36.80884744 </i>
    <i name="ewald">  11893.31991791 </i>
    <i name="hartreedc"> -14950.73890443 </i>
    <i name="XCdc">    -88.23544054 </i>
    <i name="pawpsdc">   1056.43050070 </i>
    <i name="pawaedc">   -732.41190547 </i>
    <i name="eentropy">     -0.04351805 </i>
    <i name="bandstr">    -84.95346195 </i>
    <i name="atom">   3354.04126044 </i>
    <i name="e_fr_energy">    484.21729605 </i>
    <i name="e_wo_entrp">    484.26081410 </i>
    <i name="e_0_energy">    484.23905507 </i>
   </energy>
  </scstep>
  <scstep>
   <time name="dav">   78.14   78.21</time>
   <time name="total">   78.15   78.23</time>
   <energy>
    <i name="e_fr_energy">    -70.58606279 </i>
    <i name="e_wo_entrp">    -70.56536101 </i>
    <i name="e_0_energy">    -70.57571190 </i>
   </energy>
  </scstep>
  <scstep>
   <time name="dav">   71.97   72.07</time>
   <time name="total">   71.99   72.08</time>
   <energy>
    <i name="e_fr_energy">   -125.59765916 </i>
    <i name="e_wo_entrp">   -125.57325151 </i>
    <i name="e_0_energy">   -125.58545534 </i>
   </energy>
  </scstep>
  <scstep>
   <time name="dav">   85.24   85.33</time>
   <time name="total">   85.25   85.34</time>
   <energy>
    <i name="e_fr_energy">   -128.04462674 </i>
    <i name="e_wo_entrp">   -128.01935429 </i>
    <i name="e_0_energy">   -128.03199051 </i>
   </energy>
  </scstep>
  <scstep>
   <time name="dav">   79.79   79.88</time>
   <time name="total">   83.93   84.03</time>
   <energy>
    <i name="e_fr_energy">   -128.10467293 </i>
    <i name="e_wo_entrp">   -128.07929399 </i>
    <i name="e_0_energy">   -128.09198346 </i>
   </energy>
  </scstep>
  <scstep>
   <time name="dav">   72.19   72.30</time>
   <time name="total">   90.81   91.00</time>
   <energy>
    <i name="e_fr_energy">   -126.37906307 </i>
    <i name="e_wo_entrp">   -126.34611163 </i>
    <i name="e_0_energy">   -126.36258735 </i>
   </energy>
  </scstep>
  <scstep>
   <time name="dav">   70.97   71.18</time>
   <time name="total">   89.64   89.88</time>
   <energy>
    <i name="e_fr_energy">   -126.13340333 </i>
    <i name="e_wo_entrp">   -126.09757205 </i>
    <i name="e_0_energy">   -126.11548769 </i>
   </energy>
  </scstep>
  <scstep>
   <time name="dav">   72.78   72.86</time>
   <time name="total">   91.46   91.57</time>
   <energy>
    <i name="e_fr_energy">   -126.11408017 </i>
    <i name="e_wo_entrp">   -126.07952009 </i>
    <i name="e_0_energy">   -126.09680013 </i>
   </energy>
  </scstep>
  <scstep>
   <time name="dav">   75.22   75.38</time>
   <time name="total">   93.89   94.09</time>
   <energy>
    <i name="e_fr_energy">   -126.09857659 </i>
    <i name="e_wo_entrp">   -126.06268206 </i>
    <i name="e_0_energy">   -126.08062932 </i>
   </energy>
  </scstep>
  <scstep>
   <time name="dav">   73.77   73.85</time>
   <time name="total">   92.41   92.53</time>
   <energy>
    <i name="e_fr_energy">   -126.08999667 </i>
    <i name="e_wo_entrp">   -126.05528537 </i>
    <i name="e_0_energy">   -126.07264102 </i>
   </energy>
  </scstep>
  <scstep>
   <time name="dav">   72.08   72.15</time>
   <time name="total">   90.77   90.86</time>
   <energy>
    <i name="e_fr_energy">   -126.08417543 </i>
    <i name="e_wo_entrp">   -126.04900943 </i>
    <i name="e_0_energy">   -126.06659243 </i>
   </energy>
  </scstep>
  <scstep>
   <time name="dav">   72.40   72.52</time>
   <time name="total">   91.02   91.23</time>
   <energy>
    <i name="e_fr_energy">   -126.08087647 </i>
    <i name="e_wo_entrp">   -126.04584434 </i>
    <i name="e_0_energy">   -126.06336041 </i>
   </energy>
  </scstep>
  <scstep>
   <time name="dav">   79.66   79.73</time>
   <time name="total">   98.33   98.42</time>
   <energy>
    <i name="e_fr_energy">   -126.07914467 </i>
    <i name="e_wo_entrp">   -126.04418478 </i>
    <i name="e_0_energy">   -126.06166472 </i>
   </energy>
  </scstep>
  <scstep>
   <time name="dav">   69.93   69.99</time>
   <time name="total">   88.61   88.70</time>
   <energy>
    <i name="e_fr_energy">   -126.07816568 </i>
    <i name="e_wo_entrp">   -126.04316628 </i>
    <i name="e_0_energy">   -126.06066598 </i>
   </energy>
  </scstep>
  <scstep>
   <time name="dav">   67.19   67.35</time>
   <time name="total">   85.90   86.08</time>
   <energy>
    <i name="e_fr_energy">   -126.07834952 </i>
    <i name="e_wo_entrp">   -126.04337704 </i>
    <i name="e_0_energy">   -126.06086328 </i>
   </energy>
  </scstep>
  <scstep>
   <time name="dav">   67.37   67.47</time>
   <time name="total">   86.06   86.19</time>
   <energy>
    <i name="e_fr_energy">   -126.07895453 </i>
    <i name="e_wo_entrp">   -126.04398209 </i>
    <i name="e_0_energy">   -126.06146831 </i>
   </energy>
  </scstep>
  <scstep>
   <time name="dav">   64.21   64.36</time>
   <time name="total">   82.88   83.06</time>
   <energy>
    <i name="e_fr_energy">   -126.07911033 </i>
    <i name="e_wo_entrp">   -126.04414069 </i>
    <i name="e_0_energy">   -126.06162551 </i>
   </energy>
  </scstep>
  <scstep>
   <time name="dav">   54.94   54.96</time>
   <time name="total">   73.50   73.80</time>
   <energy>
    <i name="e_fr_energy">   -126.07912116 </i>
    <i name="e_wo_entrp">   -126.04415118 </i>
    <i name="e_0_energy">   -126.06163617 </i>
   </energy>
  </scstep>
  <scstep>
   <time name="dav">   58.30   58.32</time>
   <time name="total">   76.86   76.89</time>
   <energy>
    <i name="e_fr_energy">   -126.07914758 </i>
    <i name="e_wo_entrp">   -126.04417724 </i>
    <i name="e_0_energy">   -126.06166241 </i>
   </energy>
  </scstep>
  <scstep>
   <time name="dav">   56.29   56.30</time>
   <time name="total">   74.81   74.84</time>
   <energy>
    <i name="e_fr_energy">   -126.07912448 </i>
    <i name="e_wo_entrp">   -126.04415381 </i>
    <i name="e_0_energy">   -126.06163914 </i>
   </energy>
  </scstep>
  <scstep>
   <time name="dav">   54.63   54.65</time>
   <time name="total">   73.10   73.13</time>
   <energy>
    <i name="e_fr_energy">   -126.07905300 </i>
    <i name="e_wo_entrp">   -126.04408231 </i>
    <i name="e_0_energy">   -126.06156765 </i>
   </energy>
  </scstep>
  <scstep>
   <time name="dav">   54.30   54.32</time>
   <time name="total">   72.73   72.76</time>
   <energy>
    <i name="e_fr_energy">   -126.07902820 </i>
    <i name="e_wo_entrp">   -126.04405739 </i>
    <i name="e_0_energy">   -126.06154280 </i>
   </energy>
  </scstep>
  <scstep>
   <time name="dav">   55.78   55.80</time>
   <time name="total">   74.22   74.24</time>
   <energy>
    <i name="e_fr_energy">   -126.07900567 </i>
    <i name="e_wo_entrp">   -126.04403477 </i>
    <i name="e_0_energy">   -126.06152022 </i>
   </energy>
  </scstep>
  <scstep>
   <time name="dav">   50.67   50.69</time>
   <time name="total">   69.10   69.12</time>
   <energy>
    <i name="e_fr_energy">   -126.07900255 </i>
    <i name="e_wo_entrp">   -126.04403168 </i>
    <i name="e_0_energy">   -126.06151712 </i>
   </energy>
  </scstep>
  <scstep>
   <time name="dav">   51.26   51.28</time>
   <time name="total">   69.70   69.73</time>
   <energy>
    <i name="e_fr_energy">   -126.07899922 </i>
    <i name="e_wo_entrp">   -126.04402840 </i>
    <i name="e_0_energy">   -126.06151381 </i>
   </energy>
  </scstep>
  <scstep>
   <time name="dav">   47.33   47.35</time>
   <time name="total">   61.82   61.84</time>
   <energy>
    <i name="alphaZ">     36.80884744 </i>
    <i name="ewald">  11893.31991791 </i>
    <i name="hartreedc"> -15034.72908589 </i>
    <i name="XCdc">    -80.73113132 </i>
    <i name="pawpsdc">   1154.28825121 </i>
    <i name="pawaedc">   -832.94695936 </i>
    <i name="eentropy">     -0.03497084 </i>
    <i name="bandstr">   -616.09512853 </i>
    <i name="atom">   3354.04126044 </i>
    <i name="e_fr_energy">   -126.07899894 </i>
    <i name="e_wo_entrp">   -126.04402809 </i>
    <i name="e_0_energy">   -126.06151351 </i>
   </energy>
  </scstep>
  <structure>
   <crystal>
    <varray name="basis" >
     <v>       3.54040000       0.00000000       0.00000000 </v>
     <v>      -1.77020000      10.29434800       0.00000000 </v>
     <v>       0.00000000       0.00000000      27.50142900 </v>
    </varray>
    <i name="volume">   1002.32009712 </i>
    <varray name="rec_basis" >
     <v>       0.28245396       0.04857034       0.00000000 </v>
     <v>       0.00000000       0.09714068       0.00000000 </v>
     <v>       0.00000000       0.00000000       0.03636175 </v>
    </varray>
   </crystal>
   <varray name="positions" >
    <v>       0.11402300       0.22804500       0.23316207 </v>
    <v>       0.01402300       0.32804500       0.51499159 </v>
    <v>       0.45808900       0.91617900       0.20939482 </v>
    <v>       0.35808900       0.01617900       0.49122434 </v>
    <v>       0.31085400       0.62170900       0.08414979 </v>
    <v>       0.31085400       0.62170900       0.36597930 </v>
    <v>       0.99923000       0.99846000       0.08631254 </v>
    <v>       0.99923000       0.99846000       0.36814206 </v>
    <v>       0.65492700       0.30985400       0.06041748 </v>
    <v>       0.65492700       0.30985400       0.34224700 </v>
    <v>       0.76973800       0.53947500       0.20725292 </v>
    <v>       0.66973800       0.63947500       0.48908244 </v>
    <v>       0.93971600       0.87943300       0.15783749 </v>
    <v>       0.83971600       0.97943300       0.43966701 </v>
    <v>       0.20515200       0.41030300       0.18578822 </v>
    <v>       0.10515200       0.51030300       0.46761774 </v>
    <v>       0.20184900       0.40369900       0.09969156 </v>
    <v>       0.20184900       0.40369900       0.38152107 </v>
    <v>       0.56380500       0.12761000       0.10779021 </v>
    <v>       0.56380500       0.12761000       0.38961973 </v>
    <v>       0.56710600       0.13421200       0.19387616 </v>
    <v>       0.46710600       0.23421200       0.47570568 </v>
    <v>       0.82923400       0.65846800       0.13571444 </v>
    <v>       0.72923400       0.75846800       0.41754396 </v>
   </varray>
  </structure>
  <varray name="forces" >
   <v>      -0.00262442      -0.04828935       0.02365724 </v>
   <v>      -0.23435448      -0.42181786       0.34114993 </v>
   <v>      -0.00130043      -0.01110600       0.08155104 </v>
   <v>      -0.48695393      -0.74509202       1.04318654 </v>
   <v>      -0.00158206      -0.00375725       0.00452449 </v>
   <v>      -0.34889640       1.66932372      -0.85589664 </v>
   <v>       0.00129892      -0.00328996       0.00503474 </v>
   <v>       1.10076530       0.97682547      -4.00954302 </v>
   <v>       0.00110801      -0.00149490       0.01436291 </v>
   <v>       0.21816711       0.63941902      -0.61735251 </v>
   <v>      -0.00133143       0.00824765       0.09626297 </v>
   <v>       0.18427874      -0.50439380       0.09488685 </v>
   <v>       0.00286675      -0.00616421       0.01066908 </v>
   <v>       0.13276357      -1.98276357       4.14177098 </v>
   <v>      -0.00143307       0.03353119       0.07048280 </v>
   <v>       0.20540318      -0.41982337      -0.39156207 </v>
   <v>      -0.00027408      -0.00515841      -0.02654809 </v>
   <v>      -0.04851737       0.81810266       0.96819657 </v>
   <v>      -0.00268979      -0.00564194      -0.02158294 </v>
   <v>      -0.83911179       2.72625880      -0.72498138 </v>
   <v>       0.00298321      -0.02268015      -0.00367281 </v>
   <v>       0.10979439      -0.30499182      -0.64867254 </v>
   <v>       0.00165199      -0.00306198       0.00162404 </v>
   <v>       0.00798808      -2.38218192       0.40245181 </v>
  </varray>
  <varray name="stress" >
   <v>      -6.17476264      -0.41768989      -2.34316818 </v>
   <v>      -0.41768964       3.20312806     -21.40545841 </v>
   <v>      -2.34316816     -21.40545837      14.74527740 </v>
  </varray>
  <energy>
   <i name="e_fr_energy">   -126.07899894 </i>
   <i name="e_wo_entrp">   -126.06151351 </i>
   <i name="e_0_energy">     -0.03497084 </i>
  </energy>
  <time name="totalsc"> 2231.56 2234.36</time>
  <eigenvalues>
   <array>
    <dimension dim="1">band</dimension>
    <dimension dim="2">kpoint</dimension>
    <dimension dim="3">spin</dimension>
    <field>eigene</field>
    <field>occ</field>
    <set>
     <set comment="spin 1">
      <set comment="kpoint 1">
       <r>  -14.2776    1.0000 </r>
       <r>  -13.5762    1.0000 </r>
       <r>  -12.8373    1.0000 </r>
       <r>  -12.7454    1.0000 </r>
       <r>  -12.5331    1.0000 </r>
       <r>  -12.3939    1.0000 </r>
       <r>  -12.1213    1.0000 </r>
       <r>  -11.9251    1.0000 </r>
       <r>  -11.4673    1.0000 </r>
       <r>  -11.4030    1.0000 </r>
       <r>  -11.0271    1.0000 </r>
       <r>  -10.4961    1.0000 </r>
       <r>   -8.3288    1.0000 </r>
       <r>   -8.0676    1.0000 </r>
       <r>   -7.8633    1.0000 </r>
       <r>   -7.7640    1.0000 </r>
       <r>   -6.9187    1.0000 </r>
       <r>   -6.7381    1.0000 </r>
       <r>   -6.5287    1.0000 </r>
       <r>   -6.2742    1.0000 </r>
       <r>   -5.8671    1.0000 </r>
       <r>   -5.7638    1.0000 </r>
       <r>   -4.9758    1.0000 </r>
       <r>   -4.7594    1.0000 </r>
       <r>   -4.1394    1.0000 </r>
       <r>   -3.8483    1.0000 </r>
       <r>   -3.7207    1.0000 </r>
       <r>   -3.5612    1.0000 </r>
       <r>   -3.3466    1.0000 </r>
       <r>   -3.2019    1.0000 </r>
       <r>   -3.0911    1.0000 </r>
       <r>   -2.9419    1.0000 </r>
       <r>   -2.8803    1.0000 </r>
       <r>   -2.7748    1.0000 </r>
       <r>   -2.4862    1.0000 </r>
       <r>   -2.4671    1.0000 </r>
       <r>   -2.4258    1.0000 </r>
       <r>   -2.3736    1.0000 </r>
       <r>   -2.2600    1.0000 </r>
       <r>   -2.1025    1.0000 </r>
       <r>   -1.9196    1.0000 </r>
       <r>   -1.8167    1.0000 </r>
       <r>   -1.7644    1.0000 </r>
       <r>   -1.6758    1.0000 </r>
       <r>   -1.6293    1.0000 </r>
       <r>   -1.5646    1.0000 </r>
       <r>   -1.4671    1.0000 </r>
       <r>   -1.3925    1.0000 </r>
       <r>   -1.2848    1.0000 </r>
       <r>   -1.1443    1.0000 </r>
       <r>   -1.0704    1.0000 </r>
       <r>   -0.7476    1.0000 </r>
       <r>   -0.3138    0.9997 </r>
       <r>    0.2332    0.0000 </r>
       <r>    0.3340    0.0000 </r>
       <r>    0.8533    0.0000 </r>
       <r>    1.1085    0.0000 </r>
       <r>    1.2028    0.0000 </r>
       <r>    1.2865    0.0000 </r>
       <r>    1.6529    0.0000 </r>
       <r>    1.7869    0.0000 </r>
       <r>    1.8236    0.0000 </r>
       <r>    1.9479    0.0000 </r>
       <r>    2.0813    0.0000 </r>
       <r>    2.3910    0.0000 </r>
       <r>    2.4624    0.0000 </r>
       <r>    2.6026    0.0000 </r>
       <r>    2.7490    0.0000 </r>
      </set>
      <set comment="kpoint 2">
       <r>  -14.2195    1.0000 </r>
       <r>  -13.5149    1.0000 </r>
       <r>  -12.7851    1.0000 </r>
       <r>  -12.6913    1.0000 </r>
       <r>  -12.4774    1.0000 </r>
       <r>  -12.3392    1.0000 </r>
       <r>  -12.0593    1.0000 </r>
       <r>  -11.8716    1.0000 </r>
       <r>  -11.4184    1.0000 </r>
       <r>  -11.3552    1.0000 </r>
       <r>  -10.9787    1.0000 </r>
       <r>  -10.4562    1.0000 </r>
       <r>   -8.3435    1.0000 </r>
       <r>   -8.1047    1.0000 </r>
       <r>   -7.8281    1.0000 </r>
       <r>   -7.7061    1.0000 </r>
       <r>   -6.8836    1.0000 </r>
       <r>   -6.7115    1.0000 </r>
       <r>   -6.5230    1.0000 </r>
       <r>   -6.2996    1.0000 </r>
       <r>   -5.8359    1.0000 </r>
       <r>   -5.7541    1.0000 </r>
       <r>   -4.9683    1.0000 </r>
       <r>   -4.7645    1.0000 </r>
       <r>   -4.2242    1.0000 </r>
       <r>   -3.9775    1.0000 </r>
       <r>   -3.8056    1.0000 </r>
       <r>   -3.7385    1.0000 </r>
       <r>   -3.5570    1.0000 </r>
       <r>   -3.3563    1.0000 </r>
       <r>   -3.2834    1.0000 </r>
       <r>   -3.2708    1.0000 </r>
       <r>   -3.0405    1.0000 </r>
       <r>   -2.9301    1.0000 </r>
       <r>   -2.7941    1.0000 </r>
       <r>   -2.7464    1.0000 </r>
       <r>   -2.5153    1.0000 </r>
       <r>   -2.4822    1.0000 </r>
       <r>   -2.3566    1.0000 </r>
       <r>   -2.2365    1.0000 </r>
       <r>   -2.1219    1.0000 </r>
       <r>   -2.0609    1.0000 </r>
       <r>   -2.0000    1.0000 </r>
       <r>   -1.8953    1.0000 </r>
       <r>   -1.8227    1.0000 </r>
       <r>   -1.7634    1.0000 </r>
       <r>   -1.5452    1.0000 </r>
       <r>   -1.3744    1.0000 </r>
       <r>   -1.2441    1.0000 </r>
       <r>   -1.1237    1.0000 </r>
       <r>   -1.0348    1.0000 </r>
       <r>   -0.7311    1.0000 </r>
       <r>   -0.3236    0.9998 </r>
       <r>   -0.0481    0.3705 </r>
       <r>    0.5872    0.0000 </r>
       <r>    1.0256    0.0000 </r>
       <r>    1.3689    0.0000 </r>
       <r>    1.5230    0.0000 </r>
       <r>    1.7277    0.0000 </r>
       <r>    1.9530    0.0000 </r>
       <r>    2.0979    0.0000 </r>
       <r>    2.1674    0.0000 </r>
       <r>    2.1998    0.0000 </r>
       <r>    2.2620    0.0000 </r>
       <r>    2.5082    0.0000 </r>
       <r>    2.5731    0.0000 </r>
       <r>    2.7327    0.0000 </r>
       <r>    2.9178    0.0000 </r>
      </set>
      <set comment="kpoint 3">
       <r>  -14.0468    1.0000 </r>
       <r>  -13.3319    1.0000 </r>
       <r>  -12.6294    1.0000 </r>
       <r>  -12.5314    1.0000 </r>
       <r>  -12.3123    1.0000 </r>
       <r>  -12.1774    1.0000 </r>
       <r>  -11.8777    1.0000 </r>
       <r>  -11.7159    1.0000 </r>
       <r>  -11.2765    1.0000 </r>
       <r>  -11.2176    1.0000 </r>
       <r>  -10.8398    1.0000 </r>
       <r>  -10.3451    1.0000 </r>
       <r>   -8.3853    1.0000 </r>
       <r>   -8.2018    1.0000 </r>
       <r>   -7.7870    1.0000 </r>
       <r>   -7.5822    1.0000 </r>
       <r>   -6.8068    1.0000 </r>
       <r>   -6.6816    1.0000 </r>
       <r>   -6.5351    1.0000 </r>
       <r>   -6.4031    1.0000 </r>
       <r>   -5.8077    1.0000 </r>
       <r>   -5.7415    1.0000 </r>
       <r>   -5.0242    1.0000 </r>
       <r>   -4.8941    1.0000 </r>
       <r>   -4.7875    1.0000 </r>
       <r>   -4.2539    1.0000 </r>
       <r>   -4.1260    1.0000 </r>
       <r>   -4.0532    1.0000 </r>
       <r>   -3.9989    1.0000 </r>
       <r>   -3.8447    1.0000 </r>
       <r>   -3.7273    1.0000 </r>
       <r>   -3.6000    1.0000 </r>
       <r>   -3.5626    1.0000 </r>
       <r>   -3.3360    1.0000 </r>
       <r>   -3.2443    1.0000 </r>
       <r>   -3.0897    1.0000 </r>
       <r>   -2.9998    1.0000 </r>
       <r>   -2.9704    1.0000 </r>
       <r>   -2.7704    1.0000 </r>
       <r>   -2.5640    1.0000 </r>
       <r>   -2.4137    1.0000 </r>
       <r>   -2.3965    1.0000 </r>
       <r>   -2.1874    1.0000 </r>
       <r>   -2.1060    1.0000 </r>
       <r>   -1.9497    1.0000 </r>
       <r>   -1.7953    1.0000 </r>
       <r>   -1.6878    1.0000 </r>
       <r>   -1.4357    1.0000 </r>
       <r>   -1.2706    1.0000 </r>
       <r>   -1.1687    1.0000 </r>
       <r>   -1.0241    1.0000 </r>
       <r>   -0.8186    1.0000 </r>
       <r>   -0.7035    1.0000 </r>
       <r>   -0.1568    0.8860 </r>
       <r>    0.7539    0.0000 </r>
       <r>    1.1590    0.0000 </r>
       <r>    1.7632    0.0000 </r>
       <r>    1.9096    0.0000 </r>
       <r>    2.1589    0.0000 </r>
       <r>    2.1802    0.0000 </r>
       <r>    2.2700    0.0000 </r>
       <r>    2.3860    0.0000 </r>
       <r>    2.5742    0.0000 </r>
       <r>    2.6361    0.0000 </r>
       <r>    2.8958    0.0000 </r>
       <r>    2.9735    0.0000 </r>
       <r>    3.0286    0.0000 </r>
       <r>    3.0759    0.0000 </r>
      </set>
      <set comment="kpoint 4">
       <r>  -13.7655    1.0000 </r>
       <r>  -13.0309    1.0000 </r>
       <r>  -12.3732    1.0000 </r>
       <r>  -12.2735    1.0000 </r>
       <r>  -12.0450    1.0000 </r>
       <r>  -11.9168    1.0000 </r>
       <r>  -11.5918    1.0000 </r>
       <r>  -11.4764    1.0000 </r>
       <r>  -11.0599    1.0000 </r>
       <r>  -11.0112    1.0000 </r>
       <r>  -10.6366    1.0000 </r>
       <r>  -10.1954    1.0000 </r>
       <r>   -8.4818    1.0000 </r>
       <r>   -8.3937    1.0000 </r>
       <r>   -7.8602    1.0000 </r>
       <r>   -7.5208    1.0000 </r>
       <r>   -6.9393    1.0000 </r>
       <r>   -6.7358    1.0000 </r>
       <r>   -6.6682    1.0000 </r>
       <r>   -6.5229    1.0000 </r>
       <r>   -5.9628    1.0000 </r>
       <r>   -5.7719    1.0000 </r>
       <r>   -5.4347    1.0000 </r>
       <r>   -5.3738    1.0000 </r>
       <r>   -5.0465    1.0000 </r>
       <r>   -4.8464    1.0000 </r>
       <r>   -4.6448    1.0000 </r>
       <r>   -4.5491    1.0000 </r>
       <r>   -4.3607    1.0000 </r>
       <r>   -4.3222    1.0000 </r>
       <r>   -4.2228    1.0000 </r>
       <r>   -4.1014    1.0000 </r>
       <r>   -3.8354    1.0000 </r>
       <r>   -3.6599    1.0000 </r>
       <r>   -3.5783    1.0000 </r>
       <r>   -3.5023    1.0000 </r>
       <r>   -3.2669    1.0000 </r>
       <r>   -3.0409    1.0000 </r>
       <r>   -2.9467    1.0000 </r>
       <r>   -2.7227    1.0000 </r>
       <r>   -2.6348    1.0000 </r>
       <r>   -2.5417    1.0000 </r>
       <r>   -2.4388    1.0000 </r>
       <r>   -2.1774    1.0000 </r>
       <r>   -1.9430    1.0000 </r>
       <r>   -1.8632    1.0000 </r>
       <r>   -1.8146    1.0000 </r>
       <r>   -1.7480    1.0000 </r>
       <r>   -1.4988    1.0000 </r>
       <r>   -1.2814    1.0000 </r>
       <r>   -1.1087    1.0000 </r>
       <r>   -1.0845    1.0000 </r>
       <r>   -0.7126    1.0000 </r>
       <r>   -0.1446    0.8492 </r>
       <r>    0.4006    0.0000 </r>
       <r>    0.9477    0.0000 </r>
       <r>    1.5376    0.0000 </r>
       <r>    1.7886    0.0000 </r>
       <r>    1.9015    0.0000 </r>
       <r>    2.0062    0.0000 </r>
       <r>    2.2134    0.0000 </r>
       <r>    2.3283    0.0000 </r>
       <r>    2.4162    0.0000 </r>
       <r>    2.6311    0.0000 </r>
       <r>    2.6754    0.0000 </r>
       <r>    2.8426    0.0000 </r>
       <r>    2.9174    0.0000 </r>
       <r>    2.9424    0.0000 </r>
      </set>
      <set comment="kpoint 5">
       <r>  -13.3898    1.0000 </r>
       <r>  -12.6191    1.0000 </r>
       <r>  -12.0249    1.0000 </r>
       <r>  -11.9375    1.0000 </r>
       <r>  -11.6922    1.0000 </r>
       <r>  -11.5785    1.0000 </r>
       <r>  -11.2441    1.0000 </r>
       <r>  -11.1952    1.0000 </r>
       <r>  -10.8158    1.0000 </r>
       <r>  -10.7872    1.0000 </r>
       <r>  -10.4503    1.0000 </r>
       <r>  -10.0813    1.0000 </r>
       <r>   -8.6903    1.0000 </r>
       <r>   -8.6548    1.0000 </r>
       <r>   -8.1203    1.0000 </r>
       <r>   -7.6731    1.0000 </r>
       <r>   -7.2691    1.0000 </r>
       <r>   -7.0311    1.0000 </r>
       <r>   -6.9387    1.0000 </r>
       <r>   -6.8293    1.0000 </r>
       <r>   -6.2752    1.0000 </r>
       <r>   -6.1995    1.0000 </r>
       <r>   -6.0043    1.0000 </r>
       <r>   -5.9692    1.0000 </r>
       <r>   -5.2479    1.0000 </r>
       <r>   -5.1579    1.0000 </r>
       <r>   -4.8384    1.0000 </r>
       <r>   -4.7434    1.0000 </r>
       <r>   -4.6899    1.0000 </r>
       <r>   -4.4924    1.0000 </r>
       <r>   -4.3785    1.0000 </r>
       <r>   -4.3302    1.0000 </r>
       <r>   -4.2472    1.0000 </r>
       <r>   -3.8628    1.0000 </r>
       <r>   -3.4988    1.0000 </r>
       <r>   -3.4263    1.0000 </r>
       <r>   -3.2041    1.0000 </r>
       <r>   -3.1357    1.0000 </r>
       <r>   -3.1009    1.0000 </r>
       <r>   -2.9622    1.0000 </r>
       <r>   -2.8214    1.0000 </r>
       <r>   -2.6734    1.0000 </r>
       <r>   -2.4936    1.0000 </r>
       <r>   -2.3223    1.0000 </r>
       <r>   -2.1290    1.0000 </r>
       <r>   -2.0890    1.0000 </r>
       <r>   -1.9193    1.0000 </r>
       <r>   -1.8958    1.0000 </r>
       <r>   -1.7469    1.0000 </r>
       <r>   -1.4244    1.0000 </r>
       <r>   -1.3426    1.0000 </r>
       <r>   -1.2590    1.0000 </r>
       <r>   -0.6686    1.0000 </r>
       <r>   -0.1451    0.8510 </r>
       <r>    0.0348    0.0663 </r>
       <r>    0.7238    0.0000 </r>
       <r>    1.0292    0.0000 </r>
       <r>    1.5309    0.0000 </r>
       <r>    1.6034    0.0000 </r>
       <r>    1.7640    0.0000 </r>
       <r>    1.9183    0.0000 </r>
       <r>    2.0046    0.0000 </r>
       <r>    2.1939    0.0000 </r>
       <r>    2.3197    0.0000 </r>
       <r>    2.4066    0.0000 </r>
       <r>    2.6011    0.0000 </r>
       <r>    2.6713    0.0000 </r>
       <r>    2.8073    0.0000 </r>
      </set>
      <set comment="kpoint 6">
       <r>  -12.9548    1.0000 </r>
       <r>  -12.1107    1.0000 </r>
       <r>  -11.6061    1.0000 </r>
       <r>  -11.5855    1.0000 </r>
       <r>  -11.2948    1.0000 </r>
       <r>  -11.2334    1.0000 </r>
       <r>  -11.0048    1.0000 </r>
       <r>  -10.8834    1.0000 </r>
       <r>  -10.6608    1.0000 </r>
       <r>  -10.6391    1.0000 </r>
       <r>  -10.4898    1.0000 </r>
       <r>  -10.0691    1.0000 </r>
       <r>   -8.8662    1.0000 </r>
       <r>   -8.7712    1.0000 </r>
       <r>   -8.4128    1.0000 </r>
       <r>   -7.9211    1.0000 </r>
       <r>   -7.5316    1.0000 </r>
       <r>   -7.4942    1.0000 </r>
       <r>   -7.4457    1.0000 </r>
       <r>   -7.3202    1.0000 </r>
       <r>   -6.8739    1.0000 </r>
       <r>   -6.7955    1.0000 </r>
       <r>   -6.6951    1.0000 </r>
       <r>   -6.3635    1.0000 </r>
       <r>   -5.2496    1.0000 </r>
       <r>   -5.0790    1.0000 </r>
       <r>   -4.7773    1.0000 </r>
       <r>   -4.6336    1.0000 </r>
       <r>   -4.5619    1.0000 </r>
       <r>   -4.4297    1.0000 </r>
       <r>   -4.2701    1.0000 </r>
       <r>   -4.1617    1.0000 </r>
       <r>   -4.1076    1.0000 </r>
       <r>   -4.0613    1.0000 </r>
       <r>   -3.6937    1.0000 </r>
       <r>   -3.5606    1.0000 </r>
       <r>   -3.3966    1.0000 </r>
       <r>   -3.3035    1.0000 </r>
       <r>   -3.2006    1.0000 </r>
       <r>   -3.0583    1.0000 </r>
       <r>   -2.8619    1.0000 </r>
       <r>   -2.7893    1.0000 </r>
       <r>   -2.5659    1.0000 </r>
       <r>   -2.4324    1.0000 </r>
       <r>   -2.3027    1.0000 </r>
       <r>   -2.2974    1.0000 </r>
       <r>   -2.0956    1.0000 </r>
       <r>   -2.0482    1.0000 </r>
       <r>   -1.8706    1.0000 </r>
       <r>   -1.6049    1.0000 </r>
       <r>   -1.4705    1.0000 </r>
       <r>   -1.4020    1.0000 </r>
       <r>   -0.6836    1.0000 </r>
       <r>   -0.2903    0.9990 </r>
       <r>   -0.1255    0.7775 </r>
       <r>    0.6075    0.0000 </r>
       <r>    0.7070    0.0000 </r>
       <r>    1.2700    0.0000 </r>
       <r>    1.3841    0.0000 </r>
       <r>    1.6525    0.0000 </r>
       <r>    1.6859    0.0000 </r>
       <r>    1.7520    0.0000 </r>
       <r>    2.0281    0.0000 </r>
       <r>    2.0446    0.0000 </r>
       <r>    2.2329    0.0000 </r>
       <r>    2.3137    0.0000 </r>
       <r>    2.6122    0.0000 </r>
       <r>    2.7173    0.0000 </r>
      </set>
      <set comment="kpoint 7">
       <r>  -12.5749    1.0000 </r>
       <r>  -11.5377    1.0000 </r>
       <r>  -11.4732    1.0000 </r>
       <r>  -11.1837    1.0000 </r>
       <r>  -11.0351    1.0000 </r>
       <r>  -10.9814    1.0000 </r>
       <r>  -10.8790    1.0000 </r>
       <r>  -10.7831    1.0000 </r>
       <r>  -10.7628    1.0000 </r>
       <r>  -10.6673    1.0000 </r>
       <r>  -10.6417    1.0000 </r>
       <r>  -10.0996    1.0000 </r>
       <r>   -8.7738    1.0000 </r>
       <r>   -8.7223    1.0000 </r>
       <r>   -8.4753    1.0000 </r>
       <r>   -8.1153    1.0000 </r>
       <r>   -8.0032    1.0000 </r>
       <r>   -7.7155    1.0000 </r>
       <r>   -7.6190    1.0000 </r>
       <r>   -7.5981    1.0000 </r>
       <r>   -7.4077    1.0000 </r>
       <r>   -7.3196    1.0000 </r>
       <r>   -7.2151    1.0000 </r>
       <r>   -6.6382    1.0000 </r>
       <r>   -4.9582    1.0000 </r>
       <r>   -4.8910    1.0000 </r>
       <r>   -4.6131    1.0000 </r>
       <r>   -4.5347    1.0000 </r>
       <r>   -4.3636    1.0000 </r>
       <r>   -4.2599    1.0000 </r>
       <r>   -4.1346    1.0000 </r>
       <r>   -4.0696    1.0000 </r>
       <r>   -3.9906    1.0000 </r>
       <r>   -3.9336    1.0000 </r>
       <r>   -3.8630    1.0000 </r>
       <r>   -3.7226    1.0000 </r>
       <r>   -3.6057    1.0000 </r>
       <r>   -3.4826    1.0000 </r>
       <r>   -3.2953    1.0000 </r>
       <r>   -3.2657    1.0000 </r>
       <r>   -3.0749    1.0000 </r>
       <r>   -3.0275    1.0000 </r>
       <r>   -2.7241    1.0000 </r>
       <r>   -2.4883    1.0000 </r>
       <r>   -2.3882    1.0000 </r>
       <r>   -2.2441    1.0000 </r>
       <r>   -2.2100    1.0000 </r>
       <r>   -2.1229    1.0000 </r>
       <r>   -1.7577    1.0000 </r>
       <r>   -1.6687    1.0000 </r>
       <r>   -1.5568    1.0000 </r>
       <r>   -1.4835    1.0000 </r>
       <r>   -0.7895    1.0000 </r>
       <r>   -0.4229    1.0000 </r>
       <r>   -0.1394    0.8314 </r>
       <r>    0.5119    0.0000 </r>
       <r>    0.6108    0.0000 </r>
       <r>    1.0236    0.0000 </r>
       <r>    1.3376    0.0000 </r>
       <r>    1.5456    0.0000 </r>
       <r>    1.6090    0.0000 </r>
       <r>    1.6994    0.0000 </r>
       <r>    1.8078    0.0000 </r>
       <r>    1.9145    0.0000 </r>
       <r>    2.0586    0.0000 </r>
       <r>    2.3763    0.0000 </r>
       <r>    2.4687    0.0000 </r>
       <r>    2.6535    0.0000 </r>
      </set>
      <set comment="kpoint 8">
       <r>  -14.2710    1.0000 </r>
       <r>  -13.5208    1.0000 </r>
       <r>  -13.0109    1.0000 </r>
       <r>  -12.8023    1.0000 </r>
       <r>  -12.5321    1.0000 </r>
       <r>  -12.4029    1.0000 </r>
       <r>  -11.9164    1.0000 </r>
       <r>  -11.8416    1.0000 </r>
       <r>  -11.5123    1.0000 </r>
       <r>  -11.3824    1.0000 </r>
       <r>  -11.0355    1.0000 </r>
       <r>  -10.4413    1.0000 </r>
       <r>   -8.8262    1.0000 </r>
       <r>   -8.5516    1.0000 </r>
       <r>   -7.4369    1.0000 </r>
       <r>   -7.2007    1.0000 </r>
       <r>   -6.7218    1.0000 </r>
       <r>   -6.6963    1.0000 </r>
       <r>   -6.6101    1.0000 </r>
       <r>   -6.4752    1.0000 </r>
       <r>   -5.8054    1.0000 </r>
       <r>   -5.7375    1.0000 </r>
       <r>   -4.7488    1.0000 </r>
       <r>   -4.6166    1.0000 </r>
       <r>   -4.2993    1.0000 </r>
       <r>   -4.0540    1.0000 </r>
       <r>   -3.8207    1.0000 </r>
       <r>   -3.6853    1.0000 </r>
       <r>   -3.4447    1.0000 </r>
       <r>   -3.3362    1.0000 </r>
       <r>   -3.1631    1.0000 </r>
       <r>   -3.0397    1.0000 </r>
       <r>   -2.8057    1.0000 </r>
       <r>   -2.7452    1.0000 </r>
       <r>   -2.4515    1.0000 </r>
       <r>   -2.4336    1.0000 </r>
       <r>   -2.4011    1.0000 </r>
       <r>   -2.3377    1.0000 </r>
       <r>   -2.2141    1.0000 </r>
       <r>   -2.1613    1.0000 </r>
       <r>   -2.0123    1.0000 </r>
       <r>   -1.9192    1.0000 </r>
       <r>   -1.8211    1.0000 </r>
       <r>   -1.6614    1.0000 </r>
       <r>   -1.6175    1.0000 </r>
       <r>   -1.5078    1.0000 </r>
       <r>   -1.3984    1.0000 </r>
       <r>   -1.3650    1.0000 </r>
       <r>   -1.1986    1.0000 </r>
       <r>   -1.1191    1.0000 </r>
       <r>   -1.0023    1.0000 </r>
       <r>   -0.8148    1.0000 </r>
       <r>   -0.2093    0.9743 </r>
       <r>    0.2230    0.0000 </r>
       <r>    0.3850    0.0000 </r>
       <r>    0.8201    0.0000 </r>
       <r>    1.1646    0.0000 </r>
       <r>    1.3220    0.0000 </r>
       <r>    1.4006    0.0000 </r>
       <r>    1.6719    0.0000 </r>
       <r>    1.7639    0.0000 </r>
       <r>    1.7918    0.0000 </r>
       <r>    1.9490    0.0000 </r>
       <r>    2.2180    0.0000 </r>
       <r>    2.4711    0.0000 </r>
       <r>    2.5410    0.0000 </r>
       <r>    2.6122    0.0000 </r>
       <r>    2.7274    0.0000 </r>
      </set>
      <set comment="kpoint 9">
       <r>  -14.2114    1.0000 </r>
       <r>  -13.4440    1.0000 </r>
       <r>  -12.9918    1.0000 </r>
       <r>  -12.7601    1.0000 </r>
       <r>  -12.4750    1.0000 </r>
       <r>  -12.3487    1.0000 </r>
       <r>  -11.8231    1.0000 </r>
       <r>  -11.7701    1.0000 </r>
       <r>  -11.4710    1.0000 </r>
       <r>  -11.3254    1.0000 </r>
       <r>  -10.9911    1.0000 </r>
       <r>  -10.3889    1.0000 </r>
       <r>   -8.8907    1.0000 </r>
       <r>   -8.6103    1.0000 </r>
       <r>   -7.3863    1.0000 </r>
       <r>   -7.0999    1.0000 </r>
       <r>   -6.7158    1.0000 </r>
       <r>   -6.6238    1.0000 </r>
       <r>   -6.5518    1.0000 </r>
       <r>   -6.4957    1.0000 </r>
       <r>   -5.7984    1.0000 </r>
       <r>   -5.7186    1.0000 </r>
       <r>   -4.7670    1.0000 </r>
       <r>   -4.6641    1.0000 </r>
       <r>   -4.3827    1.0000 </r>
       <r>   -4.1572    1.0000 </r>
       <r>   -4.0976    1.0000 </r>
       <r>   -3.7384    1.0000 </r>
       <r>   -3.6329    1.0000 </r>
       <r>   -3.4438    1.0000 </r>
       <r>   -3.4126    1.0000 </r>
       <r>   -3.1138    1.0000 </r>
       <r>   -3.0488    1.0000 </r>
       <r>   -2.9514    1.0000 </r>
       <r>   -2.7826    1.0000 </r>
       <r>   -2.7185    1.0000 </r>
       <r>   -2.5364    1.0000 </r>
       <r>   -2.4670    1.0000 </r>
       <r>   -2.3889    1.0000 </r>
       <r>   -2.3187    1.0000 </r>
       <r>   -2.1828    1.0000 </r>
       <r>   -2.0620    1.0000 </r>
       <r>   -2.0323    1.0000 </r>
       <r>   -1.8795    1.0000 </r>
       <r>   -1.8078    1.0000 </r>
       <r>   -1.7611    1.0000 </r>
       <r>   -1.5057    1.0000 </r>
       <r>   -1.3725    1.0000 </r>
       <r>   -1.1456    1.0000 </r>
       <r>   -1.0580    1.0000 </r>
       <r>   -0.9350    1.0000 </r>
       <r>   -0.8103    1.0000 </r>
       <r>   -0.2165    0.9798 </r>
       <r>   -0.0063    0.1780 </r>
       <r>    0.6425    0.0000 </r>
       <r>    0.9748    0.0000 </r>
       <r>    1.4197    0.0000 </r>
       <r>    1.5498    0.0000 </r>
       <r>    1.7407    0.0000 </r>
       <r>    1.9067    0.0000 </r>
       <r>    2.0045    0.0000 </r>
       <r>    2.1709    0.0000 </r>
       <r>    2.2873    0.0000 </r>
       <r>    2.4727    0.0000 </r>
       <r>    2.5295    0.0000 </r>
       <r>    2.6243    0.0000 </r>
       <r>    2.8508    0.0000 </r>
       <r>    2.9469    0.0000 </r>
      </set>
      <set comment="kpoint 10">
       <r>  -14.0379    1.0000 </r>
       <r>  -13.2474    1.0000 </r>
       <r>  -12.8552    1.0000 </r>
       <r>  -12.6069    1.0000 </r>
       <r>  -12.3084    1.0000 </r>
       <r>  -12.1860    1.0000 </r>
       <r>  -11.6444    1.0000 </r>
       <r>  -11.5934    1.0000 </r>
       <r>  -11.3314    1.0000 </r>
       <r>  -11.1783    1.0000 </r>
       <r>  -10.8497    1.0000 </r>
       <r>  -10.2749    1.0000 </r>
       <r>   -8.8923    1.0000 </r>
       <r>   -8.6760    1.0000 </r>
       <r>   -7.3504    1.0000 </r>
       <r>   -7.0360    1.0000 </r>
       <r>   -6.6931    1.0000 </r>
       <r>   -6.6598    1.0000 </r>
       <r>   -6.5378    1.0000 </r>
       <r>   -6.4400    1.0000 </r>
       <r>   -5.8782    1.0000 </r>
       <r>   -5.6826    1.0000 </r>
       <r>   -4.9641    1.0000 </r>
       <r>   -4.8701    1.0000 </r>
       <r>   -4.7510    1.0000 </r>
       <r>   -4.4201    1.0000 </r>
       <r>   -4.3812    1.0000 </r>
       <r>   -4.2937    1.0000 </r>
       <r>   -4.0139    1.0000 </r>
       <r>   -3.8994    1.0000 </r>
       <r>   -3.6889    1.0000 </r>
       <r>   -3.5538    1.0000 </r>
       <r>   -3.4455    1.0000 </r>
       <r>   -3.2953    1.0000 </r>
       <r>   -3.1706    1.0000 </r>
       <r>   -3.0461    1.0000 </r>
       <r>   -2.9947    1.0000 </r>
       <r>   -2.8436    1.0000 </r>
       <r>   -2.7101    1.0000 </r>
       <r>   -2.6447    1.0000 </r>
       <r>   -2.5617    1.0000 </r>
       <r>   -2.3921    1.0000 </r>
       <r>   -2.3437    1.0000 </r>
       <r>   -2.0909    1.0000 </r>
       <r>   -1.9668    1.0000 </r>
       <r>   -1.9002    1.0000 </r>
       <r>   -1.5618    1.0000 </r>
       <r>   -1.4958    1.0000 </r>
       <r>   -1.2296    1.0000 </r>
       <r>   -1.1708    1.0000 </r>
       <r>   -0.9665    1.0000 </r>
       <r>   -0.8087    1.0000 </r>
       <r>   -0.5550    1.0000 </r>
       <r>   -0.1025    0.6691 </r>
       <r>    0.6573    0.0000 </r>
       <r>    1.1646    0.0000 </r>
       <r>    1.5789    0.0000 </r>
       <r>    1.6172    0.0000 </r>
       <r>    2.0582    0.0000 </r>
       <r>    2.1222    0.0000 </r>
       <r>    2.2834    0.0000 </r>
       <r>    2.3331    0.0000 </r>
       <r>    2.6969    0.0000 </r>
       <r>    2.7832    0.0000 </r>
       <r>    2.8664    0.0000 </r>
       <r>    3.0134    0.0000 </r>
       <r>    3.0536    0.0000 </r>
       <r>    3.2384    0.0000 </r>
      </set>
      <set comment="kpoint 11">
       <r>  -13.7567    1.0000 </r>
       <r>  -12.9360    1.0000 </r>
       <r>  -12.6038    1.0000 </r>
       <r>  -12.3493    1.0000 </r>
       <r>  -12.0402    1.0000 </r>
       <r>  -11.9233    1.0000 </r>
       <r>  -11.4048    1.0000 </r>
       <r>  -11.3258    1.0000 </r>
       <r>  -11.1095    1.0000 </r>
       <r>  -10.9637    1.0000 </r>
       <r>  -10.6322    1.0000 </r>
       <r>  -10.1416    1.0000 </r>
       <r>   -8.8529    1.0000 </r>
       <r>   -8.8067    1.0000 </r>
       <r>   -7.4337    1.0000 </r>
       <r>   -7.2471    1.0000 </r>
       <r>   -6.8214    1.0000 </r>
       <r>   -6.7314    1.0000 </r>
       <r>   -6.6780    1.0000 </r>
       <r>   -6.4968    1.0000 </r>
       <r>   -6.0752    1.0000 </r>
       <r>   -5.8538    1.0000 </r>
       <r>   -5.4328    1.0000 </r>
       <r>   -5.2446    1.0000 </r>
       <r>   -5.0649    1.0000 </r>
       <r>   -4.9959    1.0000 </r>
       <r>   -4.6991    1.0000 </r>
       <r>   -4.6040    1.0000 </r>
       <r>   -4.5028    1.0000 </r>
       <r>   -4.4151    1.0000 </r>
       <r>   -4.0770    1.0000 </r>
       <r>   -4.0366    1.0000 </r>
       <r>   -3.8615    1.0000 </r>
       <r>   -3.7469    1.0000 </r>
       <r>   -3.3345    1.0000 </r>
       <r>   -3.2575    1.0000 </r>
       <r>   -3.1986    1.0000 </r>
       <r>   -3.1280    1.0000 </r>
       <r>   -2.8628    1.0000 </r>
       <r>   -2.7231    1.0000 </r>
       <r>   -2.5713    1.0000 </r>
       <r>   -2.5326    1.0000 </r>
       <r>   -2.4829    1.0000 </r>
       <r>   -2.2045    1.0000 </r>
       <r>   -2.0309    1.0000 </r>
       <r>   -1.9947    1.0000 </r>
       <r>   -1.8823    1.0000 </r>
       <r>   -1.8034    1.0000 </r>
       <r>   -1.4424    1.0000 </r>
       <r>   -1.3952    1.0000 </r>
       <r>   -1.0935    1.0000 </r>
       <r>   -0.9523    1.0000 </r>
       <r>   -0.6625    1.0000 </r>
       <r>   -0.1533    0.8764 </r>
       <r>    0.3832    0.0000 </r>
       <r>    0.7151    0.0000 </r>
       <r>    1.1410    0.0000 </r>
       <r>    1.4126    0.0000 </r>
       <r>    1.5640    0.0000 </r>
       <r>    1.9665    0.0000 </r>
       <r>    2.1681    0.0000 </r>
       <r>    2.2922    0.0000 </r>
       <r>    2.5302    0.0000 </r>
       <r>    2.6723    0.0000 </r>
       <r>    2.9828    0.0000 </r>
       <r>    3.0287    0.0000 </r>
       <r>    3.1140    0.0000 </r>
       <r>    3.1821    0.0000 </r>
      </set>
      <set comment="kpoint 12">
       <r>  -13.3821    1.0000 </r>
       <r>  -12.5193    1.0000 </r>
       <r>  -12.2446    1.0000 </r>
       <r>  -12.0045    1.0000 </r>
       <r>  -11.6879    1.0000 </r>
       <r>  -11.5823    1.0000 </r>
       <r>  -11.1504    1.0000 </r>
       <r>  -11.0165    1.0000 </r>
       <r>  -10.8456    1.0000 </r>
       <r>  -10.7360    1.0000 </r>
       <r>  -10.4265    1.0000 </r>
       <r>  -10.0705    1.0000 </r>
       <r>   -9.0064    1.0000 </r>
       <r>   -8.7867    1.0000 </r>
       <r>   -7.7478    1.0000 </r>
       <r>   -7.7164    1.0000 </r>
       <r>   -7.1562    1.0000 </r>
       <r>   -7.1277    1.0000 </r>
       <r>   -6.9944    1.0000 </r>
       <r>   -6.7531    1.0000 </r>
       <r>   -6.3992    1.0000 </r>
       <r>   -6.2264    1.0000 </r>
       <r>   -6.0272    1.0000 </r>
       <r>   -5.9520    1.0000 </r>
       <r>   -5.4166    1.0000 </r>
       <r>   -5.0848    1.0000 </r>
       <r>   -4.9700    1.0000 </r>
       <r>   -4.6804    1.0000 </r>
       <r>   -4.5366    1.0000 </r>
       <r>   -4.5008    1.0000 </r>
       <r>   -4.3957    1.0000 </r>
       <r>   -4.3349    1.0000 </r>
       <r>   -4.0467    1.0000 </r>
       <r>   -3.9949    1.0000 </r>
       <r>   -3.3782    1.0000 </r>
       <r>   -3.2401    1.0000 </r>
       <r>   -3.1380    1.0000 </r>
       <r>   -3.0288    1.0000 </r>
       <r>   -2.9294    1.0000 </r>
       <r>   -2.8991    1.0000 </r>
       <r>   -2.8012    1.0000 </r>
       <r>   -2.6301    1.0000 </r>
       <r>   -2.5035    1.0000 </r>
       <r>   -2.4269    1.0000 </r>
       <r>   -2.2823    1.0000 </r>
       <r>   -2.2247    1.0000 </r>
       <r>   -1.9883    1.0000 </r>
       <r>   -1.9129    1.0000 </r>
       <r>   -1.7807    1.0000 </r>
       <r>   -1.5106    1.0000 </r>
       <r>   -1.3433    1.0000 </r>
       <r>   -1.2480    1.0000 </r>
       <r>   -0.6883    1.0000 </r>
       <r>   -0.2134    0.9776 </r>
       <r>    0.1554    0.0007 </r>
       <r>    0.2872    0.0000 </r>
       <r>    0.7615    0.0000 </r>
       <r>    1.1913    0.0000 </r>
       <r>    1.2518    0.0000 </r>
       <r>    1.5587    0.0000 </r>
       <r>    1.8524    0.0000 </r>
       <r>    2.1264    0.0000 </r>
       <r>    2.2679    0.0000 </r>
       <r>    2.4222    0.0000 </r>
       <r>    2.5920    0.0000 </r>
       <r>    2.6368    0.0000 </r>
       <r>    2.8950    0.0000 </r>
       <r>    2.9909    0.0000 </r>
      </set>
      <set comment="kpoint 13">
       <r>  -12.9496    1.0000 </r>
       <r>  -12.0159    1.0000 </r>
       <r>  -11.7945    1.0000 </r>
       <r>  -11.6245    1.0000 </r>
       <r>  -11.2944    1.0000 </r>
       <r>  -11.2368    1.0000 </r>
       <r>  -10.9868    1.0000 </r>
       <r>  -10.7613    1.0000 </r>
       <r>  -10.6342    1.0000 </r>
       <r>  -10.5970    1.0000 </r>
       <r>  -10.5027    1.0000 </r>
       <r>  -10.0750    1.0000 </r>
       <r>   -8.9963    1.0000 </r>
       <r>   -8.7215    1.0000 </r>
       <r>   -8.1479    1.0000 </r>
       <r>   -8.0095    1.0000 </r>
       <r>   -7.8150    1.0000 </r>
       <r>   -7.6119    1.0000 </r>
       <r>   -7.3910    1.0000 </r>
       <r>   -7.1453    1.0000 </r>
       <r>   -6.9300    1.0000 </r>
       <r>   -6.7298    1.0000 </r>
       <r>   -6.6945    1.0000 </r>
       <r>   -6.4641    1.0000 </r>
       <r>   -5.3803    1.0000 </r>
       <r>   -5.0810    1.0000 </r>
       <r>   -4.8214    1.0000 </r>
       <r>   -4.7093    1.0000 </r>
       <r>   -4.4938    1.0000 </r>
       <r>   -4.4065    1.0000 </r>
       <r>   -4.2635    1.0000 </r>
       <r>   -4.1491    1.0000 </r>
       <r>   -3.9255    1.0000 </r>
       <r>   -3.8943    1.0000 </r>
       <r>   -3.4954    1.0000 </r>
       <r>   -3.3896    1.0000 </r>
       <r>   -3.3146    1.0000 </r>
       <r>   -3.2984    1.0000 </r>
       <r>   -3.1649    1.0000 </r>
       <r>   -2.9934    1.0000 </r>
       <r>   -2.9703    1.0000 </r>
       <r>   -2.8249    1.0000 </r>
       <r>   -2.6649    1.0000 </r>
       <r>   -2.4941    1.0000 </r>
       <r>   -2.3583    1.0000 </r>
       <r>   -2.3015    1.0000 </r>
       <r>   -2.1130    1.0000 </r>
       <r>   -2.0907    1.0000 </r>
       <r>   -1.8841    1.0000 </r>
       <r>   -1.6556    1.0000 </r>
       <r>   -1.5107    1.0000 </r>
       <r>   -1.4244    1.0000 </r>
       <r>   -0.7297    1.0000 </r>
       <r>   -0.3371    0.9999 </r>
       <r>   -0.1001    0.6567 </r>
       <r>    0.2703    0.0000 </r>
       <r>    0.5815    0.0000 </r>
       <r>    1.0952    0.0000 </r>
       <r>    1.1876    0.0000 </r>
       <r>    1.3587    0.0000 </r>
       <r>    1.6600    0.0000 </r>
       <r>    1.7901    0.0000 </r>
       <r>    1.9920    0.0000 </r>
       <r>    2.1456    0.0000 </r>
       <r>    2.2853    0.0000 </r>
       <r>    2.5684    0.0000 </r>
       <r>    2.6128    0.0000 </r>
       <r>    2.7770    0.0000 </r>
      </set>
      <set comment="kpoint 14">
       <r>  -12.5737    1.0000 </r>
       <r>  -11.4757    1.0000 </r>
       <r>  -11.4620    1.0000 </r>
       <r>  -11.2997    1.0000 </r>
       <r>  -11.0552    1.0000 </r>
       <r>  -10.9938    1.0000 </r>
       <r>  -10.9003    1.0000 </r>
       <r>  -10.7911    1.0000 </r>
       <r>  -10.7367    1.0000 </r>
       <r>  -10.6146    1.0000 </r>
       <r>  -10.6112    1.0000 </r>
       <r>  -10.0994    1.0000 </r>
       <r>   -8.7488    1.0000 </r>
       <r>   -8.5896    1.0000 </r>
       <r>   -8.4351    1.0000 </r>
       <r>   -8.3640    1.0000 </r>
       <r>   -8.0267    1.0000 </r>
       <r>   -7.7974    1.0000 </r>
       <r>   -7.5544    1.0000 </r>
       <r>   -7.5331    1.0000 </r>
       <r>   -7.3897    1.0000 </r>
       <r>   -7.3466    1.0000 </r>
       <r>   -7.1755    1.0000 </r>
       <r>   -6.6514    1.0000 </r>
       <r>   -5.0579    1.0000 </r>
       <r>   -5.0090    1.0000 </r>
       <r>   -4.6291    1.0000 </r>
       <r>   -4.5053    1.0000 </r>
       <r>   -4.2870    1.0000 </r>
       <r>   -4.2145    1.0000 </r>
       <r>   -4.1445    1.0000 </r>
       <r>   -4.0573    1.0000 </r>
       <r>   -4.0036    1.0000 </r>
       <r>   -3.9633    1.0000 </r>
       <r>   -3.7086    1.0000 </r>
       <r>   -3.6963    1.0000 </r>
       <r>   -3.5415    1.0000 </r>
       <r>   -3.4985    1.0000 </r>
       <r>   -3.2997    1.0000 </r>
       <r>   -3.1348    1.0000 </r>
       <r>   -3.0226    1.0000 </r>
       <r>   -3.0053    1.0000 </r>
       <r>   -2.6810    1.0000 </r>
       <r>   -2.6368    1.0000 </r>
       <r>   -2.4757    1.0000 </r>
       <r>   -2.2942    1.0000 </r>
       <r>   -2.1730    1.0000 </r>
       <r>   -2.1394    1.0000 </r>
       <r>   -1.7421    1.0000 </r>
       <r>   -1.6776    1.0000 </r>
       <r>   -1.5972    1.0000 </r>
       <r>   -1.4964    1.0000 </r>
       <r>   -0.7629    1.0000 </r>
       <r>   -0.4726    1.0000 </r>
       <r>   -0.1175    0.7424 </r>
       <r>    0.3207    0.0000 </r>
       <r>    0.6057    0.0000 </r>
       <r>    0.9566    0.0000 </r>
       <r>    1.3843    0.0000 </r>
       <r>    1.4795    0.0000 </r>
       <r>    1.5456    0.0000 </r>
       <r>    1.6687    0.0000 </r>
       <r>    1.8055    0.0000 </r>
       <r>    2.0662    0.0000 </r>
       <r>    2.1622    0.0000 </r>
       <r>    2.3966    0.0000 </r>
       <r>    2.4318    0.0000 </r>
       <r>    2.4898    0.0000 </r>
      </set>
      <set comment="kpoint 15">
       <r>  -12.5775    1.0000 </r>
       <r>  -11.5711    1.0000 </r>
       <r>  -11.4671    1.0000 </r>
       <r>  -11.1077    1.0000 </r>
       <r>  -11.0099    1.0000 </r>
       <r>  -10.9690    1.0000 </r>
       <r>  -10.8421    1.0000 </r>
       <r>  -10.7971    1.0000 </r>
       <r>  -10.7824    1.0000 </r>
       <r>  -10.7315    1.0000 </r>
       <r>  -10.6708    1.0000 </r>
       <r>  -10.1001    1.0000 </r>
       <r>   -8.7983    1.0000 </r>
       <r>   -8.7791    1.0000 </r>
       <r>   -8.4690    1.0000 </r>
       <r>   -8.0887    1.0000 </r>
       <r>   -7.9787    1.0000 </r>
       <r>   -7.6982    1.0000 </r>
       <r>   -7.6383    1.0000 </r>
       <r>   -7.5782    1.0000 </r>
       <r>   -7.3190    1.0000 </r>
       <r>   -7.3140    1.0000 </r>
       <r>   -7.2538    1.0000 </r>
       <r>   -6.5860    1.0000 </r>
       <r>   -4.9919    1.0000 </r>
       <r>   -4.7813    1.0000 </r>
       <r>   -4.6931    1.0000 </r>
       <r>   -4.6117    1.0000 </r>
       <r>   -4.4924    1.0000 </r>
       <r>   -4.3875    1.0000 </r>
       <r>   -4.0853    1.0000 </r>
       <r>   -4.0397    1.0000 </r>
       <r>   -4.0157    1.0000 </r>
       <r>   -3.9207    1.0000 </r>
       <r>   -3.7976    1.0000 </r>
       <r>   -3.6920    1.0000 </r>
       <r>   -3.6562    1.0000 </r>
       <r>   -3.4767    1.0000 </r>
       <r>   -3.3871    1.0000 </r>
       <r>   -3.2976    1.0000 </r>
       <r>   -3.0378    1.0000 </r>
       <r>   -2.8384    1.0000 </r>
       <r>   -2.7160    1.0000 </r>
       <r>   -2.5154    1.0000 </r>
       <r>   -2.4143    1.0000 </r>
       <r>   -2.2666    1.0000 </r>
       <r>   -2.2012    1.0000 </r>
       <r>   -2.1344    1.0000 </r>
       <r>   -1.7528    1.0000 </r>
       <r>   -1.6162    1.0000 </r>
       <r>   -1.5190    1.0000 </r>
       <r>   -1.4400    1.0000 </r>
       <r>   -0.7849    1.0000 </r>
       <r>   -0.3929    1.0000 </r>
       <r>   -0.1246    0.7735 </r>
       <r>    0.4251    0.0000 </r>
       <r>    0.6229    0.0000 </r>
       <r>    1.1062    0.0000 </r>
       <r>    1.3448    0.0000 </r>
       <r>    1.6161    0.0000 </r>
       <r>    1.6715    0.0000 </r>
       <r>    1.7451    0.0000 </r>
       <r>    1.8810    0.0000 </r>
       <r>    2.0497    0.0000 </r>
       <r>    2.2054    0.0000 </r>
       <r>    2.3272    0.0000 </r>
       <r>    2.3913    0.0000 </r>
       <r>    2.5531    0.0000 </r>
      </set>
      <set comment="kpoint 16">
       <r>  -12.9585    1.0000 </r>
       <r>  -12.1373    1.0000 </r>
       <r>  -11.5412    1.0000 </r>
       <r>  -11.5211    1.0000 </r>
       <r>  -11.2900    1.0000 </r>
       <r>  -11.2303    1.0000 </r>
       <r>  -11.0629    1.0000 </r>
       <r>  -10.9613    1.0000 </r>
       <r>  -10.6644    1.0000 </r>
       <r>  -10.6590    1.0000 </r>
       <r>  -10.4852    1.0000 </r>
       <r>  -10.0472    1.0000 </r>
       <r>   -8.7784    1.0000 </r>
       <r>   -8.7396    1.0000 </r>
       <r>   -8.5260    1.0000 </r>
       <r>   -7.9238    1.0000 </r>
       <r>   -7.7472    1.0000 </r>
       <r>   -7.4750    1.0000 </r>
       <r>   -7.3645    1.0000 </r>
       <r>   -7.1531    1.0000 </r>
       <r>   -6.8454    1.0000 </r>
       <r>   -6.7430    1.0000 </r>
       <r>   -6.6998    1.0000 </r>
       <r>   -6.3219    1.0000 </r>
       <r>   -5.3037    1.0000 </r>
       <r>   -5.0928    1.0000 </r>
       <r>   -4.8954    1.0000 </r>
       <r>   -4.7571    1.0000 </r>
       <r>   -4.4362    1.0000 </r>
       <r>   -4.3106    1.0000 </r>
       <r>   -4.2884    1.0000 </r>
       <r>   -4.2241    1.0000 </r>
       <r>   -4.1211    1.0000 </r>
       <r>   -4.0004    1.0000 </r>
       <r>   -3.7601    1.0000 </r>
       <r>   -3.6491    1.0000 </r>
       <r>   -3.4399    1.0000 </r>
       <r>   -3.3604    1.0000 </r>
       <r>   -3.2160    1.0000 </r>
       <r>   -3.1489    1.0000 </r>
       <r>   -2.8578    1.0000 </r>
       <r>   -2.7389    1.0000 </r>
       <r>   -2.5753    1.0000 </r>
       <r>   -2.4309    1.0000 </r>
       <r>   -2.2959    1.0000 </r>
       <r>   -2.2692    1.0000 </r>
       <r>   -2.0840    1.0000 </r>
       <r>   -1.9748    1.0000 </r>
       <r>   -1.8506    1.0000 </r>
       <r>   -1.5802    1.0000 </r>
       <r>   -1.4194    1.0000 </r>
       <r>   -1.2639    1.0000 </r>
       <r>   -0.6507    1.0000 </r>
       <r>   -0.3229    0.9998 </r>
       <r>   -0.1199    0.7529 </r>
       <r>    0.5560    0.0000 </r>
       <r>    0.7973    0.0000 </r>
       <r>    1.3264    0.0000 </r>
       <r>    1.4083    0.0000 </r>
       <r>    1.7133    0.0000 </r>
       <r>    1.8474    0.0000 </r>
       <r>    1.9091    0.0000 </r>
       <r>    1.9789    0.0000 </r>
       <r>    2.1034    0.0000 </r>
       <r>    2.2376    0.0000 </r>
       <r>    2.3866    0.0000 </r>
       <r>    2.4110    0.0000 </r>
       <r>    2.5711    0.0000 </r>
      </set>
      <set comment="kpoint 17">
       <r>  -13.3922    1.0000 </r>
       <r>  -12.6314    1.0000 </r>
       <r>  -11.9833    1.0000 </r>
       <r>  -11.9112    1.0000 </r>
       <r>  -11.6909    1.0000 </r>
       <r>  -11.5683    1.0000 </r>
       <r>  -11.2922    1.0000 </r>
       <r>  -11.2430    1.0000 </r>
       <r>  -10.8084    1.0000 </r>
       <r>  -10.7940    1.0000 </r>
       <r>  -10.4564    1.0000 </r>
       <r>  -10.0827    1.0000 </r>
       <r>   -8.5912    1.0000 </r>
       <r>   -8.4788    1.0000 </r>
       <r>   -8.2225    1.0000 </r>
       <r>   -7.8990    1.0000 </r>
       <r>   -7.3738    1.0000 </r>
       <r>   -7.0357    1.0000 </r>
       <r>   -6.9070    1.0000 </r>
       <r>   -6.6435    1.0000 </r>
       <r>   -6.2077    1.0000 </r>
       <r>   -6.1907    1.0000 </r>
       <r>   -6.0091    1.0000 </r>
       <r>   -5.9232    1.0000 </r>
       <r>   -5.3528    1.0000 </r>
       <r>   -5.1840    1.0000 </r>
       <r>   -4.9277    1.0000 </r>
       <r>   -4.7313    1.0000 </r>
       <r>   -4.6676    1.0000 </r>
       <r>   -4.4302    1.0000 </r>
       <r>   -4.3472    1.0000 </r>
       <r>   -4.3126    1.0000 </r>
       <r>   -4.2679    1.0000 </r>
       <r>   -3.7735    1.0000 </r>
       <r>   -3.6305    1.0000 </r>
       <r>   -3.4927    1.0000 </r>
       <r>   -3.2465    1.0000 </r>
       <r>   -3.1485    1.0000 </r>
       <r>   -3.0958    1.0000 </r>
       <r>   -2.9803    1.0000 </r>
       <r>   -2.8374    1.0000 </r>
       <r>   -2.6914    1.0000 </r>
       <r>   -2.4857    1.0000 </r>
       <r>   -2.2757    1.0000 </r>
       <r>   -2.1553    1.0000 </r>
       <r>   -2.0555    1.0000 </r>
       <r>   -1.9048    1.0000 </r>
       <r>   -1.8962    1.0000 </r>
       <r>   -1.7370    1.0000 </r>
       <r>   -1.4050    1.0000 </r>
       <r>   -1.3426    1.0000 </r>
       <r>   -1.1296    1.0000 </r>
       <r>   -0.6353    1.0000 </r>
       <r>   -0.1868    0.9485 </r>
       <r>   -0.0368    0.3119 </r>
       <r>    0.8133    0.0000 </r>
       <r>    1.1344    0.0000 </r>
       <r>    1.5704    0.0000 </r>
       <r>    1.6283    0.0000 </r>
       <r>    1.8492    0.0000 </r>
       <r>    1.9377    0.0000 </r>
       <r>    1.9921    0.0000 </r>
       <r>    2.1714    0.0000 </r>
       <r>    2.2623    0.0000 </r>
       <r>    2.3819    0.0000 </r>
       <r>    2.5767    0.0000 </r>
       <r>    2.6758    0.0000 </r>
       <r>    2.7305    0.0000 </r>
      </set>
      <set comment="kpoint 18">
       <r>  -13.7656    1.0000 </r>
       <r>  -13.0266    1.0000 </r>
       <r>  -12.3878    1.0000 </r>
       <r>  -12.2717    1.0000 </r>
       <r>  -12.0448    1.0000 </r>
       <r>  -11.9139    1.0000 </r>
       <r>  -11.5761    1.0000 </r>
       <r>  -11.4837    1.0000 </r>
       <r>  -11.0636    1.0000 </r>
       <r>  -11.0107    1.0000 </r>
       <r>  -10.6351    1.0000 </r>
       <r>  -10.1992    1.0000 </r>
       <r>   -8.4370    1.0000 </r>
       <r>   -8.3527    1.0000 </r>
       <r>   -7.8185    1.0000 </r>
       <r>   -7.7321    1.0000 </r>
       <r>   -6.9730    1.0000 </r>
       <r>   -6.7318    1.0000 </r>
       <r>   -6.6717    1.0000 </r>
       <r>   -6.4565    1.0000 </r>
       <r>   -5.8014    1.0000 </r>
       <r>   -5.7706    1.0000 </r>
       <r>   -5.4534    1.0000 </r>
       <r>   -5.3698    1.0000 </r>
       <r>   -5.1236    1.0000 </r>
       <r>   -4.8661    1.0000 </r>
       <r>   -4.6355    1.0000 </r>
       <r>   -4.5533    1.0000 </r>
       <r>   -4.3955    1.0000 </r>
       <r>   -4.3206    1.0000 </r>
       <r>   -4.2220    1.0000 </r>
       <r>   -4.0732    1.0000 </r>
       <r>   -3.8183    1.0000 </r>
       <r>   -3.7168    1.0000 </r>
       <r>   -3.5053    1.0000 </r>
       <r>   -3.4774    1.0000 </r>
       <r>   -3.2113    1.0000 </r>
       <r>   -3.0388    1.0000 </r>
       <r>   -2.9608    1.0000 </r>
       <r>   -2.7750    1.0000 </r>
       <r>   -2.7277    1.0000 </r>
       <r>   -2.5532    1.0000 </r>
       <r>   -2.4453    1.0000 </r>
       <r>   -2.1456    1.0000 </r>
       <r>   -1.9388    1.0000 </r>
       <r>   -1.8710    1.0000 </r>
       <r>   -1.8512    1.0000 </r>
       <r>   -1.7630    1.0000 </r>
       <r>   -1.4919    1.0000 </r>
       <r>   -1.2384    1.0000 </r>
       <r>   -1.1312    1.0000 </r>
       <r>   -1.0050    1.0000 </r>
       <r>   -0.6655    1.0000 </r>
       <r>   -0.2245    0.9848 </r>
       <r>    0.3849    0.0000 </r>
       <r>    1.1748    0.0000 </r>
       <r>    1.3286    0.0000 </r>
       <r>    1.7791    0.0000 </r>
       <r>    1.9157    0.0000 </r>
       <r>    2.0592    0.0000 </r>
       <r>    2.1424    0.0000 </r>
       <r>    2.2461    0.0000 </r>
       <r>    2.3526    0.0000 </r>
       <r>    2.5081    0.0000 </r>
       <r>    2.6798    0.0000 </r>
       <r>    2.8809    0.0000 </r>
       <r>    2.9216    0.0000 </r>
       <r>    3.1788    0.0000 </r>
      </set>
      <set comment="kpoint 19">
       <r>  -14.0444    1.0000 </r>
       <r>  -13.3104    1.0000 </r>
       <r>  -12.7029    1.0000 </r>
       <r>  -12.5522    1.0000 </r>
       <r>  -12.3125    1.0000 </r>
[...]
       <r>    2.6904    0.0000 </r>
      </set>
      <set comment="kpoint 54">
       <r>  -12.5763    1.0000 </r>
       <r>  -11.5263    1.0000 </r>
       <r>  -11.4643    1.0000 </r>
       <r>  -11.2056    1.0000 </r>
       <r>  -11.0325    1.0000 </r>
       <r>  -10.9845    1.0000 </r>
       <r>  -10.8853    1.0000 </r>
       <r>  -10.7968    1.0000 </r>
       <r>  -10.7588    1.0000 </r>
       <r>  -10.6534    1.0000 </r>
       <r>  -10.6363    1.0000 </r>
       <r>  -10.0998    1.0000 </r>
       <r>   -8.7639    1.0000 </r>
       <r>   -8.6995    1.0000 </r>
       <r>   -8.4754    1.0000 </r>
       <r>   -8.1572    1.0000 </r>
       <r>   -8.1001    1.0000 </r>
       <r>   -7.7586    1.0000 </r>
       <r>   -7.5961    1.0000 </r>
       <r>   -7.5431    1.0000 </r>
       <r>   -7.3253    1.0000 </r>
       <r>   -7.2936    1.0000 </r>
       <r>   -7.2056    1.0000 </r>
       <r>   -6.5758    1.0000 </r>
       <r>   -5.1489    1.0000 </r>
       <r>   -4.9823    1.0000 </r>
       <r>   -4.7212    1.0000 </r>
       <r>   -4.5158    1.0000 </r>
       <r>   -4.3992    1.0000 </r>
       <r>   -4.2653    1.0000 </r>
       <r>   -4.1182    1.0000 </r>
       <r>   -4.0103    1.0000 </r>
       <r>   -3.9537    1.0000 </r>
       <r>   -3.9038    1.0000 </r>
       <r>   -3.8057    1.0000 </r>
       <r>   -3.6271    1.0000 </r>
       <r>   -3.5649    1.0000 </r>
       <r>   -3.5003    1.0000 </r>
       <r>   -3.2960    1.0000 </r>
       <r>   -3.1721    1.0000 </r>
       <r>   -3.0529    1.0000 </r>
       <r>   -2.9988    1.0000 </r>
       <r>   -2.7283    1.0000 </r>
       <r>   -2.5974    1.0000 </r>
       <r>   -2.4097    1.0000 </r>
       <r>   -2.3013    1.0000 </r>
       <r>   -2.2115    1.0000 </r>
       <r>   -2.1124    1.0000 </r>
       <r>   -1.7589    1.0000 </r>
       <r>   -1.6079    1.0000 </r>
       <r>   -1.5618    1.0000 </r>
       <r>   -1.3756    1.0000 </r>
       <r>   -0.7901    1.0000 </r>
       <r>   -0.4558    1.0000 </r>
       <r>   -0.0959    0.6348 </r>
       <r>    0.1733    0.0003 </r>
       <r>    0.6879    0.0000 </r>
       <r>    1.0858    0.0000 </r>
       <r>    1.3218    0.0000 </r>
       <r>    1.5675    0.0000 </r>
       <r>    1.6087    0.0000 </r>
       <r>    1.7256    0.0000 </r>
       <r>    1.8818    0.0000 </r>
       <r>    2.0053    0.0000 </r>
       <r>    2.1712    0.0000 </r>
       <r>    2.2821    0.0000 </r>
       <r>    2.3268    0.0000 </r>
       <r>    2.4679    0.0000 </r>
      </set>
     </set>
    </set>
   </array>
  </eigenvalues>
  <separator name="orbital magnetization" >
   <v name="MAGDIPOLOUT">      0.00000000      0.00000000      0.00000000</v>
  </separator>
  <dos>
   <i name="efermi">     -0.07152744 </i>
   <total>
    <array>
     <dimension dim="1">gridpoints</dimension>
     <dimension dim="2">spin</dimension>
     <field>energy</field>
     <field>total</field>
     <field>integrated</field>
     <set>
      <set comment="spin 1">
       <r>   -15.2776     0.0000     0.0000 </r>
       <r>   -15.2126     0.0000     0.0000 </r>
       <r>   -15.1475     0.0000     0.0000 </r>
       <r>   -15.0824     0.0000     0.0000 </r>
       <r>   -15.0174     0.0000     0.0000 </r>
       <r>   -14.9523     0.0000     0.0000 </r>
       <r>   -14.8873     0.0000     0.0000 </r>
       <r>   -14.8222     0.0000     0.0000 </r>
       <r>   -14.7571     0.0000     0.0000 </r>
       <r>   -14.6921     0.0000     0.0000 </r>
       <r>   -14.6270     0.0000     0.0000 </r>
       <r>   -14.5620     0.0000     0.0000 </r>
       <r>   -14.4969     0.0018     0.0001 </r>
       <r>   -14.4318     0.0304     0.0021 </r>
       <r>   -14.3668     0.2477     0.0182 </r>
       <r>   -14.3017     1.0057     0.0836 </r>
       <r>   -14.2367     2.0991     0.2202 </r>
       <r>   -14.1716     2.3547     0.3734 </r>
       <r>   -14.1065     1.8589     0.4944 </r>
       <r>   -14.0415     1.8137     0.6123 </r>
       <r>   -13.9764     1.5613     0.7139 </r>
       <r>   -13.9114     0.7720     0.7641 </r>
       <r>   -13.8463     0.6066     0.8036 </r>
       <r>   -13.7812     1.3092     0.8888 </r>
       <r>   -13.7162     1.6696     0.9974 </r>
       <r>   -13.6511     1.1044     1.0693 </r>
       <r>   -13.5861     0.8622     1.1254 </r>
       <r>   -13.5210     1.5453     1.2259 </r>
       <r>   -13.4559     2.6027     1.3952 </r>
       <r>   -13.3909     3.4731     1.6212 </r>
       <r>   -13.3258     3.4390     1.8449 </r>
       <r>   -13.2608     2.5301     2.0095 </r>
       <r>   -13.1957     1.7907     2.1260 </r>
       <r>   -13.1307     1.5187     2.2248 </r>
       <r>   -13.0656     1.9391     2.3510 </r>
       <r>   -13.0005     3.4125     2.5730 </r>
       <r>   -12.9355     4.7892     2.8846 </r>
       <r>   -12.8704     4.6284     3.1857 </r>
       <r>   -12.8054     3.9024     3.4396 </r>
       <r>   -12.7403     3.7993     3.6868 </r>
       <r>   -12.6752     4.4301     3.9750 </r>
       <r>   -12.6102     6.0502     4.3686 </r>
       <r>   -12.5451     7.2965     4.8433 </r>
       <r>   -12.4801     6.7343     5.2815 </r>
       <r>   -12.4150     5.9164     5.6664 </r>
       <r>   -12.3499     6.4230     6.0843 </r>
       <r>   -12.2849     6.6164     6.5147 </r>
       <r>   -12.2198     5.5454     6.8755 </r>
       <r>   -12.1548     4.7650     7.1855 </r>
       <r>   -12.0897     4.9533     7.5078 </r>
       <r>   -12.0246     5.8734     7.8899 </r>
       <r>   -11.9596     6.6767     8.3243 </r>
       <r>   -11.8945     6.8799     8.7719 </r>
       <r>   -11.8295     6.3567     9.1855 </r>
       <r>   -11.7644     5.8806     9.5681 </r>
       <r>   -11.6993     6.4860     9.9900 </r>
       <r>   -11.6343     8.1227    10.5185 </r>
       <r>   -11.5692    10.0007    11.1691 </r>
       <r>   -11.5042    10.8007    11.8718 </r>
       <r>   -11.4391     9.9671    12.5203 </r>
       <r>   -11.3740     9.0415    13.1085 </r>
       <r>   -11.3090     9.8357    13.7484 </r>
       <r>   -11.2439    10.7001    14.4446 </r>
       <r>   -11.1789     9.6780    15.0742 </r>
       <r>   -11.1138     8.6061    15.6341 </r>
       <r>   -11.0487    10.0077    16.2852 </r>
       <r>   -10.9837    11.7542    17.0500 </r>
       <r>   -10.9186    10.7193    17.7474 </r>
       <r>   -10.8536     9.8374    18.3874 </r>
       <r>   -10.7885    10.6545    19.0806 </r>
       <r>   -10.7234    10.6334    19.7724 </r>
       <r>   -10.6584    10.2171    20.4371 </r>
       <r>   -10.5933     9.1152    21.0301 </r>
       <r>   -10.5283     6.6491    21.4627 </r>
       <r>   -10.4632     5.6799    21.8322 </r>
       <r>   -10.3981     5.5449    22.1930 </r>
       <r>   -10.3331     4.3786    22.4779 </r>
       <r>   -10.2680     3.1479    22.6827 </r>
       <r>   -10.2030     3.0142    22.8788 </r>
       <r>   -10.1379     4.3448    23.1614 </r>
       <r>   -10.0728     5.7820    23.5376 </r>
       <r>   -10.0078     4.6870    23.8425 </r>
       <r>    -9.9427     1.9720    23.9708 </r>
       <r>    -9.8777     0.4065    23.9973 </r>
       <r>    -9.8126     0.0399    23.9999 </r>
       <r>    -9.7475     0.0018    24.0000 </r>
       <r>    -9.6825     0.0000    24.0000 </r>
       <r>    -9.6174     0.0000    24.0000 </r>
       <r>    -9.5524     0.0000    24.0000 </r>
       <r>    -9.4873     0.0000    24.0000 </r>
       <r>    -9.4222     0.0000    24.0000 </r>
       <r>    -9.3572     0.0004    24.0000 </r>
       <r>    -9.2921     0.0074    24.0005 </r>
       <r>    -9.2271     0.0664    24.0048 </r>
       <r>    -9.1620     0.3041    24.0246 </r>
       <r>    -9.0969     0.8178    24.0778 </r>
       <r>    -9.0319     1.6164    24.1830 </r>
       <r>    -8.9668     2.6713    24.3568 </r>
       <r>    -8.9018     3.8994    24.6105 </r>
       <r>    -8.8367     5.8684    24.9923 </r>
       <r>    -8.7717     8.2756    25.5307 </r>
       <r>    -8.7066     8.7368    26.0991 </r>
       <r>    -8.6415     6.9028    26.5482 </r>
       <r>    -8.5765     5.1632    26.8841 </r>
       <r>    -8.5114     5.1012    27.2160 </r>
       <r>    -8.4464     5.9243    27.6014 </r>
       <r>    -8.3813     5.7244    27.9738 </r>
       <r>    -8.3162     4.2470    28.2501 </r>
       <r>    -8.2512     2.8581    28.4361 </r>
       <r>    -8.1861     2.8018    28.6184 </r>
       <r>    -8.1211     3.7903    28.8650 </r>
       <r>    -8.0560     4.3719    29.1494 </r>
       <r>    -7.9909     4.0457    29.4126 </r>
       <r>    -7.9259     3.8363    29.6622 </r>
       <r>    -7.8608     4.4966    29.9548 </r>
       <r>    -7.7958     5.7432    30.3284 </r>
       <r>    -7.7307     6.6931    30.7639 </r>
       <r>    -7.6656     6.7807    31.2050 </r>
       <r>    -7.6006     6.7327    31.6430 </r>
       <r>    -7.5355     6.9803    32.0972 </r>
       <r>    -7.4705     7.3217    32.5735 </r>
       <r>    -7.4054     8.2640    33.1112 </r>
       <r>    -7.3403     9.3620    33.7203 </r>
       <r>    -7.2753     9.1090    34.3129 </r>
       <r>    -7.2102     7.3536    34.7913 </r>
       <r>    -7.1452     5.7532    35.1656 </r>
       <r>    -7.0801     5.1203    35.4987 </r>
       <r>    -7.0150     5.4073    35.8505 </r>
       <r>    -6.9500     6.1283    36.2492 </r>
       <r>    -6.8849     6.7026    36.6853 </r>
       <r>    -6.8199     8.0681    37.2102 </r>
       <r>    -6.7548    11.3480    37.9485 </r>
       <r>    -6.6897    14.4954    38.8916 </r>
       <r>    -6.6247    13.8551    39.7930 </r>
       <r>    -6.5596    10.6938    40.4887 </r>
       <r>    -6.4946     8.9953    41.0740 </r>
       <r>    -6.4295     8.5829    41.6324 </r>
       <r>    -6.3644     7.3140    42.1082 </r>
       <r>    -6.2994     5.5391    42.4686 </r>
       <r>    -6.2343     4.3390    42.7509 </r>
       <r>    -6.1693     3.2791    42.9642 </r>
       <r>    -6.1042     2.3975    43.1202 </r>
       <r>    -6.0391     2.7497    43.2991 </r>
       <r>    -5.9741     3.8688    43.5508 </r>
       <r>    -5.9090     4.6434    43.8529 </r>
       <r>    -5.8440     5.6473    44.2203 </r>
       <r>    -5.7789     7.0943    44.6818 </r>
       <r>    -5.7138     7.4316    45.1653 </r>
       <r>    -5.6488     5.8181    45.5439 </r>
       <r>    -5.5837     3.4127    45.7659 </r>
       <r>    -5.5187     2.1400    45.9051 </r>
       <r>    -5.4536     2.7197    46.0820 </r>
       <r>    -5.3885     4.0121    46.3431 </r>
       <r>    -5.3235     4.4648    46.6336 </r>
       <r>    -5.2584     4.3698    46.9179 </r>
       <r>    -5.1934     4.6491    47.2203 </r>
       <r>    -5.1283     5.6189    47.5859 </r>
       <r>    -5.0632     7.5182    48.0750 </r>
       <r>    -4.9982     9.1980    48.6734 </r>
       <r>    -4.9331     9.5335    49.2937 </r>
       <r>    -4.8681     9.0557    49.8828 </r>
       <r>    -4.8030     9.3411    50.4906 </r>
       <r>    -4.7379    11.0073    51.2067 </r>
       <r>    -4.6729    12.1043    51.9942 </r>
       <r>    -4.6078    11.3933    52.7355 </r>
       <r>    -4.5428    10.5936    53.4247 </r>
       <r>    -4.4777    11.2604    54.1573 </r>
       <r>    -4.4126    13.0058    55.0034 </r>
       <r>    -4.3476    14.5159    55.9478 </r>
       <r>    -4.2825    14.5344    56.8934 </r>
       <r>    -4.2175    13.1845    57.7512 </r>
       <r>    -4.1524    12.5935    58.5705 </r>
       <r>    -4.0874    14.2864    59.5000 </r>
       <r>    -4.0223    15.6614    60.5189 </r>
       <r>    -3.9572    14.1340    61.4385 </r>
       <r>    -3.8922    11.6401    62.1958 </r>
       <r>    -3.8271    10.8527    62.9019 </r>
       <r>    -3.7621    11.3059    63.6374 </r>
       <r>    -3.6970    11.8441    64.4080 </r>
       <r>    -3.6319    12.1564    65.1989 </r>
       <r>    -3.5669    12.6348    66.0209 </r>
       <r>    -3.5018    13.0663    66.8710 </r>
       <r>    -3.4368    13.2210    67.7311 </r>
       <r>    -3.3717    13.6743    68.6208 </r>
       <r>    -3.3066    14.9302    69.5921 </r>
       <r>    -3.2416    15.7645    70.6178 </r>
       <r>    -3.1765    15.7608    71.6432 </r>
       <r>    -3.1115    16.3735    72.7084 </r>
       <r>    -3.0464    17.6583    73.8573 </r>
       <r>    -2.9813    17.7770    75.0138 </r>
       <r>    -2.9163    15.5710    76.0269 </r>
       <r>    -2.8512    13.5762    76.9102 </r>
       <r>    -2.7862    14.0843    77.8265 </r>
       <r>    -2.7211    15.1387    78.8114 </r>
       <r>    -2.6560    14.7988    79.7742 </r>
       <r>    -2.5910    14.4948    80.7172 </r>
       <r>    -2.5259    15.7521    81.7421 </r>
       <r>    -2.4609    17.5548    82.8842 </r>
       <r>    -2.3958    17.9009    84.0488 </r>
       <r>    -2.3307    16.4636    85.1199 </r>
       <r>    -2.2657    15.5200    86.1296 </r>
       <r>    -2.2006    16.1298    87.1790 </r>
       <r>    -2.1356    17.1165    88.2926 </r>
       <r>    -2.0705    16.6923    89.3786 </r>
       <r>    -2.0054    15.1292    90.3629 </r>
       <r>    -1.9404    14.9777    91.3374 </r>
       <r>    -1.8753    16.0768    92.3833 </r>
       <r>    -1.8103    16.0053    93.4246 </r>
       <r>    -1.7452    14.1498    94.3452 </r>
       <r>    -1.6801    11.4402    95.0895 </r>
       <r>    -1.6151    10.2047    95.7534 </r>
       <r>    -1.5500    11.2773    96.4871 </r>
       <r>    -1.4850    13.2268    97.3476 </r>
       <r>    -1.4199    13.9584    98.2558 </r>
       <r>    -1.3548    12.7685    99.0865 </r>
       <r>    -1.2898    10.6417    99.7788 </r>
       <r>    -1.2247     9.2006   100.3774 </r>
       <r>    -1.1597     9.2983   100.9824 </r>
       <r>    -1.0946     9.7521   101.6168 </r>
       <r>    -1.0295     9.0485   102.2055 </r>
       <r>    -0.9645     7.5676   102.6979 </r>
       <r>    -0.8994     5.9136   103.0826 </r>
       <r>    -0.8344     5.7866   103.4591 </r>
       <r>    -0.7693     7.3461   103.9370 </r>
       <r>    -0.7042     8.3547   104.4806 </r>
       <r>    -0.6392     7.6908   104.9809 </r>
       <r>    -0.5741     5.3550   105.3293 </r>
       <r>    -0.5091     3.1330   105.5332 </r>
       <r>    -0.4440     2.5044   105.6961 </r>
       <r>    -0.3789     3.1013   105.8979 </r>
       <r>    -0.3139     4.3506   106.1809 </r>
       <r>    -0.2488     6.0044   106.5716 </r>
       <r>    -0.1838     7.7418   107.0752 </r>
       <r>    -0.1187     8.5888   107.6340 </r>
       <r>    -0.0536     7.4524   108.1189 </r>
       <r>     0.0114     4.9968   108.4440 </r>
       <r>     0.0765     2.8878   108.6319 </r>
       <r>     0.1415     2.1096   108.7691 </r>
       <r>     0.2066     2.5254   108.9334 </r>
       <r>     0.2716     3.0859   109.1342 </r>
       <r>     0.3367     3.5236   109.3634 </r>
       <r>     0.4018     3.9323   109.6193 </r>
       <r>     0.4668     3.6150   109.8544 </r>
       <r>     0.5319     3.3857   110.0747 </r>
       <r>     0.5969     4.5247   110.3691 </r>
       <r>     0.6620     5.7240   110.7415 </r>
       <r>     0.7271     6.0012   111.1319 </r>
       <r>     0.7921     5.7904   111.5087 </r>
       <r>     0.8572     4.7625   111.8185 </r>
       <r>     0.9222     3.7191   112.0605 </r>
       <r>     0.9873     4.0593   112.3246 </r>
       <r>     1.0524     5.0911   112.6558 </r>
       <r>     1.1174     5.9801   113.0449 </r>
       <r>     1.1825     6.5418   113.4705 </r>
       <r>     1.2475     6.7931   113.9124 </r>
       <r>     1.3126     7.5958   114.4066 </r>
       <r>     1.3777     8.3402   114.9492 </r>
       <r>     1.4427     8.0083   115.4702 </r>
       <r>     1.5078     8.6019   116.0299 </r>
       <r>     1.5728    10.9476   116.7421 </r>
       <r>     1.6379    12.4244   117.5504 </r>
       <r>     1.7030    12.5710   118.3683 </r>
       <r>     1.7680    12.3357   119.1709 </r>
       <r>     1.8331    11.8269   119.9403 </r>
       <r>     1.8981    11.7893   120.7073 </r>
       <r>     1.9632    12.3375   121.5100 </r>
       <r>     2.0283    12.6534   122.3332 </r>
       <r>     2.0933    13.0809   123.1843 </r>
       <r>     2.1584    14.6289   124.1360 </r>
       <r>     2.2234    16.0465   125.1800 </r>
       <r>     2.2885    15.7306   126.2034 </r>
       <r>     2.3536    14.7997   127.1663 </r>
       <r>     2.4186    14.3319   128.0987 </r>
       <r>     2.4837    13.7319   128.9921 </r>
       <r>     2.5487    13.1287   129.8463 </r>
       <r>     2.6138    13.3631   130.7157 </r>
       <r>     2.6789    13.4898   131.5933 </r>
       <r>     2.7439    12.2896   132.3929 </r>
       <r>     2.8090    10.2180   133.0576 </r>
       <r>     2.8740     8.9195   133.6379 </r>
       <r>     2.9391     8.7126   134.2048 </r>
       <r>     3.0042     8.2691   134.7428 </r>
       <r>     3.0692     7.0421   135.2009 </r>
       <r>     3.1343     5.3426   135.5485 </r>
       <r>     3.1993     3.6386   135.7852 </r>
       <r>     3.2644     2.1349   135.9241 </r>
       <r>     3.3295     0.9072   135.9832 </r>
       <r>     3.3945     0.2275   135.9980 </r>
       <r>     3.4596     0.0294   135.9999 </r>
       <r>     3.5246     0.0018   136.0000 </r>
       <r>     3.5897     0.0001   136.0000 </r>
       <r>     3.6548     0.0000   136.0000 </r>
       <r>     3.7198     0.0000   136.0000 </r>
       <r>     3.7849     0.0000   136.0000 </r>
       <r>     3.8499     0.0000   136.0000 </r>
       <r>     3.9150     0.0000   136.0000 </r>
       <r>     3.9801     0.0000   136.0000 </r>
       <r>     4.0451     0.0000   136.0000 </r>
       <r>     4.1102     0.0000   136.0000 </r>
       <r>     4.1752     0.0000   136.0000 </r>
       <r>     4.2403     0.0000   136.0000 </r>
      </set>
     </set>
    </array>
   </total>
  </dos>
 </calculation>
 <structure name="finalpos" >
  <crystal>
   <varray name="basis" >
    <v>       3.54040000       0.00000000       0.00000000 </v>
    <v>      -1.77020000      10.29434800       0.00000000 </v>
    <v>       0.00000000       0.00000000      27.50142900 </v>
   </varray>
   <i name="volume">   1002.32009712 </i>
   <varray name="rec_basis" >
    <v>       0.28245396       0.04857034       0.00000000 </v>
    <v>       0.00000000       0.09714068       0.00000000 </v>
    <v>       0.00000000       0.00000000       0.03636175 </v>
   </varray>
  </crystal>
  <varray name="positions" >
   <v>       0.11402300       0.22804500       0.23316207 </v>
   <v>       0.01402300       0.32804500       0.51499159 </v>
   <v>       0.45808900       0.91617900       0.20939482 </v>
   <v>       0.35808900       0.01617900       0.49122434 </v>
   <v>       0.31085400       0.62170900       0.08414979 </v>
   <v>       0.31085400       0.62170900       0.36597930 </v>
   <v>       0.99923000       0.99846000       0.08631254 </v>
   <v>       0.99923000       0.99846000       0.36814206 </v>
   <v>       0.65492700       0.30985400       0.06041748 </v>
   <v>       0.65492700       0.30985400       0.34224700 </v>
   <v>       0.76973800       0.53947500       0.20725292 </v>
   <v>       0.66973800       0.63947500       0.48908244 </v>
   <v>       0.93971600       0.87943300       0.15783749 </v>
   <v>       0.83971600       0.97943300       0.43966701 </v>
   <v>       0.20515200       0.41030300       0.18578822 </v>
   <v>       0.10515200       0.51030300       0.46761774 </v>
   <v>       0.20184900       0.40369900       0.09969156 </v>
   <v>       0.20184900       0.40369900       0.38152107 </v>
   <v>       0.56380500       0.12761000       0.10779021 </v>
   <v>       0.56380500       0.12761000       0.38961973 </v>
   <v>       0.56710600       0.13421200       0.19387616 </v>
   <v>       0.46710600       0.23421200       0.47570568 </v>
   <v>       0.82923400       0.65846800       0.13571444 </v>
   <v>       0.72923400       0.75846800       0.41754396 </v>
  </varray>
 </structure>
</modeling>
