   24   24    1    1
  0.4176334E+02  0.3540400E-09  0.1044544E-08  0.2750143E-08  0.5000000E-15
  1.000000000000000E-004
  CAR 
 unknown system                          
    108     54     68
 
  0.0000000E+00  0.0000000E+00  0.0000000E+00  0.9615385E-02
    1      -15.600585
    2      -13.507437
    3      -13.212569
    4      -12.770275
    5      -12.754200
    6      -12.446605
    7      -12.055302
    8      -11.869284
    9      -11.516522
   10      -11.400641
   11      -10.957907
   12      -10.089930
   13       -9.003275
   14       -8.001199
   15       -7.795877
   16       -7.272650
   17       -7.230532
   18       -6.784560
   19       -6.466975
   20       -6.374626
   21       -5.797450
   22       -5.724233
   23       -5.421403
   24       -4.770955
   25       -4.708719
   26       -4.041938
   27       -3.711079
   28       -3.610317
   29       -3.213958
   30       -3.116905
   31       -3.022066
   32       -2.956114
   33       -2.857229
   34       -2.811707
   35       -2.721985
   36       -2.518192
   37       -2.452884
   38       -2.382274
   39       -2.346335
   40       -2.181831
   41       -2.016734
   42       -1.933534
   43       -1.809053
   44       -1.696879
   45       -1.609942
   46       -1.559444
   47       -1.548978
   48       -1.477874
   49       -1.399579
   50       -1.385345
   51       -1.115142
   52       -1.078217
   53       -0.355958
   54        0.155956
   55        0.884740
   56        1.071145
   57        1.169255
   58        1.311250
   59        1.359972
   60        1.375675
   61        1.693242
   62        1.778002
   63        1.997665
   64        2.037507
   65        2.196853
   66        2.368718
   67        2.469566
   68        2.532846
 
  0.7692308E-01 -0.1387779E-16  0.0000000E+00  0.1923077E-01
    1      -15.547752
    2      -13.446089
    3      -13.156811
    4      -12.717418
    5      -12.695722
    6      -12.390977
    7      -11.993243
    8      -11.821359
    9      -11.461391
   10      -11.351744
   11      -10.909528
   12      -10.061651
   13       -8.986823
   14       -8.037621
   15       -7.759223
   16       -7.333208
   17       -7.207354
   18       -6.756787
   19       -6.462047
   20       -6.382951
   21       -6.028359
   22       -5.759753
   23       -5.393776
   24       -4.785320
   25       -4.711444
   26       -4.010749
   27       -3.746528
   28       -3.635241
   29       -3.483390
   30       -3.402832
   31       -3.245384
   32       -3.195271
   33       -3.140069
   34       -2.914263
   35       -2.873045
   36       -2.713338
   37       -2.601562
   38       -2.471787
   39       -2.417732
   40       -2.268613
   41       -2.166488
   42       -2.035030
   43       -2.001756
   44       -1.932736
   45       -1.808754
   46       -1.767289
   47       -1.686742
   48       -1.482472
   49       -1.370415
   50       -1.278514
   51       -1.072930
   52       -0.988013
   53       -0.290603
   54        0.162645
   55        0.718631
   56        1.023275
   57        1.130240
   58        1.507011
   59        1.613258
   60        1.796951
   61        2.004043
   62        2.164874
   63        2.241894
   64        2.313347
   65        2.388620
   66        2.613884
   67        2.650132
   68        2.722195
 
  0.1538462E+00 -0.2775558E-16  0.0000000E+00  0.1923077E-01
    1      -15.392213
    2      -13.263120
    3      -12.991289
    4      -12.560946
    5      -12.521358
    6      -12.226138
    7      -11.811549
    8      -11.679918
    9      -11.301196
   10      -11.209884
   11      -10.770720
   12       -9.988775
   13       -8.961421
   14       -8.133743
   15       -7.725063
   16       -7.680229
   17       -7.171600
   18       -6.702621
   19       -6.579623
   20       -6.465971
   21       -6.199759
   22       -5.686010
   23       -5.416857
   24       -4.853658
   25       -4.824269
   26       -4.237014
   27       -4.161579
   28       -4.050076
   29       -3.988510
   30       -3.924909
   31       -3.769932
   32       -3.652701
   33       -3.379001
   34       -3.266924
   35       -3.248132
   36       -3.113453
   37       -2.936204
   38       -2.881045
   39       -2.697959
   40       -2.531295
   41       -2.406186
   42       -2.327272
   43       -2.271733
   44       -2.113660
   45       -1.917400
   46       -1.834879
   47       -1.713422
   48       -1.623232
   49       -1.330942
   50       -1.134087
   51       -0.983792
   52       -0.668521
   53       -0.406157
   54       -0.092582
   55        0.444858
   56        0.668472
   57        1.082357
   58        1.767333
   59        1.972387
   60        2.252148
   61        2.312736
   62        2.465880
   63        2.643744
   64        2.678629
   65        2.761943
   66        2.934963
   67        3.005673
   68        3.108729
 
  0.2307692E+00 -0.4163336E-16  0.0000000E+00  0.1923077E-01
    1      -15.144472
    2      -12.962126
    3      -12.722687
    4      -12.304391
    5      -12.239296
    6      -11.959341
    7      -11.526756
    8      -11.453558
    9      -11.054683
   10      -10.993262
   11      -10.567629
   12       -9.923946
   13       -9.027030
   14       -8.338788
   15       -8.316502
   16       -7.788647
   17       -7.228122
   18       -6.751117
   19       -6.652128
   20       -6.599949
   21       -6.192770
   22       -5.709537
   23       -5.610573
   24       -5.306590
   25       -5.161307
   26       -4.795076
   27       -4.702925
   28       -4.567565
   29       -4.475341
   30       -4.415169
   31       -4.145643
   32       -3.975518
   33       -3.751533
   34       -3.734568
   35       -3.449311
   36       -3.376439
   37       -3.076549
   38       -2.971197
   39       -2.852442
   40       -2.729605
   41       -2.575456
   42       -2.433361
   43       -2.408176
   44       -2.226623
   45       -1.893408
   46       -1.871550
   47       -1.778782
   48       -1.693457
   49       -1.441413
   50       -1.352401
   51       -1.033497
   52       -0.907007
   53       -0.686824
   54       -0.496842
   55        0.270923
   56        0.944824
   57        1.109612
   58        1.774522
   59        1.878686
   60        2.014400
   61        2.095527
   62        2.318864
   63        2.400192
   64        2.616984
   65        2.707670
   66        2.844696
   67        2.930525
   68        2.995891
 
  0.3076923E+00 -0.5551115E-16  0.0000000E+00  0.1923077E-01
    1      -14.828595
    2      -12.550511
    3      -12.369272
    4      -11.955993
    5      -11.870439
    6      -11.607502
    7      -11.195237
    8      -11.149088
    9      -10.769058
   10      -10.749256
   11      -10.381709
   12      -10.035213
   13       -9.260712
   14       -8.814699
   15       -8.619562
   16       -8.049624
   17       -7.445181
   18       -6.965663
   19       -6.949438
   20       -6.865819
   21       -6.415805
   22       -6.131194
   23       -5.930720
   24       -5.774484
   25       -5.637763
   26       -5.188967
   27       -5.051053
   28       -4.745733
   29       -4.666613
   30       -4.561337
   31       -4.275563
   32       -4.185183
   33       -4.016078
   34       -3.805088
   35       -3.364603
   36       -3.285436
   37       -3.190856
   38       -3.054408
   39       -2.953851
   40       -2.921738
   41       -2.746744
   42       -2.569903
   43       -2.471386
   44       -2.247798
   45       -2.028178
   46       -1.939392
   47       -1.842352
   48       -1.811971
   49       -1.687566
   50       -1.607841
   51       -1.295607
   52       -1.223552
   53       -1.043218
   54       -0.752893
   55        0.009081
   56        0.723698
   57        1.369216
   58        1.597404
   59        1.631283
   60        1.796923
   61        1.987572
   62        2.130993
   63        2.264653
   64        2.359105
   65        2.498239
   66        2.674110
   67        2.827177
   68        2.939514
 
  0.3846154E+00 -0.8326673E-16  0.0000000E+00  0.1923077E-01
    1      -14.497674
    2      -12.044517
    3      -11.988577
    4      -11.536872
    5      -11.467200
    6      -11.209612
    7      -10.927990
    8      -10.815207
    9      -10.595309
   10      -10.575657
   11      -10.422107
   12      -10.325964
   13       -9.456830
   14       -9.148447
   15       -8.796446
   16       -8.342207
   17       -7.749032
   18       -7.425512
   19       -7.380629
   20       -7.224913
   21       -6.852786
   22       -6.727852
   23       -6.627082
   24       -6.223126
   25       -5.510938
   26       -5.191362
   27       -5.027741
   28       -4.594088
   29       -4.494594
   30       -4.372006
   31       -4.192982
   32       -4.142265
   33       -4.040700
   34       -3.845188
   35       -3.622114
   36       -3.388885
   37       -3.235870
   38       -3.188498
   39       -3.097781
   40       -3.019231
   41       -2.767476
   42       -2.697384
   43       -2.464742
   44       -2.379370
   45       -2.258902
   46       -2.150340
   47       -1.999522
   48       -1.927609
   49       -1.850877
   50       -1.701256
   51       -1.504489
   52       -1.431394
   53       -1.327834
   54       -0.759546
   55       -0.231592
   56        0.438124
   57        1.310629
   58        1.428787
   59        1.565510
   60        1.726866
   61        1.752604
   62        2.022795
   63        2.075675
   64        2.249654
   65        2.303203
   66        2.410860
   67        2.684464
   68        2.825266
 
  0.4615385E+00 -0.8326673E-16  0.0000000E+00  0.1923077E-01
    1      -14.261616
    2      -11.773479
    3      -11.466702
    4      -11.115451
    5      -11.111032
    6      -10.908998
    7      -10.811634
    8      -10.796074
    9      -10.695777
   10      -10.633580
   11      -10.601623
   12      -10.344077
   13       -9.777517
   14       -9.212776
   15       -8.655278
   16       -8.404602
   17       -8.045069
   18       -7.865951
   19       -7.616329
   20       -7.536166
   21       -7.252291
   22       -7.151252
   23       -7.112228
   24       -6.392197
   25       -5.284413
   26       -4.962220
   27       -4.875229
   28       -4.474307
   29       -4.422085
   30       -4.240981
   31       -4.075343
   32       -4.001436
   33       -3.916970
   34       -3.803818
   35       -3.778972
   36       -3.591371
   37       -3.486333
   38       -3.224340
   39       -3.201682
   40       -3.006762
   41       -2.969065
   42       -2.897179
   43       -2.648364
   44       -2.446920
   45       -2.320665
   46       -2.196770
   47       -2.115182
   48       -2.068409
   49       -1.840706
   50       -1.695058
   51       -1.607336
   52       -1.505500
   53       -1.401819
   54       -0.764402
   55       -0.346311
   56        0.250381
   57        1.256922
   58        1.393133
   59        1.468342
   60        1.597434
   61        1.676977
   62        1.859060
   63        2.025081
   64        2.098656
   65        2.315343
   66        2.414092
   67        2.493627
   68        2.666906
 
  0.0000000E+00  0.2500000E+00  0.0000000E+00  0.1923077E-01
    1      -15.599829
    2      -13.452160
    3      -13.248406
    4      -12.941947
    5      -12.674739
    6      -12.444947
    7      -12.014577
    8      -11.835897
    9      -11.446679
   10      -11.399285
   11      -10.966643
   12      -10.060678
   13       -9.106533
   14       -8.482740
   15       -7.408378
   16       -7.249460
   17       -7.207021
   18       -6.638328
   19       -6.569641
   20       -6.277916
   21       -5.727496
   22       -5.702993
   23       -5.464134
   24       -4.623414
   25       -4.572224
   26       -4.031822
   27       -3.969379
   28       -3.572576
   29       -3.351941
   30       -3.300705
   31       -3.126072
   32       -3.094129
   33       -2.882429
   34       -2.691528
   35       -2.675958
   36       -2.552406
   37       -2.369795
   38       -2.349832
   39       -2.257348
   40       -2.217249
   41       -2.089289
   42       -1.938551
   43       -1.867017
   44       -1.847395
   45       -1.644079
   46       -1.594839
   47       -1.495026
   48       -1.443052
   49       -1.329422
   50       -1.278625
   51       -1.092965
   52       -1.018115
   53       -0.335692
   54       -0.020567
   55        0.982960
   56        1.079542
   57        1.220817
   58        1.285793
   59        1.417395
   60        1.466199
   61        1.731492
   62        1.772378
   63        1.942366
   64        2.110339
   65        2.269316
   66        2.336723
   67        2.562359
   68        2.655750
 
  0.7692308E-01  0.2500000E+00  0.0000000E+00  0.1923077E-01
    1      -15.546879
    2      -13.375375
    3      -13.198317
    4      -12.922872
    5      -12.598104
    6      -12.387903
    7      -11.990160
    8      -11.736905
    9      -11.405088
   10      -11.326873
   11      -10.922328
   12      -10.027890
   13       -9.103035
   14       -8.541252
   15       -7.412965
   16       -7.279296
   17       -7.184035
   18       -6.646774
   19       -6.498298
   20       -6.232411
   21       -6.023710
   22       -5.667667
   23       -5.493127
   24       -4.659870
   25       -4.520770
   26       -4.082566
   27       -3.980441
   28       -3.634133
   29       -3.542036
   30       -3.402092
   31       -3.351737
   32       -3.256761
   33       -3.102978
   34       -2.989566
   35       -2.933336
   36       -2.714649
   37       -2.596189
   38       -2.469496
   39       -2.436780
   40       -2.255015
   41       -2.214305
   42       -2.113871
   43       -2.009105
   44       -1.965437
   45       -1.805938
   46       -1.736544
   47       -1.712137
   48       -1.415817
   49       -1.330950
   50       -1.210866
   51       -1.018964
   52       -0.950260
   53       -0.275105
   54       -0.027260
   55        0.765272
   56        1.025341
   57        1.256816
   58        1.537309
   59        1.641943
   60        1.816361
   61        1.972186
   62        2.062329
   63        2.265207
   64        2.402593
   65        2.563400
   66        2.665755
   67        2.701836
   68        2.747421
 
  0.1538462E+00  0.2500000E+00  0.0000000E+00  0.1923077E-01
    1      -15.391305
    2      -13.178973
    3      -13.033940
    4      -12.786421
    5      -12.413414
    6      -12.221674
    7      -11.860261
    8      -11.539228
    9      -11.265545
   10      -11.160310
   11      -10.781104
   12       -9.955803
   13       -9.072010
   14       -8.606824
   15       -7.723152
   16       -7.289145
   17       -7.171474
   18       -6.624393
   19       -6.522631
   20       -6.463097
   21       -6.097952
   22       -5.621228
   23       -5.550336
   24       -4.813187
   25       -4.625334
   26       -4.349335
   27       -4.271258
   28       -4.204723
   29       -4.022772
   30       -3.925962
   31       -3.721352
   32       -3.570553
   33       -3.353930
   34       -3.268191
   35       -3.234122
   36       -3.011731
   37       -2.929472
   38       -2.827676
   39       -2.753275
   40       -2.637429
   41       -2.572186
   42       -2.425861
   43       -2.296315
   44       -2.189027
   45       -1.928295
   46       -1.846130
   47       -1.706749
   48       -1.475433
   49       -1.289993
   50       -1.076316
   51       -0.952330
   52       -0.669825
   53       -0.391219
   54       -0.190216
   55        0.413235
   56        0.673217
   57        1.136349
   58        1.662631
   59        1.783307
   60        2.150808
   61        2.290137
   62        2.403785
   63        2.645391
   64        2.764389
   65        2.903352
   66        2.969625
   67        3.099350
   68        3.158155
 
  0.2307692E+00  0.2500000E+00  0.0000000E+00  0.1923077E-01
    1      -15.143661
    2      -12.867982
    3      -12.761327
    4      -12.535139
    5      -12.132038
    6      -11.954202
    7      -11.632855
    8      -11.262627
    9      -11.043708
   10      -10.919241
   11      -10.563831
   12       -9.900981
   13       -9.098336
   14       -8.738038
   15       -8.348528
   16       -7.366059
   17       -7.288016
   18       -6.669857
   19       -6.657326
   20       -6.610169
   21       -6.126435
   22       -5.790002
   23       -5.716800
   24       -5.179650
   25       -5.075777
   26       -4.993118
   27       -4.706714
   28       -4.629295
   29       -4.520318
   30       -4.447277
   31       -3.984310
   32       -3.963744
   33       -3.707529
   34       -3.640035
   35       -3.322748
   36       -3.180663
   37       -3.073150
   38       -3.055772
   39       -2.854000
   40       -2.751319
   41       -2.627562
   42       -2.561780
   43       -2.494355
   44       -2.248151
   45       -1.953818
   46       -1.870891
   47       -1.771461
   48       -1.714670
   49       -1.395943
   50       -1.335336
   51       -0.998763
   52       -0.940891
   53       -0.749055
   54       -0.423416
   55        0.148319
   56        0.916386
   57        1.171319
   58        1.476658
   59        1.624921
   60        1.739614
   61        1.933883
   62        2.256909
   63        2.561267
   64        2.637952
   65        2.741634
   66        2.801994
   67        3.072247
   68        3.124303
 
  0.3076923E+00  0.2500000E+00  0.0000000E+00  0.1923077E-01
    1      -14.827921
    2      -12.453194
    3      -12.396845
    4      -12.176231
    5      -11.779918
    6      -11.603291
    7      -11.329799
    8      -10.948933
    9      -10.779964
   10      -10.655532
   11      -10.358289
   12      -10.035833
   13       -9.269166
   14       -8.937108
   15       -8.818327
   16       -7.671781
   17       -7.556686
   18       -7.079580
   19       -6.927817
   20       -6.877812
   21       -6.375733
   22       -6.159917
   23       -5.889374
   24       -5.846195
   25       -5.643106
   26       -5.350624
   27       -5.042879
   28       -4.905278
   29       -4.540403
   30       -4.387770
   31       -4.291073
   32       -4.045846
   33       -3.978005
   34       -3.692703
   35       -3.337046
   36       -3.304045
   37       -3.058186
   38       -2.970160
   39       -2.871822
   40       -2.818749
   41       -2.766347
   42       -2.608679
   43       -2.468591
   44       -2.376816
   45       -2.245084
   46       -1.947031
   47       -1.858325
   48       -1.818003
   49       -1.724144
   50       -1.645250
   51       -1.352820
   52       -1.255800
   53       -1.050068
   54       -0.706891
   55       -0.072239
   56        0.663257
   57        1.257096
   58        1.305664
   59        1.442362
   60        1.617342
   61        1.918308
   62        2.170763
   63        2.284230
   64        2.405400
   65        2.471268
   66        2.651485
   67        2.804606
   68        2.995041
 
  0.3846154E+00  0.2500000E+00  0.0000000E+00  0.1923077E-01
    1      -14.497313
    2      -12.009650
    3      -11.941850
    4      -11.726399
    5      -11.421868
    6      -11.208942
    7      -11.006105
    8      -10.691328
    9      -10.569030
   10      -10.528040
   11      -10.434762
   12      -10.320608
   13       -9.444912
   14       -9.136286
   15       -8.926974
   16       -8.076658
   17       -7.823543
   18       -7.745996
   19       -7.323117
   20       -7.151184
   21       -6.904514
   22       -6.661819
   23       -6.627119
   24       -6.227798
   25       -5.553448
   26       -5.315036
   27       -4.997624
   28       -4.750602
   29       -4.476605
   30       -4.367114
   31       -4.132495
   32       -4.082645
   33       -3.827718
   34       -3.637076
   35       -3.487363
   36       -3.320515
   37       -3.251886
   38       -3.120337
   39       -3.082697
   40       -2.928907
   41       -2.825093
   42       -2.735806
   43       -2.591485
   44       -2.497544
   45       -2.286366
   46       -2.174712
   47       -2.042519
   48       -1.943870
   49       -1.853550
   50       -1.704891
   51       -1.568816
   52       -1.458814
   53       -1.380726
   54       -0.733035
   55       -0.267137
   56        0.389382
   57        1.224289
   58        1.330328
   59        1.376625
   60        1.517745
   61        1.833750
   62        1.940908
   63        2.073343
   64        2.140599
   65        2.245985
   66        2.597840
   67        2.648367
   68        2.759753
 
  0.4615385E+00  0.2500000E+00  0.0000000E+00  0.1923077E-01
    1      -14.261524
    2      -11.773685
    3      -11.395156
    4      -11.231355
    5      -11.118277
    6      -10.922255
    7      -10.831829
    8      -10.801233
    9      -10.666586
   10      -10.618373
   11      -10.547428
   12      -10.346121
   13       -9.774524
   14       -9.213914
   15       -8.521560
   16       -8.366169
   17       -8.292841
   18       -7.876140
   19       -7.584114
   20       -7.481952
   21       -7.281735
   22       -7.153807
   23       -7.105663
   24       -6.397951
   25       -5.245715
   26       -5.005407
   27       -4.960017
   28       -4.483277
   29       -4.435276
   30       -4.189214
   31       -4.111649
   32       -4.035988
   33       -3.895400
   34       -3.765038
   35       -3.628227
   36       -3.472302
   37       -3.375065
   38       -3.239204
   39       -3.210845
   40       -3.119001
   41       -2.950492
   42       -2.860838
   43       -2.596467
   44       -2.565738
   45       -2.530752
   46       -2.165396
   47       -2.089996
   48       -2.018322
   49       -1.824505
   50       -1.666413
   51       -1.641403
   52       -1.515902
   53       -1.424126
   54       -0.767437
   55       -0.340741
   56        0.191768
   57        1.262442
   58        1.445042
   59        1.523389
   60        1.565335
   61        1.603615
   62        1.736371
   63        1.934689
   64        2.096895
   65        2.265969
   66        2.469432
   67        2.488852
   68        2.565499
 
 -0.4615385E+00  0.2500000E+00  0.0000000E+00  0.1923077E-01
    1      -14.261697
    2      -11.777124
    3      -11.500499
    4      -11.091910
    5      -11.037664
    6      -10.895244
    7      -10.815522
    8      -10.776523
    9      -10.721283
   10      -10.671327
   11      -10.619424
   12      -10.355345
   13       -9.775937
   14       -9.233868
   15       -8.723780
   16       -8.398400
   17       -7.909943
   18       -7.837898
   19       -7.619009
   20       -7.569192
   21       -7.247184
   22       -7.188817
   23       -7.098899
   24       -6.406889
   25       -5.233340
   26       -4.993296
   27       -4.699333
   28       -4.545819
   29       -4.416542
   30       -4.326479
   31       -4.072997
   32       -3.975834
   33       -3.962572
   34       -3.861030
   35       -3.847545
   36       -3.645916
   37       -3.533377
   38       -3.317606
   39       -3.116584
   40       -3.031496
   41       -2.907755
   42       -2.755168
   43       -2.652441
   44       -2.598371
   45       -2.345604
   46       -2.144285
   47       -2.122903
   48       -2.012013
   49       -1.840384
   50       -1.639406
   51       -1.565567
   52       -1.465229
   53       -1.362450
   54       -0.775478
   55       -0.345568
   56        0.201612
   57        1.242152
   58        1.396144
   59        1.564161
   60        1.683244
   61        1.771807
   62        1.791914
   63        1.937980
   64        2.233580
   65        2.380700
   66        2.433308
   67        2.494352
   68        2.591624
 
 -0.3846154E+00  0.2500000E+00  0.0000000E+00  0.1923077E-01
    1      -14.497813
    2      -12.069909
    3      -11.987808
    4      -11.478035
    5      -11.451663
    6      -11.207161
    7      -10.901568
    8      -10.876228
    9      -10.610020
   10      -10.598057
   11      -10.417753
   12      -10.331464
   13       -9.468749
   14       -9.157223
   15       -8.708463
   16       -8.455686
   17       -7.691595
   18       -7.406127
   19       -7.299015
   20       -7.257376
   21       -6.811980
   22       -6.777588
   23       -6.631042
   24       -6.253226
   25       -5.491723
   26       -5.101447
   27       -4.968312
   28       -4.797018
   29       -4.377429
   30       -4.326563
   31       -4.224838
   32       -4.110492
   33       -4.049280
   34       -3.989596
   35       -3.689489
   36       -3.392711
   37       -3.354622
   38       -3.228458
   39       -3.122670
   40       -3.050779
   41       -2.759164
   42       -2.654710
   43       -2.486427
   44       -2.407135
   45       -2.217290
   46       -2.139259
   47       -1.914442
   48       -1.873636
   49       -1.805299
   50       -1.659044
   51       -1.546583
   52       -1.365259
   53       -1.258828
   54       -0.752995
   55       -0.234650
   56        0.422499
   57        1.270452
   58        1.428439
   59        1.549413
   60        1.795574
   61        1.923209
   62        2.026842
   63        2.123123
   64        2.298880
   65        2.401078
   66        2.529051
   67        2.609810
   68        2.708529
 
 -0.3076923E+00  0.2500000E+00  0.0000000E+00  0.1923077E-01
    1      -14.828681
    2      -12.562756
    3      -12.365235
    4      -11.914946
    5      -11.883362
    6      -11.606973
    7      -11.212363
    8      -11.140790
    9      -10.797915
   10      -10.741137
   11      -10.387790
   12      -10.036854
   13       -9.286575
   14       -8.796332
   15       -8.520915
   16       -8.152139
   17       -7.345105
   18       -7.054683
   19       -6.965562
   20       -6.835978
   21       -6.394733
   22       -6.124528
   23       -5.939719
   24       -5.767134
   25       -5.648518
   26       -5.148908
   27       -5.043346
   28       -4.837239
   29       -4.611540
   30       -4.514950
   31       -4.276613
   32       -4.208390
   33       -4.002168
   34       -3.877236
   35       -3.425035
   36       -3.324119
   37       -3.184223
   38       -3.055852
   39       -3.026647
   40       -2.932356
   41       -2.751212
   42       -2.575230
   43       -2.389570
   44       -2.202805
   45       -1.999708
   46       -1.905319
   47       -1.849894
   48       -1.786688
   49       -1.673608
   50       -1.620532
   51       -1.321112
   52       -1.197415
   53       -1.026185
   54       -0.750092
   55        0.033896
   56        0.738552
   57        1.302606
   58        1.601403
   59        1.671987
   60        1.906692
   61        2.011442
   62        2.179343
   63        2.278010
   64        2.394466
   65        2.544222
   66        2.682611
   67        2.737398
   68        2.884549
 
 -0.2307692E+00  0.2500000E+00  0.0000000E+00  0.1923077E-01
    1      -15.144413
    2      -12.957897
    3      -12.726250
    4      -12.318935
    5      -12.233357
    6      -11.959371
    7      -11.513478
    8      -11.458156
    9      -11.044014
   10      -10.996881
   11      -10.566208
   12       -9.920001
   13       -9.065375
   14       -8.365805
   15       -8.303768
   16       -7.746793
   17       -7.132519
   18       -6.868365
   19       -6.653335
   20       -6.603421
   21       -6.174405
   22       -5.709996
   23       -5.594178
   24       -5.301142
   25       -5.158692
   26       -4.819727
   27       -4.711843
   28       -4.563651
   29       -4.477104
   30       -4.375798
   31       -4.142336
   32       -4.001985
   33       -3.771645
   34       -3.738226
   35       -3.430896
   36       -3.363785
   37       -3.089194
   38       -2.970422
   39       -2.865658
   40       -2.780327
   41       -2.617258
   42       -2.452254
   43       -2.378888
   44       -2.151271
   45       -1.870568
   46       -1.827434
   47       -1.745192
   48       -1.710602
   49       -1.435960
   50       -1.364003
   51       -1.034021
   52       -0.920701
   53       -0.721393
   54       -0.494708
   55        0.297973
   56        0.887986
   57        1.063713
   58        1.833239
   59        1.848872
   60        2.028123
   61        2.173842
   62        2.317043
   63        2.443236
   64        2.585131
   65        2.701454
   66        2.775922
   67        2.947249
   68        3.003381
 
 -0.1538462E+00  0.2500000E+00  0.0000000E+00  0.1923077E-01
    1      -15.391930
    2      -13.241664
    3      -13.006285
    4      -12.633983
    5      -12.489854
    6      -12.226062
    7      -11.757046
    8      -11.703184
    9      -11.250054
   10      -11.228367
   11      -10.768687
   12       -9.976490
   13       -9.015733
   14       -8.345365
   15       -7.688712
   16       -7.496454
   17       -7.112075
   18       -6.695849
   19       -6.610517
   20       -6.517494
   21       -6.151020
   22       -5.660370
   23       -5.430082
   24       -4.824477
   25       -4.792001
   26       -4.267047
   27       -4.200980
   28       -4.118555
   29       -3.969689
   30       -3.889170
   31       -3.746168
   32       -3.660005
   33       -3.397866
   34       -3.337382
   35       -3.215151
   36       -3.087479
   37       -2.905954
   38       -2.869040
   39       -2.708820
   40       -2.614528
   41       -2.500075
   42       -2.394287
   43       -2.204776
   44       -2.122444
   45       -1.908402
   46       -1.750796
   47       -1.672529
   48       -1.578611
   49       -1.308209
   50       -1.134807
   51       -0.961196
   52       -0.712734
   53       -0.412168
   54       -0.116575
   55        0.425301
   56        0.582652
   57        1.127114
   58        1.781154
   59        1.855432
   60        2.232035
   61        2.412345
   62        2.542039
   63        2.655628
   64        2.717438
   65        2.825996
   66        2.871040
   67        2.987506
   68        3.164192
 
 -0.7692308E-01  0.2500000E+00  0.0000000E+00  0.1923077E-01
    1      -15.547217
    2      -13.407436
    3      -13.183331
    4      -12.844372
    5      -12.638685