 running on    8 total cores
 distrk:  each k-point on    8 cores,    1 groups
 distr:  one band on    2 cores,    4 groups
 using from now: INCAR     
 vasp.5.3.5 31Mar14 (build Oct 29 2014 16:16:03) complex                        
  
 POSCAR found type information on POSCAR  P  Si
 POSCAR found :  2 types and      24 ions
 scaLAPACK will be used

 ----------------------------------------------------------------------------- 
|                                                                             |
|  ADVICE TO THIS USER RUNNING 'VASP/VAMP'   (HEAR YOUR MASTER'S VOICE ...):  |
|                                                                             |
|      You have switched on vdW-DFT.                                          |
|      This routine was written and supplied by Jiri Klimes.                  |
|      We recommed that you carefully read and cite the following             |
|      publication                                                            |
|      J. Klimes, D.R. Bowler, A. Michelides                                  |
|        J. Phys.: Cond Matt. 22 022201 (2010)                                |
|      J. Klimes, D.R. Bowler, A. Michelides                                  |
|        Phys. Rev. B. 83, 195131 (2011)                                      |
|      and references therein.                                                |
|                                                                             |
 ----------------------------------------------------------------------------- 


 ----------------------------------------------------------------------------- 
|                                                                             |
|  ADVICE TO THIS USER RUNNING 'VASP/VAMP'   (HEAR YOUR MASTER'S VOICE ...):  |
|                                                                             |
|      You enforced a specific xc-type in the INCAR file,                     |
|      a different type was found on the POTCAR file                          |
|          I HOPE YOU KNOW, WHAT YOU ARE  DOING                               |
|                                                                             |
 ----------------------------------------------------------------------------- 

 LDA part: xc-table for Pade appr. of Perdew


 VERY BAD NEWS! internal error in subroutine IBZKPT:
 Reciprocal lattice and k-lattice belong to different class of lattices. Often results are still useful...      96


 VERY BAD NEWS! internal error in subroutine IBZKPT:
 Reciprocal lattice and k-lattice belong to different class of lattices. Often results are still useful...      96


 VERY BAD NEWS! internal error in subroutine IBZKPT:
 Reciprocal lattice and k-lattice belong to different class of lattices. Often results are still useful...      96


 VERY BAD NEWS! internal error in subroutine IBZKPT:
 Reciprocal lattice and k-lattice belong to different class of lattices. Often results are still useful...      96


 VERY BAD NEWS! internal error in subroutine IBZKPT:
 Reciprocal lattice and k-lattice belong to different class of lattices. Often results are still useful...      96


 VERY BAD NEWS! internal error in subroutine IBZKPT:
 Reciprocal lattice and k-lattice belong to different class of lattices. Often results are still useful...      96


 VERY BAD NEWS! internal error in subroutine IBZKPT:
 Reciprocal lattice and k-lattice belong to different class of lattices. Often results are still useful...      96


 VERY BAD NEWS! internal error in subroutine IBZKPT:
 Reciprocal lattice and k-lattice belong to different class of lattices. Often results are still useful...      96
 POSCAR, INCAR and KPOINTS ok, starting setup
 WARNING: small aliasing (wrap around) errors must be expected
 FFT: planning ...
 WAVECAR not read
 entering main loop
       N       E                     dE             d eps       ncg     rms          rms(c)
Total vdW correction in eV:     15.9712527
DAV:   1     0.512032408763E+03    0.51203E+03   -0.28799E+04  7376   0.790E+02
DAV:   2    -0.580366247275E+02   -0.57007E+03   -0.55473E+03  9732   0.191E+02
DAV:   3    -0.116644884930E+03   -0.58608E+02   -0.57729E+02  8908   0.635E+01
DAV:   4    -0.119416715199E+03   -0.27718E+01   -0.27541E+01 11304   0.148E+01
DAV:   5    -0.119467042637E+03   -0.50327E-01   -0.50247E-01  9836   0.204E+00    0.129E+01
Total vdW correction in eV:     16.3813732
DAV:   6    -0.114023920791E+03    0.54431E+01   -0.17486E+01  8868   0.117E+01    0.648E+00
Total vdW correction in eV:     16.8112434
DAV:   7    -0.114202534499E+03   -0.17861E+00   -0.12678E+01  8332   0.859E+00    0.288E+00
Total vdW correction in eV:     16.9411165
DAV:   8    -0.114141359531E+03    0.61175E-01   -0.16810E+00  8864   0.361E+00    0.182E+00
Total vdW correction in eV:     17.0415117
DAV:   9    -0.114152761496E+03   -0.11402E-01   -0.85340E-01  9016   0.210E+00    0.944E-01
Total vdW correction in eV:     17.1449624
DAV:  10    -0.114153946509E+03   -0.11850E-02   -0.24251E-01  8936   0.127E+00    0.318E-01
Total vdW correction in eV:     17.1670733
DAV:  11    -0.114144061298E+03    0.98852E-02   -0.28720E-02  8832   0.581E-01    0.142E-01
Total vdW correction in eV:     17.1766453
DAV:  12    -0.114133688572E+03    0.10373E-01   -0.11935E-02  9096   0.286E-01    0.883E-02
Total vdW correction in eV:     17.1810185
DAV:  13    -0.114129073288E+03    0.46153E-02   -0.16181E-03  9008   0.135E-01    0.334E-02
Total vdW correction in eV:     17.1856201
DAV:  14    -0.114125895252E+03    0.31780E-02   -0.84031E-04  9080   0.779E-02    0.240E-02
Total vdW correction in eV:     17.1885198
DAV:  15    -0.114124973424E+03    0.92183E-03   -0.13923E-04  8976   0.358E-02    0.121E-02
Total vdW correction in eV:     17.1911938
DAV:  16    -0.114124509883E+03    0.46354E-03   -0.10835E-04  9048   0.269E-02    0.101E-02
Total vdW correction in eV:     17.1936772
DAV:  17    -0.114125184150E+03   -0.67427E-03   -0.12373E-04  8168   0.276E-02    0.442E-03
Total vdW correction in eV:     17.1942073
DAV:  18    -0.114125292860E+03   -0.10871E-03   -0.74023E-05  8600   0.179E-02    0.279E-03
Total vdW correction in eV:     17.1941132
DAV:  19    -0.114125473542E+03   -0.18068E-03   -0.82433E-05  7584   0.160E-02    0.153E-03
Total vdW correction in eV:     17.1940330
DAV:  20    -0.114125553447E+03   -0.79905E-04   -0.79279E-06  6504   0.733E-03    0.104E-03
Total vdW correction in eV:     17.1938338
DAV:  21    -0.114125532327E+03    0.21120E-04   -0.24170E-05  6996   0.100E-02    0.662E-04
Total vdW correction in eV:     17.1936776
DAV:  22    -0.114125518400E+03    0.13927E-04   -0.11778E-05  6856   0.956E-03    0.551E-04
Total vdW correction in eV:     17.1935913
DAV:  23    -0.114125451262E+03    0.67138E-04   -0.10648E-05  6792   0.871E-03    0.261E-04
Total vdW correction in eV:     17.1935857
DAV:  24    -0.114125418359E+03    0.32903E-04   -0.31221E-06  5900   0.635E-03    0.123E-04
Total vdW correction in eV:     17.1935853
DAV:  25    -0.114125403224E+03    0.15135E-04   -0.66354E-06  6616   0.794E-03    0.991E-05
Total vdW correction in eV:     17.1935890
DAV:  26    -0.114125404667E+03   -0.14432E-05   -0.18800E-06  6016   0.506E-03    0.373E-05
Total vdW correction in eV:     17.1935903
DAV:  27    -0.114125405232E+03   -0.56475E-06   -0.22812E-06  6072   0.551E-03
Total vdW correction in eV:     17.1935893
Total vdW correction in eV:     17.1935903
   1 F= -.11412541E+03 E0= -.11411616E+03  d E =-.184947E-01
