 vasp.5.3.5 31Mar14 (build Oct 29 2014 16:16:03) complex                        
  
 executed on          Linux-UFHPC date 2016.02.09  17:25:17
 running on    8 total cores
 distrk:  each k-point on    8 cores,    1 groups
 distr:  one band on NCORES_PER_BAND=   2 cores,    4 groups


--------------------------------------------------------------------------------------------------------


 INCAR:
 POTCAR:    PAW_PBE P 17Jan2003                   
 POTCAR:   PAW_PBE Si 05Jan2001                   

 ----------------------------------------------------------------------------- 
|                                                                             |
|  ADVICE TO THIS USER RUNNING 'VASP/VAMP'   (HEAR YOUR MASTER'S VOICE ...):  |
|                                                                             |
|      You have switched on vdW-DFT.                                          |
|      This routine was written and supplied by Jiri Klimes.                  |
|      We recommed that you carefully read and cite the following             |
|      publication                                                            |
|      J. Klimes, D.R. Bowler, A. Michelides                                  |
|        J. Phys.: Cond Matt. 22 022201 (2010)                                |
|      J. Klimes, D.R. Bowler, A. Michelides                                  |
|        Phys. Rev. B. 83, 195131 (2011)                                      |
|      and references therein.                                                |
|                                                                             |
 ----------------------------------------------------------------------------- 

 POTCAR:    PAW_PBE P 17Jan2003                   
   VRHFIN =P : s2p3                                                             
   LEXCH  = PE                                                                  
   EATOM  =   176.0430 eV,   12.9388 Ry                                         
                                                                                
   TITEL  = PAW_PBE P 17Jan2003                                                 
   LULTRA =        F    use ultrasoft PP ?                                      
   IUNSCR =        1    unscreen: 0-lin 1-nonlin 2-no                           
   RPACOR =    1.500    partial core radius                                     
   POMASS =   30.974; ZVAL   =    5.000    mass and valenz                      
   RCORE  =    1.900    outmost cutoff radius                                   
   RWIGS  =    2.330; RWIGS  =    1.233    wigner-seitz radius (au A)           
   ENMAX  =  270.000; ENMIN  =  191.280 eV                                      
   ICORE  =        2    local potential                                         
   LCOR   =        T    correct aug charges                                     
   LPAW   =        T    paw PP                                                  
   EAUG   =  342.924                                                            
   DEXC   =    -.002                                                            
   RMAX   =    2.887    core radius for proj-oper                               
   RAUG   =    1.300    factor for augmentation sphere                          
   RDEP   =    1.931    radius for radial grids                                 
   QCUT   =   -4.330; QGAM   =    8.659    optimization parameters              
                                                                                
   Description                                                                  
     l     E      TYP  RCUT    TYP  RCUT                                        
     0   .000     23  1.900                                                     
     0   .000     23  1.900                                                     
     1   .000     23  1.900                                                     
     1   .000     23  1.900                                                     
     2   .000     23  1.900                                                     
  local pseudopotential read in
  partial core-charges read in
  atomic valenz-charges read in
  non local Contribution for L=           0  read in
    real space projection operators read in
  non local Contribution for L=           0  read in
    real space projection operators read in
  non local Contribution for L=           1  read in
    real space projection operators read in
  non local Contribution for L=           1  read in
    real space projection operators read in
    PAW grid and wavefunctions read in
 
   number of l-projection  operators is LMAX  =           4
   number of lm-projection operators is LMMAX =           8
 
 POTCAR:   PAW_PBE Si 05Jan2001                   
   VRHFIN =Si: s2p2                                                             
   LEXCH  = PE                                                                  
   EATOM  =   103.0669 eV,    7.5752 Ry                                         
                                                                                
   TITEL  = PAW_PBE Si 05Jan2001                                                
   LULTRA =        F    use ultrasoft PP ?                                      
   IUNSCR =        1    unscreen: 0-lin 1-nonlin 2-no                           
   RPACOR =    1.500    partial core radius                                     
   POMASS =   28.085; ZVAL   =    4.000    mass and valenz                      
   RCORE  =    1.900    outmost cutoff radius                                   
   RWIGS  =    2.480; RWIGS  =    1.312    wigner-seitz radius (au A)           
   ENMAX  =  245.345; ENMIN  =  184.009 eV                                      
   ICORE  =        2    local potential                                         
   LCOR   =        T    correct aug charges                                     
   LPAW   =        T    paw PP                                                  
   EAUG   =  322.069                                                            
   DEXC   =    -.007                                                            
   RMAX   =    2.944    core radius for proj-oper                               
   RAUG   =    1.300    factor for augmentation sphere                          
   RDEP   =    1.993    radius for radial grids                                 
   QCUT   =   -4.246; QGAM   =    8.493    optimization parameters              
                                                                                
   Description                                                                  
     l     E      TYP  RCUT    TYP  RCUT                                        
     0   .000     23  1.900                                                     
     0   .000     23  1.900                                                     
     1   .000     23  1.900                                                     
     1   .000     23  1.900                                                     
     2   .000      7  1.900                                                     
  local pseudopotential read in
  partial core-charges read in
  atomic valenz-charges read in
  non local Contribution for L=           0  read in
    real space projection operators read in
  non local Contribution for L=           0  read in
    real space projection operators read in
  non local Contribution for L=           1  read in
    real space projection operators read in
  non local Contribution for L=           1  read in
    real space projection operators read in
    PAW grid and wavefunctions read in
 
   number of l-projection  operators is LMAX  =           4
   number of lm-projection operators is LMMAX =           8
 
 Optimization of the real space projectors (new method)

 maximal supplied QI-value         = 19.84
 optimisation between [QCUT,QGAM] = [  8.73, 17.66] = [ 21.34, 87.33] Ry 
 Optimized for a Real-space Cutoff    1.50 Angstroem

   l    n(q)    QCUT    max X(q) W(low)/X(q) W(high)/X(q)  e(spline) 
   0      8     8.731     6.651    0.16E-04    0.15E-04    0.77E-08
   0      8     8.731    90.285    0.16E-03    0.90E-04    0.16E-06
   1      7     8.731     4.328    0.47E-04    0.36E-04    0.45E-07
   1      7     8.731    54.583    0.13E-03    0.39E-03    0.20E-06
 Optimization of the real space projectors (new method)

 maximal supplied QI-value         = 19.84
 optimisation between [QCUT,QGAM] = [  8.73, 17.66] = [ 21.34, 87.33] Ry 
 Optimized for a Real-space Cutoff    1.46 Angstroem

   l    n(q)    QCUT    max X(q) W(low)/X(q) W(high)/X(q)  e(spline) 
   0      8     8.731     8.708    0.16E-04    0.11E-04    0.68E-08
   0      8     8.731   106.241    0.24E-03    0.77E-04    0.13E-06
   1      7     8.731     5.901    0.34E-04    0.38E-04    0.36E-07
   1      7     8.731    73.241    0.12E-03    0.39E-03    0.15E-06

 ----------------------------------------------------------------------------- 
|                                                                             |
|  ADVICE TO THIS USER RUNNING 'VASP/VAMP'   (HEAR YOUR MASTER'S VOICE ...):  |
|                                                                             |
|      You enforced a specific xc-type in the INCAR file,                     |
|      a different type was found on the POTCAR file                          |
|          I HOPE YOU KNOW, WHAT YOU ARE  DOING                               |
|                                                                             |
 ----------------------------------------------------------------------------- 

  PAW_PBE P 17Jan2003                   :
 energy of atom  1       EATOM= -176.0430
 kinetic energy error for atom=    0.0040 (will be added to EATOM!!)
 PAW_PBE Si 05Jan2001                   :
 energy of atom  2       EATOM= -103.0669
 kinetic energy error for atom=    0.0021 (will be added to EATOM!!)
 
 
 POSCAR: Si12                                    
  positions in direct lattice
  No initial velocities read in
 exchange correlation table for  LEXCH =       42
   RHO(1)=    0.500       N(1)  =     2000
   RHO(2)=  100.500       N(2)  =     4000
 


--------------------------------------------------------------------------------------------------------


 ion  position               nearest neighbor table
   1  0.114  0.228  0.233-  15 2.28  21 2.29  21 2.29
   2  0.214  0.628  0.515-  16 2.28  22 2.29  22 2.29
   3  0.458  0.916  0.209-  21 2.28  13 2.30  13 2.30
   4  0.558  0.316  0.491-  22 2.28  14 2.30  14 2.30
   5  0.311  0.622  0.084-  17 2.28  23 2.30  23 2.30
   6  0.311  0.622  0.366-  18 2.28
   7  0.999  0.998  0.086-  19 2.29  19 2.29  13 2.32
   8  0.999  0.998  0.368-  24 1.53  20 2.29  20 2.29
   9  0.655  0.310  0.060-  19 2.28  17 2.29  17 2.29
  10  0.655  0.310  0.342-  20 2.28  18 2.29  18 2.29  14 3.05
  11  0.770  0.539  0.207-  15 2.29  15 2.29  23 2.32
  12  0.870  0.939  0.489-  16 2.29  16 2.29  24 2.32
  13  0.940  0.879  0.158-   3 2.30   3 2.30   7 2.32  23 2.35
  14  0.040  0.279  0.440-  18 2.08   4 2.30   4 2.30  24 2.35  20 2.52  20 2.97  10 3.05
  15  0.205  0.410  0.186-   1 2.28  11 2.29  11 2.29  17 2.37
  16  0.305  0.810  0.468-   2 2.28  12 2.29  12 2.29
  17  0.202  0.404  0.100-   5 2.28   9 2.29   9 2.29  15 2.37
  18  0.202  0.404  0.382-  14 2.08   6 2.28  10 2.29  10 2.29
  19  0.564  0.128  0.108-   9 2.28   7 2.29   7 2.29  21 2.37
  20  0.564  0.128  0.390-  24 1.76  10 2.28   8 2.29   8 2.29  24 2.37  14 2.52  14 2.97
  21  0.567  0.134  0.194-   3 2.28   1 2.29   1 2.29  19 2.37
  22  0.667  0.534  0.476-   4 2.28   2 2.29   2 2.29
  23  0.829  0.658  0.136-   5 2.30   5 2.30  11 2.32  13 2.35
  24  0.929  0.058  0.418-   8 1.53  20 1.76  12 2.32  14 2.35  20 2.37
 
  LATTYP: Found a base centered orthorhombic cell.
 ALAT       =     3.5404000000
 B/A-ratio  =     5.8153587165
 C/A-ratio  =     7.7678875268
  
  Lattice vectors:
  
 A1 = (   1.7702000000,  10.2943480000,   0.0000000000)
 A2 = (   1.7702000000, -10.2943480000,   0.0000000000)
 A3 = (   0.0000000000,   0.0000000000, -27.5014290000)


Analysis of symmetry for initial positions (statically):
=====================================================================
 Subroutine PRICEL returns:
 Original cell was already a primitive cell.
 

 Routine SETGRP: Setting up the symmetry group for a 
 base centered orthorhombic supercell.


 Subroutine GETGRP returns: Found  1 space group operations
 (whereof  1 operations were pure point group operations)
 out of a pool of  8 trial point group operations.


The static configuration has the point symmetry C_1 .


Analysis of symmetry for dynamics (positions and initial velocities):
=====================================================================
 Subroutine PRICEL returns:
 Original cell was already a primitive cell.
 

 Routine SETGRP: Setting up the symmetry group for a 
 base centered orthorhombic supercell.


 Subroutine GETGRP returns: Found  1 space group operations
 (whereof  1 operations were pure point group operations)
 out of a pool of  8 trial point group operations.


The dynamic configuration has the point symmetry C_1 .
 
 
 KPOINTS: pymatgen generated KPOINTS with grid den

Automatic generation of k-mesh.
Space group operators:
 irot       det(A)        alpha          n_x          n_y          n_z        tau_x        tau_y        tau_z
    1     1.000000     0.000000     1.000000     0.000000     0.000000     0.000000     0.000000     0.000000
 
 Subroutine IBZKPT returns following result:
 ===========================================
 
 Found     54 irreducible k-points:
 
 Following reciprocal coordinates:
            Coordinates               Weight
  0.000000  0.000000  0.000000      1.000000
  0.076923 -0.000000  0.000000      2.000000
  0.153846 -0.000000  0.000000      2.000000
  0.230769 -0.000000  0.000000      2.000000
  0.307692 -0.000000  0.000000      2.000000
  0.384615 -0.000000  0.000000      2.000000
  0.461538 -0.000000  0.000000      2.000000
  0.000000  0.250000  0.000000      2.000000
  0.076923  0.250000  0.000000      2.000000
  0.153846  0.250000  0.000000      2.000000
  0.230769  0.250000  0.000000      2.000000
  0.307692  0.250000  0.000000      2.000000
  0.384615  0.250000  0.000000      2.000000
  0.461538  0.250000  0.000000      2.000000
 -0.461538  0.250000  0.000000      2.000000
 -0.384615  0.250000  0.000000      2.000000
 -0.307692  0.250000  0.000000      2.000000
 -0.230769  0.250000  0.000000      2.000000
 -0.153846  0.250000  0.000000      2.000000
 -0.076923  0.250000  0.000000      2.000000
  0.000000  0.500000  0.000000      1.000000
  0.076923  0.500000  0.000000      2.000000
  0.153846  0.500000  0.000000      2.000000
  0.230769  0.500000  0.000000      2.000000
  0.307692  0.500000  0.000000      2.000000
  0.384615  0.500000  0.000000      2.000000
  0.461538  0.500000  0.000000      2.000000
  0.000000  0.000000  0.500000      1.000000
  0.076923 -0.000000  0.500000      2.000000
  0.153846 -0.000000  0.500000      2.000000
  0.230769 -0.000000  0.500000      2.000000
  0.307692 -0.000000  0.500000      2.000000
  0.384615 -0.000000  0.500000      2.000000
  0.461538 -0.000000  0.500000      2.000000
  0.000000  0.250000  0.500000      2.000000
  0.076923  0.250000  0.500000      2.000000
  0.153846  0.250000  0.500000      2.000000
  0.230769  0.250000  0.500000      2.000000
  0.307692  0.250000  0.500000      2.000000
  0.384615  0.250000  0.500000      2.000000
  0.461538  0.250000  0.500000      2.000000
 -0.461538  0.250000  0.500000      2.000000
 -0.384615  0.250000  0.500000      2.000000
 -0.307692  0.250000  0.500000      2.000000
 -0.230769  0.250000  0.500000      2.000000
 -0.153846  0.250000  0.500000      2.000000
 -0.076923  0.250000  0.500000      2.000000
  0.000000  0.500000  0.500000      1.000000
  0.076923  0.500000  0.500000      2.000000
  0.153846  0.500000  0.500000      2.000000
  0.230769  0.500000  0.500000      2.000000
  0.307692  0.500000  0.500000      2.000000
  0.384615  0.500000  0.500000      2.000000
  0.461538  0.500000  0.500000      2.000000
 
 Following cartesian coordinates:
            Coordinates               Weight
  0.000000  0.000000  0.000000      1.000000
  0.021727  0.003736  0.000000      2.000000
  0.043454  0.007472  0.000000      2.000000
  0.065182  0.011209  0.000000      2.000000
  0.086909  0.014945  0.000000      2.000000
  0.108636  0.018681  0.000000      2.000000
  0.130363  0.022417  0.000000      2.000000
  0.000000  0.024285  0.000000      2.000000
  0.021727  0.028021  0.000000      2.000000
  0.043454  0.031758  0.000000      2.000000
  0.065182  0.035494  0.000000      2.000000
  0.086909  0.039230  0.000000      2.000000
  0.108636  0.042966  0.000000      2.000000
  0.130363  0.046702  0.000000      2.000000
 -0.130363  0.001868  0.000000      2.000000
 -0.108636  0.005604  0.000000      2.000000
 -0.086909  0.009340  0.000000      2.000000
 -0.065182  0.013077  0.000000      2.000000
 -0.043454  0.016813  0.000000      2.000000
 -0.021727  0.020549  0.000000      2.000000
  0.000000  0.048570  0.000000      1.000000
  0.021727  0.052307  0.000000      2.000000
  0.043454  0.056043  0.000000      2.000000
  0.065182  0.059779  0.000000      2.000000
  0.086909  0.063515  0.000000      2.000000
  0.108636  0.067251  0.000000      2.000000
  0.130363  0.070987  0.000000      2.000000
  0.000000  0.000000  0.018181      1.000000
  0.021727  0.003736  0.018181      2.000000
  0.043454  0.007472  0.018181      2.000000
  0.065182  0.011209  0.018181      2.000000
  0.086909  0.014945  0.018181      2.000000
  0.108636  0.018681  0.018181      2.000000
  0.130363  0.022417  0.018181      2.000000
  0.000000  0.024285  0.018181      2.000000
  0.021727  0.028021  0.018181      2.000000
  0.043454  0.031758  0.018181      2.000000
  0.065182  0.035494  0.018181      2.000000
  0.086909  0.039230  0.018181      2.000000
  0.108636  0.042966  0.018181      2.000000
  0.130363  0.046702  0.018181      2.000000
 -0.130363  0.001868  0.018181      2.000000
 -0.108636  0.005604  0.018181      2.000000
 -0.086909  0.009340  0.018181      2.000000
 -0.065182  0.013077  0.018181      2.000000
 -0.043454  0.016813  0.018181      2.000000
 -0.021727  0.020549  0.018181      2.000000
  0.000000  0.048570  0.018181      1.000000
  0.021727  0.052307  0.018181      2.000000
  0.043454  0.056043  0.018181      2.000000
  0.065182  0.059779  0.018181      2.000000
  0.086909  0.063515  0.018181      2.000000
  0.108636  0.067251  0.018181      2.000000
  0.130363  0.070987  0.018181      2.000000
 


--------------------------------------------------------------------------------------------------------




 Dimension of arrays:
   k-points           NKPTS =     54   k-points in BZ     NKDIM =     54   number of bands    NBANDS=     68
   number of dos      NEDOS =    301   number of ions     NIONS =     24
   non local maximal  LDIM  =      4   non local SUM 2l+1 LMDIM =      8
   total plane-waves  NPLWV = 192000
   max r-space proj   IRMAX =   2772   max aug-charges    IRDMAX=   6603
   dimension x,y,z NGX =    20 NGY =   60 NGZ =  160
   dimension x,y,z NGXF=    40 NGYF=  120 NGZF=  320
   support grid    NGXF=    40 NGYF=  120 NGZF=  320
   ions per type =              12  12
 NGX,Y,Z   is equivalent  to a cutoff of   9.39,  9.55,  9.67 a.u.
 NGXF,Y,Z  is equivalent  to a cutoff of  18.78, 19.10, 19.34 a.u.


 I would recommend the setting:
   dimension x,y,z NGX =    20 NGY =   59 NGZ =  155
 SYSTEM =  unknown system                          
 POSCAR =  Si12                                    

 Startparameter for this run:
   NWRITE =      2    write-flag & timer
   PREC   = accura    normal or accurate (medium, high low for compatibility)
   ISTART =      0    job   : 0-new  1-cont  2-samecut
   ICHARG =      2    charge: 1-file 2-atom 10-const
   ISPIN  =      1    spin polarized calculation?
   LNONCOLLINEAR =      F non collinear calculations
   LSORBIT =      F    spin-orbit coupling
   INIWAV =      1    electr: 0-lowe 1-rand  2-diag
   LASPH  =      F    aspherical Exc in radial PAW
   METAGGA=      F    non-selfconsistent MetaGGA calc.

 Electronic Relaxation 1
   ENCUT  =  300.0 eV  22.05 Ry    4.70 a.u.   5.00 14.75 38.84*2*pi/ulx,y,z
   ENINI  =  300.0     initial cutoff
   ENAUG  =  342.9 eV  augmentation charge cutoff
   NELM   =     60;   NELMIN=  2; NELMDL= -5     # of ELM steps 
   EDIFF  = 0.1E-05   stopping-criterion for ELM
   LREAL  =      T    real-space projection
   NLSPLINE    = F    spline interpolate recip. space projectors
   LCOMPAT=      F    compatible to vasp.4.4
   GGA_COMPAT  = T    GGA compatible to vasp.4.4-vasp.4.6
   LMAXPAW     = -100 max onsite density
   LMAXMIX     =    2 max onsite mixed and CHGCAR
   VOSKOWN=      0    Vosko Wilk Nusair interpolation
   ROPT   =   -0.00025  -0.00025
 Ionic relaxation
   EDIFFG = 0.1E-04   stopping-criterion for IOM
   NSW    =      0    number of steps for IOM
   NBLOCK =      1;   KBLOCK =      1    inner block; outer block 
   IBRION =     -1    ionic relax: 0-MD 1-quasi-New 2-CG
   NFREE  =      1    steps in history (QN), initial steepest desc. (CG)
   ISIF   =      3    stress and relaxation
   IWAVPR =     10    prediction:  0-non 1-charg 2-wave 3-comb
   ISYM   =      2    0-nonsym 1-usesym 2-fastsym
   LCORR  =      T    Harris-Foulkes like correction to forces

   POTIM  = 0.5000    time-step for ionic-motion
   TEIN   =    0.0    initial temperature
   TEBEG  =    0.0;   TEEND  =   0.0 temperature during run
   SMASS  =  -3.00    Nose mass-parameter (am)
   estimated Nose-frequenzy (Omega)   =  0.10E-29 period in steps =****** mass=  -0.286E-27a.u.
   SCALEE = 1.0000    scale energy and forces
   NPACO  =    256;   APACO  = 16.0  distance and # of slots for P.C.
   PSTRESS=    0.0 pullay stress

  Mass of Ions in am
   POMASS =  30.97 28.09
  Ionic Valenz
   ZVAL   =   5.00  4.00
  Atomic Wigner-Seitz radii
   RWIGS  =  -1.00 -1.00
  virtual crystal weights 
   VCA    =   1.00  1.00
   NELECT =     108.0000    total number of electrons
   NUPDOWN=      -1.0000    fix difference up-down

 DOS related values:
   EMIN   =  10.00;   EMAX   =-10.00  energy-range for DOS
   EFERMI =   0.00
   ISMEAR =     0;   SIGMA  =   0.10  broadening in eV -4-tet -1-fermi 0-gaus

 Electronic relaxation 2 (details)
   IALGO  =     38    algorithm
   LDIAG  =      T    sub-space diagonalisation (order eigenvalues)
   LSUBROT=      F    optimize rotation matrix (better conditioning)
   TURBO    =      0    0=normal 1=particle mesh
   IRESTART =      0    0=no restart 2=restart with 2 vectors
   NREBOOT  =      0    no. of reboots
   NMIN     =      0    reboot dimension
   EREF     =   0.00    reference energy to select bands
   IMIX   =      4    mixing-type and parameters
     AMIX     =   0.40;   BMIX     =  1.00
     AMIX_MAG =   1.60;   BMIX_MAG =  1.00
     AMIN     =   0.10
     WC   =   100.;   INIMIX=   1;  MIXPRE=   1;  MAXMIX= -45

 Intra band minimization:
   WEIMIN = 0.0000     energy-eigenvalue tresh-hold
   EBREAK =  0.37E-08  absolut break condition
   DEPER  =   0.30     relativ break condition  

   TIME   =   0.40     timestep for ELM

  volume/ion in A,a.u.               =      41.76       281.83
  Fermi-wavevector in a.u.,A,eV,Ry     =   0.779018  1.472130  8.256946  0.606868
  Thomas-Fermi vector in A             =   1.882034
 
 Write flags
   LWAVE  =      F    write WAVECAR
   LCHARG =      F    write CHGCAR
   LVTOT  =      F    write LOCPOT, total local potential
   LVHAR  =      F    write LOCPOT, Hartree potential only
   LELF   =      F    write electronic localiz. function (ELF)
   LORBIT =      0    0 simple, 1 ext, 2 COOP (PROOUT)


 Dipole corrections
   LMONO  =      F    monopole corrections only (constant potential shift)
   LDIPOL =      F    correct potential (dipole corrections)
   IDIPOL =      0    1-x, 2-y, 3-z, 4-all directions 
   EPSILON=  1.0000000 bulk dielectric constant

 Exchange correlation treatment:
   GGA     =    BO    GGA type
   LEXCH   =    42    internal setting for exchange type
   VOSKOWN=      0    Vosko Wilk Nusair interpolation
   LHFCALC =     F    Hartree Fock is set to
   LHFONE  =     F    Hartree Fock one center treatment
   AEXX    =    0.0000 exact exchange contribution

 vdW DFT:
   LUSE_VDW   =     T    switch on vdW DFT
   Zab_VDW    =-.8491    correlation parameter
   PARAM1     =0.1833
   PARAM2     =0.2200
   PARAM3     =0.0000

 Linear response parameters
   LEPSILON=     F    determine dielectric tensor
   LRPA    =     F    only Hartree local field effects (RPA)
   LNABLA  =     F    use nabla operator in PAW spheres
   LVEL    =     F    velocity operator in full k-point grid
   LINTERFAST=   F  fast interpolation
   KINTER  =     0    interpolate to denser k-point grid
   CSHIFT  =0.1000    complex shift for real part using Kramers Kronig
   OMEGAMAX=  -1.0    maximum frequency
   DEG_THRESHOLD= 0.2000000E-02 threshold for treating states as degnerate
   RTIME   =    0.100 relaxation time in fs

 Orbital magnetization related:
   ORBITALMAG=     F  switch on orbital magnetization
   LCHIMAG   =     F  perturbation theory with respect to B field
   DQ        =  0.001000  dq finite difference perturbation B field



--------------------------------------------------------------------------------------------------------


 Static calculation
 charge density and potential will be updated during run
 non-spin polarized calculation
 Variant of blocked Davidson
 Davidson routine will perform the subspace rotation
 perform sub-space diagonalisation
    after iterative eigenvector-optimisation
 modified Broyden-mixing scheme, WC =      100.0
 initial mixing is a Kerker type mixing with AMIX =  0.4000 and BMIX =      1.0000
 Hartree-type preconditioning will be used
 using additional bands           14
 real space projection scheme for non local part
 use partial core corrections
 calculate Harris-corrections to forces 
   (improved forces if not selfconsistent)
 use gradient corrections 
 use of overlap-Matrix (Vanderbilt PP)
 Gauss-broadening in eV      SIGMA  =   0.10


--------------------------------------------------------------------------------------------------------


  energy-cutoff  :      300.00
  volume of cell :     1002.32
      direct lattice vectors                 reciprocal lattice vectors
     3.540400000  0.000000000  0.000000000     0.282453960  0.048570342  0.000000000
    -1.770200000 10.294348000  0.000000000     0.000000000  0.097140683  0.000000000
     0.000000000  0.000000000 27.501429000     0.000000000  0.000000000  0.036361747

  length of vectors
     3.540400000 10.445439617 27.501429000     0.286599577  0.097140683  0.036361747


 
 k-points in units of 2pi/SCALE and weight: pymatgen generated KPOINTS with grid den
   0.00000000  0.00000000  0.00000000       0.010
   0.02172723  0.00373618  0.00000000       0.019
   0.04345446  0.00747236  0.00000000       0.019
   0.06518168  0.01120854  0.00000000       0.019
   0.08690891  0.01494472  0.00000000       0.019
   0.10863614  0.01868090  0.00000000       0.019
   0.13036337  0.02241708  0.00000000       0.019
   0.00000000  0.02428517  0.00000000       0.019
   0.02172723  0.02802135  0.00000000       0.019
   0.04345446  0.03175753  0.00000000       0.019
   0.06518168  0.03549371  0.00000000       0.019
   0.08690891  0.03922989  0.00000000       0.019
   0.10863614  0.04296607  0.00000000       0.019
   0.13036337  0.04670225  0.00000000       0.019
  -0.13036337  0.00186809  0.00000000       0.019
  -0.10863614  0.00560427  0.00000000       0.019
  -0.08690891  0.00934045  0.00000000       0.019
  -0.06518168  0.01307663  0.00000000       0.019
  -0.04345446  0.01681281  0.00000000       0.019
  -0.02172723  0.02054899  0.00000000       0.019
   0.00000000  0.04857034  0.00000000       0.010
   0.02172723  0.05230652  0.00000000       0.019
   0.04345446  0.05604270  0.00000000       0.019
   0.06518168  0.05977888  0.00000000       0.019
   0.08690891  0.06351506  0.00000000       0.019
   0.10863614  0.06725124  0.00000000       0.019
   0.13036337  0.07098742  0.00000000       0.019
   0.00000000  0.00000000  0.01818087       0.010
   0.02172723  0.00373618  0.01818087       0.019
   0.04345446  0.00747236  0.01818087       0.019
   0.06518168  0.01120854  0.01818087       0.019
   0.08690891  0.01494472  0.01818087       0.019
   0.10863614  0.01868090  0.01818087       0.019
   0.13036337  0.02241708  0.01818087       0.019
   0.00000000  0.02428517  0.01818087       0.019
   0.02172723  0.02802135  0.01818087       0.019
   0.04345446  0.03175753  0.01818087       0.019
   0.06518168  0.03549371  0.01818087       0.019
   0.08690891  0.03922989  0.01818087       0.019
   0.10863614  0.04296607  0.01818087       0.019
   0.13036337  0.04670225  0.01818087       0.019
  -0.13036337  0.00186809  0.01818087       0.019
  -0.10863614  0.00560427  0.01818087       0.019
  -0.08690891  0.00934045  0.01818087       0.019
  -0.06518168  0.01307663  0.01818087       0.019
  -0.04345446  0.01681281  0.01818087       0.019
  -0.02172723  0.02054899  0.01818087       0.019
   0.00000000  0.04857034  0.01818087       0.010
   0.02172723  0.05230652  0.01818087       0.019
   0.04345446  0.05604270  0.01818087       0.019
   0.06518168  0.05977888  0.01818087       0.019
   0.08690891  0.06351506  0.01818087       0.019
   0.10863614  0.06725124  0.01818087       0.019
   0.13036337  0.07098742  0.01818087       0.019
 
 k-points in reciprocal lattice and weights: pymatgen generated KPOINTS with grid den
   0.00000000  0.00000000  0.00000000       0.010
   0.07692308 -0.00000000  0.00000000       0.019
   0.15384615 -0.00000000  0.00000000       0.019
   0.23076923 -0.00000000  0.00000000       0.019
   0.30769231 -0.00000000  0.00000000       0.019
   0.38461538 -0.00000000  0.00000000       0.019
   0.46153846 -0.00000000  0.00000000       0.019
   0.00000000  0.25000000  0.00000000       0.019
   0.07692308  0.25000000  0.00000000       0.019
   0.15384615  0.25000000  0.00000000       0.019
   0.23076923  0.25000000  0.00000000       0.019
   0.30769231  0.25000000  0.00000000       0.019
   0.38461538  0.25000000  0.00000000       0.019
   0.46153846  0.25000000  0.00000000       0.019
  -0.46153846  0.25000000  0.00000000       0.019
  -0.38461538  0.25000000  0.00000000       0.019
  -0.30769231  0.25000000  0.00000000       0.019
  -0.23076923  0.25000000  0.00000000       0.019
  -0.15384615  0.25000000  0.00000000       0.019
  -0.07692308  0.25000000  0.00000000       0.019
   0.00000000  0.50000000  0.00000000       0.010
   0.07692308  0.50000000  0.00000000       0.019
   0.15384615  0.50000000  0.00000000       0.019
   0.23076923  0.50000000  0.00000000       0.019
   0.30769231  0.50000000  0.00000000       0.019
   0.38461538  0.50000000  0.00000000       0.019
   0.46153846  0.50000000  0.00000000       0.019
   0.00000000  0.00000000  0.50000000       0.010
   0.07692308 -0.00000000  0.50000000       0.019
   0.15384615 -0.00000000  0.50000000       0.019
   0.23076923 -0.00000000  0.50000000       0.019
   0.30769231 -0.00000000  0.50000000       0.019
   0.38461538 -0.00000000  0.50000000       0.019
   0.46153846 -0.00000000  0.50000000       0.019
   0.00000000  0.25000000  0.50000000       0.019
   0.07692308  0.25000000  0.50000000       0.019
   0.15384615  0.25000000  0.50000000       0.019
   0.23076923  0.25000000  0.50000000       0.019
   0.30769231  0.25000000  0.50000000       0.019
   0.38461538  0.25000000  0.50000000       0.019
   0.46153846  0.25000000  0.50000000       0.019
  -0.46153846  0.25000000  0.50000000       0.019
  -0.38461538  0.25000000  0.50000000       0.019
  -0.30769231  0.25000000  0.50000000       0.019
  -0.23076923  0.25000000  0.50000000       0.019
  -0.15384615  0.25000000  0.50000000       0.019
  -0.07692308  0.25000000  0.50000000       0.019
   0.00000000  0.50000000  0.50000000       0.010
   0.07692308  0.50000000  0.50000000       0.019
   0.15384615  0.50000000  0.50000000       0.019
   0.23076923  0.50000000  0.50000000       0.019
   0.30769231  0.50000000  0.50000000       0.019
   0.38461538  0.50000000  0.50000000       0.019
   0.46153846  0.50000000  0.50000000       0.019
 
 position of ions in fractional coordinates (direct lattice) 
   0.11402300  0.22804500  0.23316207
   0.21402300  0.62804500  0.51499159
   0.45808900  0.91617900  0.20939482
   0.55808900  0.31617900  0.49122434
   0.31085400  0.62170900  0.08414979
   0.31085400  0.62170900  0.36597930
   0.99923000  0.99846000  0.08631254
   0.99923000  0.99846000  0.36814206
   0.65492700  0.30985400  0.06041748
   0.65492700  0.30985400  0.34224700
   0.76973800  0.53947500  0.20725292
   0.86973800  0.93947500  0.48908244
   0.93971600  0.87943300  0.15783749
   0.03971600  0.27943300  0.43966701
   0.20515200  0.41030300  0.18578822
   0.30515200  0.81030300  0.46761774
   0.20184900  0.40369900  0.09969156
   0.20184900  0.40369900  0.38152107
   0.56380500  0.12761000  0.10779021
   0.56380500  0.12761000  0.38961973
   0.56710600  0.13421200  0.19387616
   0.66710600  0.53421200  0.47570568
   0.82923400  0.65846800  0.13571444
   0.92923400  0.05846800  0.41754396
 
 position of ions in cartesian coordinates  (Angst):
   0.00000177  2.34757459  6.41229012
  -0.35403823  6.46531379 14.16300462
  -0.00000177  9.43146546  5.75865686
   1.41615823  3.25485666 13.50937136
  -0.00000177  6.40008880  2.31423934
  -0.00000177  6.40008880 10.06495384
   1.77020000 10.27849470  2.37371832
   1.77020000 10.27849470 10.12443282
   1.77020000  3.18974491  1.66156717
   1.77020000  3.18974491  9.41228167
   1.77020177  5.55354339  5.69975143
   1.41616177  9.67128259 13.45046593
   1.77019823  9.05318934  4.34075665
  -0.35404177  2.87658054 12.09147115
   0.00000177  4.22380187  5.10944151
  -0.35403823  8.34154107 12.86015601
  -0.00000177  4.15581799  2.74166024
  -0.00000177  4.15581799 10.49237474
   1.77020000  1.31366175  2.96438477
   1.77020000  1.31366175 10.71509927
   1.77020000  1.38162503  5.33187152
   1.41616000  5.49936423 13.08258602
   1.77020000  6.77849874  3.73234107
   3.18636000  0.60188994 11.48305557
 


--------------------------------------------------------------------------------------------------------


 k-point  1 :   0.0000 0.0000 0.0000  plane waves:   11717
 k-point  2 :   0.0769-0.0000 0.0000  plane waves:   11762
 k-point  3 :   0.1538-0.0000 0.0000  plane waves:   11805
 k-point  4 :   0.2308-0.0000 0.0000  plane waves:   11824
 k-point  5 :   0.3077-0.0000 0.0000  plane waves:   11875
 k-point  6 :   0.3846-0.0000 0.0000  plane waves:   11864
 k-point  7 :   0.4615-0.0000 0.0000  plane waves:   11883
 k-point  8 :   0.0000 0.2500 0.0000  plane waves:   11683
 k-point  9 :   0.0769 0.2500 0.0000  plane waves:   11756
 k-point 10 :   0.1538 0.2500 0.0000  plane waves:   11807
 k-point 11 :   0.2308 0.2500 0.0000  plane waves:   11853
 k-point 12 :   0.3077 0.2500 0.0000  plane waves:   11866
 k-point 13 :   0.3846 0.2500 0.0000  plane waves:   11889
 k-point 14 :   0.4615 0.2500 0.0000  plane waves:   11885
 k-point 15 :  -0.4615 0.2500 0.0000  plane waves:   11886
 k-point 16 :  -0.3846 0.2500 0.0000  plane waves:   11867
 k-point 17 :  -0.3077 0.2500 0.0000  plane waves:   11849
 k-point 18 :  -0.2308 0.2500 0.0000  plane waves:   11827
 k-point 19 :  -0.1538 0.2500 0.0000  plane waves:   11801
 k-point 20 :  -0.0769 0.2500 0.0000  plane waves:   11757
 k-point 21 :   0.0000 0.5000 0.0000  plane waves:   11710
 k-point 22 :   0.0769 0.5000 0.0000  plane waves:   11762
 k-point 23 :   0.1538 0.5000 0.0000  plane waves:   11782
 k-point 24 :   0.2308 0.5000 0.0000  plane waves:   11841
 k-point 25 :   0.3077 0.5000 0.0000  plane waves:   11876
 k-point 26 :   0.3846 0.5000 0.0000  plane waves:   11889
 k-point 27 :   0.4615 0.5000 0.0000  plane waves:   11881
 k-point 28 :   0.0000 0.0000 0.5000  plane waves:   11698
 k-point 29 :   0.0769-0.0000 0.5000  plane waves:   11752
 k-point 30 :   0.1538-0.0000 0.5000  plane waves:   11800
 k-point 31 :   0.2308-0.0000 0.5000  plane waves:   11834
 k-point 32 :   0.3077-0.0000 0.5000  plane waves:   11850
 k-point 33 :   0.3846-0.0000 0.5000  plane waves:   11888
 k-point 34 :   0.4615-0.0000 0.5000  plane waves:   11896
 k-point 35 :   0.0000 0.2500 0.5000  plane waves:   11714
 k-point 36 :   0.0769 0.2500 0.5000  plane waves:   11754
 k-point 37 :   0.1538 0.2500 0.5000  plane waves:   11802
 k-point 38 :   0.2308 0.2500 0.5000  plane waves:   11840
 k-point 39 :   0.3077 0.2500 0.5000  plane waves:   11858
 k-point 40 :   0.3846 0.2500 0.5000  plane waves:   11896
 k-point 41 :   0.4615 0.2500 0.5000  plane waves:   11886
 k-point 42 :  -0.4615 0.2500 0.5000  plane waves:   11852
 k-point 43 :  -0.3846 0.2500 0.5000  plane waves:   11838
 k-point 44 :  -0.3077 0.2500 0.5000  plane waves:   11842
 k-point 45 :  -0.2308 0.2500 0.5000  plane waves:   11840
 k-point 46 :  -0.1538 0.2500 0.5000  plane waves:   11804
 k-point 47 :  -0.0769 0.2500 0.5000  plane waves:   11748
 k-point 48 :   0.0000 0.5000 0.5000  plane waves:   11724
 k-point 49 :   0.0769 0.5000 0.5000  plane waves:   11748
 k-point 50 :   0.1538 0.5000 0.5000  plane waves:   11814
 k-point 51 :   0.2308 0.5000 0.5000  plane waves:   11832
 k-point 52 :   0.3077 0.5000 0.5000  plane waves:   11868
 k-point 53 :   0.3846 0.5000 0.5000  plane waves:   11892
 k-point 54 :   0.4615 0.5000 0.5000  plane waves:   11878

 maximum and minimum number of plane-waves per node :      5964     5832

 maximum number of plane-waves:     11896
 maximum index in each direction: 
   IXMAX=    5   IYMAX=   14   IZMAX=   38
   IXMIN=   -5   IYMIN=  -15   IZMIN=  -39

 WARNING: aliasing errors must be expected set NGX to  22 to avoid them
 NGY is ok and might be reduce to  60
 NGZ is ok and might be reduce to 156
 aliasing errors are usually negligible using standard VASP settings
 and one can safely disregard these warnings

 real space projection operators:
  total allocation   :       3793.25 KBytes
  max/ min on nodes  :       1899.38       1893.88


 parallel 3D FFT for wavefunctions:
    minimum data exchange during FFTs selected (reduces bandwidth)
 parallel 3D FFT for charge:
    minimum data exchange during FFTs selected (reduces bandwidth)


 total amount of memory used by VASP on root node   146493. kBytes
========================================================================

   base      :      30000. kBytes
   nonlr-proj:       3452. kBytes
   fftplans  :       9347. kBytes
   grid      :      14649. kBytes
   one-center:         36. kBytes
   wavefun   :      89009. kBytes
 
     INWAV:  cpu time    0.00: real time    0.00
 Broyden mixing: mesh for mixing (old mesh)
   NGX =  9   NGY = 29   NGZ = 77
  (NGX  = 40   NGY  =120   NGZ  =320)
  gives a total of  20097 points

 initial charge density was supplied:
 charge density of overlapping atoms calculated
 number of electron     108.0000000 magnetization 
 keeping initial charge density in first step


--------------------------------------------------------------------------------------------------------


 Maximum index for non-local projection operator         1333
 Maximum index for augmentation-charges          822 (set IRDMAX)


--------------------------------------------------------------------------------------------------------


 First call to EWALD:  gamma=   0.177
 Maximum number of real-space cells 7x 3x 1
 Maximum number of reciprocal cells 1x 3x 7

 FEWALD executed in parallel
    FEWALD:  cpu time    0.00: real time    0.00


----------------------------------------- Iteration    1(   1)  ---------------------------------------


vdW kernel read from vdw_kernel.bindat
  0.0000  0.2424  0.5071  0.7962  1.1119  1.4567  1.8333  2.2446  2.6937  3.1842
  3.7199  4.3049  4.9438  5.6415  6.4036  7.2358  8.1446  9.1372 10.2212 11.4050
 12.6979 14.1099 15.6519 17.3360 19.1751 21.1837 23.3773 25.7729 28.3892 31.2465
 34.3669 37.7748 41.4965 45.5611 50.0000
 
    POTLOK:  cpu time   16.09: real time   16.14
    SETDIJ:  cpu time    0.01: real time    0.01
     EDDAV:  cpu time   58.79: real time   58.84
       DOS:  cpu time    0.01: real time    0.01
    --------------------------------------------
      LOOP:  cpu time   74.90: real time   75.01

 eigenvalue-minimisations  :  7376
 total energy-change (2. order) : 0.5120324E+03  (-0.2879888E+04)
 number of electron     108.0000000 magnetization 
 augmentation part      108.0000000 magnetization 

 Free energy of the ion-electron system (eV)
  ---------------------------------------------------
  alpha Z        PSCENC =        36.80884744
  Ewald energy   TEWEN  =     12031.20034843
  -Hartree energ DENC   =    -15047.24848397
  -exchange      EXHF   =         0.00000000
  -V(xc)+E(xc)   XCENC  =       -86.86018930
  PAW double counting   =      1056.43050070     -732.41190547
  entropy T*S    EENTRO =        -0.04755897
  eigenvalues    EBANDS =       -99.88041055
  atomic energy  EATOM  =      3354.04126044
  ---------------------------------------------------
  free energy    TOTEN  =       512.03240876 eV

  energy without entropy =      512.07996773  energy(sigma->0) =      512.05618825


--------------------------------------------------------------------------------------------------------




----------------------------------------- Iteration    1(   2)  ---------------------------------------


     EDDAV:  cpu time   73.11: real time   73.16
       DOS:  cpu time    0.01: real time    0.01
    --------------------------------------------
      LOOP:  cpu time   73.12: real time   73.17

 eigenvalue-minimisations  :  9732
 total energy-change (2. order) :-0.5700690E+03  (-0.5547264E+03)
 number of electron     108.0000000 magnetization 
 augmentation part      108.0000000 magnetization 

 Free energy of the ion-electron system (eV)
  ---------------------------------------------------
  alpha Z        PSCENC =        36.80884744
  Ewald energy   TEWEN  =     12031.20034843
  -Hartree energ DENC   =    -15047.24848397
  -exchange      EXHF   =         0.00000000
  -V(xc)+E(xc)   XCENC  =       -86.86018930
  PAW double counting   =      1056.43050070     -732.41190547
  entropy T*S    EENTRO =        -0.01172155
  eigenvalues    EBANDS =      -669.98528146
  atomic energy  EATOM  =      3354.04126044
  ---------------------------------------------------
  free energy    TOTEN  =       -58.03662473 eV

  energy without entropy =      -58.02490318  energy(sigma->0) =      -58.03076395


--------------------------------------------------------------------------------------------------------




----------------------------------------- Iteration    1(   3)  ---------------------------------------


     EDDAV:  cpu time   68.15: real time   68.18
       DOS:  cpu time    0.01: real time    0.01
    --------------------------------------------
      LOOP:  cpu time   68.16: real time   68.19

 eigenvalue-minimisations  :  8908
 total energy-change (2. order) :-0.5860826E+02  (-0.5772938E+02)
 number of electron     108.0000000 magnetization 
 augmentation part      108.0000000 magnetization 

 Free energy of the ion-electron system (eV)
  ---------------------------------------------------
  alpha Z        PSCENC =        36.80884744
  Ewald energy   TEWEN  =     12031.20034843
  -Hartree energ DENC   =    -15047.24848397
  -exchange      EXHF   =         0.00000000
  -V(xc)+E(xc)   XCENC  =       -86.86018930
  PAW double counting   =      1056.43050070     -732.41190547
  entropy T*S    EENTRO =        -0.01299768
  eigenvalues    EBANDS =      -728.59226553
  atomic energy  EATOM  =      3354.04126044
  ---------------------------------------------------
  free energy    TOTEN  =      -116.64488493 eV

  energy without entropy =     -116.63188725  energy(sigma->0) =     -116.63838609


--------------------------------------------------------------------------------------------------------




----------------------------------------- Iteration    1(   4)  ---------------------------------------


     EDDAV:  cpu time   82.58: real time   82.64
       DOS:  cpu time    0.01: real time    0.01
    --------------------------------------------
      LOOP:  cpu time   82.59: real time   82.65

 eigenvalue-minimisations  : 11304
 total energy-change (2. order) :-0.2771830E+01  (-0.2754079E+01)
 number of electron     108.0000000 magnetization 
 augmentation part      108.0000000 magnetization 

 Free energy of the ion-electron system (eV)
  ---------------------------------------------------
  alpha Z        PSCENC =        36.80884744
  Ewald energy   TEWEN  =     12031.20034843
  -Hartree energ DENC   =    -15047.24848397
  -exchange      EXHF   =         0.00000000
  -V(xc)+E(xc)   XCENC  =       -86.86018930
  PAW double counting   =      1056.43050070     -732.41190547
  entropy T*S    EENTRO =        -0.01533769
  eigenvalues    EBANDS =      -731.36175579
  atomic energy  EATOM  =      3354.04126044
  ---------------------------------------------------
  free energy    TOTEN  =      -119.41671520 eV

  energy without entropy =     -119.40137751  energy(sigma->0) =     -119.40904635


--------------------------------------------------------------------------------------------------------




----------------------------------------- Iteration    1(   5)  ---------------------------------------


     EDDAV:  cpu time   73.79: real time   73.84
       DOS:  cpu time    0.01: real time    0.01
    CHARGE:  cpu time    4.06: real time    4.06
    MIXING:  cpu time    0.01: real time    0.01
    --------------------------------------------
      LOOP:  cpu time   77.87: real time   77.92

 eigenvalue-minimisations  :  9836
 total energy-change (2. order) :-0.5032744E-01  (-0.5024714E-01)
 number of electron     107.9999995 magnetization 
 augmentation part       -9.7093379 magnetization 

 Broyden mixing:
  rms(total) = 0.12946E+01    rms(broyden)= 0.12943E+01
  rms(prec ) = 0.14091E+01
  weight for this iteration     100.00

 Free energy of the ion-electron system (eV)
  ---------------------------------------------------
  alpha Z        PSCENC =        36.80884744
  Ewald energy   TEWEN  =     12031.20034843
  -Hartree energ DENC   =    -15047.24848397
  -exchange      EXHF   =         0.00000000
  -V(xc)+E(xc)   XCENC  =       -86.86018930
  PAW double counting   =      1056.43050070     -732.41190547
  entropy T*S    EENTRO =        -0.01541525
  eigenvalues    EBANDS =      -731.41200567
  atomic energy  EATOM  =      3354.04126044
  ---------------------------------------------------
  free energy    TOTEN  =      -119.46704264 eV

  energy without entropy =     -119.45162738  energy(sigma->0) =     -119.45933501


--------------------------------------------------------------------------------------------------------




----------------------------------------- Iteration    1(   6)  ---------------------------------------


    POTLOK:  cpu time   14.67: real time   14.69
    SETDIJ:  cpu time    0.01: real time    0.01
     EDDAV:  cpu time   68.39: real time   68.42
       DOS:  cpu time    0.01: real time    0.01
    CHARGE:  cpu time    4.07: real time    4.07
    MIXING:  cpu time    0.01: real time    0.01
    --------------------------------------------
      LOOP:  cpu time   87.16: real time   87.21

 eigenvalue-minimisations  :  8868
 total energy-change (2. order) : 0.5443122E+01  (-0.1748603E+01)
 number of electron     107.9999995 magnetization 
 augmentation part       -9.5314576 magnetization 

 Broyden mixing:
  rms(total) = 0.64790E+00    rms(broyden)= 0.64787E+00
  rms(prec ) = 0.68581E+00
  weight for this iteration     100.00

 eigenvalues of (default mixing * dielectric matrix)
  average eigenvalue GAMMA=   1.6735
  1.6735

 Free energy of the ion-electron system (eV)
  ---------------------------------------------------
  alpha Z        PSCENC =        36.80884744
  Ewald energy   TEWEN  =     12031.20034843
  -Hartree energ DENC   =    -15106.22044683
  -exchange      EXHF   =         0.00000000
  -V(xc)+E(xc)   XCENC  =       -83.39383569
  PAW double counting   =      1131.27841059     -809.43618118
  entropy T*S    EENTRO =        -0.02633692
  eigenvalues    EBANDS =      -668.27598708
  atomic energy  EATOM  =      3354.04126044
  ---------------------------------------------------
  free energy    TOTEN  =      -114.02392079 eV

  energy without entropy =     -113.99758387  energy(sigma->0) =     -114.01075233


--------------------------------------------------------------------------------------------------------




----------------------------------------- Iteration    1(   7)  ---------------------------------------


    POTLOK:  cpu time   14.68: real time   14.70
    SETDIJ:  cpu time    0.01: real time    0.01
     EDDAV:  cpu time   65.11: real time   65.15
       DOS:  cpu time    0.01: real time    0.01
    CHARGE:  cpu time    4.06: real time    4.06
    MIXING:  cpu time    0.01: real time    0.01
    --------------------------------------------
      LOOP:  cpu time   83.89: real time   83.95

 eigenvalue-minimisations  :  8332
 total energy-change (2. order) :-0.1786137E+00  (-0.1267778E+01)
 number of electron     107.9999995 magnetization 
 augmentation part       -9.4198110 magnetization 

 Broyden mixing:
  rms(total) = 0.28782E+00    rms(broyden)= 0.28774E+00
  rms(prec ) = 0.31169E+00
  weight for this iteration     100.00

 eigenvalues of (default mixing * dielectric matrix)
  average eigenvalue GAMMA=   1.2517
  0.9309  1.5725

 Free energy of the ion-electron system (eV)
  ---------------------------------------------------
  alpha Z        PSCENC =        36.80884744
  Ewald energy   TEWEN  =     12031.20034843
  -Hartree energ DENC   =    -15127.96745441
  -exchange      EXHF   =         0.00000000
  -V(xc)+E(xc)   XCENC  =       -80.43949560
  PAW double counting   =      1185.18780740     -864.88309966
  entropy T*S    EENTRO =        -0.01736359
  eigenvalues    EBANDS =      -648.13338495
  atomic energy  EATOM  =      3354.04126044
  ---------------------------------------------------
  free energy    TOTEN  =      -114.20253450 eV

  energy without entropy =     -114.18517091  energy(sigma->0) =     -114.19385270


--------------------------------------------------------------------------------------------------------




----------------------------------------- Iteration    1(   8)  ---------------------------------------


    POTLOK:  cpu time   14.66: real time   14.67
    SETDIJ:  cpu time    0.01: real time    0.01
     EDDAV:  cpu time   68.36: real time   68.41
       DOS:  cpu time    0.01: real time    0.01
    CHARGE:  cpu time    4.06: real time    4.06
    MIXING:  cpu time    0.01: real time    0.01
    --------------------------------------------
      LOOP:  cpu time   87.12: real time   87.17

 eigenvalue-minimisations  :  8864
 total energy-change (2. order) : 0.6117497E-01  (-0.1680979E+00)
 number of electron     107.9999996 magnetization 
 augmentation part       -9.4244357 magnetization 

 Broyden mixing:
  rms(total) = 0.18160E+00    rms(broyden)= 0.18159E+00
  rms(prec ) = 0.19676E+00
  weight for this iteration     100.00

 eigenvalues of (default mixing * dielectric matrix)
  average eigenvalue GAMMA=   1.3183
  1.5796  1.5796  0.7958

 Free energy of the ion-electron system (eV)
  ---------------------------------------------------
  alpha Z        PSCENC =        36.80884744
  Ewald energy   TEWEN  =     12031.20034843
  -Hartree energ DENC   =    -15138.09734050
  -exchange      EXHF   =         0.00000000
  -V(xc)+E(xc)   XCENC  =       -79.71521014
  PAW double counting   =      1192.36164228     -872.26223452
  entropy T*S    EENTRO =        -0.01925733
  eigenvalues    EBANDS =      -638.45941564
  atomic energy  EATOM  =      3354.04126044
  ---------------------------------------------------
  free energy    TOTEN  =      -114.14135953 eV

  energy without entropy =     -114.12210220  energy(sigma->0) =     -114.13173087


--------------------------------------------------------------------------------------------------------




----------------------------------------- Iteration    1(   9)  ---------------------------------------


    POTLOK:  cpu time   14.66: real time   14.68
    SETDIJ:  cpu time    0.01: real time    0.01
     EDDAV:  cpu time   69.16: real time   69.20
       DOS:  cpu time    0.01: real time    0.01
    CHARGE:  cpu time    4.06: real time    4.06
    MIXING:  cpu time    0.01: real time    0.01
    --------------------------------------------
      LOOP:  cpu time   87.92: real time   87.97

 eigenvalue-minimisations  :  9016
 total energy-change (2. order) :-0.1140197E-01  (-0.8533982E-01)
 number of electron     107.9999995 magnetization 
 augmentation part       -9.4247948 magnetization 

 Broyden mixing:
  rms(total) = 0.94429E-01    rms(broyden)= 0.94420E-01
  rms(prec ) = 0.11251E+00
  weight for this iteration     100.00

 eigenvalues of (default mixing * dielectric matrix)
  average eigenvalue GAMMA=   1.3039
  2.4232  1.1110  1.1110  0.5705

 Free energy of the ion-electron system (eV)
  ---------------------------------------------------
  alpha Z        PSCENC =        36.80884744
  Ewald energy   TEWEN  =     12031.20034843
  -Hartree energ DENC   =    -15139.76287219
  -exchange      EXHF   =         0.00000000
  -V(xc)+E(xc)   XCENC  =       -79.18223674
  PAW double counting   =      1196.79785189     -876.84279066
  entropy T*S    EENTRO =        -0.01837121
  eigenvalues    EBANDS =      -637.19479890
  atomic energy  EATOM  =      3354.04126044
  ---------------------------------------------------
  free energy    TOTEN  =      -114.15276150 eV

  energy without entropy =     -114.13439028  energy(sigma->0) =     -114.14357589


--------------------------------------------------------------------------------------------------------




----------------------------------------- Iteration    1(  10)  ---------------------------------------


    POTLOK:  cpu time   14.66: real time   14.67
    SETDIJ:  cpu time    0.01: real time    0.01
     EDDAV:  cpu time   68.42: real time   68.46
       DOS:  cpu time    0.01: real time    0.01
    CHARGE:  cpu time    4.06: real time    4.06
    MIXING:  cpu time    0.01: real time    0.01
    --------------------------------------------
      LOOP:  cpu time   87.17: real time   87.22

 eigenvalue-minimisations  :  8936
 total energy-change (2. order) :-0.1185013E-02  (-0.2425150E-01)
 number of electron     107.9999995 magnetization 
 augmentation part       -9.4178031 magnetization 

 Broyden mixing:
  rms(total) = 0.31786E-01    rms(broyden)= 0.31778E-01
  rms(prec ) = 0.35709E-01
  weight for this iteration     100.00

 eigenvalues of (default mixing * dielectric matrix)
  average eigenvalue GAMMA=   1.3024
  2.5278  1.2042  1.2042  1.0526  0.5230

 Free energy of the ion-electron system (eV)
  ---------------------------------------------------
  alpha Z        PSCENC =        36.80884744
  Ewald energy   TEWEN  =     12031.20034843
  -Hartree energ DENC   =    -15147.99450058
  -exchange      EXHF   =         0.00000000
  -V(xc)+E(xc)   XCENC  =       -78.64360424
  PAW double counting   =      1201.80086715     -881.99227086
  entropy T*S    EENTRO =        -0.01924992
  eigenvalues    EBANDS =      -629.35564438
  atomic energy  EATOM  =      3354.04126044
  ---------------------------------------------------
  free energy    TOTEN  =      -114.15394651 eV

  energy without entropy =     -114.13469659  energy(sigma->0) =     -114.14432155


--------------------------------------------------------------------------------------------------------




----------------------------------------- Iteration    1(  11)  ---------------------------------------


    POTLOK:  cpu time   14.65: real time   14.67
    SETDIJ:  cpu time    0.01: real time    0.01
     EDDAV:  cpu time   67.78: real time   67.82
       DOS:  cpu time    0.01: real time    0.01
    CHARGE:  cpu time    4.04: real time    4.04
    MIXING:  cpu time    0.01: real time    0.01
    --------------------------------------------
      LOOP:  cpu time   86.51: real time   86.57

 eigenvalue-minimisations  :  8832
 total energy-change (2. order) : 0.9885211E-02  (-0.2872029E-02)
 number of electron     107.9999995 magnetization 
 augmentation part       -9.4144792 magnetization 

 Broyden mixing:
  rms(total) = 0.14168E-01    rms(broyden)= 0.14166E-01
  rms(prec ) = 0.15586E-01
  weight for this iteration     100.00

 eigenvalues of (default mixing * dielectric matrix)
  average eigenvalue GAMMA=   1.3548
  2.5845  1.5969  1.2109  1.2109  1.0013  0.5240

 Free energy of the ion-electron system (eV)
  ---------------------------------------------------
  alpha Z        PSCENC =        36.80884744
  Ewald energy   TEWEN  =     12031.20034843
  -Hartree energ DENC   =    -15149.43190006
  -exchange      EXHF   =         0.00000000
  -V(xc)+E(xc)   XCENC  =       -78.54852574
  PAW double counting   =      1201.12669898     -881.30107209
  entropy T*S    EENTRO =        -0.01835024
  eigenvalues    EBANDS =      -628.02136847
  atomic energy  EATOM  =      3354.04126044
  ---------------------------------------------------
  free energy    TOTEN  =      -114.14406130 eV

  energy without entropy =     -114.12571106  energy(sigma->0) =     -114.13488618


--------------------------------------------------------------------------------------------------------




----------------------------------------- Iteration    1(  12)  ---------------------------------------


    POTLOK:  cpu time   14.76: real time   14.76
    SETDIJ:  cpu time    0.01: real time    0.01
     EDDAV:  cpu time   69.76: real time   69.81
       DOS:  cpu time    0.01: real time    0.01
    CHARGE:  cpu time    4.08: real time    4.09
    MIXING:  cpu time    0.01: real time    0.01
    --------------------------------------------
      LOOP:  cpu time   88.65: real time   88.70

 eigenvalue-minimisations  :  9096
 total energy-change (2. order) : 0.1037273E-01  (-0.1193517E-02)
 number of electron     107.9999995 magnetization 
 augmentation part       -9.4155888 magnetization 

 Broyden mixing:
  rms(total) = 0.88311E-02    rms(broyden)= 0.88287E-02
  rms(prec ) = 0.10254E-01
  weight for this iteration     100.00

 eigenvalues of (default mixing * dielectric matrix)
  average eigenvalue GAMMA=   1.3404
  2.6357  1.9150  1.1985  1.1985  0.9550  0.9550  0.5252

 Free energy of the ion-electron system (eV)
  ---------------------------------------------------
  alpha Z        PSCENC =        36.80884744
  Ewald energy   TEWEN  =     12031.20034843
  -Hartree energ DENC   =    -15150.54192895
  -exchange      EXHF   =         0.00000000
  -V(xc)+E(xc)   XCENC  =       -78.53257189
  PAW double counting   =      1199.36209769     -879.48910838
  entropy T*S    EENTRO =        -0.01857243
  eigenvalues    EBANDS =      -626.96406093
  atomic energy  EATOM  =      3354.04126044
  ---------------------------------------------------
  free energy    TOTEN  =      -114.13368857 eV

  energy without entropy =     -114.11511614  energy(sigma->0) =     -114.12440236


--------------------------------------------------------------------------------------------------------




----------------------------------------- Iteration    1(  13)  ---------------------------------------


    POTLOK:  cpu time   14.73: real time   14.74
    SETDIJ:  cpu time    0.01: real time    0.01
     EDDAV:  cpu time   69.13: real time   69.16
       DOS:  cpu time    0.01: real time    0.01
    CHARGE:  cpu time    4.06: real time    4.06
    MIXING:  cpu time    0.01: real time    0.01
    --------------------------------------------
      LOOP:  cpu time   87.96: real time   88.01

 eigenvalue-minimisations  :  9008
 total energy-change (2. order) : 0.4615284E-02  (-0.1618068E-03)
 number of electron     107.9999995 magnetization 
 augmentation part       -9.4167494 magnetization 

 Broyden mixing:
  rms(total) = 0.33413E-02    rms(broyden)= 0.33408E-02
  rms(prec ) = 0.44506E-02
  weight for this iteration     100.00

 eigenvalues of (default mixing * dielectric matrix)
  average eigenvalue GAMMA=   1.3748
  2.7002  2.1885  1.2391  1.2391  0.5251  1.1238  0.9913  0.9913

 Free energy of the ion-electron system (eV)
  ---------------------------------------------------
  alpha Z        PSCENC =        36.80884744
  Ewald energy   TEWEN  =     12031.20034843
  -Hartree energ DENC   =    -15151.25013994
  -exchange      EXHF   =         0.00000000
  -V(xc)+E(xc)   XCENC  =       -78.53345103
  PAW double counting   =      1198.56257581     -878.66875252
  entropy T*S    EENTRO =        -0.01857476
  eigenvalues    EBANDS =      -626.27118717
  atomic energy  EATOM  =      3354.04126044
  ---------------------------------------------------
  free energy    TOTEN  =      -114.12907329 eV

  energy without entropy =     -114.11049853  energy(sigma->0) =     -114.11978591


--------------------------------------------------------------------------------------------------------




----------------------------------------- Iteration    1(  14)  ---------------------------------------


    POTLOK:  cpu time   14.73: real time   14.74
    SETDIJ:  cpu time    0.01: real time    0.01
     EDDAV:  cpu time   69.56: real time   69.59
       DOS:  cpu time    0.01: real time    0.01
    CHARGE:  cpu time    4.09: real time    4.09
    MIXING:  cpu time    0.01: real time    0.01
    --------------------------------------------
      LOOP:  cpu time   88.42: real time   88.45

 eigenvalue-minimisations  :  9080
 total energy-change (2. order) : 0.3178036E-02  (-0.8403052E-04)
 number of electron     107.9999995 magnetization 
 augmentation part       -9.4170085 magnetization 

 Broyden mixing:
  rms(total) = 0.24033E-02    rms(broyden)= 0.24027E-02
  rms(prec ) = 0.32539E-02
  weight for this iteration     100.00

 eigenvalues of (default mixing * dielectric matrix)
  average eigenvalue GAMMA=   1.3822
  2.8065  2.3113  1.5191  1.1642  1.1642  0.5252  1.0178  1.0178  0.9137

 Free energy of the ion-electron system (eV)
  ---------------------------------------------------
  alpha Z        PSCENC =        36.80884744
  Ewald energy   TEWEN  =     12031.20034843
  -Hartree energ DENC   =    -15152.03591449
  -exchange      EXHF   =         0.00000000
  -V(xc)+E(xc)   XCENC  =       -78.53045371
  PAW double counting   =      1198.07306910     -878.16671871
  entropy T*S    EENTRO =        -0.01847521
  eigenvalues    EBANDS =      -625.49785854
  atomic energy  EATOM  =      3354.04126044
  ---------------------------------------------------
  free energy    TOTEN  =      -114.12589525 eV

  energy without entropy =     -114.10742004  energy(sigma->0) =     -114.11665765


--------------------------------------------------------------------------------------------------------




----------------------------------------- Iteration    1(  15)  ---------------------------------------


    POTLOK:  cpu time   14.74: real time   14.74
    SETDIJ:  cpu time    0.01: real time    0.01
     EDDAV:  cpu time   69.17: real time   69.18
       DOS:  cpu time    0.01: real time    0.01
    CHARGE:  cpu time    4.07: real time    4.07
    MIXING:  cpu time    0.01: real time    0.01
    --------------------------------------------
      LOOP:  cpu time   88.02: real time   88.04

 eigenvalue-minimisations  :  8976
 total energy-change (2. order) : 0.9218280E-03  (-0.1392260E-04)
 number of electron     107.9999995 magnetization 
 augmentation part       -9.4166742 magnetization 

 Broyden mixing:
  rms(total) = 0.12085E-02    rms(broyden)= 0.12084E-02
  rms(prec ) = 0.19578E-02
  weight for this iteration     100.00

 eigenvalues of (default mixing * dielectric matrix)
  average eigenvalue GAMMA=   1.4007
  2.9043  2.5268  1.2171  1.2171  1.4443  0.5252  1.1766  1.0158  0.9897  0.9897

 Free energy of the ion-electron system (eV)
  ---------------------------------------------------
  alpha Z        PSCENC =        36.80884744
  Ewald energy   TEWEN  =     12031.20034843
  -Hartree energ DENC   =    -15152.67949186
  -exchange      EXHF   =         0.00000000
  -V(xc)+E(xc)   XCENC  =       -78.52498072
  PAW double counting   =      1197.98802797     -878.07980994
  entropy T*S    EENTRO =        -0.01849857
  eigenvalues    EBANDS =      -624.86067662
  atomic energy  EATOM  =      3354.04126044
  ---------------------------------------------------
  free energy    TOTEN  =      -114.12497342 eV

  energy without entropy =     -114.10647485  energy(sigma->0) =     -114.11572414


--------------------------------------------------------------------------------------------------------




----------------------------------------- Iteration    1(  16)  ---------------------------------------


    POTLOK:  cpu time   14.77: real time   14.77
    SETDIJ:  cpu time    0.01: real time    0.01
     EDDAV:  cpu time   69.74: real time   69.75
       DOS:  cpu time    0.01: real time    0.01
    CHARGE:  cpu time    4.07: real time    4.08
    MIXING:  cpu time    0.01: real time    0.01
    --------------------------------------------
      LOOP:  cpu time   88.62: real time   88.64

 eigenvalue-minimisations  :  9048
 total energy-change (2. order) : 0.4635411E-03  (-0.1083479E-04)
 number of electron     107.9999995 magnetization 
 augmentation part       -9.4164338 magnetization 

 Broyden mixing:
  rms(total) = 0.10068E-02    rms(broyden)= 0.10066E-02
  rms(prec ) = 0.14467E-02
  weight for this iteration     100.00

 eigenvalues of (default mixing * dielectric matrix)
  average eigenvalue GAMMA=   1.5053
  3.3188  2.6008  2.2828  1.1812  1.1812  1.4453  0.5252  1.0004  1.0004  1.0111
  1.0111

 Free energy of the ion-electron system (eV)
  ---------------------------------------------------
  alpha Z        PSCENC =        36.80884744
  Ewald energy   TEWEN  =     12031.20034843
  -Hartree energ DENC   =    -15153.38426868
  -exchange      EXHF   =         0.00000000
  -V(xc)+E(xc)   XCENC  =       -78.52157059
  PAW double counting   =      1197.90999453     -878.00008080
  entropy T*S    EENTRO =        -0.01849003
  eigenvalues    EBANDS =      -624.16055063
  atomic energy  EATOM  =      3354.04126044
  ---------------------------------------------------
  free energy    TOTEN  =      -114.12450988 eV

  energy without entropy =     -114.10601985  energy(sigma->0) =     -114.11526487


--------------------------------------------------------------------------------------------------------




----------------------------------------- Iteration    1(  17)  ---------------------------------------


    POTLOK:  cpu time   14.75: real time   14.75
    SETDIJ:  cpu time    0.01: real time    0.01
     EDDAV:  cpu time   64.28: real time   64.29
       DOS:  cpu time    0.01: real time    0.01
    CHARGE:  cpu time    4.09: real time    4.09
    MIXING:  cpu time    0.01: real time    0.01
    --------------------------------------------
      LOOP:  cpu time   83.16: real time   83.17

 eigenvalue-minimisations  :  8168
 total energy-change (2. order) :-0.6742674E-03  (-0.1237305E-04)
 number of electron     107.9999995 magnetization 
 augmentation part       -9.4163876 magnetization 

 Broyden mixing:
  rms(total) = 0.44163E-03    rms(broyden)= 0.44157E-03
  rms(prec ) = 0.68417E-03
  weight for this iteration     100.00

 eigenvalues of (default mixing * dielectric matrix)
  average eigenvalue GAMMA=   1.5425
  4.1093  2.7003  2.1958  1.1817  1.1817  1.3470  1.3470  0.5252  1.0161  1.0161
  0.9177  0.9723

 Free energy of the ion-electron system (eV)
  ---------------------------------------------------
  alpha Z        PSCENC =        36.80884744
  Ewald energy   TEWEN  =     12031.20034843
  -Hartree energ DENC   =    -15154.11794869
  -exchange      EXHF   =         0.00000000
  -V(xc)+E(xc)   XCENC  =       -78.51751793
  PAW double counting   =      1197.94346341     -878.03473608
  entropy T*S    EENTRO =        -0.01849367
  eigenvalues    EBANDS =      -623.43040751
  atomic energy  EATOM  =      3354.04126044
  ---------------------------------------------------
  free energy    TOTEN  =      -114.12518415 eV

  energy without entropy =     -114.10669048  energy(sigma->0) =     -114.11593731


--------------------------------------------------------------------------------------------------------




----------------------------------------- Iteration    1(  18)  ---------------------------------------


    POTLOK:  cpu time   14.75: real time   14.75
    SETDIJ:  cpu time    0.01: real time    0.01
     EDDAV:  cpu time   67.00: real time   67.02
       DOS:  cpu time    0.01: real time    0.01
    CHARGE:  cpu time    4.09: real time    4.09
    MIXING:  cpu time    0.01: real time    0.01
    --------------------------------------------
      LOOP:  cpu time   85.88: real time   85.90

 eigenvalue-minimisations  :  8600
 total energy-change (2. order) :-0.1087104E-03  (-0.7402342E-05)
 number of electron     107.9999995 magnetization 
 augmentation part       -9.4163466 magnetization 

 Broyden mixing:
  rms(total) = 0.27914E-03    rms(broyden)= 0.27910E-03
  rms(prec ) = 0.43997E-03
  weight for this iteration     100.00

 eigenvalues of (default mixing * dielectric matrix)
  average eigenvalue GAMMA=   1.6809
  5.2214  2.7293  2.3096  2.3096  1.1776  1.1776  0.5252  1.2592  1.2592  0.9956
  0.9956  0.9456  0.9456

 Free energy of the ion-electron system (eV)
  ---------------------------------------------------
  alpha Z        PSCENC =        36.80884744
  Ewald energy   TEWEN  =     12031.20034843
  -Hartree energ DENC   =    -15154.39553296
  -exchange      EXHF   =         0.00000000
  -V(xc)+E(xc)   XCENC  =       -78.51631714
  PAW double counting   =      1197.93379761     -878.02473240
  entropy T*S    EENTRO =        -0.01849464
  eigenvalues    EBANDS =      -623.15446965
  atomic energy  EATOM  =      3354.04126044
  ---------------------------------------------------
  free energy    TOTEN  =      -114.12529286 eV

  energy without entropy =     -114.10679822  energy(sigma->0) =     -114.11604554


--------------------------------------------------------------------------------------------------------




----------------------------------------- Iteration    1(  19)  ---------------------------------------


    POTLOK:  cpu time   14.76: real time   14.76
    SETDIJ:  cpu time    0.01: real time    0.01
     EDDAV:  cpu time   60.75: real time   60.76
       DOS:  cpu time    0.01: real time    0.01
    CHARGE:  cpu time    4.08: real time    4.08
    MIXING:  cpu time    0.01: real time    0.01
    --------------------------------------------
      LOOP:  cpu time   79.62: real time   79.64

 eigenvalue-minimisations  :  7584
 total energy-change (2. order) :-0.1806814E-03  (-0.8243331E-05)
 number of electron     107.9999995 magnetization 
 augmentation part       -9.4163490 magnetization 

 Broyden mixing:
  rms(total) = 0.15335E-03    rms(broyden)= 0.15333E-03
  rms(prec ) = 0.24842E-03
  weight for this iteration     100.00

 eigenvalues of (default mixing * dielectric matrix)
  average eigenvalue GAMMA=   1.7116
  6.1598  2.8803  2.5229  1.8809  1.1783  1.1783  1.3322  1.3322  0.5252  0.9970
  0.9970  1.0328  1.0328  0.9131

 Free energy of the ion-electron system (eV)
  ---------------------------------------------------
  alpha Z        PSCENC =        36.80884744
  Ewald energy   TEWEN  =     12031.20034843
  -Hartree energ DENC   =    -15154.67114904
  -exchange      EXHF   =         0.00000000
  -V(xc)+E(xc)   XCENC  =       -78.51504164
  PAW double counting   =      1197.94585041     -878.03683968
  entropy T*S    EENTRO =        -0.01849561
  eigenvalues    EBANDS =      -622.88025430
  atomic energy  EATOM  =      3354.04126044
  ---------------------------------------------------
  free energy    TOTEN  =      -114.12547354 eV

  energy without entropy =     -114.10697793  energy(sigma->0) =     -114.11622574


--------------------------------------------------------------------------------------------------------




----------------------------------------- Iteration    1(  20)  ---------------------------------------


    POTLOK:  cpu time   14.78: real time   14.79
    SETDIJ:  cpu time    0.01: real time    0.01
     EDDAV:  cpu time   54.40: real time   54.41
       DOS:  cpu time    0.01: real time    0.01
    CHARGE:  cpu time    4.09: real time    4.09
    MIXING:  cpu time    0.01: real time    0.01
    --------------------------------------------
      LOOP:  cpu time   73.31: real time   73.33

 eigenvalue-minimisations  :  6504
 total energy-change (2. order) :-0.7990522E-04  (-0.7927872E-06)
 number of electron     107.9999995 magnetization 
 augmentation part       -9.4163345 magnetization 

 Broyden mixing:
  rms(total) = 0.10435E-03    rms(broyden)= 0.10434E-03
  rms(prec ) = 0.18398E-03
  weight for this iteration     100.00

 eigenvalues of (default mixing * dielectric matrix)
  average eigenvalue GAMMA=   1.7523
  6.6251  2.8942  2.6136  1.8371  1.8371  1.1825  1.1825  1.3585  1.3585  0.5252
  0.9889  0.9889  0.9771  0.9578  0.9578

 Free energy of the ion-electron system (eV)
  ---------------------------------------------------
  alpha Z        PSCENC =        36.80884744
  Ewald energy   TEWEN  =     12031.20034843
  -Hartree energ DENC   =    -15154.73899444
  -exchange      EXHF   =         0.00000000
  -V(xc)+E(xc)   XCENC  =       -78.51471767
  PAW double counting   =      1197.95804337     -878.04935158
  entropy T*S    EENTRO =        -0.01849313
  eigenvalues    EBANDS =      -622.81249632
  atomic energy  EATOM  =      3354.04126044
  ---------------------------------------------------
  free energy    TOTEN  =      -114.12555345 eV

  energy without entropy =     -114.10706032  energy(sigma->0) =     -114.11630688


--------------------------------------------------------------------------------------------------------




----------------------------------------- Iteration    1(  21)  ---------------------------------------


    POTLOK:  cpu time   14.78: real time   14.79
    SETDIJ:  cpu time    0.01: real time    0.01
     EDDAV:  cpu time   57.14: real time   57.15
       DOS:  cpu time    0.01: real time    0.01
    CHARGE:  cpu time    4.08: real time    4.08
    MIXING:  cpu time    0.01: real time    0.02
    --------------------------------------------
      LOOP:  cpu time   76.05: real time   76.06

 eigenvalue-minimisations  :  6996
 total energy-change (2. order) : 0.2111994E-04  (-0.2417019E-05)
 number of electron     107.9999995 magnetization 
 augmentation part       -9.4163267 magnetization 

 Broyden mixing:
  rms(total) = 0.66214E-04    rms(broyden)= 0.66210E-04
  rms(prec ) = 0.11141E-03
  weight for this iteration     100.00

 eigenvalues of (default mixing * dielectric matrix)
  average eigenvalue GAMMA=   1.7754
  6.8080  3.2473  2.6689  2.3761  1.1811  1.1811  1.5800  1.4135  1.4135  0.5252
  0.9841  0.9841  1.1008  1.1008  0.9211  0.9211

 Free energy of the ion-electron system (eV)
  ---------------------------------------------------
  alpha Z        PSCENC =        36.80884744
  Ewald energy   TEWEN  =     12031.20034843
  -Hartree energ DENC   =    -15154.82503410
  -exchange      EXHF   =         0.00000000
  -V(xc)+E(xc)   XCENC  =       -78.51445351
  PAW double counting   =      1197.95261796     -878.04373660
  entropy T*S    EENTRO =        -0.01849526
  eigenvalues    EBANDS =      -622.72688714
  atomic energy  EATOM  =      3354.04126044
  ---------------------------------------------------
  free energy    TOTEN  =      -114.12553233 eV

  energy without entropy =     -114.10703707  energy(sigma->0) =     -114.11628470


--------------------------------------------------------------------------------------------------------




----------------------------------------- Iteration    1(  22)  ---------------------------------------


    POTLOK:  cpu time   14.77: real time   14.77
    SETDIJ:  cpu time    0.01: real time    0.01
     EDDAV:  cpu time   56.21: real time   56.22
       DOS:  cpu time    0.01: real time    0.01
    CHARGE:  cpu time    4.11: real time    4.11
    MIXING:  cpu time    0.01: real time    0.02
    --------------------------------------------
      LOOP:  cpu time   75.13: real time   75.14

 eigenvalue-minimisations  :  6856
 total energy-change (2. order) : 0.1392680E-04  (-0.1177804E-05)
 number of electron     107.9999995 magnetization 
 augmentation part       -9.4163297 magnetization 

 Broyden mixing:
  rms(total) = 0.55063E-04    rms(broyden)= 0.55060E-04
  rms(prec ) = 0.77400E-04
  weight for this iteration     100.00

 eigenvalues of (default mixing * dielectric matrix)
  average eigenvalue GAMMA=   1.8966
  7.2049  4.4695  2.8599  2.5655  2.0889  1.1824  1.1824  1.3474  1.3474  0.5252
  1.4419  0.9856  0.9856  1.0797  1.0797  0.9477  0.9477

 Free energy of the ion-electron system (eV)
  ---------------------------------------------------
  alpha Z        PSCENC =        36.80884744
  Ewald energy   TEWEN  =     12031.20034843
  -Hartree energ DENC   =    -15154.83424375
  -exchange      EXHF   =         0.00000000
  -V(xc)+E(xc)   XCENC  =       -78.51459869
  PAW double counting   =      1197.95069240     -878.04175281
  entropy T*S    EENTRO =        -0.01849585
  eigenvalues    EBANDS =      -622.71757602
  atomic energy  EATOM  =      3354.04126044
  ---------------------------------------------------
  free energy    TOTEN  =      -114.12551840 eV

  energy without entropy =     -114.10702255  energy(sigma->0) =     -114.11627048


--------------------------------------------------------------------------------------------------------




----------------------------------------- Iteration    1(  23)  ---------------------------------------


    POTLOK:  cpu time   14.76: real time   14.77
    SETDIJ:  cpu time    0.01: real time    0.01
     EDDAV:  cpu time   55.95: real time   55.96
       DOS:  cpu time    0.01: real time    0.01
    CHARGE:  cpu time    4.11: real time    4.11
    MIXING:  cpu time    0.02: real time    0.02
    --------------------------------------------
      LOOP:  cpu time   74.86: real time   74.88

 eigenvalue-minimisations  :  6792
 total energy-change (2. order) : 0.6713804E-04  (-0.1064769E-05)
 number of electron     107.9999995 magnetization 
 augmentation part       -9.4163312 magnetization 

 Broyden mixing:
  rms(total) = 0.26115E-04    rms(broyden)= 0.26113E-04
  rms(prec ) = 0.31711E-04
  weight for this iteration     100.00

 eigenvalues of (default mixing * dielectric matrix)
  average eigenvalue GAMMA=   1.9815
  7.7375  5.8173  2.8924  2.5489  2.0177  1.1812  1.1812  0.5252  1.3981  1.3981
  1.5080  1.5080  0.9918  0.9918  1.0938  0.9581  0.9590  0.9590

 Free energy of the ion-electron system (eV)
  ---------------------------------------------------
  alpha Z        PSCENC =        36.80884744
  Ewald energy   TEWEN  =     12031.20034843
  -Hartree energ DENC   =    -15154.85278280
  -exchange      EXHF   =         0.00000000
  -V(xc)+E(xc)   XCENC  =       -78.51469614
  PAW double counting   =      1197.94903898     -878.04010453
  entropy T*S    EENTRO =        -0.01849480
  eigenvalues    EBANDS =      -622.69886829
  atomic energy  EATOM  =      3354.04126044
  ---------------------------------------------------
  free energy    TOTEN  =      -114.12545126 eV

  energy without entropy =     -114.10695646  energy(sigma->0) =     -114.11620386


[...]
     31      -3.9990      2.00000
     32      -3.9662      2.00000
     33      -3.7122      2.00000
     34      -3.6751      2.00000
     35      -3.2639      2.00000
     36      -3.1961      2.00000
     37      -3.0706      2.00000
     38      -3.0261      2.00000
     39      -2.9836      2.00000
     40      -2.8044      2.00000
     41      -2.6056      2.00000
     42      -2.5090      2.00000
     43      -2.4835      2.00000
     44      -2.1682      2.00000
     45      -1.9769      2.00000
     46      -1.8760      2.00000
     47      -1.7427      2.00000
     48      -1.6762      2.00000
     49      -1.4051      2.00000
     50      -1.3412      2.00000
     51      -0.9977      2.00000
     52      -0.9754      2.00000
     53      -0.7683      2.00000
     54      -0.4126      1.99967
     55       0.1709      0.00000
     56       0.8895      0.00000
     57       1.1141      0.00000
     58       1.4657      0.00000
     59       1.6028      0.00000
     60       1.7199      0.00000
     61       2.1251      0.00000
     62       2.2606      0.00000
     63       2.5146      0.00000
     64       2.6328      0.00000
     65       2.7277      0.00000
     66       2.8378      0.00000
     67       3.0082      0.00000
     68       3.0803      0.00000

 k-point    52 :       0.3077    0.5000    0.5000
  band No.  band energies     occupation 
      1     -14.8280      2.00000
      2     -12.4776      2.00000
      3     -12.3950      2.00000
      4     -12.1317      2.00000
      5     -11.7974      2.00000
      6     -11.6043      2.00000
      7     -11.2994      2.00000
      8     -10.9826      2.00000
      9     -10.7775      2.00000
     10     -10.6724      2.00000
     11     -10.3612      2.00000
     12     -10.0384      2.00000
     13      -9.2956      2.00000
     14      -8.8890      2.00000
     15      -8.7985      2.00000
     16      -7.7396      2.00000
     17      -7.4980      2.00000
     18      -7.0317      2.00000
     19      -6.9398      2.00000
     20      -6.9252      2.00000
     21      -6.3674      2.00000
     22      -6.1561      2.00000
     23      -5.8955      2.00000
     24      -5.8354      2.00000
     25      -5.6439      2.00000
     26      -5.3301      2.00000
     27      -5.0603      2.00000
     28      -4.8662      2.00000
     29      -4.4997      2.00000
     30      -4.4418      2.00000
     31      -4.2836      2.00000
     32      -4.0540      2.00000
     33      -4.0267      2.00000
     34      -3.7884      2.00000
     35      -3.3329      2.00000
     36      -3.2225      2.00000
     37      -3.1055      2.00000
     38      -3.0422      2.00000
     39      -2.8928      2.00000
     40      -2.8416      2.00000
     41      -2.8041      2.00000
     42      -2.5269      2.00000
     43      -2.4681      2.00000
     44      -2.3194      2.00000
     45      -2.2244      2.00000
     46      -1.9399      2.00000
     47      -1.8544      2.00000
     48      -1.7901      2.00000
     49      -1.7125      2.00000
     50      -1.6541      2.00000
     51      -1.3273      2.00000
     52      -1.2525      2.00000
     53      -1.0532      2.00000
     54      -0.7073      2.00000
     55      -0.0502      0.12500
     56       0.6842      0.00000
     57       1.3118      0.00000
     58       1.3646      0.00000
     59       1.4620      0.00000
     60       1.6231      0.00000
     61       1.9228      0.00000
     62       2.1771      0.00000
     63       2.2138      0.00000
     64       2.4377      0.00000
     65       2.4897      0.00000
     66       2.5690      0.00000
     67       2.7648      0.00000
     68       2.9751      0.00000

 k-point    53 :       0.3846    0.5000    0.5000
  band No.  band energies     occupation 
      1     -14.4975      2.00000
      2     -12.0158      2.00000
      3     -11.9873      2.00000
      4     -11.6348      2.00000
      5     -11.4345      2.00000
      6     -11.2095      2.00000
      7     -10.9702      2.00000
      8     -10.7383      2.00000
      9     -10.5865      2.00000
     10     -10.5468      2.00000
     11     -10.4286      2.00000
     12     -10.3295      2.00000
     13      -9.4573      2.00000
     14      -9.1455      2.00000
     15      -8.8733      2.00000
     16      -8.2153      2.00000
     17      -7.7734      2.00000
     18      -7.5819      2.00000
     19      -7.3500      2.00000
     20      -7.1798      2.00000
     21      -6.8702      2.00000
     22      -6.6873      2.00000
     23      -6.6252      2.00000
     24      -6.2523      2.00000
     25      -5.5304      2.00000
     26      -5.2731      2.00000
     27      -5.0011      2.00000
     28      -4.6431      2.00000
     29      -4.4789      2.00000
     30      -4.3872      2.00000
     31      -4.1184      2.00000
     32      -4.0971      2.00000
     33      -4.0070      2.00000
     34      -3.8153      2.00000
     35      -3.5004      2.00000
     36      -3.4503      2.00000
     37      -3.1797      2.00000
     38      -3.1099      2.00000
     39      -3.0051      2.00000
     40      -2.9815      2.00000
     41      -2.8118      2.00000
     42      -2.7263      2.00000
     43      -2.6130      2.00000
     44      -2.4665      2.00000
     45      -2.2828      2.00000
     46      -2.1578      2.00000
     47      -2.0392      2.00000
     48      -1.8635      2.00000
     49      -1.8185      2.00000
     50      -1.7130      2.00000
     51      -1.5154      2.00000
     52      -1.4420      2.00000
     53      -1.3333      2.00000
     54      -0.7244      2.00000
     55      -0.2730      1.89406
     56       0.3761      0.00000
     57       1.2806      0.00000
     58       1.3578      0.00000
     59       1.5467      0.00000
     60       1.5943      0.00000
     61       1.8239      0.00000
     62       1.9189      0.00000
     63       2.0718      0.00000
     64       2.1514      0.00000
     65       2.2939      0.00000
     66       2.3740      0.00000
     67       2.6084      0.00000
     68       2.7170      0.00000

 k-point    54 :       0.4615    0.5000    0.5000
  band No.  band energies     occupation 
      1     -14.2616      2.00000
      2     -11.7773      2.00000
      3     -11.4552      2.00000
      4     -11.1364      2.00000
      5     -11.0979      2.00000
      6     -10.9122      2.00000
      7     -10.8238      2.00000
      8     -10.8133      2.00000
      9     -10.6884      2.00000
     10     -10.6041      2.00000
     11     -10.5885      2.00000
     12     -10.3583      2.00000
     13      -9.7730      2.00000
     14      -9.2347      2.00000
     15      -8.6324      2.00000
     16      -8.4051      2.00000
     17      -8.0851      2.00000
     18      -7.8518      2.00000
     19      -7.5843      2.00000
     20      -7.5258      2.00000
     21      -7.2566      2.00000
     22      -7.1484      2.00000
     23      -7.1248      2.00000
     24      -6.4117      2.00000
     25      -5.2053      2.00000
     26      -5.0116      2.00000
     27      -4.9054      2.00000
     28      -4.4774      2.00000
     29      -4.4410      2.00000
     30      -4.2423      2.00000
     31      -4.1118      2.00000
     32      -4.0241      2.00000
     33      -3.9122      2.00000
     34      -3.7615      2.00000
     35      -3.7231      2.00000
     36      -3.5462      2.00000
     37      -3.4607      2.00000
     38      -3.2366      2.00000
     39      -3.2210      2.00000
     40      -3.0260      2.00000
     41      -2.9383      2.00000
     42      -2.9019      2.00000
     43      -2.7060      2.00000
     44      -2.6401      2.00000
     45      -2.3398      2.00000
     46      -2.1677      2.00000
     47      -2.1001      2.00000
     48      -1.9328      2.00000
     49      -1.8225      2.00000
     50      -1.6435      2.00000
     51      -1.5887      2.00000
     52      -1.4819      2.00000
     53      -1.3804      2.00000
     54      -0.7708      2.00000
     55      -0.3406      1.98990
     56       0.1390      0.00003
     57       1.2107      0.00000
     58       1.3786      0.00000
     59       1.5339      0.00000
     60       1.6143      0.00000
     61       1.6562      0.00000
     62       1.8828      0.00000
     63       1.9510      0.00000
     64       2.0650      0.00000
     65       2.3086      0.00000
     66       2.4091      0.00000
     67       2.5038      0.00000
     68       2.6501      0.00000


--------------------------------------------------------------------------------------------------------


 soft charge-density along one line, spin component           1
         0         1         2         3         4         5         6         7         8         9
 total charge-density along one line
 
 pseudopotential strength for first ion, spin component:           1
 29.765   0.008  -0.001  -0.024   0.000  -0.000  -0.001  -0.000
  0.008   0.009  -0.000  -0.000  -0.000   0.000   0.000   0.000
 -0.001  -0.000   6.546  -0.001   0.000  -0.003   0.000   0.000
 -0.024  -0.000  -0.001   6.541   0.000   0.000  -0.002  -0.000
  0.000  -0.000   0.000   0.000   6.547   0.000  -0.000  -0.003
 -0.000   0.000  -0.003   0.000   0.000   0.015  -0.000  -0.000
 -0.001   0.000   0.000  -0.002  -0.000  -0.000   0.015  -0.000
 -0.000   0.000   0.000  -0.000  -0.003  -0.000  -0.000   0.015
 total augmentation occupancy for first ion, spin component:           1
  1.817  -0.354   0.006   0.259  -0.000   0.003   0.112   0.000
 -0.354   1.302   0.024   0.867   0.000   0.004  -0.434   0.000
  0.006   0.024   1.141   0.013  -0.000  -0.505   0.014   0.000
  0.259   0.867   0.013   1.295  -0.001   0.014  -0.420   0.000
 -0.000   0.000  -0.000  -0.001   1.143   0.000   0.000  -0.528
  0.003   0.004  -0.505   0.014   0.000   0.293  -0.015  -0.000
  0.112  -0.434   0.014  -0.420   0.000  -0.015   0.228  -0.000
  0.000   0.000   0.000   0.000  -0.528  -0.000  -0.000   0.327


------------------------ aborting loop because EDIFF is reached ----------------------------------------


    CHARGE:  cpu time    4.15: real time    4.15
    FORLOC:  cpu time    0.06: real time    0.06
    FORNL :  cpu time   18.02: real time   18.02
    STRESS:  cpu time   54.58: real time   54.59
    FORCOR:  cpu time   14.58: real time   14.58
    FORHAR:  cpu time    0.14: real time    0.14
    MIXING:  cpu time    0.02: real time    0.02
    OFIELD:  cpu time    0.00: real time    0.00

  FORCE on cell =-STRESS in cart. coord.  units (eV):
  Direction    XX          YY          ZZ          XY          YZ          ZX
  --------------------------------------------------------------------------------------
  Alpha Z    36.80885    36.80885    36.80885
  Ewald   14501.55436 13920.40494-16390.76652   -23.12772   -14.90404    -3.93680
  Hartree 14990.17800 14574.10483-14409.42410    -2.46634   -15.41015     0.11214
  E(xc)    -359.67879  -359.76484  -359.22600     0.30853    -0.04676     0.07465
  Local  -31044.11603-30066.11626 29209.44230    19.53723    37.22132     4.01170
  n-local  1166.13672  1171.84027  1179.01502    -6.95612     1.85131    -2.69261
  augment  -202.62590  -203.96802  -206.52109    -0.01382     0.29133     0.00639
  Kinetic   937.14432   941.05933   998.31619     1.28370     4.40644     0.72647
  Fock        0.00000     0.00000     0.00000     0.00000     0.00000     0.00000
  -------------------------------------------------------------------------------------
  Total      25.40152    14.36909    57.64464   -11.43453    13.40944    -1.69807
  in kB      40.60353    22.96855    92.14315   -18.27774    21.43457    -2.71431
  external pressure =       51.91 kB  Pullay stress =        0.00 kB


 VOLUME and BASIS-vectors are now :
 -----------------------------------------------------------------------------
  energy-cutoff  :      300.00
  volume of cell :     1002.32
      direct lattice vectors                 reciprocal lattice vectors
     3.540400000  0.000000000  0.000000000     0.282453960  0.048570342  0.000000000
    -1.770200000 10.294348000  0.000000000     0.000000000  0.097140683  0.000000000
     0.000000000  0.000000000 27.501429000     0.000000000  0.000000000  0.036361747

  length of vectors
     3.540400000 10.445439617 27.501429000     0.286599577  0.097140683  0.036361747


 FORCES acting on ions
    electron-ion (+dipol)            ewald-force                    non-local-force                 convergence-correction
 -----------------------------------------------------------------------------------------------
   -.531E-01 0.547E+01 0.335E+02   0.146E-01 -.528E+01 -.287E+02   0.228E-01 -.230E+00 -.483E+01   -.934E-08 -.606E-05 -.556E-05
   0.137E+00 -.132E+02 -.549E+03   -.189E+00 0.132E+02 0.553E+03   0.589E-01 0.451E-02 -.398E+01   0.332E-06 0.386E-05 0.245E-04
   0.402E-03 0.671E+02 0.492E+02   -.370E-02 -.686E+02 -.449E+02   0.273E-02 0.153E+01 -.416E+01   -.358E-08 -.176E-05 -.181E-05
   -.575E+00 0.256E+02 -.556E+03   0.201E+00 -.266E+02 0.559E+03   0.751E+00 0.125E+01 -.270E+01   -.524E-06 -.108E-04 0.842E-05
   -.338E-03 -.573E+02 0.526E+03   0.848E-04 0.589E+02 -.530E+03   0.208E-04 -.154E+01 0.428E+01   0.136E-07 -.839E-05 -.200E-04
   0.458E+00 -.834E+02 -.898E+02   -.117E+00 0.860E+02 0.866E+02   -.710E-01 -.273E+01 0.418E+01   -.344E-06 0.169E-04 0.472E-05
   -.192E-02 0.543E+02 0.526E+03   0.268E-04 -.562E+02 -.531E+03   -.452E-03 0.190E+01 0.416E+01   -.143E-07 0.546E-05 -.169E-04
   -.204E+02 0.154E+03 0.105E+02   0.213E+02 -.158E+03 -.133E+02   0.802E+01 -.114E+02 -.316E+02   -.110E-04 0.148E-04 0.450E-04
   0.811E-03 0.152E+01 0.572E+03   -.886E-04 -.172E+01 -.577E+03   0.857E-03 0.207E+00 0.477E+01   -.136E-06 0.273E-05 -.322E-04
   0.184E+01 -.385E+02 -.273E+01   -.184E+01 0.385E+02 -.151E+01   -.485E+00 -.225E+00 0.356E+01   0.372E-06 -.163E-04 0.111E-04
   0.301E-02 -.665E+02 0.562E+02   -.438E-03 0.684E+02 -.521E+02   -.997E-03 -.190E+01 -.402E+01   -.156E-07 0.389E-05 -.103E-04
   -.138E+00 -.874E+01 -.525E+03   -.400E-01 0.954E+01 0.528E+03   0.136E+00 -.112E+01 -.220E+01   -.219E-06 0.642E-05 0.193E-05
   0.135E-02 0.322E+02 0.209E+03   0.168E-03 -.343E+02 -.209E+03   0.113E-02 0.211E+01 0.346E+00   0.152E-07 -.409E-06 -.111E-04
   0.186E+01 -.656E+01 -.312E+03   0.259E+00 0.908E+01 0.308E+03   -.190E+01 -.333E+01 0.804E+01   0.680E-06 -.189E-04 0.688E-05
   -.255E-02 -.143E+02 0.139E+03   0.469E-03 0.146E+02 -.141E+03   -.897E-03 -.254E+00 0.254E+01   -.363E-08 -.143E-05 -.139E-04
   0.156E-01 0.172E+02 -.285E+03   -.109E+00 -.165E+02 0.285E+03   0.184E+00 -.796E+00 -.230E+00   0.129E-06 0.384E-05 0.282E-05
   0.124E-02 -.567E+01 0.346E+03   0.801E-04 0.614E+01 -.343E+03   -.773E-03 -.468E+00 -.254E+01   0.321E-07 -.124E-05 -.268E-04
   -.461E+01 -.750E+02 -.115E+03   0.367E+01 0.732E+02 0.119E+03   0.137E+01 0.482E+01 -.672E+01   -.790E-06 -.286E-05 0.155E-04
   -.333E-02 0.984E+01 0.336E+03   -.327E-04 -.101E+02 -.333E+03   -.154E-02 0.235E+00 -.257E+01   -.712E-08 0.304E-05 -.215E-04
   0.323E+02 0.105E+02 -.122E+03   -.296E+02 -.127E+02 0.127E+03   -.149E+02 0.849E+01 -.135E+02   0.664E-05 -.386E-04 0.119E-04
   0.333E-01 0.114E+02 0.129E+03   -.198E-02 -.118E+02 -.132E+03   -.276E-01 0.369E+00 0.252E+01   -.373E-09 -.276E-05 -.739E-05
   -.157E+01 -.263E+02 -.313E+03   0.137E+01 0.260E+02 0.313E+03   0.234E-01 0.460E+00 -.927E+00   -.128E-06 0.338E-05 0.149E-04
   0.320E-03 -.313E+02 0.253E+03   -.818E-04 0.334E+02 -.253E+03   0.186E-02 -.213E+01 -.358E+00   0.538E-08 0.975E-06 -.185E-04
   -.745E+01 0.338E+02 -.316E+03   0.504E+01 -.354E+02 0.309E+03   0.510E+01 0.876E+01 0.475E+02   0.403E-05 -.123E-04 -.329E-04
 -----------------------------------------------------------------------------------------------
   0.177E+01 -.401E+01 -.153E+01   -.151E-13 0.568E-13 0.171E-12   -.177E+01 0.401E+01 0.153E+01   -.931E-06 -.565E-04 -.712E-04
 
 
 POSITION                                       TOTAL-FORCE (eV/Angst)
 -----------------------------------------------------------------------------------
      0.00000      2.34757      6.41229        -0.015939     -0.041896     -0.023489
     -0.35404      6.46531     14.16300         0.006830     -0.029381      0.134642
     -0.00000      9.43147      5.75866        -0.000837     -0.016023      0.077047
      1.41616      3.25486     13.50937         0.376145      0.249901      0.342038
     -0.00000      6.40009      2.31424        -0.000497     -0.005152      0.010843
     -0.00000      6.40009     10.06495         0.270598     -0.191022      0.977743
      1.77020     10.27849      2.37372        -0.002606     -0.001588     -0.001871
      1.77020     10.27849     10.12443         8.904170    -15.118006    -34.430673
      1.77020      3.18974      1.66157         0.001314      0.001674      0.008628
      1.77020      3.18974      9.41228        -0.485875     -0.241428     -0.670644
      1.77020      5.55354      5.69975         0.001308      0.004367      0.088842
      1.41616      9.67128     13.45047        -0.042608     -0.320575      0.180285
      1.77020      9.05319      4.34076         0.002383      0.003383      0.008486
     -0.35404      2.87658     12.09147         0.225997     -0.812656      4.269003
      0.00000      4.22380      5.10944        -0.003240     -0.003247      0.044252
     -0.35404      8.34154     12.86016         0.090326     -0.007840     -0.213782
     -0.00000      4.15582      2.74166         0.000279      0.001723     -0.020123
     -0.00000      4.15582     10.49237         0.430116      2.963423     -3.133804
      1.77020      1.31366      2.96438        -0.005174     -0.018755     -0.007447
      1.77020      1.31366     10.71510       -12.273306      6.293891     -8.341576
      1.77020      1.38163      5.33187         0.003487     -0.006772     -0.007296
      1.41616      5.49936     13.08259        -0.173172      0.115314     -0.130438
      1.77020      6.77850      3.73234         0.001834      0.016145     -0.003823
      3.18636      0.60189     11.48306         2.688468      7.164518     40.843157
 -----------------------------------------------------------------------------------
    total drift:                                0.006363     -0.000366      0.004309


--------------------------------------------------------------------------------------------------------



  FREE ENERGIE OF THE ION-ELECTRON SYSTEM (eV)
  ---------------------------------------------------
  free  energy   TOTEN  =      -114.12540523 eV

  energy  without entropy=     -114.10691054  energy(sigma->0) =     -114.11615788
 


--------------------------------------------------------------------------------------------------------


    POTLOK:  cpu time   14.55: real time   14.56


--------------------------------------------------------------------------------------------------------


     LOOP+:  cpu time 2271.68: real time 2272.66
    4ORBIT:  cpu time    0.00: real time    0.00

 total amount of memory used by VASP on root node   146493. kBytes
========================================================================

   base      :      30000. kBytes
   nonlr-proj:       3452. kBytes
   fftplans  :       9347. kBytes
   grid      :      14649. kBytes
   one-center:         36. kBytes
   wavefun   :      89009. kBytes
 
  
  
 General timing and accounting informations for this job:
 ========================================================
  
                  Total CPU time used (sec):     2287.445
                            User time (sec):     2259.861
                          System time (sec):       27.584
                         Elapsed time (sec):     2289.626
  
                   Maximum memory used (kb):      335576.
                   Average memory used (kb):           0.
  
                          Minor page faults:      7987753
                          Major page faults:           12
                 Voluntary context switches:         1648
