   12   12   50    1
  0.7536529E+02  0.3544790E-09  0.1046356E-08  0.2474024E-08  0.5000000E-15
  1.000000000000000E-004
  CAR 
 unknown system                          
     54     54     36
 
  0.0000000E+00  0.0000000E+00  0.0000000E+00  0.9615385E-02
    1      -15.823871
    2      -15.088044
    3      -14.757417
    4      -14.366710
    5      -13.718981
    6      -13.275065
    7      -10.311865
    8      -10.112212
    9       -9.104306
   10       -8.774438
   11       -8.106108
   12       -7.015912
   13       -6.005201
   14       -5.888573
   15       -5.338668
   16       -5.323452
   17       -5.133506
   18       -4.733339
   19       -4.667808
   20       -4.342411
   21       -4.130631
   22       -4.016540
   23       -3.927583
   24       -3.868241
   25       -3.718489
   26       -3.510295
   27       -3.289069
   28       -1.145342
   29       -0.965177
   30       -0.582104
   31       -0.317260
   32       -0.131920
   33       -0.055450
   34        0.146170
   35        0.354083
   36        0.493994
 
  0.7692308E-01  0.0000000E+00  0.0000000E+00  0.1923077E-01
    1      -15.762497
    2      -15.035893
    3      -14.701782
    4      -14.304402
    5      -13.670126
    6      -13.226653
    7      -10.350678
    8      -10.073499
    9       -9.071512
   10       -8.768667
   11       -8.072455
   12       -7.020738
   13       -6.042943
   14       -5.917358
   15       -5.700294
   16       -5.546949
   17       -5.383943
   18       -5.019874
   19       -4.763937
   20       -4.487615
   21       -4.325850
   22       -4.254395
   23       -4.124459
   24       -4.012845
   25       -3.797005
   26       -3.454612
   27       -3.240188
   28       -0.739533
   29       -0.520260
   30       -0.157570
   31       -0.077346
   32        0.008216
   33        0.015949
   34        0.317064
   35        0.483901
   36        0.734311
 
  0.1538462E+00  0.1387779E-16  0.0000000E+00  0.1923077E-01
    1      -15.579484
    2      -14.880186
    3      -14.536934
    4      -14.121766
    5      -13.528426
    6      -13.087794
    7      -10.449798
    8      -10.030377
    9       -8.996154
   10       -8.780894
   11       -7.998112
   12       -7.144696
   13       -6.491935
   14       -6.363266
   15       -6.257807
   16       -5.969706
   17       -5.617188
   18       -5.402517
   19       -5.251020
   20       -5.120291
   21       -4.672418
   22       -4.435386
   23       -4.231272
   24       -4.045114
   25       -3.939157
   26       -3.501100
   27       -3.247086
   28       -0.352209
   29       -0.023836
   30        0.117003
   31        0.228344
   32        0.341691
   33        0.378971
   34        0.659259
   35        0.773742
   36        0.923147
 
  0.2307692E+00  0.2775558E-16  0.0000000E+00  0.1923077E-01
    1      -15.278370
    2      -14.623999
    3      -14.270138
    4      -13.833513
    5      -13.312103
    6      -12.884607
    7      -10.643195
    8      -10.105160
    9       -8.969496
   10       -8.914273
   11       -8.020811
   12       -7.620524
   13       -7.090049
   14       -6.883931
   15       -6.791243
   16       -6.457523
   17       -6.058044
   18       -5.748782
   19       -5.287451
   20       -5.265174
   21       -4.866602
   22       -4.721094
   23       -4.192264
   24       -4.111647
   25       -4.013592
   26       -3.744639
   27       -3.375011
   28       -0.442776
   29       -0.289846
   30       -0.016166
   31        0.075924
   32        0.395363
   33        0.579954
   34        0.604300
   35        0.671516
   36        0.955159
 
  0.3076923E+00  0.0000000E+00  0.0000000E+00  0.1923077E-01
    1      -14.866463
    2      -14.275827
    3      -13.918215
    4      -13.474344
    5      -13.068657
    6      -12.698656
    7      -10.939072
    8      -10.367300
    9       -9.276961
   10       -9.179903
   11       -8.450032
   12       -8.242798
   13       -7.489749
   14       -7.066322
   15       -6.981694
   16       -6.587229
   17       -6.498126
   18       -5.672477
   19       -5.369093
   20       -5.238070
   21       -5.019742
   22       -4.838136
   23       -4.347539
   24       -4.183118
   25       -4.150359
   26       -3.995617
   27       -3.574108
   28       -0.710099
   29       -0.504906
   30       -0.311255
   31       -0.046673
   32        0.078928
   33        0.392175
   34        0.540150
   35        0.841534
   36        1.066704
 
  0.3846154E+00  0.5551115E-16  0.0000000E+00  0.1923077E-01
    1      -14.357882
    2      -13.856909
    3      -13.519685
    4      -13.129814
    5      -12.915107
    6      -12.739184
    7      -11.115851
    8      -10.660419
    9       -9.743203
   10       -9.695086
   11       -9.047939
   12       -8.941810
   13       -7.490419
   14       -6.908844
   15       -6.807056
   16       -6.516617
   17       -6.350754
   18       -5.937576
   19       -5.551354
   20       -5.428042
   21       -5.049422
   22       -4.764007
   23       -4.564743
   24       -4.401371
   25       -4.312456
   26       -4.123150
   27       -3.666862
   28       -0.886620
   29       -0.581112
   30       -0.548892
   31       -0.215624
   32       -0.029478
   33        0.012129
   34        0.424920
   35        0.556256
   36        0.802250
 
  0.4615385E+00  0.5551115E-16  0.0000000E+00  0.1923077E-01
    1      -13.783701
    2      -13.434386
    3      -13.217419
    4      -13.129744
    5      -13.012004
    6      -12.919052
    7      -10.974920
    8      -10.722608
    9      -10.363574
   10       -9.851134
   11       -9.566993
   12       -9.467997
   13       -7.197438
   14       -6.785085
   15       -6.533967
   16       -6.335307
   17       -6.219104
   18       -6.116350
   19       -5.852644
   20       -5.538432
   21       -5.275323
   22       -4.966461
   23       -4.637297
   24       -4.472981
   25       -4.381669
   26       -3.972822
   27       -3.774206
   28       -0.912297
   29       -0.711557
   30       -0.630239
   31       -0.428272
   32       -0.204806
   33        0.112487
   34        0.201295
   35        0.450507
   36        0.621819
 
  0.0000000E+00  0.2500000E+00  0.0000000E+00  0.1923077E-01
    1      -15.767974
    2      -15.261757
    3      -14.755233
    4      -14.154771
    5      -13.763923
    6      -13.283972
    7      -10.800235
    8       -9.649515
    9       -8.952736
   10       -8.887031
   11       -8.028810
   12       -6.908096
   13       -6.304205
   14       -5.800658
   15       -5.526296
   16       -5.412045
   17       -4.996840
   18       -4.670151
   19       -4.642266
   20       -4.435036
   21       -4.259786
   22       -4.168711
   23       -3.913714
   24       -3.724095
   25       -3.649282
   26       -3.430029
   27       -3.214546
   28       -1.095500
   29       -0.919736
   30       -0.561525
   31       -0.448923
   32       -0.040203
   33        0.006987
   34        0.283317
   35        0.369225
   36        0.808792
 
  0.7692308E-01  0.2500000E+00  0.0000000E+00  0.1923077E-01
    1      -15.690899
    2      -15.242803
    3      -14.698105
    4      -14.054795
    5      -13.722508
    6      -13.239707
    7      -10.859201
    8       -9.598386
    9       -8.961471
   10       -8.815462
   11       -7.980801
   12       -6.957214
   13       -6.366931
   14       -5.917797
   15       -5.695466
   16       -5.607268
   17       -5.303185
   18       -4.978003
   19       -4.774764
   20       -4.595800
   21       -4.436107
   22       -4.294327
   23       -4.120963
   24       -4.034780
   25       -3.646054
   26       -3.367137
   27       -3.169993
   28       -0.697109
   29       -0.504493
   30       -0.345046
   31       -0.073380
   32        0.094307
   33        0.241316
   34        0.367672
   35        0.677128
   36        0.703986
 
  0.1538462E+00  0.2500000E+00  0.0000000E+00  0.1923077E-01
    1      -15.494043
    2      -15.106519
    3      -14.531796
    4      -13.856604
    5      -13.583038
    6      -13.098466
    7      -10.925535
    8       -9.570595
    9       -8.939012
   10       -8.783162
   11       -7.934935
   12       -7.115520
   13       -6.664260
   14       -6.571446
   15       -6.249619
   16       -5.896446
   17       -5.518979
   18       -5.261598
   19       -5.235722
   20       -5.043644
   21       -4.883869
   22       -4.599797
   23       -4.237746
   24       -4.170744
   25       -3.772834
   26       -3.423336
   27       -3.183550
   28       -0.627760
   29       -0.172031
   30        0.052531
   31        0.320179
   32        0.447720
   33        0.583382
   34        0.784378
   35        0.815318
   36        0.978849
 
  0.2307692E+00  0.2500000E+00  0.0000000E+00  0.1923077E-01
    1      -15.182256
    2      -14.855486
    3      -14.264238
    4      -13.579678
    5      -13.361300
    6      -12.881104
    7      -11.057495
    8       -9.666259
    9       -8.978327
   10       -8.927573
   11       -8.105386
   12       -7.485474
   13       -7.311232
   14       -6.947320
   15       -6.829709
   16       -6.291924
   17       -6.009018
   18       -5.501578
   19       -5.373828
   20       -5.233251
   21       -4.890898
   22       -4.811289
   23       -4.274815
   24       -4.178118
   25       -4.056482
   26       -3.671053
   27       -3.326068
   28       -0.851871
   29       -0.692420
   30       -0.060378
   31        0.267782
   32        0.407131
   33        0.682226
   34        0.768770
   35        0.969849
   36        1.039830
 
  0.3076923E+00  0.2500000E+00  0.0000000E+00  0.1923077E-01
    1      -14.765035
    2      -14.496888
    3      -13.913126
    4      -13.265675
    5      -13.097715
    6      -12.675405
    7      -11.257218
    8       -9.986602
    9       -9.398110
   10       -9.242049
   11       -8.473906
   12       -8.198162
   13       -7.662823
   14       -7.221667
   15       -6.700414
   16       -6.604851
   17       -6.294921
   18       -5.623915
   19       -5.294050
   20       -5.161863
   21       -5.039639
   22       -4.770247
   23       -4.599321
   24       -4.249520
   25       -4.165624
   26       -4.026493
   27       -3.580341
   28       -1.055429
   29       -1.001072
   30       -0.132331
   31       -0.008058
   32        0.174902
   33        0.351627
   34        0.681441
   35        0.873486
   36        1.172744
 
  0.3846154E+00  0.2500000E+00  0.0000000E+00  0.1923077E-01
    1      -14.260902
    2      -14.047408
    3      -13.518271
    4      -13.007469
    5      -12.886489
    6      -12.752144
    7      -11.247399
    8      -10.393006
    9      -10.065521
   10       -9.637406
   11       -8.977631
   12       -8.945450
   13       -7.625964
   14       -7.068079
   15       -6.722557
   16       -6.392341
   17       -6.143367
   18       -5.638258
   19       -5.558133
   20       -5.407770
   21       -5.182307
   22       -4.897076
   23       -4.588888
   24       -4.440125
   25       -4.355620
   26       -4.135789
   27       -3.722086
   28       -1.085129
   29       -0.937673
   30       -0.471785
   31       -0.284217
   32       -0.119537
   33        0.323051
   34        0.392603
   35        0.662082
   36        0.798852
 
  0.4615385E+00  0.2500000E+00  0.0000000E+00  0.1923077E-01
    1      -13.710624
    2      -13.552645
    3      -13.232648
    4      -13.147675
    5      -12.984096
    6      -12.863601
    7      -10.841528
    8      -10.685184
    9      -10.610367
   10       -9.796514
   11       -9.595318
   12       -9.428921
   13       -7.302813
   14       -6.753116
   15       -6.472197
   16       -6.408476
   17       -6.213048
   18       -5.946318
   19       -5.769559
   20       -5.546771
   21       -5.265044
   22       -4.916152
   23       -4.878984
   24       -4.435609
   25       -4.399464
   26       -3.958590
   27       -3.804948
   28       -0.861100
   29       -0.764947
   30       -0.710504
   31       -0.538367
   32       -0.210125
   33        0.162229
   34        0.219166
   35        0.452308
   36        0.624550
 
 -0.4615385E+00  0.2500000E+00  0.0000000E+00  0.1923077E-01
    1      -13.817838
    2      -13.358078
    3      -13.202703
    4      -13.096640
    5      -13.033876
    6      -12.991242
    7      -11.043228
    8      -10.716408
    9      -10.228316
   10       -9.884553
   11       -9.565350
   12       -9.503669
   13       -7.011804
   14       -6.860986
   15       -6.641004
   16       -6.280782
   17       -6.273805
   18       -6.164557
   19       -5.922930
   20       -5.634115
   21       -5.076881
   22       -4.958936
   23       -4.659673
   24       -4.447826
   25       -4.403244
   26       -3.962259
   27       -3.751269
   28       -0.918755
   29       -0.647409
   30       -0.506957
   31       -0.502194
   32       -0.066921
   33        0.090779
   34        0.290096
   35        0.334033
   36        0.528474
 
 -0.3846154E+00  0.2500000E+00  0.0000000E+00  0.1923077E-01
    1      -14.384699
    2      -13.772683
    3      -13.517635
    4      -13.209603
    5      -12.918296
    6      -12.734592
    7      -11.026870
    8      -10.774866
    9       -9.720827
   10       -9.612100
   11       -9.098957
   12       -8.945051
   13       -7.326252
   14       -7.123049
   15       -6.684408
   16       -6.552325
   17       -6.365312
   18       -6.003996
   19       -5.687567
   20       -5.443908
   21       -4.984454
   22       -4.782146
   23       -4.525867
   24       -4.393617
   25       -4.231441
   26       -4.101831
   27       -3.649977
   28       -0.923546
   29       -0.488901
   30       -0.380853
   31       -0.167382
   32       -0.011665
   33        0.142777
   34        0.316388
   35        0.429627
   36        0.653369
 
 -0.3076923E+00  0.2500000E+00  0.0000000E+00  0.1923077E-01
    1      -14.878868
    2      -14.234384
    3      -13.917888
    4      -13.520614
    5      -13.060489
    6      -12.704711
    7      -10.839808
    8      -10.470484
    9       -9.281743
   10       -9.149569
   11       -8.444208
   12       -8.251606
   13       -7.426734
   14       -7.161625
   15       -6.927130
   16       -6.586549
   17       -6.520671
   18       -5.737781
   19       -5.368555
   20       -5.233501
   21       -5.034616
   22       -4.826096
   23       -4.309391
   24       -4.167794
   25       -4.146420
   26       -3.989184
   27       -3.576030
   28       -0.678503
   29       -0.379287
   30       -0.301049
   31       -0.023197
   32        0.094253
   33        0.396474
   34        0.449474
   35        0.751877
   36        0.887973
 
 -0.2307692E+00  0.2500000E+00  0.0000000E+00  0.1923077E-01
    1      -15.274094
    2      -14.638607
    3      -14.270142
    4      -13.816250
    5      -13.315810
    6      -12.883197
    7      -10.683693
    8      -10.063217
    9       -8.968326
   10       -8.917826
   11       -8.022981
   12       -7.615589
   13       -7.111284
   14       -6.877197
   15       -6.794480
   16       -6.452946
   17       -6.052896
   18       -5.729333
   19       -5.289907
   20       -5.258791
   21       -4.887662
   22       -4.723961
   23       -4.183440
   24       -4.112443
   25       -4.026772
   26       -3.738909
   27       -3.371148
   28       -0.484070
   29       -0.310939
   30       -0.039068
   31        0.084210
   32        0.431079
   33        0.584511
   34        0.632257
   35        0.679857
   36        0.963941
 
 -0.1538462E+00  0.2500000E+00  0.0000000E+00  0.1923077E-01
    1      -15.557804
    2      -14.953677
    3      -14.536638
    4      -14.032853
    5      -13.547746
    6      -13.085807
    7      -10.663149
    8       -9.813246
    9       -8.947598
   10       -8.833956
   11       -7.973212
   12       -7.118903
   13       -6.568059
   14       -6.436922
   15       -6.213295
   16       -5.972638
   17       -5.605787
   18       -5.355259
   19       -5.195809
   20       -5.117076
   21       -4.795481
   22       -4.462505
   23       -4.219221
   24       -4.059845
   25       -3.892773
   26       -3.487377
   27       -3.223082
   28       -0.502387
   29       -0.076325
   30        0.148288
   31        0.252519
   32        0.394445
   33        0.503786
   34        0.663144
   35        0.847602
   36        0.965491
 
 -0.7692308E-01  0.2500000E+00  0.0000000E+00  0.1923077E-01
    1      -15.723451
    2      -15.164110
    3      -14.700768
    4      -14.147941
    5      -13.703725
    6      -13.229398
    7      -10.726529
    8       -9.705530
    9       -8.942263
   10       -8.888077
   11       -8.018058
   12       -6.936924
   13       -6.273298
   14       -5.908920
   15       -5.722524
   16       -5.586363
   17       -5.357453
   18       -4.994282
   19       -4.678470
   20       -4.583657
   21       -4.404649
   22       -4.273266
   23       -4.086240
   24       -4.052107
   25       -3.713824
   26       -3.421252
   27       -3.192119
   28       -0.710110
   29       -0.476114
   30       -0.357005
   31       -0.071270
   32        0.059100
   33        0.192720
   34        0.402784
   35        0.578998
   36        0.717073
 
  0.0000000E+00  0.5000000E+00  0.0000000E+00  0.9615385E-02
    1      -15.669093
    2      -15.444894
    3      -14.748360
    4      -13.963685
    5      -13.790986
    6      -13.329931
    7      -11.024401
    8       -9.513172
    9       -9.087301
   10       -8.558329
   11       -7.844148
   12       -7.285236
   13       -6.270272
   14       -5.671685
   15       -5.494583
   16       -5.456023
   17       -4.993671
   18       -4.867396
   19       -4.667412
   20       -4.500636
   21       -4.393130
   22       -4.321789
   23       -3.897621
   24       -3.609797
   25       -3.568063
   26       -3.188417
   27       -3.161793
   28       -1.087885
   29       -0.876306
   30       -0.551163
   31       -0.524944
   32       -0.163477
   33        0.100762
   34        0.293873
   35        0.350002
   36        0.576766
 
  0.7692308E-01  0.5000000E+00  0.0000000E+00  0.1923077E-01
    1      -15.614153
    2      -15.379138
    3      -14.692939
    4      -13.917346
    5      -13.740324
    6      -13.274186
    7      -11.016516
    8       -9.502170
    9       -9.054116
   10       -8.579103
   11       -7.861058
   12       -7.235407
   13       -6.323301
   14       -5.940238
   15       -5.657794
   16       -5.566141
   17       -5.278598
   18       -4.986355
   19       -4.837470
   20       -4.714618
   21       -4.435487
   22       -4.392108
   23       -4.190483
   24       -3.981484
   25       -3.563784
   26       -3.221611
   27       -3.152683
   28       -0.684943
   29       -0.598484
   30       -0.239834
   31       -0.047670
   32        0.166056
   33        0.194345
   34        0.483584
   35        0.550204
   36        0.644695
 
  0.1538462E+00  0.5000000E+00  0.0000000E+00  0.1923077E-01
    1      -15.448751
    2      -15.185041
    3      -14.528858
    4      -13.781173
    5      -13.592281
    6      -13.114636
    7      -11.014306
    8       -9.504111
    9       -8.980555
   10       -8.678349
   11       -7.921911
   12       -7.169314
   13       -6.692624
   14       -6.577538
   15       -6.300440
   16       -5.856890
   17       -5.465082
   18       -5.289459
   19       -5.194180
   20       -5.004821
   21       -4.893996
   22       -4.673602
   23       -4.254322
   24       -4.241398
   25       -3.729794
   26       -3.384455
   27       -3.169337
   28       -0.642102
   29       -0.209685
   30       -0.002050
   31        0.361799
   32        0.474369
   33        0.540689
   34        0.773463
   35        0.850330
   36        0.883569
 
  0.2307692E+00  0.5000000E+00  0.0000000E+00  0.1923077E-01
    1      -15.173095
    2      -14.871171
    3      -14.263677
    4      -13.565826
    5      -13.362854
    6      -12.882552
    7      -11.075228
    8       -9.647128
    9       -8.981061
   10       -8.924616
   11       -8.113467
   12       -7.473494
   13       -7.320622
   14       -6.957466
   15       -6.830997
   16       -6.276233
   17       -6.007590
   18       -5.526019
   19       -5.345183
   20       -5.233072
   21       -4.876685
   22       -4.821740
   23       -4.293243
   24       -4.181368
   25       -4.053598
   26       -3.667946
   27       -3.323953
   28       -0.866891
   29       -0.714184
   30       -0.055161
   31        0.274568
   32        0.404241
   33        0.690176
   34        0.775236
   35        0.966139
   36        1.046632
 
  0.3076923E+00  0.5000000E+00  0.0000000E+00  0.1923077E-01
    1      -14.791388
    2      -14.451974
    3      -13.914458
    4      -13.299229
    5      -13.095765
    6      -12.678331
    7      -11.209031
    8      -10.055471
    9       -9.349403
   10       -9.247554
   11       -8.470358
   12       -8.205564
   13       -7.640264
   14       -7.182317
   15       -6.754970
   16       -6.597593
   17       -6.365375
   18       -5.534058
   19       -5.367285
   20       -5.195166
   21       -5.023686
   22       -4.800093
   23       -4.537534
   24       -4.241922
   25       -4.161281
   26       -4.021640
   27       -3.577141
   28       -0.997818
   29       -0.922037
   30       -0.135454
   31       -0.024978
   32        0.167422
   33        0.276579
   34        0.692508
   35        0.868641
   36        1.148409
 
  0.3846154E+00  0.5000000E+00  0.0000000E+00  0.1923077E-01
    1      -14.315262
    2      -13.954991
    3      -13.519351
    4      -13.053418
    5      -12.905502
    6      -12.745571
    7      -11.193167
    8      -10.532957
    9       -9.900360
   10       -9.664309
   11       -9.005498
   12       -8.941234
   13       -7.580765
   14       -6.958327
   15       -6.776713
   16       -6.412005
   17       -6.320097
   18       -5.815016
   19       -5.467994
   20       -5.403218
   21       -5.137491
   22       -4.811724
   23       -4.591605
   24       -4.426058
   25       -4.349401
   26       -4.136821
   27       -3.693496
   28       -1.015598
   29       -0.746092
   30       -0.474234
   31       -0.207672
   32       -0.142323
   33        0.043167
   34        0.392465
   35        0.641355
   36        0.957511
 
  0.4615385E+00  0.5000000E+00  0.0000000E+00  0.1923077E-01
    1      -13.772108
    2      -13.456499
    3      -13.220884
    4      -13.134931
    5      -13.005560
    6      -12.905241
    7      -10.952103
    8      -10.723219
    9      -10.403601
   10       -9.840733
   11       -9.571032
   12       -9.458556
   13       -7.227571
   14       -6.762369
   15       -6.541133
   16       -6.353825
   17       -6.218350
   18       -6.054529
   19       -5.834200
   20       -5.542422
   21       -5.296627
   22       -4.969516
   23       -4.655560
   24       -4.469521
   25       -4.382719
   26       -3.973371
   27       -3.779885
   28       -0.932633
   29       -0.693943
   30       -0.643279
   31       -0.416608
   32       -0.231065
   33        0.065493
   34        0.193612
   35        0.484942
   36        0.648036
 
  0.0000000E+00  0.0000000E+00  0.5000000E+00  0.9615385E-02
    1      -15.823867
    2      -15.088040
    3      -14.757402
    4      -14.366692
    5      -13.718977
    6      -13.275044
    7      -10.311854
    8      -10.112181
    9       -9.104276
   10       -8.774422
   11       -8.106101
   12       -7.015887
   13       -6.005158
   14       -5.888566
   15       -5.338631
   16       -5.323381
   17       -5.133489
   18       -4.733228
   19       -4.667789
   20       -4.342409
   21       -4.130583
   22       -4.016541
   23       -3.927585
   24       -3.868231
   25       -3.718501
   26       -3.510229
   27       -3.289031
   28       -1.145198
   29       -0.964898
   30       -0.582027
   31       -0.317209
   32       -0.131872
   33       -0.055588
   34        0.146218
   35        0.354276
   36        0.493989
 
  0.7692308E-01  0.0000000E+00  0.5000000E+00  0.1923077E-01
    1      -15.762500
    2      -15.035896
    3      -14.701782
    4      -14.304402
    5      -13.670128
    6      -13.226645
    7      -10.350677
    8      -10.073501
    9       -9.071508
   10       -8.768677
   11       -8.072465
   12       -7.020748
   13       -6.042925
   14       -5.917367
   15       -5.700273
   16       -5.546950
   17       -5.383943
   18       -5.019936
   19       -4.763921
   20       -4.487600
   21       -4.325857
   22       -4.254344
   23       -4.124423
   24       -4.012874
   25       -3.796990
   26       -3.454617
   27       -3.240154
   28       -0.739510
   29       -0.520199
   30       -0.157554
   31       -0.077377
   32        0.008369
   33        0.015710
   34        0.316818
   35        0.483970
   36        0.735309
 
  0.1538462E+00  0.1387779E-16  0.5000000E+00  0.1923077E-01
    1      -15.579480
    2      -14.880178
    3      -14.536937
    4      -14.121767
    5      -13.528422
    6      -13.087793
    7      -10.449797
    8      -10.030372
    9       -8.996164
   10       -8.780884
   11       -7.998122
   12       -7.144681
   13       -6.491938
   14       -6.363238
   15       -6.257803
   16       -5.969694
   17       -5.617185
   18       -5.402467
   19       -5.251017
   20       -5.120275
   21       -4.672400
   22       -4.435388
   23       -4.231271
   24       -4.045091
   25       -3.939161
   26       -3.501110
   27       -3.247087
   28       -0.352144
   29       -0.023798
   30        0.117344
   31        0.227825
   32        0.341759
   33        0.378886
   34        0.659332
   35        0.773767
   36        0.922502
 
  0.2307692E+00  0.2775558E-16  0.5000000E+00  0.1923077E-01
    1      -15.278375
    2      -14.623999
    3      -14.270140
    4      -13.833514
    5      -13.312096
    6      -12.884614
    7      -10.643199
    8      -10.105150
    9       -8.969495
   10       -8.914291
   11       -8.020808
   12       -7.620542
   13       -7.090075
   14       -6.883924
   15       -6.791244
   16       -6.457530
   17       -6.058051
   18       -5.748802
   19       -5.287450
   20       -5.265190
   21       -4.866647
   22       -4.721099
   23       -4.192296
   24       -4.111674
   25       -4.013619
   26       -3.744678
   27       -3.375072
   28       -0.442785
   29       -0.289902
   30       -0.016137
   31        0.075953
   32        0.395318
   33        0.580284
   34        0.604280
   35        0.670829
   36        0.954882
 
  0.3076923E+00  0.0000000E+00  0.5000000E+00  0.1923077E-01
    1      -14.866460
    2      -14.275827
    3      -13.918211
    4      -13.474341
    5      -13.068663
    6      -12.698661
    7      -10.939075
    8      -10.367290
    9       -9.276964
   10       -9.179897
   11       -8.450019
   12       -8.242762
   13       -7.489756
   14       -7.066301
   15       -6.981678
   16       -6.587237
   17       -6.498102
   18       -5.672466
   19       -5.369056
   20       -5.238062
   21       -5.019733
   22       -4.838122
   23       -4.347542
   24       -4.183069
   25       -4.150355
   26       -3.995609
   27       -3.574102
   28       -0.710111
   29       -0.504823
   30       -0.311255
   31       -0.046680
   32        0.078949
   33        0.392181
   34        0.540134
   35        0.841535
   36        1.068913
 
  0.3846154E+00  0.5551115E-16  0.5000000E+00  0.1923077E-01
    1      -14.357875
    2      -13.856905
    3      -13.519684
    4      -13.129812
    5      -12.915108
    6      -12.739193
    7      -11.115868
    8      -10.660429
    9       -9.743198
   10       -9.695083
   11       -9.047947
   12       -8.941812
   13       -7.490420
   14       -6.908841
   15       -6.807059
   16       -6.516598
   17       -6.350739
   18       -5.937605
   19       -5.551341
   20       -5.428046
   21       -5.049419
   22       -4.763998
   23       -4.564769
   24       -4.401398
   25       -4.312444
   26       -4.123154
   27       -3.666884
   28       -0.886566
   29       -0.581115
   30       -0.548852
   31       -0.215668
   32       -0.029436
   33        0.012146
   34        0.424905
   35        0.556255
   36        0.802256
 
  0.4615385E+00  0.5551115E-16  0.5000000E+00  0.1923077E-01
    1      -13.783701
    2      -13.434394
    3      -13.217421
    4      -13.129750
    5      -13.012004
    6      -12.919062
    7      -10.974927
    8      -10.722616
    9      -10.363585
   10       -9.851144
   11       -9.567008
   12       -9.468008
   13       -7.197459
   14       -6.785087
   15       -6.533958
   16       -6.335331
   17       -6.219130
   18       -6.116359
   19       -5.852676
   20       -5.538441
   21       -5.275347
   22       -4.966469
   23       -4.637327
   24       -4.472997
   25       -4.381663
   26       -3.972841
   27       -3.774200
   28       -0.912366
   29       -0.711662
   30       -0.630288
   31       -0.428295
   32       -0.204741
   33        0.112500
   34        0.201268
   35        0.450400
   36        0.621757
 
  0.0000000E+00  0.2500000E+00  0.5000000E+00  0.1923077E-01
    1      -15.767979
    2      -15.261768
    3      -14.755246
    4      -14.154773
    5      -13.763921
    6      -13.283988
    7      -10.800255
    8       -9.649533
    9       -8.952757
   10       -8.887049
   11       -8.028837
   12       -6.908171
   13       -6.304244
   14       -5.800676
   15       -5.526338
   16       -5.412132
   17       -4.996871
   18       -4.670284
   19       -4.642350
   20       -4.435026
   21       -4.259795
   22       -4.168825
   23       -3.913742
   24       -3.724073
   25       -3.649310
   26       -3.430121
   27       -3.214582
   28       -1.095682
   29       -0.919841
   30       -0.561691