 vasp.5.3.5 31Mar14 (build Oct 29 2014 16:16:03) complex                        
  
 executed on          Linux-UFHPC date 2016.02.08  14:30:16
 running on    8 total cores
 distrk:  each k-point on    8 cores,    1 groups
 distr:  one band on NCORES_PER_BAND=   2 cores,    4 groups


--------------------------------------------------------------------------------------------------------


 INCAR:
 POTCAR:    PAW_PBE P 17Jan2003                   
 POTCAR:   PAW_PBE Si 05Jan2001                   

 ----------------------------------------------------------------------------- 
|                                                                             |
|  ADVICE TO THIS USER RUNNING 'VASP/VAMP'   (HEAR YOUR MASTER'S VOICE ...):  |
|                                                                             |
|      You have switched on vdW-DFT.                                          |
|      This routine was written and supplied by Jiri Klimes.                  |
|      We recommed that you carefully read and cite the following             |
|      publication                                                            |
|      J. Klimes, D.R. Bowler, A. Michelides                                  |
|        J. Phys.: Cond Matt. 22 022201 (2010)                                |
|      J. Klimes, D.R. Bowler, A. Michelides                                  |
|        Phys. Rev. B. 83, 195131 (2011)                                      |
|      and references therein.                                                |
|                                                                             |
 ----------------------------------------------------------------------------- 

 POTCAR:    PAW_PBE P 17Jan2003                   
   VRHFIN =P : s2p3                                                             
   LEXCH  = PE                                                                  
   EATOM  =   176.0430 eV,   12.9388 Ry                                         
                                                                                
   TITEL  = PAW_PBE P 17Jan2003                                                 
   LULTRA =        F    use ultrasoft PP ?                                      
   IUNSCR =        1    unscreen: 0-lin 1-nonlin 2-no                           
   RPACOR =    1.500    partial core radius                                     
   POMASS =   30.974; ZVAL   =    5.000    mass and valenz                      
   RCORE  =    1.900    outmost cutoff radius                                   
   RWIGS  =    2.330; RWIGS  =    1.233    wigner-seitz radius (au A)           
   ENMAX  =  270.000; ENMIN  =  191.280 eV                                      
   ICORE  =        2    local potential                                         
   LCOR   =        T    correct aug charges                                     
   LPAW   =        T    paw PP                                                  
   EAUG   =  342.924                                                            
   DEXC   =    -.002                                                            
   RMAX   =    2.887    core radius for proj-oper                               
   RAUG   =    1.300    factor for augmentation sphere                          
   RDEP   =    1.931    radius for radial grids                                 
   QCUT   =   -4.330; QGAM   =    8.659    optimization parameters              
                                                                                
   Description                                                                  
     l     E      TYP  RCUT    TYP  RCUT                                        
     0   .000     23  1.900                                                     
     0   .000     23  1.900                                                     
     1   .000     23  1.900                                                     
     1   .000     23  1.900                                                     
     2   .000     23  1.900                                                     
  local pseudopotential read in
  partial core-charges read in
  atomic valenz-charges read in
  non local Contribution for L=           0  read in
    real space projection operators read in
  non local Contribution for L=           0  read in
    real space projection operators read in
  non local Contribution for L=           1  read in
    real space projection operators read in
  non local Contribution for L=           1  read in
    real space projection operators read in
    PAW grid and wavefunctions read in
 
   number of l-projection  operators is LMAX  =           4
   number of lm-projection operators is LMMAX =           8
 
 POTCAR:   PAW_PBE Si 05Jan2001                   
   VRHFIN =Si: s2p2                                                             
   LEXCH  = PE                                                                  
   EATOM  =   103.0669 eV,    7.5752 Ry                                         
                                                                                
   TITEL  = PAW_PBE Si 05Jan2001                                                
   LULTRA =        F    use ultrasoft PP ?                                      
   IUNSCR =        1    unscreen: 0-lin 1-nonlin 2-no                           
   RPACOR =    1.500    partial core radius                                     
   POMASS =   28.085; ZVAL   =    4.000    mass and valenz                      
   RCORE  =    1.900    outmost cutoff radius                                   
   RWIGS  =    2.480; RWIGS  =    1.312    wigner-seitz radius (au A)           
   ENMAX  =  245.345; ENMIN  =  184.009 eV                                      
   ICORE  =        2    local potential                                         
   LCOR   =        T    correct aug charges                                     
   LPAW   =        T    paw PP                                                  
   EAUG   =  322.069                                                            
   DEXC   =    -.007                                                            
   RMAX   =    2.944    core radius for proj-oper                               
   RAUG   =    1.300    factor for augmentation sphere                          
   RDEP   =    1.993    radius for radial grids                                 
   QCUT   =   -4.246; QGAM   =    8.493    optimization parameters              
                                                                                
   Description                                                                  
     l     E      TYP  RCUT    TYP  RCUT                                        
     0   .000     23  1.900                                                     
     0   .000     23  1.900                                                     
     1   .000     23  1.900                                                     
     1   .000     23  1.900                                                     
     2   .000      7  1.900                                                     
  local pseudopotential read in
  partial core-charges read in
  atomic valenz-charges read in
  non local Contribution for L=           0  read in
    real space projection operators read in
  non local Contribution for L=           0  read in
    real space projection operators read in
  non local Contribution for L=           1  read in
    real space projection operators read in
  non local Contribution for L=           1  read in
    real space projection operators read in
    PAW grid and wavefunctions read in
 
   number of l-projection  operators is LMAX  =           4
   number of lm-projection operators is LMMAX =           8
 
 Optimization of the real space projectors (new method)

 maximal supplied QI-value         = 19.84
 optimisation between [QCUT,QGAM] = [  8.73, 17.66] = [ 21.34, 87.33] Ry 
 Optimized for a Real-space Cutoff    1.50 Angstroem

   l    n(q)    QCUT    max X(q) W(low)/X(q) W(high)/X(q)  e(spline) 
   0      8     8.731     6.651    0.16E-04    0.15E-04    0.77E-08
   0      8     8.731    90.285    0.16E-03    0.90E-04    0.16E-06
   1      7     8.731     4.328    0.47E-04    0.36E-04    0.45E-07
   1      7     8.731    54.583    0.13E-03    0.39E-03    0.20E-06
 Optimization of the real space projectors (new method)

 maximal supplied QI-value         = 19.84
 optimisation between [QCUT,QGAM] = [  8.73, 17.66] = [ 21.34, 87.33] Ry 
 Optimized for a Real-space Cutoff    1.46 Angstroem

   l    n(q)    QCUT    max X(q) W(low)/X(q) W(high)/X(q)  e(spline) 
   0      8     8.731     8.708    0.16E-04    0.11E-04    0.68E-08
   0      8     8.731   106.241    0.24E-03    0.77E-04    0.13E-06
   1      7     8.731     5.901    0.34E-04    0.38E-04    0.36E-07
   1      7     8.731    73.241    0.12E-03    0.39E-03    0.15E-06

 ----------------------------------------------------------------------------- 
|                                                                             |
|  ADVICE TO THIS USER RUNNING 'VASP/VAMP'   (HEAR YOUR MASTER'S VOICE ...):  |
|                                                                             |
|      You enforced a specific xc-type in the INCAR file,                     |
|      a different type was found on the POTCAR file                          |
|          I HOPE YOU KNOW, WHAT YOU ARE  DOING                               |
|                                                                             |
 ----------------------------------------------------------------------------- 

  PAW_PBE P 17Jan2003                   :
 energy of atom  1       EATOM= -176.0430
 kinetic energy error for atom=    0.0040 (will be added to EATOM!!)
 PAW_PBE Si 05Jan2001                   :
 energy of atom  2       EATOM= -103.0669
 kinetic energy error for atom=    0.0021 (will be added to EATOM!!)
 
 
 POSCAR: Si6                                     
  positions in direct lattice
  No initial velocities read in
 exchange correlation table for  LEXCH =       42
   RHO(1)=    0.500       N(1)  =     2000
   RHO(2)=  100.500       N(2)  =     4000
 


--------------------------------------------------------------------------------------------------------


 ion  position               nearest neighbor table
   1  0.114  0.228  0.259-   8 2.28  11 2.29  11 2.29
   2  0.458  0.916  0.232-  11 2.28   7 2.30   7 2.30
   3  0.311  0.621  0.094-   9 2.28  12 2.30  12 2.30
   4  0.999  0.999  0.096-  10 2.29  10 2.29   7 2.32
   5  0.655  0.310  0.067-  10 2.29   9 2.29   9 2.29
   6  0.770  0.539  0.230-   8 2.29   8 2.29  12 2.32
   7  0.940  0.879  0.175-   2 2.30   2 2.30   4 2.32  12 2.36
   8  0.205  0.410  0.207-   1 2.28   6 2.29   6 2.29   9 2.37
   9  0.202  0.404  0.111-   3 2.28   5 2.29   5 2.29   8 2.37
  10  0.564  0.128  0.120-   5 2.29   4 2.29   4 2.29  11 2.37
  11  0.567  0.134  0.215-   2 2.28   1 2.29   1 2.29  10 2.37
  12  0.829  0.658  0.151-   3 2.30   3 2.30   6 2.32   7 2.36
 
  LATTYP: Found a base centered orthorhombic cell.
 ALAT       =     3.5447903143
 B/A-ratio  =     5.8183197258
 C/A-ratio  =     6.9793245875
  
  Lattice vectors:
  
 A1 = (   1.7723951572,  10.3123617047,   0.0000000000)
 A2 = (   1.7723951572, -10.3123617047,   0.0000000000)
 A3 = (   0.0000000000,   0.0000000000, -24.7402421983)


Analysis of symmetry for initial positions (statically):
=====================================================================
 Subroutine PRICEL returns:
 Original cell was already a primitive cell.
 

 Routine SETGRP: Setting up the symmetry group for a 
 base centered orthorhombic supercell.


 Subroutine GETGRP returns: Found  2 space group operations
 (whereof  2 operations were pure point group operations)
 out of a pool of  8 trial point group operations.


The static configuration has the point symmetry C_1h.


Analysis of symmetry for dynamics (positions and initial velocities):
=====================================================================
 Subroutine PRICEL returns:
 Original cell was already a primitive cell.
 

 Routine SETGRP: Setting up the symmetry group for a 
 base centered orthorhombic supercell.


 Subroutine GETGRP returns: Found  2 space group operations
 (whereof  2 operations were pure point group operations)
 out of a pool of  8 trial point group operations.


The dynamic configuration has the point symmetry C_1h.
 
 
 KPOINTS: pymatgen generated KPOINTS with grid den

Automatic generation of k-mesh.
Space group operators:
 irot       det(A)        alpha          n_x          n_y          n_z        tau_x        tau_y        tau_z
    1     1.000000     0.000001     1.000000     0.000000     0.000000     0.000000     0.000000     0.000000
    2    -1.000000   180.000000     1.000000     0.000000     0.000000     0.000000     0.000000     0.000000
 
 Subroutine IBZKPT returns following result:
 ===========================================
 
 Found     54 irreducible k-points:
 
 Following reciprocal coordinates:
            Coordinates               Weight
  0.000000  0.000000  0.000000      1.000000
  0.076923  0.000000  0.000000      2.000000
  0.153846  0.000000  0.000000      2.000000
  0.230769  0.000000  0.000000      2.000000
  0.307692  0.000000  0.000000      2.000000
  0.384615  0.000000  0.000000      2.000000
  0.461538  0.000000  0.000000      2.000000
  0.000000  0.250000  0.000000      2.000000
  0.076923  0.250000  0.000000      2.000000
  0.153846  0.250000  0.000000      2.000000
  0.230769  0.250000  0.000000      2.000000
  0.307692  0.250000  0.000000      2.000000
  0.384615  0.250000  0.000000      2.000000
  0.461538  0.250000  0.000000      2.000000
 -0.461538  0.250000  0.000000      2.000000
 -0.384615  0.250000  0.000000      2.000000
 -0.307692  0.250000  0.000000      2.000000
 -0.230769  0.250000  0.000000      2.000000
 -0.153846  0.250000  0.000000      2.000000
 -0.076923  0.250000  0.000000      2.000000
  0.000000  0.500000  0.000000      1.000000
  0.076923  0.500000  0.000000      2.000000
  0.153846  0.500000  0.000000      2.000000
  0.230769  0.500000  0.000000      2.000000
  0.307692  0.500000  0.000000      2.000000
  0.384615  0.500000  0.000000      2.000000
  0.461538  0.500000  0.000000      2.000000
  0.000000  0.000000  0.500000      1.000000
  0.076923  0.000000  0.500000      2.000000
  0.153846  0.000000  0.500000      2.000000
  0.230769  0.000000  0.500000      2.000000
  0.307692  0.000000  0.500000      2.000000
  0.384615  0.000000  0.500000      2.000000
  0.461538  0.000000  0.500000      2.000000
  0.000000  0.250000  0.500000      2.000000
  0.076923  0.250000  0.500000      2.000000
  0.153846  0.250000  0.500000      2.000000
  0.230769  0.250000  0.500000      2.000000
  0.307692  0.250000  0.500000      2.000000
  0.384615  0.250000  0.500000      2.000000
  0.461538  0.250000  0.500000      2.000000
 -0.461538  0.250000  0.500000      2.000000
 -0.384615  0.250000  0.500000      2.000000
 -0.307692  0.250000  0.500000      2.000000
 -0.230769  0.250000  0.500000      2.000000
 -0.153846  0.250000  0.500000      2.000000
 -0.076923  0.250000  0.500000      2.000000
  0.000000  0.500000  0.500000      1.000000
  0.076923  0.500000  0.500000      2.000000
  0.153846  0.500000  0.500000      2.000000
  0.230769  0.500000  0.500000      2.000000
  0.307692  0.500000  0.500000      2.000000
  0.384615  0.500000  0.500000      2.000000
  0.461538  0.500000  0.500000      2.000000
 
 Following cartesian coordinates:
            Coordinates               Weight
  0.000000  0.000000  0.000000      1.000000
  0.021700  0.003730  0.000000      2.000000
  0.043401  0.007459  0.000000      2.000000
  0.065101  0.011189  0.000000      2.000000
  0.086801  0.014919  0.000000      2.000000
  0.108502  0.018648  0.000000      2.000000
  0.130202  0.022378  0.000000      2.000000
  0.000000  0.024243  0.000000      2.000000
  0.021700  0.027972  0.000000      2.000000
  0.043401  0.031702  0.000000      2.000000
  0.065101  0.035432  0.000000      2.000000
  0.086801  0.039161  0.000000      2.000000
  0.108502  0.042891  0.000000      2.000000
  0.130202  0.046621  0.000000      2.000000
 -0.130202  0.001865  0.000000      2.000000
 -0.108502  0.005594  0.000000      2.000000
 -0.086801  0.009324  0.000000      2.000000
 -0.065101  0.013054  0.000000      2.000000
 -0.043401  0.016783  0.000000      2.000000
 -0.021700  0.020513  0.000000      2.000000
  0.000000  0.048485  0.000000      1.000000
  0.021700  0.052215  0.000000      2.000000
  0.043401  0.055945  0.000000      2.000000
  0.065101  0.059674  0.000000      2.000000
  0.086801  0.063404  0.000000      2.000000
  0.108502  0.067134  0.000000      2.000000
  0.130202  0.070863  0.000000      2.000000
  0.000000  0.000000  0.020210      1.000000
  0.021700  0.003730  0.020210      2.000000
  0.043401  0.007459  0.020210      2.000000
  0.065101  0.011189  0.020210      2.000000
  0.086801  0.014919  0.020210      2.000000
  0.108502  0.018648  0.020210      2.000000
  0.130202  0.022378  0.020210      2.000000
  0.000000  0.024243  0.020210      2.000000
  0.021700  0.027972  0.020210      2.000000
  0.043401  0.031702  0.020210      2.000000
  0.065101  0.035432  0.020210      2.000000
  0.086801  0.039161  0.020210      2.000000
  0.108502  0.042891  0.020210      2.000000
  0.130202  0.046621  0.020210      2.000000
 -0.130202  0.001865  0.020210      2.000000
 -0.108502  0.005594  0.020210      2.000000
 -0.086801  0.009324  0.020210      2.000000
 -0.065101  0.013054  0.020210      2.000000
 -0.043401  0.016783  0.020210      2.000000
 -0.021700  0.020513  0.020210      2.000000
  0.000000  0.048485  0.020210      1.000000
  0.021700  0.052215  0.020210      2.000000
  0.043401  0.055945  0.020210      2.000000
  0.065101  0.059674  0.020210      2.000000
  0.086801  0.063404  0.020210      2.000000
  0.108502  0.067134  0.020210      2.000000
  0.130202  0.070863  0.020210      2.000000
 


--------------------------------------------------------------------------------------------------------




 Dimension of arrays:
   k-points           NKPTS =     54   k-points in BZ     NKDIM =     54   number of bands    NBANDS=     36
   number of dos      NEDOS =    301   number of ions     NIONS =     12
   non local maximal  LDIM  =      4   non local SUM 2l+1 LMDIM =      8
   total plane-waves  NPLWV = 168000
   max r-space proj   IRMAX =   2689   max aug-charges    IRDMAX=   6410
   dimension x,y,z NGX =    20 NGY =   60 NGZ =  140
   dimension x,y,z NGXF=    40 NGYF=  120 NGZF=  280
   support grid    NGXF=    40 NGYF=  120 NGZF=  280
   ions per type =               6   6
 NGX,Y,Z   is equivalent  to a cutoff of   9.38,  9.53,  9.41 a.u.
 NGXF,Y,Z  is equivalent  to a cutoff of  18.76, 19.07, 18.82 a.u.


 I would recommend the setting:
   dimension x,y,z NGX =    20 NGY =   59 NGZ =  140
 SYSTEM =  unknown system                          
 POSCAR =  Si6                                     

 Startparameter for this run:
   NWRITE =      2    write-flag & timer
   PREC   = accura    normal or accurate (medium, high low for compatibility)
   ISTART =      1    job   : 0-new  1-cont  2-samecut
   ICHARG =      0    charge: 1-file 2-atom 10-const
   ISPIN  =      1    spin polarized calculation?
   LNONCOLLINEAR =      F non collinear calculations
   LSORBIT =      F    spin-orbit coupling
   INIWAV =      1    electr: 0-lowe 1-rand  2-diag
   LASPH  =      F    aspherical Exc in radial PAW
   METAGGA=      F    non-selfconsistent MetaGGA calc.

 Electronic Relaxation 1
   ENCUT  =  300.0 eV  22.05 Ry    4.70 a.u.   5.01 14.78 34.94*2*pi/ulx,y,z
   ENINI  =  300.0     initial cutoff
   ENAUG  =  342.9 eV  augmentation charge cutoff
   NELM   =     60;   NELMIN=  2; NELMDL=  0     # of ELM steps 
   EDIFF  = 0.1E-05   stopping-criterion for ELM
   LREAL  =      T    real-space projection
   NLSPLINE    = F    spline interpolate recip. space projectors
   LCOMPAT=      F    compatible to vasp.4.4
   GGA_COMPAT  = T    GGA compatible to vasp.4.4-vasp.4.6
   LMAXPAW     = -100 max onsite density
   LMAXMIX     =    2 max onsite mixed and CHGCAR
   VOSKOWN=      0    Vosko Wilk Nusair interpolation
   ROPT   =   -0.00025  -0.00025
 Ionic relaxation
   EDIFFG = 0.1E-04   stopping-criterion for IOM
   NSW    =     50    number of steps for IOM
   NBLOCK =      1;   KBLOCK =     50    inner block; outer block 
   IBRION =      2    ionic relax: 0-MD 1-quasi-New 2-CG
   NFREE  =      1    steps in history (QN), initial steepest desc. (CG)
   ISIF   =      3    stress and relaxation
   IWAVPR =     11    prediction:  0-non 1-charg 2-wave 3-comb
   ISYM   =      2    0-nonsym 1-usesym 2-fastsym
   LCORR  =      T    Harris-Foulkes like correction to forces

   POTIM  = 0.5000    time-step for ionic-motion
   TEIN   =    0.0    initial temperature
   TEBEG  =    0.0;   TEEND  =   0.0 temperature during run
   SMASS  =  -3.00    Nose mass-parameter (am)
   estimated Nose-frequenzy (Omega)   =  0.10E-29 period in steps =****** mass=  -0.287E-27a.u.
   SCALEE = 1.0000    scale energy and forces
   NPACO  =    256;   APACO  = 16.0  distance and # of slots for P.C.
   PSTRESS=    0.0 pullay stress

  Mass of Ions in am
   POMASS =  30.97 28.09
  Ionic Valenz
   ZVAL   =   5.00  4.00
  Atomic Wigner-Seitz radii
   RWIGS  =  -1.00 -1.00
  virtual crystal weights 
   VCA    =   1.00  1.00
   NELECT =      54.0000    total number of electrons
   NUPDOWN=      -1.0000    fix difference up-down

 DOS related values:
   EMIN   =  10.00;   EMAX   =-10.00  energy-range for DOS
   EFERMI =   0.00
   ISMEAR =     0;   SIGMA  =   0.10  broadening in eV -4-tet -1-fermi 0-gaus

 Electronic relaxation 2 (details)
   IALGO  =     38    algorithm
   LDIAG  =      T    sub-space diagonalisation (order eigenvalues)
   LSUBROT=      F    optimize rotation matrix (better conditioning)
   TURBO    =      0    0=normal 1=particle mesh
   IRESTART =      0    0=no restart 2=restart with 2 vectors
   NREBOOT  =      0    no. of reboots
   NMIN     =      0    reboot dimension
   EREF     =   0.00    reference energy to select bands
   IMIX   =      4    mixing-type and parameters
     AMIX     =   0.40;   BMIX     =  1.00
     AMIX_MAG =   1.60;   BMIX_MAG =  1.00
     AMIN     =   0.10
     WC   =   100.;   INIMIX=   1;  MIXPRE=   1;  MAXMIX= -45

 Intra band minimization:
   WEIMIN = 0.0010     energy-eigenvalue tresh-hold
   EBREAK =  0.69E-08  absolut break condition
   DEPER  =   0.30     relativ break condition  

   TIME   =   0.40     timestep for ELM

  volume/ion in A,a.u.               =      75.37       508.59
  Fermi-wavevector in a.u.,A,eV,Ry     =   0.639865  1.209170  5.570600  0.409428
  Thomas-Fermi vector in A             =   1.705682
 
 Write flags
   LWAVE  =      T    write WAVECAR
   LCHARG =      T    write CHGCAR
   LVTOT  =      F    write LOCPOT, total local potential
   LVHAR  =      F    write LOCPOT, Hartree potential only
   LELF   =      F    write electronic localiz. function (ELF)
   LORBIT =      0    0 simple, 1 ext, 2 COOP (PROOUT)


 Dipole corrections
   LMONO  =      F    monopole corrections only (constant potential shift)
   LDIPOL =      F    correct potential (dipole corrections)
   IDIPOL =      0    1-x, 2-y, 3-z, 4-all directions 
   EPSILON=  1.0000000 bulk dielectric constant

 Exchange correlation treatment:
   GGA     =    BO    GGA type
   LEXCH   =    42    internal setting for exchange type
   VOSKOWN=      0    Vosko Wilk Nusair interpolation
   LHFCALC =     F    Hartree Fock is set to
   LHFONE  =     F    Hartree Fock one center treatment
   AEXX    =    0.0000 exact exchange contribution

 vdW DFT:
   LUSE_VDW   =     T    switch on vdW DFT
   Zab_VDW    =-.8491    correlation parameter
   PARAM1     =0.1833
   PARAM2     =0.2200
   PARAM3     =0.0000

 Linear response parameters
   LEPSILON=     F    determine dielectric tensor
   LRPA    =     F    only Hartree local field effects (RPA)
   LNABLA  =     F    use nabla operator in PAW spheres
   LVEL    =     F    velocity operator in full k-point grid
   LINTERFAST=   F  fast interpolation
   KINTER  =     0    interpolate to denser k-point grid
   CSHIFT  =0.1000    complex shift for real part using Kramers Kronig
   OMEGAMAX=  -1.0    maximum frequency
   DEG_THRESHOLD= 0.2000000E-02 threshold for treating states as degnerate
   RTIME   =    0.100 relaxation time in fs

 Orbital magnetization related:
   ORBITALMAG=     F  switch on orbital magnetization
   LCHIMAG   =     F  perturbation theory with respect to B field
   DQ        =  0.001000  dq finite difference perturbation B field



--------------------------------------------------------------------------------------------------------


 conjugate gradient relaxation of ions
 charge density and potential will be updated during run
 non-spin polarized calculation
 Variant of blocked Davidson
 Davidson routine will perform the subspace rotation
 perform sub-space diagonalisation
    after iterative eigenvector-optimisation
 modified Broyden-mixing scheme, WC =      100.0
 initial mixing is a Kerker type mixing with AMIX =  0.4000 and BMIX =      1.0000
 Hartree-type preconditioning will be used
 using additional bands            9
 real space projection scheme for non local part
 use partial core corrections
 calculate Harris-corrections to forces 
   (improved forces if not selfconsistent)
 use gradient corrections 
 use of overlap-Matrix (Vanderbilt PP)
 Gauss-broadening in eV      SIGMA  =   0.10


--------------------------------------------------------------------------------------------------------


  energy-cutoff  :      300.00
  volume of cell :      904.38
      direct lattice vectors                 reciprocal lattice vectors
     3.544790314  0.000000000  0.000000000     0.282104133  0.048485499  0.000000000
    -1.772395157 10.312361705  0.000000000     0.000000000  0.096970997  0.000000000
     0.000000000  0.000000000 24.740242198     0.000000000  0.000000000  0.040419976

  length of vectors
     3.544790314 10.463564809 24.740242198     0.286240433  0.096970997  0.040419976


 
 old parameters found on file WAVECAR:
  energy-cutoff  :      300.00
  volume of cell :      904.38
      direct lattice vectors                 reciprocal lattice vectors
     3.544790314  0.000000000  0.000000000     0.282104133  0.048485499  0.000000000
    -1.772395157 10.312361705  0.000000000     0.000000000  0.096970997  0.000000000
     0.000000000  0.000000000 24.740242198     0.000000000  0.000000000  0.040419976

  length of vectors

 
 k-points in units of 2pi/SCALE and weight: pymatgen generated KPOINTS with grid den
   0.00000000  0.00000000  0.00000000       0.010
   0.02170032  0.00372965  0.00000000       0.019
   0.04340064  0.00745931  0.00000000       0.019
   0.06510095  0.01118896  0.00000000       0.019
   0.08680127  0.01491861  0.00000000       0.019
   0.10850159  0.01864827  0.00000000       0.019
   0.13020191  0.02237792  0.00000000       0.019
   0.00000000  0.02424275  0.00000000       0.019
   0.02170032  0.02797240  0.00000000       0.019
   0.04340064  0.03170206  0.00000000       0.019
   0.06510095  0.03543171  0.00000000       0.019
   0.08680127  0.03916136  0.00000000       0.019
   0.10850159  0.04289102  0.00000000       0.019
   0.13020191  0.04662067  0.00000000       0.019
  -0.13020191  0.00186483  0.00000000       0.019
  -0.10850159  0.00559448  0.00000000       0.019
  -0.08680127  0.00932413  0.00000000       0.019
  -0.06510095  0.01305379  0.00000000       0.019
  -0.04340064  0.01678344  0.00000000       0.019
  -0.02170032  0.02051310  0.00000000       0.019
   0.00000000  0.04848550  0.00000000       0.010
   0.02170032  0.05221515  0.00000000       0.019
   0.04340064  0.05594481  0.00000000       0.019
   0.06510095  0.05967446  0.00000000       0.019
   0.08680127  0.06340411  0.00000000       0.019
   0.10850159  0.06713377  0.00000000       0.019
   0.13020191  0.07086342  0.00000000       0.019
   0.00000000  0.00000000  0.02020999       0.010
   0.02170032  0.00372965  0.02020999       0.019
   0.04340064  0.00745931  0.02020999       0.019
   0.06510095  0.01118896  0.02020999       0.019
   0.08680127  0.01491861  0.02020999       0.019
   0.10850159  0.01864827  0.02020999       0.019
   0.13020191  0.02237792  0.02020999       0.019
   0.00000000  0.02424275  0.02020999       0.019
   0.02170032  0.02797240  0.02020999       0.019
   0.04340064  0.03170206  0.02020999       0.019
   0.06510095  0.03543171  0.02020999       0.019
   0.08680127  0.03916136  0.02020999       0.019
   0.10850159  0.04289102  0.02020999       0.019
   0.13020191  0.04662067  0.02020999       0.019
  -0.13020191  0.00186483  0.02020999       0.019
  -0.10850159  0.00559448  0.02020999       0.019
  -0.08680127  0.00932413  0.02020999       0.019
  -0.06510095  0.01305379  0.02020999       0.019
  -0.04340064  0.01678344  0.02020999       0.019
  -0.02170032  0.02051310  0.02020999       0.019
   0.00000000  0.04848550  0.02020999       0.010
   0.02170032  0.05221515  0.02020999       0.019
   0.04340064  0.05594481  0.02020999       0.019
   0.06510095  0.05967446  0.02020999       0.019
   0.08680127  0.06340411  0.02020999       0.019
   0.10850159  0.06713377  0.02020999       0.019
   0.13020191  0.07086342  0.02020999       0.019
 
 k-points in reciprocal lattice and weights: pymatgen generated KPOINTS with grid den
   0.00000000  0.00000000  0.00000000       0.010
   0.07692308  0.00000000  0.00000000       0.019
   0.15384615  0.00000000  0.00000000       0.019
   0.23076923  0.00000000  0.00000000       0.019
   0.30769231  0.00000000  0.00000000       0.019
   0.38461538  0.00000000  0.00000000       0.019
   0.46153846  0.00000000  0.00000000       0.019
   0.00000000  0.25000000  0.00000000       0.019
   0.07692308  0.25000000  0.00000000       0.019
   0.15384615  0.25000000  0.00000000       0.019
   0.23076923  0.25000000  0.00000000       0.019
   0.30769231  0.25000000  0.00000000       0.019
   0.38461538  0.25000000  0.00000000       0.019
   0.46153846  0.25000000  0.00000000       0.019
  -0.46153846  0.25000000  0.00000000       0.019
  -0.38461538  0.25000000  0.00000000       0.019
  -0.30769231  0.25000000  0.00000000       0.019
  -0.23076923  0.25000000  0.00000000       0.019
  -0.15384615  0.25000000  0.00000000       0.019
  -0.07692308  0.25000000  0.00000000       0.019
   0.00000000  0.50000000  0.00000000       0.010
   0.07692308  0.50000000  0.00000000       0.019
   0.15384615  0.50000000  0.00000000       0.019
   0.23076923  0.50000000  0.00000000       0.019
   0.30769231  0.50000000  0.00000000       0.019
   0.38461538  0.50000000  0.00000000       0.019
   0.46153846  0.50000000  0.00000000       0.019
   0.00000000  0.00000000  0.50000000       0.010
   0.07692308  0.00000000  0.50000000       0.019
   0.15384615  0.00000000  0.50000000       0.019
   0.23076923  0.00000000  0.50000000       0.019
   0.30769231  0.00000000  0.50000000       0.019
   0.38461538  0.00000000  0.50000000       0.019
   0.46153846  0.00000000  0.50000000       0.019
   0.00000000  0.25000000  0.50000000       0.019
   0.07692308  0.25000000  0.50000000       0.019
   0.15384615  0.25000000  0.50000000       0.019
   0.23076923  0.25000000  0.50000000       0.019
   0.30769231  0.25000000  0.50000000       0.019
   0.38461538  0.25000000  0.50000000       0.019
   0.46153846  0.25000000  0.50000000       0.019
  -0.46153846  0.25000000  0.50000000       0.019
  -0.38461538  0.25000000  0.50000000       0.019
  -0.30769231  0.25000000  0.50000000       0.019
  -0.23076923  0.25000000  0.50000000       0.019
  -0.15384615  0.25000000  0.50000000       0.019
  -0.07692308  0.25000000  0.50000000       0.019
   0.00000000  0.50000000  0.50000000       0.010
   0.07692308  0.50000000  0.50000000       0.019
   0.15384615  0.50000000  0.50000000       0.019
   0.23076923  0.50000000  0.50000000       0.019
   0.30769231  0.50000000  0.50000000       0.019
   0.38461538  0.50000000  0.50000000       0.019
   0.46153846  0.50000000  0.50000000       0.019
 
 position of ions in fractional coordinates (direct lattice) 
   0.11390861  0.22781721  0.25895186
   0.45823796  0.91647592  0.23245754
   0.31074116  0.62148233  0.09387247
   0.99937375  0.99874749  0.09589974
   0.65507274  0.31014548  0.06735138
   0.76953624  0.53907248  0.23045083
   0.93972855  0.87945710  0.17529657
   0.20515089  0.41030179  0.20660696
   0.20187748  0.40375497  0.11095544
   0.56378998  0.12757997  0.11969946
   0.56710199  0.13420397  0.21535419
   0.82920465  0.65840929  0.15107558
 
 position of ions in cartesian coordinates  (Angst):
  -0.00000000  2.34933352  6.40653166
   0.00000000  9.45103119  5.75105582
  -0.00000000  6.40895053  2.32242776
   1.77239516 10.29944539  2.37258273
   1.77239516  3.19833237  1.66628946
   1.77239516  5.55911037  5.70140928
   1.77239516  9.06927974  4.33687969
  -0.00000000  4.23118044  5.11150614
  -0.00000000  4.16366726  2.74506440
   1.77239516  1.31565076  2.96139358
   1.77239516  1.38395991  5.32791481
   1.77239516  6.78975479  3.73764634
 


--------------------------------------------------------------------------------------------------------


 k-point  1 :   0.0000 0.0000 0.0000  plane waves:   10593
 k-point  2 :   0.0769 0.0000 0.0000  plane waves:   10606
 k-point  3 :   0.1538 0.0000 0.0000  plane waves:   10659
 k-point  4 :   0.2308 0.0000 0.0000  plane waves:   10662
 k-point  5 :   0.3077 0.0000 0.0000  plane waves:   10703
 k-point  6 :   0.3846 0.0000 0.0000  plane waves:   10704
 k-point  7 :   0.4615 0.0000 0.0000  plane waves:   10715
 k-point  8 :   0.0000 0.2500 0.0000  plane waves:   10537
 k-point  9 :   0.0769 0.2500 0.0000  plane waves:   10607
 k-point 10 :   0.1538 0.2500 0.0000  plane waves:   10635
 k-point 11 :   0.2308 0.2500 0.0000  plane waves:   10683
 k-point 12 :   0.3077 0.2500 0.0000  plane waves:   10696
 k-point 13 :   0.3846 0.2500 0.0000  plane waves:   10725
 k-point 14 :   0.4615 0.2500 0.0000  plane waves:   10732
 k-point 15 :  -0.4615 0.2500 0.0000  plane waves:   10715
 k-point 16 :  -0.3846 0.2500 0.0000  plane waves:   10701
 k-point 17 :  -0.3077 0.2500 0.0000  plane waves:   10699
 k-point 18 :  -0.2308 0.2500 0.0000  plane waves:   10668
 k-point 19 :  -0.1538 0.2500 0.0000  plane waves:   10631
 k-point 20 :  -0.0769 0.2500 0.0000  plane waves:   10617
 k-point 21 :   0.0000 0.5000 0.0000  plane waves:   10584
 k-point 22 :   0.0769 0.5000 0.0000  plane waves:   10599
 k-point 23 :   0.1538 0.5000 0.0000  plane waves:   10648
 k-point 24 :   0.2308 0.5000 0.0000  plane waves:   10689
 k-point 25 :   0.3077 0.5000 0.0000  plane waves:   10704
 k-point 26 :   0.3846 0.5000 0.0000  plane waves:   10727
 k-point 27 :   0.4615 0.5000 0.0000  plane waves:   10723
 k-point 28 :   0.0000 0.0000 0.5000  plane waves:   10586
 k-point 29 :   0.0769 0.0000 0.5000  plane waves:   10608
 k-point 30 :   0.1538 0.0000 0.5000  plane waves:   10650
 k-point 31 :   0.2308 0.0000 0.5000  plane waves:   10674
 k-point 32 :   0.3077 0.0000 0.5000  plane waves:   10698
 k-point 33 :   0.3846 0.0000 0.5000  plane waves:   10716
 k-point 34 :   0.4615 0.0000 0.5000  plane waves:   10732
 k-point 35 :   0.0000 0.2500 0.5000  plane waves:   10578
 k-point 36 :   0.0769 0.2500 0.5000  plane waves:   10616
 k-point 37 :   0.1538 0.2500 0.5000  plane waves:   10632
 k-point 38 :   0.2308 0.2500 0.5000  plane waves:   10680
 k-point 39 :   0.3077 0.2500 0.5000  plane waves:   10702
 k-point 40 :   0.3846 0.2500 0.5000  plane waves:   10726
 k-point 41 :   0.4615 0.2500 0.5000  plane waves:   10710
 k-point 42 :  -0.4615 0.2500 0.5000  plane waves:   10722
 k-point 43 :  -0.3846 0.2500 0.5000  plane waves:   10722
 k-point 44 :  -0.3077 0.2500 0.5000  plane waves:   10704
 k-point 45 :  -0.2308 0.2500 0.5000  plane waves:   10678
 k-point 46 :  -0.1538 0.2500 0.5000  plane waves:   10630
 k-point 47 :  -0.0769 0.2500 0.5000  plane waves:   10618
 k-point 48 :   0.0000 0.5000 0.5000  plane waves:   10548
 k-point 49 :   0.0769 0.5000 0.5000  plane waves:   10592
 k-point 50 :   0.1538 0.5000 0.5000  plane waves:   10632
 k-point 51 :   0.2308 0.5000 0.5000  plane waves:   10688
 k-point 52 :   0.3077 0.5000 0.5000  plane waves:   10710
 k-point 53 :   0.3846 0.5000 0.5000  plane waves:   10734
 k-point 54 :   0.4615 0.5000 0.5000  plane waves:   10732

 maximum and minimum number of plane-waves per node :      5384     5251

 maximum number of plane-waves:     10734
 maximum index in each direction: 
   IXMAX=    5   IYMAX=   14   IZMAX=   34
   IXMIN=   -5   IYMIN=  -15   IZMIN=  -35

 WARNING: aliasing errors must be expected set NGX to  22 to avoid them
 NGY is ok and might be reduce to  60
 NGZ is ok and might be reduce to 140
 aliasing errors are usually negligible using standard VASP settings
 and one can safely disregard these warnings

 real space projection operators:
  total allocation   :       1839.00 KBytes
  max/ min on nodes  :        920.38        918.62


 parallel 3D FFT for wavefunctions:
    minimum data exchange during FFTs selected (reduces bandwidth)
 parallel 3D FFT for charge:
    minimum data exchange during FFTs selected (reduces bandwidth)


 total amount of memory used by VASP on root node    94817. kBytes
========================================================================

   base      :      30000. kBytes
   nonlr-proj:       1671. kBytes
   fftplans  :       8189. kBytes
   grid      :      12825. kBytes
   one-center:         18. kBytes
   wavefun   :      42114. kBytes
 
     INWAV:  cpu time    2.62: real time    2.62
 Broyden mixing: mesh for mixing (old mesh)
   NGX = 11   NGY = 29   NGZ = 69
  (NGX  = 40   NGY  =120   NGZ  =280)
  gives a total of  22011 points

 charge density for first step will be calculated from the start-wavefunctions


--------------------------------------------------------------------------------------------------------


 Maximum index for non-local projection operator         1289
 Maximum index for augmentation-charges          798 (set IRDMAX)


--------------------------------------------------------------------------------------------------------


 initial charge from wavefunction
 First call to EWALD:  gamma=   0.183
 Maximum number of real-space cells 7x 3x 1
 Maximum number of reciprocal cells 1x 3x 6

 FEWALD executed in parallel
    FEWALD:  cpu time    0.00: real time    0.00


----------------------------------------- Iteration    1(   1)  ---------------------------------------


vdW kernel read from vdw_kernel.bindat
  0.0000  0.2424  0.5071  0.7962  1.1119  1.4567  1.8333  2.2446  2.6937  3.1842
  3.7199  4.3049  4.9438  5.6415  6.4036  7.2358  8.1446  9.1372 10.2212 11.4050
 12.6979 14.1099 15.6519 17.3360 19.1751 21.1837 23.3773 25.7729 28.3892 31.2465
 34.3669 37.7748 41.4965 45.5611 50.0000
 
    POTLOK:  cpu time   14.21: real time   14.22
    SETDIJ:  cpu time    0.01: real time    0.01
     EDDAV:  cpu time   26.22: real time   26.23
       DOS:  cpu time    0.00: real time    0.00
    CHARGE:  cpu time    1.82: real time    1.82
    MIXING:  cpu time    0.01: real time    0.01
    --------------------------------------------
      LOOP:  cpu time   42.28: real time   42.30

 eigenvalue-minimisations  :  4152
 total energy-change (2. order) :-0.6563819E+02  (-0.5217889E-06)
 number of electron      53.9999999 magnetization 
 augmentation part       -4.6143988 magnetization 

 Broyden mixing:
  rms(total) = 0.57381E-05    rms(broyden)= 0.57325E-05
  rms(prec ) = 0.78935E-05
  weight for this iteration     100.00

 Free energy of the ion-electron system (eV)
  ---------------------------------------------------
  alpha Z        PSCENC =        10.19872852
  Ewald energy   TEWEN  =      7216.85336293
  -Hartree energ DENC   =     -8656.16576705
  -exchange      EXHF   =         0.00000000
  -V(xc)+E(xc)   XCENC  =       -40.06967945
  PAW double counting   =       578.89745224     -418.28832239
  entropy T*S    EENTRO =        -0.00000000
  eigenvalues    EBANDS =      -434.08459226
  atomic energy  EATOM  =      1677.02063022
  ---------------------------------------------------
  free energy    TOTEN  =       -65.63818724 eV

  energy without entropy =      -65.63818724  energy(sigma->0) =      -65.63818724


--------------------------------------------------------------------------------------------------------




----------------------------------------- Iteration    1(   2)  ---------------------------------------


    POTLOK:  cpu time   12.65: real time   12.65
    SETDIJ:  cpu time    0.01: real time    0.01
     EDDAV:  cpu time   21.92: real time   21.92
       DOS:  cpu time    0.00: real time    0.00
    --------------------------------------------
      LOOP:  cpu time   34.58: real time   34.59

 eigenvalue-minimisations  :  3284
 total energy-change (2. order) :-0.6979585E-06  (-0.6319770E-07)
 number of electron      53.9999999 magnetization 
 augmentation part       -4.6143988 magnetization 

 Free energy of the ion-electron system (eV)
  ---------------------------------------------------
  alpha Z        PSCENC =        10.19872852
  Ewald energy   TEWEN  =      7216.85336293
  -Hartree energ DENC   =     -8656.16603273
  -exchange      EXHF   =         0.00000000
  -V(xc)+E(xc)   XCENC  =       -40.06968359
  PAW double counting   =       578.89738782     -418.28825803
  entropy T*S    EENTRO =        -0.00000000
  eigenvalues    EBANDS =      -434.08432308
  atomic energy  EATOM  =      1677.02063022
  ---------------------------------------------------
  free energy    TOTEN  =       -65.63818793 eV

  energy without entropy =      -65.63818793  energy(sigma->0) =      -65.63818793


--------------------------------------------------------------------------------------------------------




 average (electrostatic) potential at core
  the test charge radii are     0.9587  0.9892
  (the norm of the test charge is              1.0000)
       1 -91.0525       2 -91.0340       3 -91.0346       4 -90.9593       5 -91.0527
       6 -90.9602       7 -92.5214       8 -92.4917       9 -92.4972      10 -92.4919
      11 -92.4973      12 -92.5218
 
 
 
 E-fermi :  -2.6809     XC(G=0):  -4.2138     alpha+bet : -3.0561


 k-point     1 :       0.0000    0.0000    0.0000
  band No.  band energies     occupation 
      1     -15.8284      2.00000
      2     -15.0966      2.00000
      3     -14.7602      2.00000
      4     -14.3737      2.00000
      5     -13.7256      2.00000
      6     -13.2806      2.00000
      7     -10.3206      2.00000
      8     -10.1323      2.00000
      9      -9.1030      2.00000
     10      -8.7853      2.00000
     11      -8.1088      2.00000
     12      -7.0190      2.00000
     13      -6.0079      2.00000
     14      -5.8912      2.00000
     15      -5.3645      2.00000
     16      -5.3336      2.00000
     17      -5.1611      2.00000
     18      -4.7586      2.00000
     19      -4.6910      2.00000
     20      -4.3461      2.00000
     21      -4.1335      2.00000
     22      -4.0442      2.00000
     23      -3.9537      2.00000
     24      -3.8793      2.00000
     25      -3.7481      2.00000
     26      -3.5211      2.00000
     27      -3.2885      2.00000
     28      -1.1637      0.00000
     29      -0.9917      0.00000
     30      -0.6055      0.00000
     31      -0.3496      0.00000
     32      -0.2464      0.00000
     33      -0.1307      0.00000
     34       0.1175      0.00000
     35       0.3331      0.00000
     36       0.4699      0.00000

 k-point     2 :       0.0769    0.0000    0.0000
  band No.  band energies     occupation 
      1     -15.7672      2.00000
      2     -15.0446      2.00000
      3     -14.7048      2.00000
      4     -14.3116      2.00000
      5     -13.6769      2.00000
      6     -13.2324      2.00000
      7     -10.3617      2.00000
      8     -10.0920      2.00000
      9      -9.0709      2.00000
     10      -8.7800      2.00000
     11      -8.0757      2.00000
     12      -7.0249      2.00000
     13      -6.0488      2.00000
     14      -5.9270      2.00000
     15      -5.7173      2.00000
     16      -5.5702      2.00000
     17      -5.3952      2.00000
     18      -5.0376      2.00000
     19      -4.7916      2.00000
     20      -4.5077      2.00000
     21      -4.3325      2.00000
     22      -4.2768      2.00000
     23      -4.1427      2.00000
     24      -4.0209      2.00000
     25      -3.8127      2.00000
     26      -3.4654      2.00000
     27      -3.2395      2.00000
     28      -0.7563      0.00000
     29      -0.5509      0.00000
     30      -0.1827      0.00000
     31      -0.1795      0.00000
     32      -0.1030      0.00000
     33       0.2958      0.00000
     34       0.4520      0.00000
     35       0.7172      0.00000
     36       0.7310      0.00000

 k-point     3 :       0.1538    0.0000    0.0000
  band No.  band energies     occupation 
      1     -15.5848      2.00000
      2     -14.8893      2.00000
      3     -14.5405      2.00000
      4     -14.1296      2.00000
      5     -13.5356      2.00000
      6     -13.0944      2.00000
      7     -10.4637      2.00000
      8     -10.0482      2.00000
      9      -8.9975      2.00000
     10      -8.7939      2.00000
     11      -8.0036      2.00000
     12      -7.1531      2.00000
     13      -6.5097      2.00000
     14      -6.3770      2.00000
     15      -6.2746      2.00000
     16      -5.9865      2.00000
     17      -5.6231      2.00000
     18      -5.4138      2.00000
     19      -5.2725      2.00000
     20      -5.1316      2.00000
     21      -4.6920      2.00000
     22      -4.4565      2.00000
     23      -4.2348      2.00000
     24      -4.0491      2.00000
     25      -3.9525      2.00000
     26      -3.5111      2.00000
     27      -3.2465      2.00000
     28      -0.3632      0.00000
     29      -0.0422      0.00000
     30       0.0273      0.00000
     31       0.1019      0.00000
     32       0.3278      0.00000
     33       0.6374      0.00000
     34       0.7502      0.00000
     35       0.9025      0.00000
     36       1.1185      0.00000

 k-point     4 :       0.2308    0.0000    0.0000
  band No.  band energies     occupation 
      1     -15.2846      2.00000
      2     -14.6337      2.00000
      3     -14.2747      2.00000
      4     -13.8425      2.00000
      5     -13.3201      2.00000
      6     -12.8926      2.00000
      7     -10.6594      2.00000
      8     -10.1233      2.00000
      9      -8.9761      2.00000
     10      -8.9281      2.00000
     11      -8.0318      2.00000
     12      -7.6326      2.00000
     13      -7.1046      2.00000
     14      -6.8979      2.00000
     15      -6.8037      2.00000
     16      -6.4699      2.00000
     17      -6.0767      2.00000
     18      -5.7593      2.00000
     19      -5.2909      2.00000
     20      -5.2679      2.00000
     21      -4.8847      2.00000
     22      -4.7376      2.00000
     23      -4.2091      2.00000
     24      -4.1140      2.00000
     25      -4.0195      2.00000
     26      -3.7533      2.00000
     27      -3.3757      2.00000
     28      -0.4553      0.00000
     29      -0.3047      0.00000
     30      -0.0234      0.00000
     31       0.0677      0.00000
     32       0.3721      0.00000
     33       0.3861      0.00000
     34       0.5892      0.00000
     35       0.6572      0.00000
     36       0.9387      0.00000

 k-point     5 :       0.3077    0.0000    0.0000
  band No.  band energies     occupation 
      1     -14.8739      2.00000
      2     -14.2865      2.00000
      3     -13.9242      2.00000
      4     -13.4847      2.00000
      5     -13.0780      2.00000
      6     -12.7088      2.00000
      7     -10.9558      2.00000
      8     -10.3847      2.00000
      9      -9.2922      2.00000
     10      -9.1916      2.00000
     11      -8.4636      2.00000
     12      -8.2577      2.00000
     13      -7.5011      2.00000
     14      -7.0789      2.00000
     15      -6.9908      2.00000
     16      -6.5955      2.00000
     17      -6.5077      2.00000
     18      -5.6827      2.00000
     19      -5.3864      2.00000
     20      -5.2458      2.00000
     21      -5.0245      2.00000
     22      -4.8498      2.00000
     23      -4.3693      2.00000
     24      -4.1892      2.00000
     25      -4.1523      2.00000
     26      -4.0008      2.00000
     27      -3.5754      2.00000
     28      -0.7232      0.00000
     29      -0.5146      0.00000
     30      -0.3288      0.00000
     31      -0.0484      0.00000
     32       0.0689      0.00000
     33       0.3811      0.00000
     34       0.5259      0.00000
     35       0.8367      0.00000
     36       0.9253      0.00000

 k-point     6 :       0.3846    0.0000    0.0000
  band No.  band energies     occupation 
      1     -14.3670      2.00000
      2     -13.8686      2.00000
      3     -13.5275      2.00000
      4     -13.1415      2.00000
      5     -12.9265      2.00000
      6     -12.7516      2.00000
      7     -11.1312      2.00000
      8     -10.6753      2.00000
      9      -9.7590      2.00000
     10      -9.7077      2.00000
     11      -9.0598      2.00000
     12      -8.9577      2.00000
     13      -7.4996      2.00000
     14      -6.9188      2.00000
     15      -6.8168      2.00000
     16      -6.5263      2.00000
     17      -6.3565      2.00000
     18      -5.9525      2.00000
     19      -5.5640      2.00000
     20      -5.4389      2.00000
     21      -5.0606      2.00000
     22      -4.7763      2.00000
     23      -4.5781      2.00000
     24      -4.4037      2.00000
     25      -4.3214      2.00000
     26      -4.1258      2.00000
     27      -3.6677      2.00000
     28      -0.8967      0.00000
     29      -0.6012      0.00000
     30      -0.5550      0.00000
     31      -0.2202      0.00000
     32      -0.0397      0.00000
     33       0.0055      0.00000
     34       0.4248      0.00000
     35       0.5436      0.00000
     36       0.7931      0.00000

 k-point     7 :       0.4615    0.0000    0.0000
  band No.  band energies     occupation 
      1     -13.7946      2.00000
      2     -13.4472      2.00000
      3     -13.2283      2.00000
      4     -13.1410      2.00000
      5     -13.0236      2.00000
      6     -12.9326      2.00000
      7     -10.9892      2.00000
      8     -10.7359      2.00000
      9     -10.3791      2.00000
     10      -9.8628      2.00000
     11      -9.5790      2.00000
     12      -9.4814      2.00000
     13      -7.2065      2.00000
     14      -6.7953      2.00000
     15      -6.5435      2.00000
     16      -6.3450      2.00000
     17      -6.2289      2.00000
     18      -6.1305      2.00000
     19      -5.8643      2.00000
     20      -5.5511      2.00000
     21      -5.2838      2.00000
     22      -4.9759      2.00000
     23      -4.6569      2.00000
     24      -4.4774      2.00000
     25      -4.3864      2.00000
     26      -3.9745      2.00000
     27      -3.7753      2.00000
     28      -0.9240      0.00000
     29      -0.7286      0.00000
     30      -0.6320      0.00000
     31      -0.4366      0.00000
     32      -0.2150      0.00000
     33       0.1101      0.00000
     34       0.2009      0.00000
     35       0.4396      0.00000
     36       0.6218      0.00000

 k-point     8 :       0.0000    0.2500    0.0000
  band No.  band energies     occupation 
      1     -15.7728      2.00000
      2     -15.2691      2.00000
      3     -14.7578      2.00000
      4     -14.1629      2.00000
      5     -13.7694      2.00000
      6     -13.2918      2.00000
      7     -10.8114      2.00000
      8      -9.6584      2.00000
      9      -8.9625      2.00000
     10      -8.8908      2.00000
     11      -8.0330      2.00000
     12      -6.9193      2.00000
     13      -6.3161      2.00000
     14      -5.7989      2.00000
     15      -5.5326      2.00000
     16      -5.4378      2.00000
     17      -5.0248      2.00000
     18      -4.6933      2.00000
     19      -4.6565      2.00000
     20      -4.4325      2.00000
     21      -4.2663      2.00000
     22      -4.1971      2.00000
     23      -3.9398      2.00000
     24      -3.7396      2.00000
     25      -3.6774      2.00000
     26      -3.4385      2.00000
     27      -3.2156      2.00000
     28      -1.1167      0.00000
     29      -0.9410      0.00000
     30      -0.5865      0.00000
     31      -0.4593      0.00000
     32      -0.1794      0.00000
     33      -0.0708      0.00000
     34       0.2655      0.00000
     35       0.3436      0.00000
     36       0.6153      0.00000

 k-point     9 :       0.0769    0.2500    0.0000
  band No.  band energies     occupation 
      1     -15.6960      2.00000
      2     -15.2501      2.00000
      3     -14.7009      2.00000
      4     -14.0631      2.00000
      5     -13.7281      2.00000
      6     -13.2482      2.00000
      7     -10.8706      2.00000
      8      -9.6065      2.00000
      9      -8.9707      2.00000
     10      -8.8211      2.00000
     11      -7.9865      2.00000
     12      -6.9715      2.00000
     13      -6.3779      2.00000
     14      -5.9341      2.00000
     15      -5.7056      2.00000
     16      -5.6139      2.00000
     17      -5.3261      2.00000
     18      -4.9955      2.00000
     19      -4.7945      2.00000
     20      -4.6085      2.00000
     21      -4.4433      2.00000
     22      -4.3098      2.00000
     23      -4.1360      2.00000
     24      -4.0548      2.00000
     25      -3.6643      2.00000
     26      -3.3766      2.00000
     27      -3.1705      2.00000
     28      -0.7129      0.00000
     29      -0.5229      0.00000
     30      -0.3712      0.00000
     31      -0.1003      0.00000
     32      -0.0977      0.00000
     33       0.3377      0.00000
     34       0.6548      0.00000
     35       0.6778      0.00000
     36       0.8489      0.00000

 k-point    10 :       0.1538    0.2500    0.0000
  band No.  band energies     occupation 
      1     -15.4998      2.00000
      2     -15.1141      2.00000
      3     -14.5352      2.00000
      4     -13.8654      2.00000
      5     -13.5892      2.00000
      6     -13.1079      2.00000
      7     -10.9383      2.00000
      8      -9.5806      2.00000
      9      -8.9494      2.00000
     10      -8.7904      2.00000
     11      -7.9440      2.00000
     12      -7.1314      2.00000
     13      -6.6809      2.00000
     14      -6.5837      2.00000
     15      -6.2666      2.00000
     16      -5.9144      2.00000
     17      -5.5212      2.00000
     18      -5.2762      2.00000
     19      -5.2520      2.00000
     20      -5.0578      2.00000
     21      -4.9012      2.00000
     22      -4.6146      2.00000
     23      -4.2350      2.00000
     24      -4.1777      2.00000
     25      -3.7936      2.00000
     26      -3.4327      2.00000
     27      -3.1839      2.00000
     28      -0.6399      0.00000
     29      -0.1849      0.00000
     30       0.0387      0.00000
     31       0.1268      0.00000
     32       0.4290      0.00000
     33       0.7550      0.00000
     34       0.8072      0.00000
     35       0.9626      0.00000
     36       1.0445      0.00000

 k-point    11 :       0.2308    0.2500    0.0000
  band No.  band energies     occupation 
      1     -15.1890      2.00000
      2     -14.8637      2.00000
      3     -14.2687      2.00000
      4     -13.5891      2.00000
      5     -13.3688      2.00000
      6     -12.8917      2.00000
      7     -11.0723      2.00000
      8      -9.6803      2.00000
      9      -8.9916      2.00000
     10      -8.9380      2.00000
     11      -8.1164      2.00000
     12      -7.5017      2.00000
     13      -7.3248      2.00000
     14      -6.9592      2.00000
     15      -6.8387      2.00000
     16      -6.3079      2.00000
     17      -6.0241      2.00000
     18      -5.5213      2.00000
     19      -5.3858      2.00000
     20      -5.2315      2.00000
     21      -4.8998      2.00000
     22      -4.8277      2.00000
     23      -4.2854      2.00000
     24      -4.1752      2.00000
     25      -4.0738      2.00000
     26      -3.6790      2.00000
     27      -3.3291      2.00000
     28      -0.8636      0.00000
     29      -0.7059      0.00000
     30      -0.0644      0.00000
     31       0.2649      0.00000
     32       0.3882      0.00000
     33       0.4970      0.00000
     34       0.7584      0.00000
     35       0.9673      0.00000
     36       1.0248      0.00000

 k-point    12 :       0.3077    0.2500    0.0000
  band No.  band energies     occupation 
      1     -14.7731      2.00000
      2     -14.5060      2.00000
      3     -13.9191      2.00000
      4     -13.2760      2.00000
      5     -13.1072      2.00000
      6     -12.6872      2.00000
      7     -11.2734      2.00000
      8     -10.0030      2.00000
      9      -9.4131      2.00000
     10      -9.2563      2.00000
     11      -8.4841      2.00000
     12      -8.2148      2.00000
     13      -7.6723      2.00000
     14      -7.2289      2.00000
     15      -6.7080      2.00000
     16      -6.6128      2.00000
     17      -6.3103      2.00000
     18      -5.6440      2.00000
     19      -5.3067      2.00000
     20      -5.1758      2.00000
     21      -5.0423      2.00000
     22      -4.7848      2.00000
     23      -4.6138      2.00000
     24      -4.2585      2.00000
     25      -4.1672      2.00000
     26      -4.0295      2.00000
     27      -3.5841      2.00000
     28      -1.0661      0.00000
     29      -1.0087      0.00000
     30      -0.1378      0.00000
     31      -0.0088      0.00000
     32       0.1626      0.00000
     33       0.3383      0.00000
     34       0.6818      0.00000
     35       0.8702      0.00000
     36       1.0806      0.00000

 k-point    13 :       0.3846    0.2500    0.0000
  band No.  band energies     occupation 
      1     -14.2706      2.00000
      2     -14.0578      2.00000
      3     -13.5261      2.00000
      4     -13.0184      2.00000
      5     -12.8989      2.00000
      6     -12.7650      2.00000
      7     -11.2635      2.00000
      8     -10.4081      2.00000
      9     -10.0807      2.00000
     10      -9.6504      2.00000
     11      -8.9917      2.00000
     12      -8.9580      2.00000
     13      -7.6335      2.00000
     14      -7.0753      2.00000
     15      -6.7276      2.00000
     16      -6.3971      2.00000
     17      -6.1617      2.00000
     18      -5.6583      2.00000
     19      -5.5692      2.00000
     20      -5.4255      2.00000
     21      -5.1915      2.00000
     22      -4.9179      2.00000
     23      -4.5947      2.00000
     24      -4.4411      2.00000
     25      -4.3629      2.00000
     26      -4.1370      2.00000
     27      -3.7239      2.00000
     28      -1.0955      0.00000
     29      -0.9429      0.00000
     30      -0.4819      0.00000
     31      -0.2879      0.00000
     32      -0.1223      0.00000
     33       0.3045      0.00000
     34       0.3962      0.00000
     35       0.6617      0.00000
     36       0.7907      0.00000

 k-point    14 :       0.4615    0.2500    0.0000
  band No.  band energies     occupation 
      1     -13.7221      2.00000
      2     -13.5645      2.00000
      3     -13.2440      2.00000
      4     -13.1583      2.00000
      5     -12.9958      2.00000
      6     -12.8775      2.00000
      7     -10.8581      2.00000
      8     -10.6988      2.00000
      9     -10.6234      2.00000
     10      -9.8088      2.00000
     11      -9.6078      2.00000
     12      -9.4411      2.00000
     13      -7.3102      2.00000
     14      -6.7627      2.00000
     15      -6.4794      2.00000
     16      -6.4191      2.00000
     17      -6.2285      2.00000
     18      -5.9549      2.00000
     19      -5.7820      2.00000
     20      -5.5641      2.00000
     21      -5.2732      2.00000
     22      -4.9330      2.00000
     23      -4.8915      2.00000
     24      -4.4379      2.00000
     25      -4.4056      2.00000
     26      -3.9595      2.00000
     27      -3.8072      2.00000
     28      -0.8746      0.00000
     29      -0.7725      0.00000
     30      -0.7195      0.00000
     31      -0.5386      0.00000
     32      -0.2219      0.00000
     33       0.1562      0.00000
     34       0.2246      0.00000
     35       0.4322      0.00000
     36       0.6191      0.00000

 k-point    15 :      -0.4615    0.2500    0.0000
  band No.  band energies     occupation 
      1     -13.8285      2.00000
      2     -13.3714      2.00000
      3     -13.2130      2.00000
      4     -13.1089      2.00000
      5     -13.0453      2.00000
      6     -13.0043      2.00000
      7     -11.0568      2.00000
      8     -10.7295      2.00000
      9     -10.2450      2.00000
     10      -9.8959      2.00000
     11      -9.5763      2.00000
     12      -9.5182      2.00000
     13      -7.0187      2.00000
     14      -6.8761      2.00000
     15      -6.6544      2.00000
     16      -6.2882      2.00000
     17      -6.2820      2.00000
     18      -6.1755      2.00000
     19      -5.9343      2.00000
     20      -5.6443      2.00000
     21      -5.0858      2.00000
     22      -4.9675      2.00000
     23      -4.6780      2.00000
     24      -4.4566      2.00000
     25      -4.4067      2.00000
     26      -3.9650      2.00000
     27      -3.7521      2.00000
     28      -0.9337      0.00000
     29      -0.6573      0.00000
     30      -0.5120      0.00000
     31      -0.5080      0.00000
     32      -0.0870      0.00000
     33       0.0895      0.00000
     34       0.2800      0.00000
     35       0.3262      0.00000
     36       0.5262      0.00000

 k-point    16 :      -0.3846    0.2500    0.0000
  band No.  band energies     occupation 
      1     -14.3936      2.00000
      2     -13.7850      2.00000
      3     -13.5257      2.00000
      4     -13.2207      2.00000
      5     -12.9298      2.00000
      6     -12.7468      2.00000
      7     -11.0415      2.00000
      8     -10.7902      2.00000
      9      -9.7335      2.00000
     10      -9.6278      2.00000
     11      -9.1117      2.00000
     12      -8.9608      2.00000
     13      -7.3361      2.00000
     14      -7.1358      2.00000
     15      -6.6948      2.00000
     16      -6.5586      2.00000
     17      -6.3721      2.00000
     18      -6.0177      2.00000
     19      -5.6993      2.00000
     20      -5.4546      2.00000
     21      -4.9931      2.00000
     22      -4.7900      2.00000
     23      -4.5395      2.00000
     24      -4.3956      2.00000
     25      -4.2462      2.00000
     26      -4.1051      2.00000
     27      -3.6504      2.00000
     28      -0.9396      0.00000
     29      -0.4998      0.00000
     30      -0.3889      0.00000
     31      -0.1728      0.00000
     32      -0.0233      0.00000
     33       0.1314      0.00000
     34       0.2999      0.00000
     35       0.4262      0.00000
     36       0.6494      0.00000

 k-point    17 :      -0.3077    0.2500    0.0000
  band No.  band energies     occupation 
      1     -14.8863      2.00000
      2     -14.2453      2.00000
      3     -13.9239      2.00000
      4     -13.5306      2.00000
      5     -13.0701      2.00000
      6     -12.7145      2.00000
      7     -10.8564      2.00000
      8     -10.4882      2.00000
      9      -9.2970      2.00000
     10      -9.1607      2.00000
     11      -8.4586      2.00000
     12      -8.2663      2.00000
     13      -7.4384      2.00000
     14      -7.1744      2.00000
     15      -6.9361      2.00000
     16      -6.5949      2.00000
     17      -6.5306      2.00000
     18      -5.7472      2.00000
     19      -5.3845      2.00000
     20      -5.2405      2.00000
     21      -5.0398      2.00000
     22      -4.8382      2.00000
     23      -4.3312      2.00000
     24      -4.1749      2.00000
     25      -4.1472      2.00000
     26      -3.9952      2.00000
     27      -3.5767      2.00000
     28      -0.6939      0.00000
     29      -0.3881      0.00000
     30      -0.3154      0.00000
     31      -0.0297      0.00000
     32       0.0860      0.00000
     33       0.3841      0.00000
     34       0.4339      0.00000
     35       0.7347      0.00000
     36       0.8798      0.00000

 k-point    18 :      -0.2308    0.2500    0.0000
  band No.  band energies     occupation 
      1     -15.2803      2.00000
      2     -14.6482      2.00000
      3     -14.2746      2.00000
      4     -13.8253      2.00000
      5     -13.3237      2.00000
      6     -12.8914      2.00000
      7     -10.6999      2.00000
      8     -10.0811      2.00000
      9      -8.9754      2.00000
     10      -8.9312      2.00000
     11      -8.0340      2.00000
     12      -7.6279      2.00000
     13      -7.1257      2.00000
     14      -6.8906      2.00000
     15      -6.8074      2.00000
     16      -6.4653      2.00000
     17      -6.0714      2.00000
     18      -5.7400      2.00000
     19      -5.2942      2.00000
     20      -5.2617      2.00000
     21      -4.9049      2.00000
     22      -4.7404      2.00000
     23      -4.1995      2.00000
     24      -4.1158      2.00000
     25      -4.0326      2.00000
     26      -3.7474      2.00000
     27      -3.3720      2.00000
     28      -0.4969      0.00000
     29      -0.3256      0.00000
     30      -0.0474      0.00000
     31       0.0773      0.00000
     32       0.3907      0.00000
     33       0.4103      0.00000
     34       0.6159      0.00000
     35       0.6668      0.00000
     36       0.9480      0.00000

 k-point    19 :      -0.1538    0.2500    0.0000
  band No.  band energies     occupation 
      1     -15.5632      2.00000
      2     -14.9622      2.00000
      3     -14.5400      2.00000
      4     -14.0413      2.00000
      5     -13.5544      2.00000
      6     -13.0934      2.00000
      7     -10.6771      2.00000
      8      -9.8286      2.00000
      9      -8.9512      2.00000
     10      -8.8454      2.00000
     11      -7.9794      2.00000
     12      -7.1298      2.00000
     13      -6.5855      2.00000
     14      -6.4504      2.00000
     15      -6.2303      2.00000
     16      -5.9902      2.00000
     17      -5.6098      2.00000
     18      -5.3675      2.00000
     19      -5.2175      2.00000
     20      -5.1272      2.00000
     21      -4.8154      2.00000
     22      -4.4793      2.00000
     23      -4.2190      2.00000
     24      -4.0656      2.00000
     25      -3.9118      2.00000
     26      -3.4960      2.00000
     27      -3.2231      2.00000
     28      -0.5161      0.00000
     29      -0.0876      0.00000
     30       0.0522      0.00000
     31       0.1353      0.00000
     32       0.3799      0.00000
     33       0.6430      0.00000
     34       0.8233      0.00000
     35       0.9451      0.00000
     36       0.9992      0.00000

 k-point    20 :      -0.0769    0.2500    0.0000
  band No.  band energies     occupation 
      1     -15.7284      2.00000
      2     -15.1719      2.00000
      3     -14.7035      2.00000
      4     -14.1561      2.00000
      5     -13.7096      2.00000
      6     -13.2369      2.00000
      7     -10.7386      2.00000
      8      -9.7172      2.00000
      9      -8.9480      2.00000
     10      -8.8955      2.00000
     11      -8.0223      2.00000
     12      -6.9465      2.00000
     13      -6.2863      2.00000
     14      -5.9220      2.00000
     15      -5.7347      2.00000
     16      -5.5946      2.00000
     17      -5.3793      2.00000
     18      -5.0122      2.00000
     19      -4.7016      2.00000
     20      -4.5975      2.00000
     21      -4.4107      2.00000
     22      -4.2941      2.00000
     23      -4.1041      2.00000
     24      -4.0646      2.00000
     25      -3.7329      2.00000
     26      -3.4295      2.00000
     27      -3.1925      2.00000
     28      -0.7270      0.00000
     29      -0.5004      0.00000
     30      -0.3784      0.00000
     31      -0.1380      0.00000
     32      -0.0949      0.00000
     33       0.3718      0.00000
     34       0.5539      0.00000
     35       0.7004      0.00000
     36       0.9055      0.00000

 k-point    21 :       0.0000    0.5000    0.0000
  band No.  band energies     occupation 
      1     -15.6745      2.00000
      2     -15.4511      2.00000
      3     -14.7510      2.00000
      4     -13.9706      2.00000
      5     -13.7973      2.00000
      6     -13.3399      2.00000
      7     -11.0341      2.00000
      8      -9.5160      2.00000
      9      -9.0943      2.00000
     10      -8.5629      2.00000
     11      -7.8587      2.00000
     12      -7.3012      2.00000
     13      -6.2764      2.00000
     14      -5.6721      2.00000
     15      -5.5053      2.00000
     16      -5.4816      2.00000
     17      -5.0030      2.00000
     18      -4.8957      2.00000
     19      -4.6911      2.00000
     20      -4.5026      2.00000
     21      -4.3865      2.00000
     22      -4.3497      2.00000
     23      -3.9243      2.00000
     24      -3.6368      2.00000
     25      -3.5793      2.00000
     26      -3.1866      2.00000
     27      -3.1803      2.00000
     28      -1.1101      0.00000
     29      -0.8922      0.00000
     30      -0.5659      0.00000
     31      -0.5499      0.00000
     32      -0.1908      0.00000
     33      -0.0732      0.00000
     34       0.2690      0.00000
     35       0.3198      0.00000
     36       0.3385      0.00000

 k-point    22 :       0.0769    0.5000    0.0000
  band No.  band energies     occupation 
      1     -15.6197      2.00000
      2     -15.3856      2.00000
      3     -14.6958      2.00000
      4     -13.9246      2.00000
      5     -13.7467      2.00000
      6     -13.2842      2.00000
      7     -11.0268      2.00000
      8      -9.5061      2.00000
      9      -9.0617      2.00000
     10      -8.5850      2.00000
     11      -7.8748      2.00000
     12      -7.2514      2.00000
     13      -6.3313      2.00000
     14      -5.9589      2.00000
     15      -5.6735      2.00000
     16      -5.5701      2.00000
     17      -5.2988      2.00000
     18      -4.9987      2.00000
     19      -4.8573      2.00000
     20      -4.7313      2.00000
     21      -4.4494      2.00000
     22      -4.3900      2.00000
     23      -4.2087      2.00000
     24      -4.0043      2.00000
     25      -3.5779      2.00000
     26      -3.2373      2.00000
     27      -3.1517      2.00000
     28      -0.6930      0.00000
     29      -0.6225      0.00000
     30      -0.2640      0.00000
     31      -0.0752      0.00000
     32      -0.0104      0.00000
     33       0.1712      0.00000
     34       0.4537      0.00000
     35       0.5221      0.00000
     36       0.6061      0.00000

 k-point    23 :       0.1538    0.5000    0.0000
  band No.  band energies     occupation 
      1     -15.4548      2.00000
      2     -15.1921      2.00000
      3     -14.5323      2.00000
      4     -13.7893      2.00000
      5     -13.5990      2.00000
      6     -13.1249      2.00000
      7     -11.0265      2.00000
      8      -9.5116      2.00000
      9      -8.9900      2.00000
     10      -8.6872      2.00000
     11      -7.9342      2.00000
     12      -7.1852      2.00000
     13      -6.7094      2.00000
     14      -6.5893      2.00000
     15      -6.3175      2.00000
     16      -5.8755      2.00000
     17      -5.4675      2.00000
     18      -5.3020      2.00000
     19      -5.2095      2.00000
     20      -5.0216      2.00000
     21      -4.9107      2.00000
     22      -4.6877      2.00000
     23      -4.2581      2.00000
     24      -4.2410      2.00000
     25      -3.7498      2.00000
     26      -3.3952      2.00000
     27      -3.1697      2.00000
     28      -0.6525      0.00000
     29      -0.2255      0.00000
     30      -0.0155      0.00000
     31       0.1709      0.00000
     32       0.4543      0.00000
     33       0.6404      0.00000
     34       0.7695      0.00000
     35       0.8176      0.00000
     36       0.9866      0.00000

 k-point    24 :       0.2308    0.5000    0.0000
  band No.  band energies     occupation 
      1     -15.1799      2.00000
      2     -14.8793      2.00000
      3     -14.2682      2.00000
      4     -13.5752      2.00000
      5     -13.3704      2.00000
      6     -12.8933      2.00000
      7     -11.0900      2.00000
      8      -9.6608      2.00000
      9      -8.9941      2.00000
     10      -8.9357      2.00000
     11      -8.1244      2.00000
     12      -7.4901      2.00000
     13      -7.3342      2.00000
     14      -6.9693      2.00000
     15      -6.8396      2.00000
     16      -6.2926      2.00000
     17      -6.0225      2.00000
     18      -5.5457      2.00000
     19      -5.3573      2.00000
     20      -5.2312      2.00000
     21      -4.8868      2.00000
     22      -4.8372      2.00000
     23      -4.3037      2.00000
     24      -4.1784      2.00000
     25      -4.0711      2.00000
     26      -3.6759      2.00000
     27      -3.3271      2.00000
     28      -0.8785      0.00000
     29      -0.7276      0.00000
     30      -0.0588      0.00000
     31       0.2722      0.00000
     32       0.3848      0.00000
     33       0.5166      0.00000
     34       0.7649      0.00000
     35       0.9656      0.00000
     36       1.0326      0.00000

 k-point    25 :       0.3077    0.5000    0.0000
  band No.  band energies     occupation 
      1     -14.7993      2.00000
      2     -14.4614      2.00000
      3     -13.9204      2.00000
      4     -13.3099      2.00000
      5     -13.1049      2.00000
      6     -12.6899      2.00000
      7     -11.2254      2.00000
      8     -10.0721      2.00000
      9      -9.3639      2.00000
     10      -9.2618      2.00000
     11      -8.4810      2.00000
     12      -8.2219      2.00000
     13      -7.6501      2.00000
     14      -7.1897      2.00000
     15      -6.7651      2.00000
     16      -6.6050      2.00000
     17      -6.3785      2.00000
     18      -5.5542      2.00000
     19      -5.3801      2.00000
     20      -5.2077      2.00000
     21      -5.0262      2.00000
     22      -4.8127      2.00000
     23      -4.5552      2.00000
     24      -4.2497      2.00000
     25      -4.1634      2.00000
     26      -4.0249      2.00000
     27      -3.5805      2.00000
     28      -1.0087      0.00000
     29      -0.9304      0.00000
     30      -0.1411      0.00000
     31      -0.0254      0.00000
     32       0.1479      0.00000
     33       0.2670      0.00000
     34       0.6918      0.00000
     35       0.8667      0.00000
     36       1.1111      0.00000

 k-point    26 :       0.3846    0.5000    0.0000
  band No.  band energies     occupation 
      1     -14.3246      2.00000
      2     -13.9660      2.00000
      3     -13.5272      2.00000
      4     -13.0651      2.00000
      5     -12.9171      2.00000
      6     -12.7582      2.00000
      7     -11.2089      2.00000
      8     -10.5478      2.00000
      9      -9.9159      2.00000
     10      -9.6772      2.00000
     11      -9.0174      2.00000
     12      -8.9565      2.00000
     13      -7.5890      2.00000
     14      -6.9660      2.00000
     15      -6.7841      2.00000
     16      -6.4217      2.00000
     17      -6.3300      2.00000
     18      -5.8318      2.00000
     19      -5.4808      2.00000
     20      -5.4158      2.00000
     21      -5.1505      2.00000
     22      -4.8311      2.00000
     23      -4.5997      2.00000
     24      -4.4276      2.00000
     25      -4.3558      2.00000
     26      -4.1386      2.00000
     27      -3.6949      2.00000
     28      -1.0258      0.00000
     29      -0.7518      0.00000
     30      -0.4856      0.00000
     31      -0.2172      0.00000
     32      -0.1478      0.00000
     33       0.0287      0.00000
     34       0.3952      0.00000
     35       0.6403      0.00000
     36       0.9542      0.00000

 k-point    27 :       0.4615    0.5000    0.0000
  band No.  band energies     occupation 
      1     -13.7831      2.00000
      2     -13.4691      2.00000
      3     -13.2319      2.00000
      4     -13.1460      2.00000
      5     -13.0172      2.00000
      6     -12.9189      2.00000
      7     -10.9666      2.00000
      8     -10.7366      2.00000
      9     -10.4188      2.00000
     10      -9.8525      2.00000
     11      -9.5833      2.00000
     12      -9.4716      2.00000
     13      -7.2363      2.00000
     14      -6.7726      2.00000
     15      -6.5503      2.00000
     16      -6.3631      2.00000
     17      -6.2284      2.00000
     18      -6.0695      2.00000
     19      -5.8460      2.00000
     20      -5.5563      2.00000
     21      -5.3039      2.00000
     22      -4.9796      2.00000
     23      -4.6751      2.00000
     24      -4.4737      2.00000
     25      -4.3873      2.00000
     26      -3.9748      2.00000
     27      -3.7812      2.00000
     28      -0.9449      0.00000
     29      -0.7085      0.00000
     30      -0.6451      0.00000
     31      -0.4265      0.00000
     32      -0.2407      0.00000
     33       0.0575      0.00000
     34       0.1968      0.00000
     35       0.4809      0.00000
     36       0.6445      0.00000

 k-point    28 :       0.0000    0.0000    0.5000
  band No.  band energies     occupation 
      1     -15.8284      2.00000
      2     -15.0966      2.00000
      3     -14.7602      2.00000
      4     -14.3736      2.00000
      5     -13.7256      2.00000
      6     -13.2805      2.00000
      7     -10.3206      2.00000
      8     -10.1322      2.00000
      9      -9.1030      2.00000
     10      -8.7853      2.00000
     11      -8.1088      2.00000
     12      -7.0190      2.00000
     13      -6.0078      2.00000
     14      -5.8912      2.00000
     15      -5.3645      2.00000
     16      -5.3335      2.00000
     17      -5.1611      2.00000
     18      -4.7585      2.00000
     19      -4.6910      2.00000
     20      -4.3461      2.00000
     21      -4.1334      2.00000
     22      -4.0442      2.00000
     23      -3.9537      2.00000
     24      -3.8793      2.00000
     25      -3.7481      2.00000
     26      -3.5210      2.00000
     27      -3.2885      2.00000
     28      -1.1636      0.00000
     29      -0.9914      0.00000
     30      -0.6054      0.00000
     31      -0.3496      0.00000
     32      -0.2511      0.00000
     33      -0.1307      0.00000
     34       0.1176      0.00000
     35       0.3333      0.00000
     36       0.4699      0.00000

 k-point    29 :       0.0769    0.0000    0.5000
  band No.  band energies     occupation 
      1     -15.7672      2.00000
      2     -15.0446      2.00000
      3     -14.7048      2.00000
      4     -14.3116      2.00000
      5     -13.6769      2.00000
      6     -13.2324      2.00000
      7     -10.3616      2.00000
      8     -10.0920      2.00000
      9      -9.0709      2.00000
     10      -8.7800      2.00000
     11      -8.0757      2.00000
     12      -7.0249      2.00000
     13      -6.0488      2.00000
     14      -5.9270      2.00000
     15      -5.7173      2.00000
[...]
     32       0.3941      0.00000
     33       0.5038      0.00000
     34       0.6632      0.00000
     35       0.8476      0.00000
     36       0.9648      0.00000

 k-point    47 :      -0.0769    0.2500    0.5000
  band No.  band energies     occupation 
      1     -15.7234      2.00000
      2     -15.1641      2.00000
      3     -14.7008      2.00000
      4     -14.1479      2.00000
      5     -13.7037      2.00000
      6     -13.2294      2.00000
      7     -10.7265      2.00000
      8      -9.7055      2.00000
      9      -8.9423      2.00000
     10      -8.8881      2.00000
     11      -8.0181      2.00000
     12      -6.9369      2.00000
     13      -6.2733      2.00000
     14      -5.9089      2.00000
     15      -5.7225      2.00000
     16      -5.5864      2.00000
     17      -5.3574      2.00000
     18      -4.9943      2.00000
     19      -4.6785      2.00000
     20      -4.5837      2.00000
     21      -4.4046      2.00000
     22      -4.2732      2.00000
     23      -4.0862      2.00000
     24      -4.0521      2.00000
     25      -3.7138      2.00000
     26      -3.4213      2.00000
     27      -3.1921      2.00000
     28      -0.7101      0.00000
     29      -0.4761      0.00000
     30      -0.3570      0.00000
     31      -0.0713      0.00000
     32       0.0590      0.00000
     33       0.1925      0.00000
     34       0.4028      0.00000
     35       0.5789      0.00000
     36       0.7176      0.00000

 k-point    48 :       0.0000    0.5000    0.5000
  band No.  band energies     occupation 
      1     -15.6691      2.00000
      2     -15.4449      2.00000
      3     -14.7484      2.00000
      4     -13.9637      2.00000
      5     -13.7910      2.00000
      6     -13.3299      2.00000
      7     -11.0244      2.00000
      8      -9.5132      2.00000
      9      -9.0873      2.00000
     10      -8.5583      2.00000
     11      -7.8441      2.00000
     12      -7.2852      2.00000
     13      -6.2702      2.00000
     14      -5.6717      2.00000
     15      -5.4946      2.00000
     16      -5.4561      2.00000
     17      -4.9936      2.00000
     18      -4.8673      2.00000
     19      -4.6673      2.00000
     20      -4.5006      2.00000
     21      -4.3931      2.00000
     22      -4.3218      2.00000
     23      -3.8977      2.00000
     24      -3.6097      2.00000
     25      -3.5681      2.00000
     26      -3.1884      2.00000
     27      -3.1617      2.00000
     28      -1.0881      0.00000
     29      -0.8762      0.00000
     30      -0.5511      0.00000
     31      -0.5249      0.00000
     32      -0.1635      0.00000
     33       0.1007      0.00000
     34       0.2941      0.00000
     35       0.3498      0.00000
     36       0.5768      0.00000

 k-point    49 :       0.0769    0.5000    0.5000
  band No.  band energies     occupation 
      1     -15.6142      2.00000
      2     -15.3791      2.00000
      3     -14.6929      2.00000
      4     -13.9173      2.00000
      5     -13.7403      2.00000
      6     -13.2742      2.00000
      7     -11.0165      2.00000
      8      -9.5022      2.00000
      9      -9.0541      2.00000
     10      -8.5791      2.00000
     11      -7.8611      2.00000
     12      -7.2354      2.00000
     13      -6.3233      2.00000
     14      -5.9402      2.00000
     15      -5.6578      2.00000
     16      -5.5661      2.00000
     17      -5.2786      2.00000
     18      -4.9864      2.00000
     19      -4.8374      2.00000
     20      -4.7146      2.00000
     21      -4.4355      2.00000
     22      -4.3921      2.00000
     23      -4.1905      2.00000
     24      -3.9814      2.00000
     25      -3.5638      2.00000
     26      -3.2216      2.00000
     27      -3.1527      2.00000
     28      -0.6849      0.00000
     29      -0.5985      0.00000
     30      -0.2397      0.00000
     31      -0.0477      0.00000
     32       0.1658      0.00000
     33       0.1944      0.00000
     34       0.4836      0.00000
     35       0.5501      0.00000
     36       0.6525      0.00000

 k-point    50 :       0.1538    0.5000    0.5000
  band No.  band energies     occupation 
      1     -15.4487      2.00000
      2     -15.1850      2.00000
      3     -14.5289      2.00000
      4     -13.7812      2.00000
      5     -13.5923      2.00000
      6     -13.1146      2.00000
      7     -11.0143      2.00000
      8      -9.5041      2.00000
      9      -8.9806      2.00000
     10      -8.6783      2.00000
     11      -7.9219      2.00000
     12      -7.1693      2.00000
     13      -6.6926      2.00000
     14      -6.5775      2.00000
     15      -6.3004      2.00000
     16      -5.8569      2.00000
     17      -5.4651      2.00000
     18      -5.2894      2.00000
     19      -5.1941      2.00000
     20      -5.0048      2.00000
     21      -4.8940      2.00000
     22      -4.6736      2.00000
     23      -4.2543      2.00000
     24      -4.2414      2.00000
     25      -3.7298      2.00000
     26      -3.3844      2.00000
     27      -3.1693      2.00000
     28      -0.6421      0.00000
     29      -0.2096      0.00000
     30      -0.0020      0.00000
     31       0.3620      0.00000
     32       0.4739      0.00000
     33       0.5408      0.00000
     34       0.7738      0.00000
     35       0.8503      0.00000
     36       0.8837      0.00000

 k-point    51 :       0.2308    0.5000    0.5000
  band No.  band energies     occupation 
      1     -15.1731      2.00000
      2     -14.8712      2.00000
      3     -14.2637      2.00000
      4     -13.5658      2.00000
      5     -13.3629      2.00000
      6     -12.8825      2.00000
      7     -11.0752      2.00000
      8      -9.6471      2.00000
      9      -8.9811      2.00000
     10      -8.9246      2.00000
     11      -8.1135      2.00000
     12      -7.4735      2.00000
     13      -7.3206      2.00000
     14      -6.9575      2.00000
     15      -6.8310      2.00000
     16      -6.2762      2.00000
     17      -6.0076      2.00000
     18      -5.5260      2.00000
     19      -5.3452      2.00000
     20      -5.2331      2.00000
     21      -4.8767      2.00000
     22      -4.8217      2.00000
     23      -4.2933      2.00000
     24      -4.1814      2.00000
     25      -4.0536      2.00000
     26      -3.6679      2.00000
     27      -3.3239      2.00000
     28      -0.8669      0.00000
     29      -0.7142      0.00000
     30      -0.0552      0.00000
     31       0.2746      0.00000
     32       0.4042      0.00000
     33       0.6901      0.00000
     34       0.7753      0.00000
     35       0.9663      0.00000
     36       1.0411      0.00000

 k-point    52 :       0.3077    0.5000    0.5000
  band No.  band energies     occupation 
      1     -14.7914      2.00000
      2     -14.4520      2.00000
      3     -13.9144      2.00000
      4     -13.2992      2.00000
      5     -13.0958      2.00000
      6     -12.6783      2.00000
      7     -11.2090      2.00000
      8     -10.0555      2.00000
      9      -9.3494      2.00000
     10      -9.2475      2.00000
     11      -8.4704      2.00000
     12      -8.2056      2.00000
     13      -7.6403      2.00000
     14      -7.1823      2.00000
     15      -6.7550      2.00000
     16      -6.5976      2.00000
     17      -6.3654      2.00000
     18      -5.5341      2.00000
     19      -5.3673      2.00000
     20      -5.1952      2.00000
     21      -5.0237      2.00000
     22      -4.8001      2.00000
     23      -4.5375      2.00000
     24      -4.2419      2.00000
     25      -4.1613      2.00000
     26      -4.0216      2.00000
     27      -3.5771      2.00000
     28      -0.9979      0.00000
     29      -0.9221      0.00000
     30      -0.1354      0.00000
     31      -0.0250      0.00000
     32       0.1674      0.00000
     33       0.2766      0.00000
     34       0.6924      0.00000
     35       0.8687      0.00000
     36       1.1485      0.00000

 k-point    53 :       0.3846    0.5000    0.5000
  band No.  band energies     occupation 
      1     -14.3153      2.00000
      2     -13.9550      2.00000
      3     -13.5193      2.00000
      4     -13.0534      2.00000
      5     -12.9055      2.00000
      6     -12.7456      2.00000
      7     -11.1932      2.00000
      8     -10.5330      2.00000
      9      -9.9004      2.00000
     10      -9.6643      2.00000
     11      -9.0055      2.00000
     12      -8.9413      2.00000
     13      -7.5808      2.00000
     14      -6.9583      2.00000
     15      -6.7767      2.00000
     16      -6.4120      2.00000
     17      -6.3201      2.00000
     18      -5.8150      2.00000
     19      -5.4680      2.00000
     20      -5.4032      2.00000
     21      -5.1375      2.00000
     22      -4.8117      2.00000
     23      -4.5916      2.00000
     24      -4.4261      2.00000
     25      -4.3494      2.00000
     26      -4.1369      2.00000
     27      -3.6935      2.00000
     28      -1.0156      0.00000
     29      -0.7461      0.00000
     30      -0.4742      0.00000
     31      -0.2077      0.00000
     32      -0.1423      0.00000
     33       0.0432      0.00000
     34       0.3925      0.00000
     35       0.6413      0.00000
     36       0.9575      0.00000

 k-point    54 :       0.4615    0.5000    0.5000
  band No.  band energies     occupation 
      1     -13.7721      2.00000
      2     -13.4565      2.00000
      3     -13.2209      2.00000
      4     -13.1349      2.00000
      5     -13.0056      2.00000
      6     -12.9052      2.00000
      7     -10.9521      2.00000
      8     -10.7232      2.00000
      9     -10.4036      2.00000
     10      -9.8407      2.00000
     11      -9.5710      2.00000
     12      -9.4586      2.00000
     13      -7.2276      2.00000
     14      -6.7624      2.00000
     15      -6.5411      2.00000
     16      -6.3539      2.00000
     17      -6.2184      2.00000
     18      -6.0546      2.00000
     19      -5.8342      2.00000
     20      -5.5424      2.00000
     21      -5.2966      2.00000
     22      -4.9695      2.00000
     23      -4.6556      2.00000
     24      -4.4695      2.00000
     25      -4.3827      2.00000
     26      -3.9734      2.00000
     27      -3.7799      2.00000
     28      -0.9327      0.00000
     29      -0.6940      0.00000
     30      -0.6434      0.00000
     31      -0.4166      0.00000
     32      -0.2310      0.00000
     33       0.0655      0.00000
     34       0.1936      0.00000
     35       0.4850      0.00000
     36       0.6480      0.00000


--------------------------------------------------------------------------------------------------------


 soft charge-density along one line, spin component           1
         0         1         2         3         4         5         6         7         8         9
 total charge-density along one line
 
 pseudopotential strength for first ion, spin component:           1
 30.273   0.010  -0.001  -0.024  -0.000  -0.000  -0.001   0.000
  0.010   0.009   0.000  -0.000   0.000  -0.000   0.000  -0.000
 -0.001   0.000   6.638  -0.001  -0.000  -0.003   0.000   0.000
 -0.024  -0.000  -0.001   6.632   0.000   0.000  -0.003  -0.000
 -0.000   0.000  -0.000   0.000   6.639   0.000  -0.000  -0.003
 -0.000  -0.000  -0.003   0.000   0.000   0.015  -0.000  -0.000
 -0.001   0.000   0.000  -0.003  -0.000  -0.000   0.015   0.000
  0.000  -0.000   0.000  -0.000  -0.003  -0.000   0.000   0.015
 total augmentation occupancy for first ion, spin component:           1
  1.808  -0.379   0.006   0.261   0.000   0.003   0.109   0.000
 -0.379   1.218   0.022   0.864   0.000  -0.001  -0.457   0.000
  0.006   0.022   1.141   0.015   0.000  -0.503   0.014   0.000
  0.261   0.864   0.015   1.309   0.000   0.014  -0.419   0.000
  0.000   0.000   0.000   0.000   1.143   0.000   0.000  -0.527
  0.003  -0.001  -0.503   0.014   0.000   0.291  -0.017   0.000
  0.109  -0.457   0.014  -0.419   0.000  -0.017   0.219   0.000
  0.000   0.000   0.000   0.000  -0.527   0.000   0.000   0.324


------------------------ aborting loop because EDIFF is reached ----------------------------------------


    CHARGE:  cpu time    1.77: real time    1.77
    FORLOC:  cpu time    0.03: real time    0.03
    FORNL :  cpu time    8.10: real time    8.10
    STRESS:  cpu time   24.32: real time   24.32
    FORCOR:  cpu time   12.71: real time   12.72
    FORHAR:  cpu time    0.09: real time    0.10
    MIXING:  cpu time    0.01: real time    0.01
    OFIELD:  cpu time    0.00: real time    0.00

  FORCE on cell =-STRESS in cart. coord.  units (eV):
  Direction    XX          YY          ZZ          XY          YZ          ZX
  --------------------------------------------------------------------------------------
  Alpha Z    10.22924    10.22924    10.22924
  Ewald    8469.66871  8291.85931 -9529.26917    -0.00000   -20.78999     0.00000
  Hartree  8591.43082  8473.60626 -8392.83407    -0.00000   -10.37543    -0.00000
  E(xc)    -178.51707  -178.57472  -177.24444    -0.00001    -0.10043     0.00000
  Local  -17823.15932-17534.01644 17133.45215    -0.00004    28.73182     0.00000
  n-local   571.65636   572.57540   570.50741     0.00129     0.76679     0.00031
  augment   -99.47966  -100.09023  -101.66784     0.00006    -0.23277     0.00002
  Kinetic   458.15846   464.41197   486.38028    -0.00009     2.00759     0.00000
  Fock        0.00000     0.00000     0.00000     0.00000     0.00000     0.00000
  -------------------------------------------------------------------------------------
  Total      -0.01245     0.00080    -0.44644     0.00000     0.00758     0.00000
  in kB      -0.02212     0.00142    -0.79327     0.00000     0.01346     0.00000
  external pressure =       -0.27 kB  Pullay stress =        0.00 kB


 VOLUME and BASIS-vectors are now :
 -----------------------------------------------------------------------------
  energy-cutoff  :      300.00
  volume of cell :      901.69
      direct lattice vectors                 reciprocal lattice vectors
     3.540399671  0.000000000  0.000000000     0.282453986  0.048570339  0.000000000
    -1.770199835 10.294348483  0.000000000     0.000000000  0.097140679  0.000000000
     0.000000000  0.000000000 24.740242198     0.000000000  0.000000000  0.040419976

  length of vectors
     3.540399671 10.445440065 24.740242198     0.286599603  0.097140679  0.040419976


 FORCES acting on ions
    electron-ion (+dipol)            ewald-force                    non-local-force                 convergence-correction
 -----------------------------------------------------------------------------------------------
   -.405E-05 -.179E+01 -.382E+03   0.136E-11 0.199E+01 0.386E+03   -.347E-17 -.200E+00 -.480E+01   -.358E-10 0.187E-05 -.145E-04
   -.164E-04 0.559E+02 -.309E+03   0.114E-11 -.574E+02 0.313E+03   -.278E-16 0.155E+01 -.430E+01   -.572E-10 -.397E-05 -.128E-04
   0.125E-04 -.559E+02 0.309E+03   0.259E-11 0.574E+02 -.313E+03   -.278E-16 -.155E+01 0.430E+01   0.473E-10 0.324E-05 0.157E-04
   -.191E-04 0.524E+02 0.306E+03   0.978E-12 -.544E+02 -.310E+03   0.278E-16 0.193E+01 0.420E+01   -.213E-10 -.444E-05 0.437E-05
   0.145E-04 0.180E+01 0.382E+03   -.356E-11 -.200E+01 -.386E+03   0.000E+00 0.202E+00 0.480E+01   0.360E-10 -.195E-06 0.148E-04
   -.103E-04 -.524E+02 -.306E+03   -.261E-11 0.544E+02 0.310E+03   0.000E+00 -.193E+01 -.420E+01   0.400E-10 0.484E-05 -.355E-05
   0.132E-04 0.291E+02 -.322E+02   -.102E-11 -.312E+02 0.319E+02   -.278E-16 0.214E+01 0.355E+00   -.644E-10 -.436E-05 -.140E-05
   0.344E-05 -.820E+01 -.138E+03   0.264E-11 0.841E+01 0.135E+03   0.000E+00 -.210E+00 0.249E+01   -.213E-10 0.387E-05 0.260E-06
   0.395E-05 -.433E+01 0.155E+03   0.394E-11 0.478E+01 -.153E+03   0.000E+00 -.444E+00 -.255E+01   -.422E-10 -.439E-07 0.675E-05
   -.638E-05 0.820E+01 0.138E+03   -.148E-11 -.841E+01 -.135E+03   0.347E-17 0.208E+00 -.249E+01   0.138E-10 -.204E-05 0.187E-05
   -.273E-05 0.433E+01 -.155E+03   -.140E-11 -.477E+01 0.153E+03   0.000E+00 0.445E+00 0.256E+01   0.363E-10 0.604E-07 -.431E-05
   -.849E-05 -.291E+02 0.323E+02   -.260E-11 0.312E+02 -.319E+02   -.278E-16 -.214E+01 -.355E+00   0.702E-10 0.281E-05 0.633E-05
 -----------------------------------------------------------------------------------------------
   -.199E-04 0.270E-02 -.307E-03   -.293E-14 -.711E-14 -.320E-13   -.833E-16 0.223E-02 0.326E-02   0.143E-11 0.164E-05 0.136E-04
 
 
 POSITION                                       TOTAL-FORCE (eV/Angst)
 -----------------------------------------------------------------------------------
     -0.00000      2.34757      6.41229         0.000000      0.000186     -0.001027
      0.00000      9.43146      5.75866        -0.000000      0.000804     -0.001214
     -0.00000      6.40009      2.31424         0.000000     -0.000334      0.000681
      1.77020     10.27850      2.37373         0.000000      0.000062      0.001255
      1.77020      3.18974      1.66157        -0.000000     -0.000042     -0.000042
      1.77020      5.55355      5.69975         0.000000     -0.000984     -0.000116
      1.77020      9.05319      4.34076        -0.000000      0.000767      0.000777
     -0.00000      4.22381      5.10943         0.000000     -0.001456      0.000932
     -0.00000      4.15582      2.74167         0.000000      0.000625     -0.003409
      1.77020      1.31367      2.96439        -0.000000      0.000797     -0.000576
      1.77020      1.38162      5.33187         0.000000     -0.000616      0.003001
      1.77020      6.77850      3.73235         0.000000      0.000190     -0.000261
 -----------------------------------------------------------------------------------
    total drift:                               -0.000020      0.004934      0.002962


--------------------------------------------------------------------------------------------------------



  FREE ENERGIE OF THE ION-ELECTRON SYSTEM (eV)
  ---------------------------------------------------
  free  energy   TOTEN  =       -65.63963155 eV

  energy  without entropy=      -65.63963155  energy(sigma->0) =      -65.63963155
 
 d Force = 0.5026355E-06[ 0.234E-06, 0.772E-06]  d Energy =-0.5763436E-04 0.581E-04
 d Force = 0.7483917E-01[ 0.748E-01, 0.748E-01]  d Ewald  = 0.5160706E+00-0.441E+00


--------------------------------------------------------------------------------------------------------


    POTLOK:  cpu time   12.62: real time   12.63


--------------------------------------------------------------------------------------------------------




--------------------------------------------------------------------------------------------------------


  
 reached required accuracy - stopping structural energy minimisation
 writing wavefunctions
     LOOP+:  cpu time  342.42: real time  352.56
    4ORBIT:  cpu time    0.00: real time    0.00

 total amount of memory used by VASP on root node    94817. kBytes
========================================================================

   base      :      30000. kBytes
   nonlr-proj:       1671. kBytes
   fftplans  :       8189. kBytes
   grid      :      12825. kBytes
   one-center:         18. kBytes
   wavefun   :      42114. kBytes
 
  
  
 General timing and accounting informations for this job:
 ========================================================
  
                  Total CPU time used (sec):     7104.738
                            User time (sec):     6953.617
                          System time (sec):      151.121
                         Elapsed time (sec):     7118.278
  
                   Maximum memory used (kb):      269748.
                   Average memory used (kb):           0.
  
                          Minor page faults:     31021715
                          Major page faults:            7
                 Voluntary context switches:         7712
