unknown system                          
           1
     3.544790    0.000000    0.000000
    -1.772395   10.312362    0.000000
     0.000000    0.000000   24.740242
   P    Si
   6   6
unknown system                          
           1
     3.540531    0.000000    0.000000
    -1.770265   10.301780    0.000000
     0.000000    0.000000   24.740242
   P    Si
   6   6
Direct configuration=     1
   0.11390861  0.22781721  0.25895186
   0.45823796  0.91647592  0.23245754
   0.31074116  0.62148233  0.09387247
   0.99937375  0.99874749  0.09589974
   0.65507274  0.31014548  0.06735138
   0.76953624  0.53907248  0.23045083
   0.93972855  0.87945710  0.17529657
   0.20515089  0.41030179  0.20660696
   0.20187748  0.40375497  0.11095544
   0.56378998  0.12757997  0.11969946
   0.56710199  0.13420397  0.21535419
   0.82920465  0.65840929  0.15107558
unknown system                          
           1
     3.540524    0.000000    0.000000
    -1.770262   10.301762    0.000000
     0.000000    0.000000   24.740242
   P    Si
   6   6
Direct configuration=     2
   0.11390761  0.22781521  0.25898350
   0.45822682  0.91645364  0.23251000
   0.31075261  0.62150523  0.09382757
   0.99936040  0.99872080  0.09586493
   0.65506159  0.31012318  0.06732912
   0.76955392  0.53910785  0.23048869
   0.93974134  0.87948268  0.17529455
   0.20512913  0.41025826  0.20658967
   0.20187254  0.40374508  0.11096110
   0.56381682  0.12763363  0.11972055
   0.56710218  0.13420436  0.21533956
   0.82919904  0.65839808  0.15106278
unknown system                          
           1
     3.540319    0.000000    0.000000
    -1.770159   10.300899    0.000000
     0.000000    0.000000   24.740242
   P    Si
   6   6
Direct configuration=     3
   0.11390760  0.22781521  0.25898356
   0.45822680  0.91645361  0.23251009
   0.31075263  0.62150527  0.09382749
   0.99936037  0.99872075  0.09586487
   0.65506157  0.31012314  0.06732908
   0.76955395  0.53910791  0.23048876
   0.93974136  0.87948272  0.17529454
   0.20512909  0.41025818  0.20658964
   0.20187253  0.40374506  0.11096111
   0.56381686  0.12763373  0.11972059
   0.56710218  0.13420436  0.21533954
   0.82919903  0.65839806  0.15106276
unknown system                          
           1
     3.540275    0.000000    0.000000
    -1.770137   10.300714    0.000000
     0.000000    0.000000   24.740242
   P    Si
   6   6
Direct configuration=     4
   0.11390914  0.22781828  0.25903769
   0.45818787  0.91637574  0.23257218
   0.31078966  0.62157932  0.09376553
   0.99931777  0.99863555  0.09582254
   0.65504913  0.31009826  0.06727787
   0.76960603  0.53921206  0.23052924
   0.93975857  0.87951714  0.17529482
   0.20509852  0.41019705  0.20657596
   0.20185846  0.40371691  0.11096530
   0.56384586  0.12769172  0.11973912
   0.56711304  0.13422608  0.21533449
   0.82918995  0.65837989  0.15105726
unknown system                          
           1
     3.540178    0.000000    0.000000
    -1.770089   10.298508    0.000000
     0.000000    0.000000   24.740242
   P    Si
   6   6
Direct configuration=     5
   0.11390947  0.22781893  0.25904931
   0.45817951  0.91635903  0.23258551
   0.31079761  0.62159523  0.09375223
   0.99930863  0.99861725  0.09581345
   0.65504646  0.31009292  0.06726687
   0.76961721  0.53923443  0.23053793
   0.93976226  0.87952452  0.17529487
   0.20509196  0.41018392  0.20657303
   0.20185543  0.40371087  0.11096620
   0.56385209  0.12770417  0.11974310
   0.56711537  0.13423074  0.21533340
   0.82918800  0.65837599  0.15105608
unknown system                          
           1
     3.540112    0.000000    0.000000
    -1.770056   10.297029    0.000000
     0.000000    0.000000   24.740242
   P    Si
   6   6
Direct configuration=     6
   0.11391150  0.22782300  0.25909002
   0.45816064  0.91632128  0.23262202
   0.31081337  0.62162674  0.09371165
   0.99928968  0.99857937  0.09579594
   0.65503576  0.31007153  0.06722678
   0.76964421  0.53928841  0.23055182
   0.93976214  0.87952429  0.17530964
   0.20509917  0.41019835  0.20660114
   0.20186056  0.40372112  0.11092721
   0.56384558  0.12769117  0.11971947
   0.56710583  0.13421167  0.21537689
   0.82919554  0.65839108  0.15103943
unknown system                          
           1
     3.540062    0.000000    0.000000
    -1.770031   10.297087    0.000000
     0.000000    0.000000   24.740242
   P    Si
   6   6
Direct configuration=     7
   0.11391286  0.22782572  0.25911730
   0.45814799  0.91629597  0.23264649
   0.31082394  0.62164787  0.09368444
   0.99927699  0.99855397  0.09578420
   0.65502859  0.31005719  0.06719990
   0.76966230  0.53932460  0.23056113
   0.93976206  0.87952413  0.17531954
   0.20510401  0.41020802  0.20661999
   0.20186400  0.40372800  0.11090107
   0.56384122  0.12768245  0.11970363
   0.56709944  0.13419888  0.21540604
   0.82920060  0.65840120  0.15102827
unknown system                          
           1
     3.540050    0.000000    0.000000
    -1.770025   10.297100    0.000000
     0.000000    0.000000   24.740242
   P    Si
   6   6
Direct configuration=     8
   0.11391494  0.22782989  0.25914750
   0.45813160  0.91626321  0.23264777
   0.31083758  0.62167516  0.09368087
   0.99926293  0.99852586  0.09579701
   0.65502734  0.31005468  0.06717188
   0.76967742  0.53935485  0.23054702
   0.93976574  0.87953147  0.17534078
   0.20512620  0.41025239  0.20661674
   0.20186873  0.40373747  0.11089308
   0.56382120  0.12764241  0.11970986
   0.56709130  0.13418259  0.21541735
   0.82919901  0.65839802  0.15100215
unknown system                          
           1
     3.540131    0.000000    0.000000
    -1.770065   10.296181    0.000000
     0.000000    0.000000   24.740242
   P    Si
   6   6
Direct configuration=     9
   0.11391543  0.22783087  0.25915460
   0.45812775  0.91625551  0.23264807
   0.31084079  0.62168157  0.09368004
   0.99925963  0.99851926  0.09580002
   0.65502705  0.31005410  0.06716529
   0.76968098  0.53936196  0.23054370
   0.93976660  0.87953320  0.17534577
   0.20513141  0.41026283  0.20661598
   0.20186985  0.40373970  0.11089120
   0.56381650  0.12763299  0.11971132
   0.56708938  0.13417876  0.21542001
   0.82919863  0.65839727  0.15099600
unknown system                          
           1
     3.540220    0.000000    0.000000
    -1.770110   10.295167    0.000000
     0.000000    0.000000   24.740242
   P    Si
   6   6
Direct configuration=    10
   0.11392669  0.22785337  0.25916598
   0.45811657  0.91623313  0.23265266
   0.31084709  0.62169418  0.09367227
   0.99924078  0.99848156  0.09582496
   0.65501816  0.31003632  0.06715669
   0.76970134  0.53940268  0.23051670
   0.93974961  0.87949921  0.17535575
   0.20513650  0.41027299  0.20660924
   0.20186715  0.40373429  0.11088132
   0.56381318  0.12762636  0.11972002
   0.56709194  0.13418388  0.21543454
   0.82921501  0.65843001  0.15098187
unknown system                          
           1
     3.540239    0.000000    0.000000
    -1.770119   10.295019    0.000000
     0.000000    0.000000   24.740242
   P    Si
   6   6
Direct configuration=    11
   0.11393908  0.22787816  0.25917851
   0.45810424  0.91620849  0.23265771
   0.31085404  0.62170807  0.09366372
   0.99922001  0.99844003  0.09585245
   0.65500837  0.31001674  0.06714721
   0.76972377  0.53944754  0.23048696
   0.93973089  0.87946177  0.17536674
   0.20514210  0.41028419  0.20660182
   0.20186417  0.40372834  0.11087043
   0.56380953  0.12761906  0.11972961
   0.56709476  0.13418951  0.21545055
   0.82923304  0.65846609  0.15096629
unknown system                          
           1
     3.540250    0.000000    0.000000
    -1.770125   10.294925    0.000000
     0.000000    0.000000   24.740242
   P    Si
   6   6
Direct configuration=    12
   0.11395912  0.22791824  0.25917993
   0.45809173  0.91618347  0.23267638
   0.31086333  0.62172666  0.09364142
   0.99921264  0.99842528  0.09587496
   0.65499115  0.30998231  0.06715180
   0.76973874  0.53947748  0.23046081
   0.93973367  0.87946734  0.17538613
   0.20513720  0.41027439  0.20658607
   0.20185310  0.40370621  0.11086121
   0.56381434  0.12762868  0.11974866
   0.56710326  0.13420652  0.21546136
   0.82922571  0.65845142  0.15094328
unknown system                          
           1
     3.540227    0.000000    0.000000
    -1.770113   10.294427    0.000000
     0.000000    0.000000   24.740242
   P    Si
   6   6
Direct configuration=    13
   0.11397170  0.22794341  0.25918082
   0.45808388  0.91616776  0.23268811
   0.31086916  0.62173833  0.09362742
   0.99920801  0.99841602  0.09588910
   0.65498034  0.30996069  0.06715468
   0.76974815  0.53949629  0.23044438
   0.93973542  0.87947084  0.17539830
   0.20513412  0.41026824  0.20657618
   0.20184615  0.40369230  0.11085541
   0.56381736  0.12763472  0.11976063
   0.56710860  0.13421720  0.21546815
   0.82922111  0.65844221  0.15092882
unknown system                          
           1
     3.540166    0.000000    0.000000
    -1.770083   10.293129    0.000000
     0.000000    0.000000   24.740242
   P    Si
   6   6
Direct configuration=    14
   0.11398347  0.22796695  0.25918060
   0.45808460  0.91616921  0.23270358
   0.31086651  0.62173302  0.09361004
   0.99921257  0.99842514  0.09590161
   0.65496804  0.30993609  0.06715766
   0.76974744  0.53949488  0.23043006
   0.93973249  0.87946498  0.17541015
   0.20513692  0.41027384  0.20656588
   0.20184632  0.40369263  0.11084834
   0.56381541  0.12763083  0.11977211
   0.56710842  0.13421684  0.21547745
   0.82922180  0.65844360  0.15091454
unknown system                          
           1
     3.540333    0.000000    0.000000
    -1.770166   10.294000    0.000000
     0.000000    0.000000   24.740242
   P    Si
   6   6
Direct configuration=    15
   0.11401419  0.22802838  0.25918003
   0.45808650  0.91617300  0.23274394
   0.31085958  0.62171916  0.09356470
   0.99922447  0.99844893  0.09593422
   0.65493595  0.30987191  0.06716543
   0.76974560  0.53949119  0.23039270
   0.93972485  0.87944970  0.17544106
   0.20514422  0.41028844  0.20653900
   0.20184675  0.40369350  0.11082988
   0.56381033  0.12762066  0.11980207
   0.56710796  0.13421592  0.21550169
   0.82922361  0.65844721  0.15087728
unknown system                          
           1
     3.540400    0.000000    0.000000
    -1.770200   10.294348    0.000000
     0.000000    0.000000   24.740242
   P    Si
   6   6
Direct configuration=    16
   0.11402013  0.22804027  0.25918323
   0.45808859  0.91617718  0.23275902
   0.31085593  0.62171187  0.09354814
   0.99922857  0.99845715  0.09594259
   0.65492943  0.30985886  0.06716209
   0.76973997  0.53947993  0.23038633
   0.93971882  0.87943764  0.17544975
   0.20514959  0.41029918  0.20652773
   0.20184867  0.40369735  0.11082146
   0.56380668  0.12761336  0.11981531
   0.56710646  0.13421293  0.21551042
   0.82923115  0.65846230  0.15086595
unknown system                          
           1
     3.540400    0.000000    0.000000
    -1.770200   10.294348    0.000000
     0.000000    0.000000   24.740242
   P    Si
   6   6
Direct configuration=    17
   0.11402251  0.22804503  0.25918451
   0.45808942  0.91617885  0.23276506
   0.31085447  0.62170894  0.09354150
   0.99923022  0.99846044  0.09594594
   0.65492681  0.30985363  0.06716075
   0.76973771  0.53947543  0.23038377
   0.93971640  0.87943280  0.17545324
   0.20515174  0.41030348  0.20652321
   0.20184945  0.40369889  0.11081808
   0.56380522  0.12761043  0.11982061
   0.56710587  0.13421173  0.21551392
   0.82923417  0.65846834  0.15086142
