<?xml version="1.0" encoding="ISO-8859-1"?>
<modeling>
 <generator>
  <i name="program" type="string">vasp </i>
  <i name="version" type="string">5.3.5  </i>
  <i name="subversion" type="string">31Mar14 (build Oct 29 2014 16:16:03) complex                          parallel </i>
  <i name="platform" type="string">Linux-UFHPC </i>
  <i name="date" type="string">2016 02 09 </i>
  <i name="time" type="string">17:46:03 </i>
 </generator>
 <incar>
  <i type="string" name="PREC">accurate</i>
  <i type="int" name="IBRION">     2</i>
  <i name="EDIFF">      0.00000100</i>
  <i type="int" name="NSW">     0</i>
  <i type="int" name="ISIF">     3</i>
  <i name="ENCUT">    300.00000000</i>
  <i type="string" name="LREAL"> Auto</i>
  <i type="int" name="ISMEAR">     0</i>
  <i name="SIGMA">      0.10000000</i>
  <i type="logical" name="LWAVE"> F  </i>
  <i type="logical" name="LCHARG"> F  </i>
  <i type="logical" name="LAECHG"> F  </i>
  <i type="string" name="GGA"> Bo</i>
  <i name="PARAM1">      0.18333333</i>
  <i name="PARAM2">      0.22000000</i>
  <i type="logical" name="LUSE_VDW"> T  </i>
  <i name="AGGAC">      0.00000000</i>
 </incar>
 <kpoints>
  <generation param="Gamma">
   <v type="int" name="divisions">      13        4        2 </v>
   <v name="usershift">      0.00000000       0.00000000       0.00000000 </v>
   <v name="genvec1">      0.07692308      -0.00000000       0.00000000 </v>
   <v name="genvec2">      0.00000000       0.25000000       0.00000000 </v>
   <v name="genvec3">      0.00000000       0.00000000       0.50000000 </v>
   <v name="shift">      0.00000000       0.00000000       0.00000000 </v>
  </generation>
  <varray name="kpointlist" >
   <v>       0.00000000       0.00000000       0.00000000 </v>
   <v>       0.07692308      -0.00000000       0.00000000 </v>
   <v>       0.15384615      -0.00000000       0.00000000 </v>
   <v>       0.23076923      -0.00000000       0.00000000 </v>
   <v>       0.30769231      -0.00000000       0.00000000 </v>
   <v>       0.38461538      -0.00000000       0.00000000 </v>
   <v>       0.46153846      -0.00000000       0.00000000 </v>
   <v>       0.00000000       0.25000000       0.00000000 </v>
   <v>       0.07692308       0.25000000       0.00000000 </v>
   <v>       0.15384615       0.25000000       0.00000000 </v>
   <v>       0.23076923       0.25000000       0.00000000 </v>
   <v>       0.30769231       0.25000000       0.00000000 </v>
   <v>       0.38461538       0.25000000       0.00000000 </v>
   <v>       0.46153846       0.25000000       0.00000000 </v>
   <v>      -0.46153846       0.25000000       0.00000000 </v>
   <v>      -0.38461538       0.25000000       0.00000000 </v>
   <v>      -0.30769231       0.25000000       0.00000000 </v>
   <v>      -0.23076923       0.25000000       0.00000000 </v>
   <v>      -0.15384615       0.25000000       0.00000000 </v>
   <v>      -0.07692308       0.25000000       0.00000000 </v>
   <v>       0.00000000       0.50000000       0.00000000 </v>
   <v>       0.07692308       0.50000000       0.00000000 </v>
   <v>       0.15384615       0.50000000       0.00000000 </v>
   <v>       0.23076923       0.50000000       0.00000000 </v>
   <v>       0.30769231       0.50000000       0.00000000 </v>
   <v>       0.38461538       0.50000000       0.00000000 </v>
   <v>       0.46153846       0.50000000       0.00000000 </v>
   <v>       0.00000000       0.00000000       0.50000000 </v>
   <v>       0.07692308      -0.00000000       0.50000000 </v>
   <v>       0.15384615      -0.00000000       0.50000000 </v>
   <v>       0.23076923      -0.00000000       0.50000000 </v>
   <v>       0.30769231      -0.00000000       0.50000000 </v>
   <v>       0.38461538      -0.00000000       0.50000000 </v>
   <v>       0.46153846      -0.00000000       0.50000000 </v>
   <v>       0.00000000       0.25000000       0.50000000 </v>
   <v>       0.07692308       0.25000000       0.50000000 </v>
   <v>       0.15384615       0.25000000       0.50000000 </v>
   <v>       0.23076923       0.25000000       0.50000000 </v>
   <v>       0.30769231       0.25000000       0.50000000 </v>
   <v>       0.38461538       0.25000000       0.50000000 </v>
   <v>       0.46153846       0.25000000       0.50000000 </v>
   <v>      -0.46153846       0.25000000       0.50000000 </v>
   <v>      -0.38461538       0.25000000       0.50000000 </v>
   <v>      -0.30769231       0.25000000       0.50000000 </v>
   <v>      -0.23076923       0.25000000       0.50000000 </v>
   <v>      -0.15384615       0.25000000       0.50000000 </v>
   <v>      -0.07692308       0.25000000       0.50000000 </v>
   <v>       0.00000000       0.50000000       0.50000000 </v>
   <v>       0.07692308       0.50000000       0.50000000 </v>
   <v>       0.15384615       0.50000000       0.50000000 </v>
   <v>       0.23076923       0.50000000       0.50000000 </v>
   <v>       0.30769231       0.50000000       0.50000000 </v>
   <v>       0.38461538       0.50000000       0.50000000 </v>
   <v>       0.46153846       0.50000000       0.50000000 </v>
  </varray>
  <varray name="weights" >
   <v>       0.00961538 </v>
   <v>       0.01923077 </v>
   <v>       0.01923077 </v>
   <v>       0.01923077 </v>
   <v>       0.01923077 </v>
   <v>       0.01923077 </v>
   <v>       0.01923077 </v>
   <v>       0.01923077 </v>
   <v>       0.01923077 </v>
   <v>       0.01923077 </v>
   <v>       0.01923077 </v>
   <v>       0.01923077 </v>
   <v>       0.01923077 </v>
   <v>       0.01923077 </v>
   <v>       0.01923077 </v>
   <v>       0.01923077 </v>
   <v>       0.01923077 </v>
   <v>       0.01923077 </v>
   <v>       0.01923077 </v>
   <v>       0.01923077 </v>
   <v>       0.00961538 </v>
   <v>       0.01923077 </v>
   <v>       0.01923077 </v>
   <v>       0.01923077 </v>
   <v>       0.01923077 </v>
   <v>       0.01923077 </v>
   <v>       0.01923077 </v>
   <v>       0.00961538 </v>
   <v>       0.01923077 </v>
   <v>       0.01923077 </v>
   <v>       0.01923077 </v>
   <v>       0.01923077 </v>
   <v>       0.01923077 </v>
   <v>       0.01923077 </v>
   <v>       0.01923077 </v>
   <v>       0.01923077 </v>
   <v>       0.01923077 </v>
   <v>       0.01923077 </v>
   <v>       0.01923077 </v>
   <v>       0.01923077 </v>
   <v>       0.01923077 </v>
   <v>       0.01923077 </v>
   <v>       0.01923077 </v>
   <v>       0.01923077 </v>
   <v>       0.01923077 </v>
   <v>       0.01923077 </v>
   <v>       0.01923077 </v>
   <v>       0.00961538 </v>
   <v>       0.01923077 </v>
   <v>       0.01923077 </v>
   <v>       0.01923077 </v>
   <v>       0.01923077 </v>
   <v>       0.01923077 </v>
   <v>       0.01923077 </v>
  </varray>
 </kpoints>
 <parameters>
  <separator name="general" >
   <i type="string" name="SYSTEM">unknown system</i>
   <i type="logical" name="LCOMPAT"> F  </i>
  </separator>
  <separator name="electronic" >
   <i type="string" name="PREC">accura</i>
   <i name="ENMAX">    300.00000000</i>
   <i name="ENAUG">    342.92400000</i>
   <i name="EDIFF">      0.00000100</i>
   <i type="int" name="IALGO">    38</i>
   <i type="int" name="IWAVPR">    10</i>
   <i type="int" name="NBANDS">    68</i>
   <i name="NELECT">    108.00000000</i>
   <i type="int" name="TURBO">     0</i>
   <i type="int" name="IRESTART">     0</i>
   <i type="int" name="NREBOOT">     0</i>
   <i type="int" name="NMIN">     0</i>
   <i name="EREF">      0.00000000</i>
   <separator name="electronic smearing" >
    <i type="int" name="ISMEAR">     0</i>
    <i name="SIGMA">      0.10000000</i>
    <i name="KSPACING">      0.50000000</i>
    <i type="logical" name="KGAMMA"> T  </i>
   </separator>
   <separator name="electronic projectors" >
    <i type="logical" name="LREAL"> T  </i>
    <v name="ROPT">     -0.00025000     -0.00025000</v>
    <i type="int" name="LMAXPAW">  -100</i>
    <i type="int" name="LMAXMIX">     2</i>
    <i type="logical" name="NLSPLINE"> F  </i>
   </separator>
   <separator name="electronic startup" >
    <i type="int" name="ISTART">     0</i>
    <i type="int" name="ICHARG">     2</i>
    <i type="int" name="INIWAV">     1</i>
   </separator>
   <separator name="electronic spin" >
    <i type="int" name="ISPIN">     1</i>
    <i type="logical" name="LNONCOLLINEAR"> F  </i>
    <v name="MAGMOM">      1.00000000      1.00000000      1.00000000      1.00000000      1.00000000      1.00000000      1.00000000      1.00000000      1.00000000      1.00000000      1.00000000      1.00000000      1.00000000      1.00000000      1.00000000      1.00000000      1.00000000      1.00000000      1.00000000      1.00000000
      1.00000000      1.00000000      1.00000000      1.00000000</v>
    <i name="NUPDOWN">     -1.00000000</i>
    <i type="logical" name="LSORBIT"> F  </i>
    <v name="SAXIS">      0.00000000      0.00000000      1.00000000</v>
    <i type="logical" name="LSPIRAL"> F  </i>
    <v name="QSPIRAL">      0.00000000      0.00000000      0.00000000</v>
    <i type="logical" name="LZEROZ"> F  </i>
   </separator>
   <separator name="electronic exchange-correlation" >
    <i type="logical" name="LASPH"> F  </i>
    <i type="logical" name="LMETAGGA"> F  </i>
   </separator>
   <separator name="electronic convergence" >
    <i type="int" name="NELM">    60</i>
    <i type="int" name="NELMDL">    -5</i>
    <i type="int" name="NELMIN">     2</i>
    <i name="ENINI">    300.00000000</i>
    <separator name="electronic convergence detail" >
     <i type="logical" name="LDIAG"> T  </i>
     <i type="logical" name="LSUBROT"> F  </i>
     <i name="WEIMIN">      0.00000000</i>
     <i name="EBREAK">      0.00000000</i>
     <i name="DEPER">      0.30000000</i>
     <i type="int" name="NRMM">     4</i>
     <i name="TIME">      0.40000000</i>
    </separator>
   </separator>
   <separator name="electronic mixer" >
    <i name="AMIX">      0.40000000</i>
    <i name="BMIX">      1.00000000</i>
    <i name="AMIN">      0.10000000</i>
    <i name="AMIX_MAG">      1.60000000</i>
    <i name="BMIX_MAG">      1.00000000</i>
    <separator name="electronic mixer details" >
     <i type="int" name="IMIX">     4</i>
     <i type="int" name="MAXMIX">   -45</i>
     <i name="WC">    100.00000000</i>
     <i type="int" name="INIMIX">     1</i>
     <i type="int" name="MIXPRE">     1</i>
     <i type="int" name="MREMOVE">     5</i>
    </separator>
   </separator>
   <separator name="electronic dipolcorrection" >
    <i type="logical" name="LDIPOL"> F  </i>
    <i type="logical" name="LMONO"> F  </i>
    <i type="int" name="IDIPOL">     0</i>
    <i name="EPSILON">      1.00000000</i>
    <v name="DIPOL">   -100.00000000   -100.00000000   -100.00000000</v>
    <i name="EFIELD">      0.00000000</i>
   </separator>
  </separator>
  <separator name="grids" >
   <i type="int" name="NGX">    20</i>
   <i type="int" name="NGY">    60</i>
   <i type="int" name="NGZ">   160</i>
   <i type="int" name="NGXF">    40</i>
   <i type="int" name="NGYF">   120</i>
   <i type="int" name="NGZF">   320</i>
   <i type="logical" name="ADDGRID"> F  </i>
  </separator>
  <separator name="ionic" >
   <i type="int" name="NSW">     0</i>
   <i type="int" name="IBRION">    -1</i>
   <i type="int" name="ISIF">     3</i>
   <i name="PSTRESS">      0.00000000</i>
   <i name="EDIFFG">      0.00001000</i>
   <i type="int" name="NFREE">     1</i>
   <i name="POTIM">      0.50000000</i>
   <i name="SMASS">     -3.00000000</i>
   <i name="SCALEE">      1.00000000</i>
  </separator>
  <separator name="ionic md" >
   <i name="TEBEG">      0.00010000</i>
   <i name="TEEND">      0.00010000</i>
   <i type="int" name="NBLOCK">     1</i>
   <i type="int" name="KBLOCK">     1</i>
   <i type="int" name="NPACO">   256</i>
   <i name="APACO">     16.00000000</i>
  </separator>
  <separator name="symmetry" >
   <i type="int" name="ISYM">     2</i>
   <i name="SYMPREC">      0.00001000</i>
  </separator>
  <separator name="dos" >
   <i type="logical" name="LORBIT"> F  </i>
   <v name="RWIGS">     -1.00000000     -1.00000000</v>
   <i type="int" name="NEDOS">   301</i>
   <i name="EMIN">     10.00000000</i>
   <i name="EMAX">    -10.00000000</i>
   <i name="EFERMI">      0.00000000</i>
  </separator>
  <separator name="writing" >
   <i type="int" name="NWRITE">     2</i>
   <i type="logical" name="LWAVE"> F  </i>
   <i type="logical" name="LCHARG"> F  </i>
   <i type="logical" name="LPARD"> F  </i>
   <i type="logical" name="LVTOT"> F  </i>
   <i type="logical" name="LVHAR"> F  </i>
   <i type="logical" name="LELF"> F  </i>
   <i type="logical" name="LOPTICS"> F  </i>
   <v name="STM">      0.00000000      0.00000000      0.00000000      0.00000000      0.00000000      0.00000000      0.00000000</v>
  </separator>
  <separator name="performance" >
   <i type="int" name="NPAR">     4</i>
   <i type="int" name="NSIM">     4</i>
   <i type="int" name="NBLK">    -1</i>
   <i type="logical" name="LPLANE"> T  </i>
   <i type="logical" name="LSCALAPACK"> T  </i>
   <i type="logical" name="LSCAAWARE"> F  </i>
   <i type="logical" name="LSCALU"> F  </i>
   <i type="logical" name="LASYNC"> F  </i>
   <i type="logical" name="LORBITALREAL"> F  </i>
  </separator>
  <separator name="miscellaneous" >
   <i type="int" name="IDIOT">     3</i>
   <i type="logical" name="LMUSIC"> F  </i>
   <v name="POMASS">     30.97400000     28.08500000</v>
   <v name="DARWINR">      0.00000000      0.00000000</v>
   <v name="DARWINV">      1.00000000      1.00000000</v>
   <i type="logical" name="LCORR"> T  </i>
  </separator>
  <i type="logical" name="GGA_COMPAT"> T  </i>
  <i type="logical" name="LBERRY"> F  </i>
  <i type="int" name="ICORELEVEL">     0</i>
  <i type="logical" name="LDAU"> F  </i>
  <i type="int" name="I_CONSTRAINED_M">     0</i>
  <separator name="electronic exchange-correlation" >
   <i type="string" name="GGA">BO</i>
   <i type="int" name="VOSKOWN">     0</i>
   <i type="logical" name="LHFCALC"> F  </i>
   <i type="string" name="PRECFOCK"></i>
   <i type="logical" name="LSYMGRAD"> F  </i>
   <i type="logical" name="LHFONE"> F  </i>
   <i type="logical" name="LRHFCALC"> F  </i>
   <i type="logical" name="LTHOMAS"> F  </i>
   <i type="logical" name="LMODELHF"> F  </i>
   <i name="ENCUT4O">     -1.00000000</i>
   <i type="int" name="EXXOEP">     0</i>
   <i type="int" name="FOURORBIT">     0</i>
   <i name="AEXX">      0.00000000</i>
   <i name="HFALPHA">      0.00000000</i>
   <i name="MCALPHA">      0.00000000</i>
   <i name="ALDAX">      1.00000000</i>
   <i name="AGGAX">      1.00000000</i>
   <i name="ALDAC">      1.00000000</i>
   <i name="AGGAC">      0.00000000</i>
   <i type="int" name="NKREDX">     1</i>
   <i type="int" name="NKREDY">     1</i>
   <i type="int" name="NKREDZ">     1</i>
   <i type="logical" name="SHIFTRED"> F  </i>
   <i type="logical" name="ODDONLY"> F  </i>
   <i type="logical" name="EVENONLY"> F  </i>
   <i type="int" name="LMAXFOCK">     0</i>
   <i type="int" name="NMAXFOCKAE">     0</i>
   <i type="logical" name="LFOCKAEDFT"> F  </i>
   <i name="HFSCREEN">      0.00000000</i>
   <i name="HFSCREENC">      0.00000000</i>
   <i type="int" name="NBANDSGWLOW">     0</i>
  </separator>
  <separator name="vdW DFT" >
   <i type="logical" name="LUSE_VDW"> T  </i>
   <i name="Zab_VDW">     -0.84910000</i>
   <i name="PARAM1">      0.18333333</i>
   <i name="PARAM2">      0.22000000</i>
   <i name="PARAM3">      0.00000000</i>
  </separator>
  <separator name="model GW" >
   <i type="int" name="MODEL_GW">     0</i>
   <i name="MODEL_EPS0">     25.05800243</i>
   <i name="MODEL_ALPHA">      1.00000000</i>
  </separator>
  <separator name="linear response parameters" >
   <i type="logical" name="LEPSILON"> F  </i>
   <i type="logical" name="LRPA"> F  </i>
   <i type="logical" name="LNABLA"> F  </i>
   <i type="logical" name="LVEL"> F  </i>
   <i type="int" name="KINTER">     0</i>
   <i name="CSHIFT">      0.10000000</i>
   <i name="OMEGAMAX">     -1.00000000</i>
   <i name="DEG_THRESHOLD">      0.00200000</i>
  </separator>
  <separator name="orbital magnetization" >
   <i type="logical" name="NUCIND"> F  </i>
   <v name="MAGPOS">      0.00000000      0.00000000      0.00000000</v>
   <i type="logical" name="LNICSALL"> T  </i>
   <i type="logical" name="ORBITALMAG"> F  </i>
   <i type="logical" name="LMAGBLOCH"> F  </i>
   <i type="logical" name="LCHIMAG"> F  </i>
   <i type="logical" name="LGAUGE"> T  </i>
   <i type="int" name="MAGATOM">     0</i>
   <v name="MAGDIPOL">      0.00000000      0.00000000      0.00000000</v>
   <v name="AVECCONST">      0.00000000      0.00000000      0.00000000</v>
  </separator>
  <separator name="response functions" >
   <i type="logical" name="LADDER"> F  </i>
   <i type="logical" name="LFXC"> F  </i>
   <i type="logical" name="LHARTREE"> T  </i>
   <i type="int" name="IBSE">     0</i>
   <i type="logical" name="LTCTE"> F  </i>
   <i type="logical" name="LTETE"> F  </i>
   <i type="logical" name="LTRIPLET"> F  </i>
   <i type="logical" name="LFXCEPS"> F  </i>
   <i type="logical" name="LFXHEG"> F  </i>
   <i type="logical" name="L2ORDER"> F  </i>
   <i type="logical" name="LUSEW"> F  </i>
   <i name="ENCUTGW">     -2.00000000</i>
   <i name="ENCUTGWSOFT">     -2.00000000</i>
   <i name="ENCUTLF">     -1.00000000</i>
   <i type="int" name="LMAXMP2">    -1</i>
   <i name="SCISSOR">      0.00000000</i>
   <i type="int" name="NOMEGA">     0</i>
   <i type="int" name="NOMEGAR">     0</i>
   <i type="int" name="NBANDSGW">    -1</i>
   <i type="int" name="NBANDSO">    -1</i>
   <i type="int" name="NBANDSV">    -1</i>
   <i type="int" name="NELM">     1</i>
   <i type="int" name="DIM">     3</i>
   <i type="int" name="ANTIRES">     0</i>
   <i name="OMEGAMAX">    -30.00000000</i>
   <i name="OMEGAMIN">    -30.00000000</i>
   <i name="OMEGATL">   -200.00000000</i>
   <i type="int" name="OMEGAGRID">     0</i>
   <i name="CSHIFT">     -0.10000000</i>
   <i type="logical" name="SELFENERGY"> F  </i>
   <i type="logical" name="LSPECTRAL"> F  </i>
   <i type="logical" name="ODDONLYGW"> F  </i>
   <i type="logical" name="EVENONLYGW"> F  </i>
   <i type="int" name="NKREDLFX">     1</i>
   <i type="int" name="NKREDLFY">     1</i>
   <i type="int" name="NKREDLFZ">     1</i>
   <i type="int" name="MAXMEM">  1800</i>
   <i type="int" name="TELESCOPE">     0</i>
   <i type="int" name="TAUPAR">     1</i>
  </separator>
  <separator name="External order field" >
   <i name="OFIELD_KAPPA">      0.00000000</i>
   <v name="OFIELD_K">      0.00000000      0.00000000      0.00000000</v>
   <i name="OFIELD_Q6_NEAR">      0.00000000</i>
   <i name="OFIELD_Q6_FAR">      0.00000000</i>
   <i name="OFIELD_A">      0.00000000</i>
  </separator>
 </parameters>
 <atominfo>
  <atoms>      24 </atoms>
  <types>       2 </types>
  <array name="atoms" >
   <dimension dim="1">ion</dimension>
   <field type="string">element</field>
   <field type="int">atomtype</field>
   <set>
    <rc><c>P </c><c>   1</c></rc>
    <rc><c>P </c><c>   1</c></rc>
    <rc><c>P </c><c>   1</c></rc>
    <rc><c>P </c><c>   1</c></rc>
    <rc><c>P </c><c>   1</c></rc>
    <rc><c>P </c><c>   1</c></rc>
    <rc><c>P </c><c>   1</c></rc>
    <rc><c>P </c><c>   1</c></rc>
    <rc><c>P </c><c>   1</c></rc>
    <rc><c>P </c><c>   1</c></rc>
    <rc><c>P </c><c>   1</c></rc>
    <rc><c>P </c><c>   1</c></rc>
    <rc><c>Si</c><c>   2</c></rc>
    <rc><c>Si</c><c>   2</c></rc>
    <rc><c>Si</c><c>   2</c></rc>
    <rc><c>Si</c><c>   2</c></rc>
    <rc><c>Si</c><c>   2</c></rc>
    <rc><c>Si</c><c>   2</c></rc>
    <rc><c>Si</c><c>   2</c></rc>
    <rc><c>Si</c><c>   2</c></rc>
    <rc><c>Si</c><c>   2</c></rc>
    <rc><c>Si</c><c>   2</c></rc>
    <rc><c>Si</c><c>   2</c></rc>
    <rc><c>Si</c><c>   2</c></rc>
   </set>
  </array>
  <array name="atomtypes" >
   <dimension dim="1">type</dimension>
   <field type="int">atomspertype</field>
   <field type="string">element</field>
   <field>mass</field>
   <field>valence</field>
   <field type="string">pseudopotential</field>
   <set>
    <rc><c>  12</c><c>P </c><c>     30.97400000</c><c>      5.00000000</c><c>  PAW_PBE P 17Jan2003                   </c></rc>
    <rc><c>  12</c><c>Si</c><c>     28.08500000</c><c>      4.00000000</c><c> PAW_PBE Si 05Jan2001                   </c></rc>
   </set>
  </array>
 </atominfo>
 <structure name="initialpos" >
  <crystal>
   <varray name="basis" >
    <v>       3.54040000       0.00000000       0.00000000 </v>
    <v>      -1.77020000      10.29434800       0.00000000 </v>
    <v>       0.00000000       0.00000000      27.50142900 </v>
   </varray>
   <i name="volume">   1002.32009712 </i>
   <varray name="rec_basis" >
    <v>       0.28245396       0.04857034       0.00000000 </v>
    <v>       0.00000000       0.09714068       0.00000000 </v>
    <v>       0.00000000       0.00000000       0.03636175 </v>
   </varray>
  </crystal>
  <varray name="positions" >
   <v>       0.11402300       0.22804500       0.23316207 </v>
   <v>       0.41402300       0.92804500       0.51499159 </v>
   <v>       0.45808900       0.91617900       0.20939482 </v>
   <v>       0.75808900       0.61617900       0.49122434 </v>
   <v>       0.31085400       0.62170900       0.08414979 </v>
   <v>       0.31085400       0.62170900       0.36597930 </v>
   <v>       0.99923000       0.99846000       0.08631254 </v>
   <v>       0.99923000       0.99846000       0.36814206 </v>
   <v>       0.65492700       0.30985400       0.06041748 </v>
   <v>       0.65492700       0.30985400       0.34224700 </v>
   <v>       0.76973800       0.53947500       0.20725292 </v>
   <v>       0.06973800       0.23947500       0.48908244 </v>
   <v>       0.93971600       0.87943300       0.15783749 </v>
   <v>       0.23971600       0.57943300       0.43966701 </v>
   <v>       0.20515200       0.41030300       0.18578822 </v>
   <v>       0.50515200       0.11030300       0.46761774 </v>
   <v>       0.20184900       0.40369900       0.09969156 </v>
   <v>       0.20184900       0.40369900       0.38152107 </v>
   <v>       0.56380500       0.12761000       0.10779021 </v>
   <v>       0.56380500       0.12761000       0.38961973 </v>
   <v>       0.56710600       0.13421200       0.19387616 </v>
   <v>       0.86710600       0.83421200       0.47570568 </v>
   <v>       0.82923400       0.65846800       0.13571444 </v>
   <v>       0.12923400       0.35846800       0.41754396 </v>
  </varray>
 </structure>
 <calculation>
  <scstep>
   <time name="dav">   58.32   58.33</time>
   <time name="total">   74.69   74.72</time>
   <energy>
    <i name="alphaZ">     36.80884744 </i>
    <i name="ewald">  12053.68635705 </i>
    <i name="hartreedc"> -15040.84203749 </i>
    <i name="XCdc">    -87.38587462 </i>
    <i name="pawpsdc">   1056.43050070 </i>
    <i name="pawaedc">   -732.41190547 </i>
    <i name="eentropy">     -0.04572582 </i>
    <i name="bandstr">    -94.35343167 </i>
    <i name="atom">   3354.04126044 </i>
    <i name="e_fr_energy">    545.92799057 </i>
    <i name="e_wo_entrp">    545.97371639 </i>
    <i name="e_0_energy">    545.95085348 </i>
   </energy>
  </scstep>
  <scstep>
   <time name="dav">   72.83   72.84</time>
   <time name="total">   72.84   72.86</time>
   <energy>
    <i name="e_fr_energy">    -24.15320640 </i>
    <i name="e_wo_entrp">    -24.13787176 </i>
    <i name="e_0_energy">    -24.14553908 </i>
   </energy>
  </scstep>
  <scstep>
   <time name="dav">   71.23   71.24</time>
   <time name="total">   71.24   71.26</time>
   <energy>
    <i name="e_fr_energy">    -84.76335090 </i>
    <i name="e_wo_entrp">    -84.75150699 </i>
    <i name="e_0_energy">    -84.75742894 </i>
   </energy>
  </scstep>
  <scstep>
   <time name="dav">   81.25   81.27</time>
   <time name="total">   81.26   81.28</time>
   <energy>
    <i name="e_fr_energy">    -87.57689267 </i>
    <i name="e_wo_entrp">    -87.56150678 </i>
    <i name="e_0_energy">    -87.56919972 </i>
   </energy>
  </scstep>
  <scstep>
   <time name="dav">   76.26   76.28</time>
   <time name="total">   80.32   80.33</time>
   <energy>
    <i name="e_fr_energy">    -87.62934760 </i>
    <i name="e_wo_entrp">    -87.61380462 </i>
    <i name="e_0_energy">    -87.62157611 </i>
   </energy>
  </scstep>
  <scstep>
   <time name="dav">   70.53   70.54</time>
   <time name="total">   89.30   89.32</time>
   <energy>
    <i name="e_fr_energy">    -81.90581289 </i>
    <i name="e_wo_entrp">    -81.87806462 </i>
    <i name="e_0_energy">    -81.89193875 </i>
   </energy>
  </scstep>
  <scstep>
   <time name="dav">   66.13   66.15</time>
   <time name="total">   85.13   85.15</time>
   <energy>
    <i name="e_fr_energy">    -82.13390438 </i>
    <i name="e_wo_entrp">    -82.12223034 </i>
    <i name="e_0_energy">    -82.12806736 </i>
   </energy>
  </scstep>
  <scstep>
   <time name="dav">   68.89   68.90</time>
   <time name="total">   87.98   88.00</time>
   <energy>
    <i name="e_fr_energy">    -82.04309387 </i>
    <i name="e_wo_entrp">    -82.03192239 </i>
    <i name="e_0_energy">    -82.03750813 </i>
   </energy>
  </scstep>
  <scstep>
   <time name="dav">   69.50   69.51</time>
   <time name="total">   88.53   88.54</time>
   <energy>
    <i name="e_fr_energy">    -82.05105863 </i>
    <i name="e_wo_entrp">    -82.03969142 </i>
    <i name="e_0_energy">    -82.04537503 </i>
   </energy>
  </scstep>
  <scstep>
   <time name="dav">   67.02   67.03</time>
   <time name="total">   86.09   86.11</time>
   <energy>
    <i name="e_fr_energy">    -82.05589149 </i>
    <i name="e_wo_entrp">    -82.04322803 </i>
    <i name="e_0_energy">    -82.04955976 </i>
   </energy>
  </scstep>
  <scstep>
   <time name="dav">   70.65   70.66</time>
   <time name="total">   89.74   89.76</time>
   <energy>
    <i name="e_fr_energy">    -82.04643697 </i>
    <i name="e_wo_entrp">    -82.03425806 </i>
    <i name="e_0_energy">    -82.04034751 </i>
   </energy>
  </scstep>
  <scstep>
   <time name="dav">   68.91   68.93</time>
   <time name="total">   87.69   87.71</time>
   <energy>
    <i name="e_fr_energy">    -82.03581464 </i>
    <i name="e_wo_entrp">    -82.02344726 </i>
    <i name="e_0_energy">    -82.02963095 </i>
   </energy>
  </scstep>
  <scstep>
   <time name="dav">   71.03   71.05</time>
   <time name="total">   90.17   90.19</time>
   <energy>
    <i name="e_fr_energy">    -82.03084398 </i>
    <i name="e_wo_entrp">    -82.01853818 </i>
    <i name="e_0_energy">    -82.02469108 </i>
   </energy>
  </scstep>
  <scstep>
   <time name="dav">   72.89   72.90</time>
   <time name="total">   92.02   92.04</time>
   <energy>
    <i name="e_fr_energy">    -82.02843804 </i>
    <i name="e_wo_entrp">    -82.01610477 </i>
    <i name="e_0_energy">    -82.02227141 </i>
   </energy>
  </scstep>
  <scstep>
   <time name="dav">   71.19   71.20</time>
   <time name="total">   90.26   90.28</time>
   <energy>
    <i name="e_fr_energy">    -82.02682783 </i>
    <i name="e_wo_entrp">    -82.01447109 </i>
    <i name="e_0_energy">    -82.02064946 </i>
   </energy>
  </scstep>
  <scstep>
   <time name="dav">   64.36   64.37</time>
   <time name="total">   83.63   83.64</time>
   <energy>
    <i name="e_fr_energy">    -82.02678682 </i>
    <i name="e_wo_entrp">    -82.01445895 </i>
    <i name="e_0_energy">    -82.02062289 </i>
   </energy>
  </scstep>
  <scstep>
   <time name="dav">   65.41   65.42</time>
   <time name="total">   84.57   84.58</time>
   <energy>
    <i name="e_fr_energy">    -82.02745555 </i>
    <i name="e_wo_entrp">    -82.01511171 </i>
    <i name="e_0_energy">    -82.02128363 </i>
   </energy>
  </scstep>
  <scstep>
   <time name="dav">   63.02   63.03</time>
   <time name="total">   82.13   82.15</time>
   <energy>
    <i name="e_fr_energy">    -82.02763966 </i>
    <i name="e_wo_entrp">    -82.01529927 </i>
    <i name="e_0_energy">    -82.02146946 </i>
   </energy>
  </scstep>
  <scstep>
   <time name="dav">   59.49   59.51</time>
   <time name="total">   78.57   78.59</time>
   <energy>
    <i name="e_fr_energy">    -82.02775301 </i>
    <i name="e_wo_entrp">    -82.01541424 </i>
    <i name="e_0_energy">    -82.02158362 </i>
   </energy>
  </scstep>
  <scstep>
   <time name="dav">   55.62   55.64</time>
   <time name="total">   74.37   74.38</time>
   <energy>
    <i name="e_fr_energy">    -82.02777001 </i>
    <i name="e_wo_entrp">    -82.01542990 </i>
    <i name="e_0_energy">    -82.02159995 </i>
   </energy>
  </scstep>
  <scstep>
   <time name="dav">   57.94   57.95</time>
   <time name="total">   77.06   77.08</time>
   <energy>
    <i name="e_fr_energy">    -82.02776289 </i>
    <i name="e_wo_entrp">    -82.01542380 </i>
    <i name="e_0_energy">    -82.02159335 </i>
   </energy>
  </scstep>
  <scstep>
   <time name="dav">   56.98   57.00</time>
   <time name="total">   76.12   76.13</time>
   <energy>
    <i name="e_fr_energy">    -82.02772718 </i>
    <i name="e_wo_entrp">    -82.01538799 </i>
    <i name="e_0_energy">    -82.02155758 </i>
   </energy>
  </scstep>
  <scstep>
   <time name="dav">   56.96   56.97</time>
   <time name="total">   76.05   76.07</time>
   <energy>
    <i name="e_fr_energy">    -82.02766785 </i>
    <i name="e_wo_entrp">    -82.01532863 </i>
    <i name="e_0_energy">    -82.02149824 </i>
   </energy>
  </scstep>
  <scstep>
   <time name="dav">   54.08   54.09</time>
   <time name="total">   73.13   73.14</time>
   <energy>
    <i name="e_fr_energy">    -82.02765828 </i>
    <i name="e_wo_entrp">    -82.01531922 </i>
    <i name="e_0_energy">    -82.02148875 </i>
   </energy>
  </scstep>
  <scstep>
   <time name="dav">   55.11   55.12</time>
   <time name="total">   74.22   74.23</time>
   <energy>
    <i name="e_fr_energy">    -82.02764290 </i>
    <i name="e_wo_entrp">    -82.01530363 </i>
    <i name="e_0_energy">    -82.02147327 </i>
   </energy>
  </scstep>
  <scstep>
   <time name="dav">   53.73   53.74</time>
   <time name="total">   72.84   72.86</time>
   <energy>
    <i name="e_fr_energy">    -82.02764468 </i>
    <i name="e_wo_entrp">    -82.01530543 </i>
    <i name="e_0_energy">    -82.02147506 </i>
   </energy>
  </scstep>
  <scstep>
   <time name="dav">   51.39   51.40</time>
   <time name="total">   70.48   70.49</time>
   <energy>
    <i name="e_fr_energy">    -82.02764113 </i>
    <i name="e_wo_entrp">    -82.01530189 </i>
    <i name="e_0_energy">    -82.02147151 </i>
   </energy>
  </scstep>
  <scstep>
   <time name="dav">   50.17   50.18</time>
   <time name="total">   65.23   65.24</time>
   <energy>
    <i name="alphaZ">     36.80884744 </i>
    <i name="ewald">  12053.68635705 </i>
    <i name="hartreedc"> -15151.24803194 </i>
    <i name="XCdc">    -78.67486217 </i>
    <i name="pawpsdc">   1202.63821695 </i>
    <i name="pawaedc">   -883.14933259 </i>
    <i name="eentropy">     -0.01233924 </i>
    <i name="bandstr">   -616.11775703 </i>
    <i name="atom">   3354.04126044 </i>
    <i name="e_fr_energy">    -82.02764109 </i>
    <i name="e_wo_entrp">    -82.01530185 </i>
    <i name="e_0_energy">    -82.02147147 </i>
   </energy>
  </scstep>
  <structure>
   <crystal>
    <varray name="basis" >
     <v>       3.54040000       0.00000000       0.00000000 </v>
     <v>      -1.77020000      10.29434800       0.00000000 </v>
     <v>       0.00000000       0.00000000      27.50142900 </v>
    </varray>
    <i name="volume">   1002.32009712 </i>
    <varray name="rec_basis" >
     <v>       0.28245396       0.04857034       0.00000000 </v>
     <v>       0.00000000       0.09714068       0.00000000 </v>
     <v>       0.00000000       0.00000000       0.03636175 </v>
    </varray>
   </crystal>
   <varray name="positions" >
    <v>       0.11402300       0.22804500       0.23316207 </v>
    <v>       0.41402300       0.92804500       0.51499159 </v>
    <v>       0.45808900       0.91617900       0.20939482 </v>
    <v>       0.75808900       0.61617900       0.49122434 </v>
    <v>       0.31085400       0.62170900       0.08414979 </v>
    <v>       0.31085400       0.62170900       0.36597930 </v>
    <v>       0.99923000       0.99846000       0.08631254 </v>
    <v>       0.99923000       0.99846000       0.36814206 </v>
    <v>       0.65492700       0.30985400       0.06041748 </v>
    <v>       0.65492700       0.30985400       0.34224700 </v>
    <v>       0.76973800       0.53947500       0.20725292 </v>
    <v>       0.06973800       0.23947500       0.48908244 </v>
    <v>       0.93971600       0.87943300       0.15783749 </v>
    <v>       0.23971600       0.57943300       0.43966701 </v>
    <v>       0.20515200       0.41030300       0.18578822 </v>
    <v>       0.50515200       0.11030300       0.46761774 </v>
    <v>       0.20184900       0.40369900       0.09969156 </v>
    <v>       0.20184900       0.40369900       0.38152107 </v>
    <v>       0.56380500       0.12761000       0.10779021 </v>
    <v>       0.56380500       0.12761000       0.38961973 </v>
    <v>       0.56710600       0.13421200       0.19387616 </v>
    <v>       0.86710600       0.83421200       0.47570568 </v>
    <v>       0.82923400       0.65846800       0.13571444 </v>
    <v>       0.12923400       0.35846800       0.41754396 </v>
   </varray>
  </structure>
  <varray name="forces" >
   <v>       0.06472579      -0.02170404       0.06625844 </v>
   <v>       0.02852618       0.00781623      -0.33408799 </v>
   <v>       0.00029862      -0.01631294       0.09125425 </v>
   <v>       0.02002507       0.06833886       0.21147262 </v>
   <v>      -0.00057711      -0.01186723       0.01501081 </v>
   <v>       0.12430405       0.78743227      -2.73035173 </v>
   <v>      -0.00002673       0.00313034      -0.01620778 </v>
   <v>      -0.23628675      -0.42026318       0.31598506 </v>
   <v>       0.00140751       0.00257445       0.01415582 </v>
   <v>       0.99050225      -0.83959303      -1.70947740 </v>
   <v>      -0.00123707       0.00012776       0.10109123 </v>
   <v>      -0.07724706      -0.00122979       0.66021329 </v>
   <v>       0.00334891       0.01769014       0.01208019 </v>
   <v>      -0.04362632      -0.53491297       1.27506621 </v>
   <v>       0.00134111       0.01284216       0.03022106 </v>
   <v>      -0.12179202       0.84140209       2.66742381 </v>
   <v>      -0.00168131      -0.00558454      -0.02775233 </v>
   <v>      21.25462161      58.26666556    -118.99643449 </v>
   <v>       0.00321849      -0.02247561      -0.02440523 </v>
   <v>       0.03656060      -1.88210259      -3.11413510 </v>
   <v>      -0.01440457      -0.05626305      -0.01407628 </v>
   <v>       0.08702326       0.61362936      -0.65517457 </v>
   <v>       0.00154944       0.02539275      -0.00186728 </v>
   <v>     -22.12057395     -56.83473302     122.16373739 </v>
  </varray>
  <varray name="stress" >
   <v>       9.32002697      16.64103248     -37.40135188 </v>
   <v>      16.64103239      42.16093894     -84.25913555 </v>
   <v>     -37.40135170     -84.25913558     206.15937533 </v>
  </varray>
  <energy>
   <i name="e_fr_energy">    -82.02764109 </i>
   <i name="e_wo_entrp">    -82.02147147 </i>
   <i name="e_0_energy">     -0.01233924 </i>
  </energy>
  <time name="totalsc"> 2365.69 2366.18</time>
  <eigenvalues>
   <array>
    <dimension dim="1">band</dimension>
    <dimension dim="2">kpoint</dimension>
    <dimension dim="3">spin</dimension>
    <field>eigene</field>
    <field>occ</field>
    <set>
     <set comment="spin 1">
      <set comment="kpoint 1">
       <r>  -14.0804    1.0000 </r>
       <r>  -13.5266    1.0000 </r>
       <r>  -13.0037    1.0000 </r>
       <r>  -12.8047    1.0000 </r>
       <r>  -12.7831    1.0000 </r>
       <r>  -12.4731    1.0000 </r>
       <r>  -12.0732    1.0000 </r>
       <r>  -11.6863    1.0000 </r>
       <r>  -11.4199    1.0000 </r>
       <r>  -11.2886    1.0000 </r>
       <r>  -10.9758    1.0000 </r>
       <r>  -10.8171    1.0000 </r>
       <r>   -8.6187    1.0000 </r>
       <r>   -8.0185    1.0000 </r>
       <r>   -7.8168    1.0000 </r>
       <r>   -7.2823    1.0000 </r>
       <r>   -7.0481    1.0000 </r>
       <r>   -6.7931    1.0000 </r>
       <r>   -6.4807    1.0000 </r>
       <r>   -6.2953    1.0000 </r>
       <r>   -5.8099    1.0000 </r>
       <r>   -5.6041    1.0000 </r>
       <r>   -5.1941    1.0000 </r>
       <r>   -4.9637    1.0000 </r>
       <r>   -4.7266    1.0000 </r>
       <r>   -4.2897    1.0000 </r>
       <r>   -3.7173    1.0000 </r>
       <r>   -3.6518    1.0000 </r>
       <r>   -3.6022    1.0000 </r>
       <r>   -3.1439    1.0000 </r>
       <r>   -3.0444    1.0000 </r>
       <r>   -2.9521    1.0000 </r>
       <r>   -2.8260    1.0000 </r>
       <r>   -2.8185    1.0000 </r>
       <r>   -2.4357    1.0000 </r>
       <r>   -2.3945    1.0000 </r>
       <r>   -2.3781    1.0000 </r>
       <r>   -2.2802    1.0000 </r>
       <r>   -2.0972    1.0000 </r>
       <r>   -2.0336    1.0000 </r>
       <r>   -1.9160    1.0000 </r>
       <r>   -1.8518    1.0000 </r>
       <r>   -1.7870    1.0000 </r>
       <r>   -1.7130    1.0000 </r>
       <r>   -1.6315    1.0000 </r>
       <r>   -1.5577    1.0000 </r>
       <r>   -1.4200    1.0000 </r>
       <r>   -1.4021    1.0000 </r>
       <r>   -1.2191    1.0000 </r>
       <r>   -1.0866    1.0000 </r>
       <r>   -0.8783    1.0000 </r>
       <r>   -0.4876    1.0000 </r>
       <r>   -0.1204    0.9998 </r>
       <r>    0.2837    0.0156 </r>
       <r>    0.4755    0.0000 </r>
       <r>    0.9503    0.0000 </r>
       <r>    1.1377    0.0000 </r>
       <r>    1.2383    0.0000 </r>
       <r>    1.3372    0.0000 </r>
       <r>    1.4155    0.0000 </r>
       <r>    1.5491    0.0000 </r>
       <r>    1.7815    0.0000 </r>
       <r>    2.0027    0.0000 </r>
       <r>    2.0092    0.0000 </r>
       <r>    2.1937    0.0000 </r>
       <r>    2.3425    0.0000 </r>
       <r>    2.4500    0.0000 </r>
       <r>    2.6739    0.0000 </r>
      </set>
      <set comment="kpoint 2">
       <r>  -14.0253    1.0000 </r>
       <r>  -13.4653    1.0000 </r>
       <r>  -12.9559    1.0000 </r>
       <r>  -12.7423    1.0000 </r>
       <r>  -12.7302    1.0000 </r>
       <r>  -12.4175    1.0000 </r>
       <r>  -12.0110    1.0000 </r>
       <r>  -11.6416    1.0000 </r>
       <r>  -11.3709    1.0000 </r>
       <r>  -11.2409    1.0000 </r>
       <r>  -10.9274    1.0000 </r>
       <r>  -10.7806    1.0000 </r>
       <r>   -8.5967    1.0000 </r>
       <r>   -8.0555    1.0000 </r>
       <r>   -7.7798    1.0000 </r>
       <r>   -7.2909    1.0000 </r>
       <r>   -7.0174    1.0000 </r>
       <r>   -6.7617    1.0000 </r>
       <r>   -6.4750    1.0000 </r>
       <r>   -6.3030    1.0000 </r>
       <r>   -5.7777    1.0000 </r>
       <r>   -5.6848    1.0000 </r>
       <r>   -5.3552    1.0000 </r>
       <r>   -4.9705    1.0000 </r>
       <r>   -4.7282    1.0000 </r>
       <r>   -4.2610    1.0000 </r>
       <r>   -3.7549    1.0000 </r>
       <r>   -3.7035    1.0000 </r>
       <r>   -3.6293    1.0000 </r>
       <r>   -3.4355    1.0000 </r>
       <r>   -3.2697    1.0000 </r>
       <r>   -3.2532    1.0000 </r>
       <r>   -3.1733    1.0000 </r>
       <r>   -2.8977    1.0000 </r>
       <r>   -2.7451    1.0000 </r>
       <r>   -2.7031    1.0000 </r>
       <r>   -2.4649    1.0000 </r>
       <r>   -2.3853    1.0000 </r>
       <r>   -2.2233    1.0000 </r>
       <r>   -2.1919    1.0000 </r>
       <r>   -2.0720    1.0000 </r>
       <r>   -2.0204    1.0000 </r>
       <r>   -1.9477    1.0000 </r>
       <r>   -1.8395    1.0000 </r>
       <r>   -1.8041    1.0000 </r>
       <r>   -1.6989    1.0000 </r>
       <r>   -1.6370    1.0000 </r>
       <r>   -1.4867    1.0000 </r>
       <r>   -1.1819    1.0000 </r>
       <r>   -1.0814    1.0000 </r>
       <r>   -0.8830    1.0000 </r>
       <r>   -0.3848    1.0000 </r>
       <r>   -0.1658    1.0000 </r>
       <r>    0.2822    0.0164 </r>
       <r>    0.5364    0.0000 </r>
       <r>    0.8046    0.0000 </r>
       <r>    1.3450    0.0000 </r>
       <r>    1.5251    0.0000 </r>
       <r>    1.7185    0.0000 </r>
       <r>    1.7822    0.0000 </r>
       <r>    1.8263    0.0000 </r>
       <r>    2.1502    0.0000 </r>
       <r>    2.2130    0.0000 </r>
       <r>    2.3059    0.0000 </r>
       <r>    2.3479    0.0000 </r>
       <r>    2.5149    0.0000 </r>
       <r>    2.6342    0.0000 </r>
       <r>    2.7836    0.0000 </r>
      </set>
      <set comment="kpoint 3">
       <r>  -13.8618    1.0000 </r>
       <r>  -13.2823    1.0000 </r>
       <r>  -12.8109    1.0000 </r>
       <r>  -12.5769    1.0000 </r>
       <r>  -12.5566    1.0000 </r>
       <r>  -12.2527    1.0000 </r>
       <r>  -11.8286    1.0000 </r>
       <r>  -11.5135    1.0000 </r>
       <r>  -11.2286    1.0000 </r>
       <r>  -11.1073    1.0000 </r>
       <r>  -10.7886    1.0000 </r>
       <r>  -10.6702    1.0000 </r>
       <r>   -8.5470    1.0000 </r>
       <r>   -8.1521    1.0000 </r>
       <r>   -7.7378    1.0000 </r>
       <r>   -7.3711    1.0000 </r>
       <r>   -6.9454    1.0000 </r>
       <r>   -6.6904    1.0000 </r>
       <r>   -6.4894    1.0000 </r>
       <r>   -6.4163    1.0000 </r>
       <r>   -6.0365    1.0000 </r>
       <r>   -5.7029    1.0000 </r>
       <r>   -5.5391    1.0000 </r>
       <r>   -4.9938    1.0000 </r>
       <r>   -4.8442    1.0000 </r>
       <r>   -4.2672    1.0000 </r>
       <r>   -4.1826    1.0000 </r>
       <r>   -4.0946    1.0000 </r>
       <r>   -4.0687    1.0000 </r>
       <r>   -3.9477    1.0000 </r>
       <r>   -3.7337    1.0000 </r>
       <r>   -3.6474    1.0000 </r>
       <r>   -3.4319    1.0000 </r>
       <r>   -3.2662    1.0000 </r>
       <r>   -3.1445    1.0000 </r>
       <r>   -3.0742    1.0000 </r>
       <r>   -2.9985    1.0000 </r>
       <r>   -2.9490    1.0000 </r>
       <r>   -2.7733    1.0000 </r>
       <r>   -2.6291    1.0000 </r>
       <r>   -2.3668    1.0000 </r>
       <r>   -2.1469    1.0000 </r>
       <r>   -2.1367    1.0000 </r>
       <r>   -1.9757    1.0000 </r>
       <r>   -1.8950    1.0000 </r>
       <r>   -1.7274    1.0000 </r>
       <r>   -1.6748    1.0000 </r>
       <r>   -1.5682    1.0000 </r>
       <r>   -1.2823    1.0000 </r>
       <r>   -1.1754    1.0000 </r>
       <r>   -0.9256    1.0000 </r>
       <r>   -0.3997    1.0000 </r>
       <r>   -0.2972    1.0000 </r>
       <r>    0.0360    0.9110 </r>
       <r>    0.4668    0.0000 </r>
       <r>    0.8396    0.0000 </r>
       <r>    1.4373    0.0000 </r>
       <r>    1.6365    0.0000 </r>
       <r>    2.0044    0.0000 </r>
       <r>    2.2850    0.0000 </r>
       <r>    2.4527    0.0000 </r>
       <r>    2.6156    0.0000 </r>
       <r>    2.6659    0.0000 </r>
       <r>    2.6940    0.0000 </r>
       <r>    2.7547    0.0000 </r>
       <r>    2.9564    0.0000 </r>
       <r>    3.0468    0.0000 </r>
       <r>    3.1057    0.0000 </r>
      </set>
      <set comment="kpoint 4">
       <r>  -13.5970    1.0000 </r>
       <r>  -12.9814    1.0000 </r>
       <r>  -12.5698    1.0000 </r>
       <r>  -12.3201    1.0000 </r>
       <r>  -12.2697    1.0000 </r>
       <r>  -11.9859    1.0000 </r>
       <r>  -11.5411    1.0000 </r>
       <r>  -11.3268    1.0000 </r>
       <r>  -11.0114    1.0000 </r>
       <r>  -10.9237    1.0000 </r>
       <r>  -10.5854    1.0000 </r>
       <r>  -10.4782    1.0000 </r>
       <r>   -8.5433    1.0000 </r>
       <r>   -8.3442    1.0000 </r>
       <r>   -7.8120    1.0000 </r>
       <r>   -7.6237    1.0000 </r>
       <r>   -7.0679    1.0000 </r>
       <r>   -6.7104    1.0000 </r>
       <r>   -6.6449    1.0000 </r>
       <r>   -6.6099    1.0000 </r>
       <r>   -6.3105    1.0000 </r>
       <r>   -5.7690    1.0000 </r>
       <r>   -5.7131    1.0000 </r>
       <r>   -5.3235    1.0000 </r>
       <r>   -5.2277    1.0000 </r>
       <r>   -4.7936    1.0000 </r>
       <r>   -4.6019    1.0000 </r>
       <r>   -4.5589    1.0000 </r>
       <r>   -4.4930    1.0000 </r>
       <r>   -4.2090    1.0000 </r>
       <r>   -4.1478    1.0000 </r>
       <r>   -4.0389    1.0000 </r>
       <r>   -3.7988    1.0000 </r>
       <r>   -3.6986    1.0000 </r>
       <r>   -3.5725    1.0000 </r>
       <r>   -3.4530    1.0000 </r>
       <r>   -3.3440    1.0000 </r>
       <r>   -2.9904    1.0000 </r>
       <r>   -2.9550    1.0000 </r>
       <r>   -2.8268    1.0000 </r>
       <r>   -2.5686    1.0000 </r>
       <r>   -2.4227    1.0000 </r>
       <r>   -2.2056    1.0000 </r>
       <r>   -1.9328    1.0000 </r>
       <r>   -1.8918    1.0000 </r>
       <r>   -1.8035    1.0000 </r>
       <r>   -1.7330    1.0000 </r>
       <r>   -1.5495    1.0000 </r>
       <r>   -1.4545    1.0000 </r>
       <r>   -1.3577    1.0000 </r>
       <r>   -1.1048    1.0000 </r>
       <r>   -0.6931    1.0000 </r>
       <r>   -0.5366    1.0000 </r>
       <r>   -0.4460    1.0000 </r>
       <r>    0.5344    0.0000 </r>
       <r>    0.7781    0.0000 </r>
       <r>    1.2107    0.0000 </r>
       <r>    1.6918    0.0000 </r>
       <r>    1.8895    0.0000 </r>
       <r>    2.0606    0.0000 </r>
       <r>    2.3021    0.0000 </r>
       <r>    2.4183    0.0000 </r>
       <r>    2.6339    0.0000 </r>
       <r>    2.6975    0.0000 </r>
       <r>    2.8722    0.0000 </r>
       <r>    2.9209    0.0000 </r>
       <r>    2.9565    0.0000 </r>
       <r>    3.0688    0.0000 </r>
      </set>
      <set comment="kpoint 5">
       <r>  -13.2460    1.0000 </r>
       <r>  -12.5698    1.0000 </r>
       <r>  -12.2451    1.0000 </r>
       <r>  -11.9718    1.0000 </r>
       <r>  -11.9088    1.0000 </r>
       <r>  -11.6342    1.0000 </r>
       <r>  -11.1885    1.0000 </r>
       <r>  -11.1406    1.0000 </r>
       <r>  -10.7668    1.0000 </r>
       <r>  -10.7521    1.0000 </r>
       <r>  -10.3996    1.0000 </r>
       <r>  -10.1888    1.0000 </r>
       <r>   -8.7556    1.0000 </r>
       <r>   -8.6394    1.0000 </r>
       <r>   -8.0716    1.0000 </r>
       <r>   -7.9400    1.0000 </r>
       <r>   -7.5494    1.0000 </r>
       <r>   -6.9843    1.0000 </r>
       <r>   -6.9190    1.0000 </r>
       <r>   -6.8685    1.0000 </r>
       <r>   -6.5895    1.0000 </r>
       <r>   -6.1464    1.0000 </r>
       <r>   -5.9580    1.0000 </r>
       <r>   -5.9517    1.0000 </r>
       <r>   -5.6695    1.0000 </r>
       <r>   -5.1908    1.0000 </r>
       <r>   -4.7828    1.0000 </r>
       <r>   -4.6871    1.0000 </r>
       <r>   -4.6549    1.0000 </r>
       <r>   -4.5007    1.0000 </r>
       <r>   -4.2931    1.0000 </r>
       <r>   -4.2041    1.0000 </r>
       <r>   -4.0999    1.0000 </r>
       <r>   -3.9069    1.0000 </r>
       <r>   -3.7191    1.0000 </r>
       <r>   -3.4034    1.0000 </r>
       <r>   -3.3438    1.0000 </r>
       <r>   -3.0680    1.0000 </r>
       <r>   -2.9502    1.0000 </r>
       <r>   -2.8482    1.0000 </r>
       <r>   -2.7304    1.0000 </r>
       <r>   -2.5656    1.0000 </r>
       <r>   -2.3532    1.0000 </r>
       <r>   -2.0623    1.0000 </r>
       <r>   -1.9543    1.0000 </r>
       <r>   -1.8836    1.0000 </r>
       <r>   -1.8410    1.0000 </r>
       <r>   -1.7620    1.0000 </r>
       <r>   -1.6844    1.0000 </r>
       <r>   -1.4326    1.0000 </r>
       <r>   -1.2826    1.0000 </r>
       <r>   -1.0909    1.0000 </r>
       <r>   -0.8526    1.0000 </r>
       <r>   -0.6294    1.0000 </r>
       <r>    0.3959    0.0001 </r>
       <r>    0.6230    0.0000 </r>
       <r>    1.0134    0.0000 </r>
       <r>    1.5692    0.0000 </r>
       <r>    1.6764    0.0000 </r>
       <r>    1.8167    0.0000 </r>
       <r>    2.0217    0.0000 </r>
       <r>    2.2209    0.0000 </r>
       <r>    2.3617    0.0000 </r>
       <r>    2.4551    0.0000 </r>
       <r>    2.6720    0.0000 </r>
       <r>    2.7342    0.0000 </r>
       <r>    2.8407    0.0000 </r>
       <r>    2.9039    0.0000 </r>
      </set>
      <set comment="kpoint 6">
       <r>  -12.8450    1.0000 </r>
       <r>  -12.0621    1.0000 </r>
       <r>  -11.8856    1.0000 </r>
       <r>  -11.5560    1.0000 </r>
       <r>  -11.5446    1.0000 </r>
       <r>  -11.2370    1.0000 </r>
       <r>  -11.0620    1.0000 </r>
       <r>  -10.8371    1.0000 </r>
       <r>  -10.6582    1.0000 </r>
       <r>  -10.6113    1.0000 </r>
       <r>  -10.4398    1.0000 </r>
       <r>   -9.8282    1.0000 </r>
       <r>   -9.1003    1.0000 </r>
       <r>   -8.8154    1.0000 </r>
       <r>   -8.3657    1.0000 </r>
       <r>   -8.3324    1.0000 </r>
       <r>   -7.9148    1.0000 </r>
       <r>   -7.4439    1.0000 </r>
       <r>   -7.4048    1.0000 </r>
       <r>   -7.3337    1.0000 </r>
       <r>   -6.8341    1.0000 </r>
       <r>   -6.7413    1.0000 </r>
       <r>   -6.6500    1.0000 </r>
       <r>   -6.3800    1.0000 </r>
       <r>   -5.7268    1.0000 </r>
       <r>   -5.1904    1.0000 </r>
       <r>   -4.8457    1.0000 </r>
       <r>   -4.6231    1.0000 </r>
       <r>   -4.5123    1.0000 </r>
       <r>   -4.4207    1.0000 </r>
       <r>   -4.2219    1.0000 </r>
       <r>   -4.0649    1.0000 </r>
       <r>   -4.0201    1.0000 </r>
       <r>   -3.8575    1.0000 </r>
       <r>   -3.6915    1.0000 </r>
       <r>   -3.6380    1.0000 </r>
       <r>   -3.3884    1.0000 </r>
       <r>   -3.2522    1.0000 </r>
       <r>   -3.1454    1.0000 </r>
       <r>   -2.8004    1.0000 </r>
       <r>   -2.7626    1.0000 </r>
       <r>   -2.6100    1.0000 </r>
       <r>   -2.4883    1.0000 </r>
       <r>   -2.3189    1.0000 </r>
       <r>   -2.2604    1.0000 </r>
       <r>   -2.1143    1.0000 </r>
       <r>   -2.0078    1.0000 </r>
       <r>   -1.9070    1.0000 </r>
       <r>   -1.7916    1.0000 </r>
       <r>   -1.4795    1.0000 </r>
       <r>   -1.3986    1.0000 </r>
       <r>   -1.2808    1.0000 </r>
       <r>   -0.9912    1.0000 </r>
       <r>   -0.6835    1.0000 </r>
       <r>    0.1180    0.5748 </r>
       <r>    0.4280    0.0000 </r>
       <r>    0.9515    0.0000 </r>
       <r>    1.4081    0.0000 </r>
       <r>    1.5337    0.0000 </r>
       <r>    1.7267    0.0000 </r>
       <r>    1.7535    0.0000 </r>
       <r>    2.0784    0.0000 </r>
       <r>    2.2289    0.0000 </r>
       <r>    2.2978    0.0000 </r>
       <r>    2.3499    0.0000 </r>
       <r>    2.5039    0.0000 </r>
       <r>    2.6937    0.0000 </r>
       <r>    2.7698    0.0000 </r>
      </set>
      <set comment="kpoint 7">
       <r>  -12.5007    1.0000 </r>
       <r>  -11.7001    1.0000 </r>
       <r>  -11.4874    1.0000 </r>
       <r>  -11.2612    1.0000 </r>
       <r>  -11.1291    1.0000 </r>
       <r>  -11.0374    1.0000 </r>
       <r>  -10.9397    1.0000 </r>
       <r>  -10.8286    1.0000 </r>
       <r>  -10.7128    1.0000 </r>
       <r>  -10.7012    1.0000 </r>
       <r>  -10.6216    1.0000 </r>
       <r>   -9.5568    1.0000 </r>
       <r>   -9.1928    1.0000 </r>
       <r>   -8.7903    1.0000 </r>
       <r>   -8.6721    1.0000 </r>
       <r>   -8.4257    1.0000 </r>
       <r>   -8.0636    1.0000 </r>
       <r>   -8.0143    1.0000 </r>
       <r>   -7.7365    1.0000 </r>
       <r>   -7.5609    1.0000 </r>
       <r>   -7.2755    1.0000 </r>
       <r>   -7.1621    1.0000 </r>
       <r>   -7.0182    1.0000 </r>
       <r>   -6.6307    1.0000 </r>
       <r>   -5.7132    1.0000 </r>
       <r>   -4.9076    1.0000 </r>
       <r>   -4.8526    1.0000 </r>
       <r>   -4.4868    1.0000 </r>
       <r>   -4.2657    1.0000 </r>
       <r>   -4.2300    1.0000 </r>
       <r>   -4.0853    1.0000 </r>
       <r>   -4.0202    1.0000 </r>
       <r>   -3.9347    1.0000 </r>
       <r>   -3.8127    1.0000 </r>
       <r>   -3.6790    1.0000 </r>
       <r>   -3.5732    1.0000 </r>
       <r>   -3.5407    1.0000 </r>
       <r>   -3.4191    1.0000 </r>
       <r>   -3.2412    1.0000 </r>
       <r>   -3.0442    1.0000 </r>
       <r>   -3.0022    1.0000 </r>
       <r>   -2.7555    1.0000 </r>
       <r>   -2.6790    1.0000 </r>
       <r>   -2.4846    1.0000 </r>
       <r>   -2.3507    1.0000 </r>
       <r>   -2.1940    1.0000 </r>
       <r>   -2.1003    1.0000 </r>
       <r>   -1.9124    1.0000 </r>
       <r>   -1.6997    1.0000 </r>
       <r>   -1.5459    1.0000 </r>
       <r>   -1.5020    1.0000 </r>
       <r>   -1.3417    1.0000 </r>
       <r>   -1.0419    1.0000 </r>
       <r>   -0.6333    1.0000 </r>
       <r>   -0.1353    0.9999 </r>
       <r>    0.3327    0.0022 </r>
       <r>    0.8765    0.0000 </r>
       <r>    1.3803    0.0000 </r>
       <r>    1.5130    0.0000 </r>
       <r>    1.6250    0.0000 </r>
       <r>    1.6858    0.0000 </r>
       <r>    1.8864    0.0000 </r>
       <r>    2.0800    0.0000 </r>
       <r>    2.1711    0.0000 </r>
       <r>    2.3382    0.0000 </r>
       <r>    2.4221    0.0000 </r>
       <r>    2.5023    0.0000 </r>
       <r>    2.6137    0.0000 </r>
      </set>
      <set comment="kpoint 8">
       <r>  -14.0653    1.0000 </r>
       <r>  -13.4715    1.0000 </r>
       <r>  -13.1647    1.0000 </r>
       <r>  -12.9577    1.0000 </r>
       <r>  -12.5949    1.0000 </r>
       <r>  -12.4676    1.0000 </r>
       <r>  -11.8642    1.0000 </r>
       <r>  -11.8137    1.0000 </r>
       <r>  -11.4647    1.0000 </r>
       <r>  -11.2347    1.0000 </r>
       <r>  -10.9850    1.0000 </r>
       <r>  -10.7693    1.0000 </r>
       <r>   -8.7512    1.0000 </r>
       <r>   -8.4995    1.0000 </r>
       <r>   -7.3938    1.0000 </r>
       <r>   -7.1542    1.0000 </r>
       <r>   -6.9849    1.0000 </r>
       <r>   -6.6579    1.0000 </r>
       <r>   -6.5858    1.0000 </r>
       <r>   -6.3250    1.0000 </r>
       <r>   -5.7659    1.0000 </r>
       <r>   -5.6934    1.0000 </r>
       <r>   -5.1830    1.0000 </r>
       <r>   -4.7683    1.0000 </r>
       <r>   -4.6114    1.0000 </r>
       <r>   -4.1728    1.0000 </r>
       <r>   -3.9988    1.0000 </r>
       <r>   -3.8388    1.0000 </r>
       <r>   -3.5340    1.0000 </r>
       <r>   -3.2792    1.0000 </r>
       <r>   -3.1147    1.0000 </r>
       <r>   -2.9714    1.0000 </r>
       <r>   -2.9299    1.0000 </r>
       <r>   -2.6927    1.0000 </r>
       <r>   -2.4328    1.0000 </r>
       <r>   -2.3869    1.0000 </r>
       <r>   -2.3805    1.0000 </r>
       <r>   -2.3085    1.0000 </r>
       <r>   -2.1293    1.0000 </r>
       <r>   -2.0418    1.0000 </r>
       <r>   -1.9324    1.0000 </r>
       <r>   -1.8689    1.0000 </r>
       <r>   -1.8493    1.0000 </r>
       <r>   -1.7312    1.0000 </r>
       <r>   -1.6163    1.0000 </r>
       <r>   -1.4480    1.0000 </r>
       <r>   -1.4047    1.0000 </r>
       <r>   -1.3468    1.0000 </r>
       <r>   -1.1790    1.0000 </r>
       <r>   -1.0879    1.0000 </r>
       <r>   -0.9675    1.0000 </r>
       <r>   -0.5325    1.0000 </r>
       <r>   -0.1246    0.9999 </r>
       <r>    0.3294    0.0025 </r>
       <r>    0.5213    0.0000 </r>
       <r>    0.9623    0.0000 </r>
       <r>    1.1538    0.0000 </r>
       <r>    1.2624    0.0000 </r>
       <r>    1.3711    0.0000 </r>
       <r>    1.3956    0.0000 </r>
       <r>    1.5836    0.0000 </r>
       <r>    1.7882    0.0000 </r>
       <r>    1.9013    0.0000 </r>
       <r>    2.1006    0.0000 </r>
       <r>    2.2793    0.0000 </r>
       <r>    2.5075    0.0000 </r>
       <r>    2.6205    0.0000 </r>
       <r>    2.6888    0.0000 </r>
      </set>
      <set comment="kpoint 9">
       <r>  -14.0070    1.0000 </r>
       <r>  -13.3948    1.0000 </r>
       <r>  -13.1335    1.0000 </r>
       <r>  -12.9385    1.0000 </r>
       <r>  -12.5031    1.0000 </r>
       <r>  -12.4074    1.0000 </r>
       <r>  -11.8079    1.0000 </r>
       <r>  -11.7530    1.0000 </r>
       <r>  -11.4235    1.0000 </r>
       <r>  -11.1783    1.0000 </r>
       <r>  -10.9407    1.0000 </r>
       <r>  -10.7250    1.0000 </r>
       <r>   -8.7510    1.0000 </r>
       <r>   -8.5578    1.0000 </r>
       <r>   -7.3506    1.0000 </r>
       <r>   -7.1394    1.0000 </r>
       <r>   -6.9432    1.0000 </r>
       <r>   -6.6660    1.0000 </r>
       <r>   -6.5165    1.0000 </r>
       <r>   -6.3368    1.0000 </r>
       <r>   -5.8172    1.0000 </r>
       <r>   -5.6747    1.0000 </r>
       <r>   -5.3745    1.0000 </r>
       <r>   -4.7414    1.0000 </r>
       <r>   -4.6398    1.0000 </r>
       <r>   -4.1723    1.0000 </r>
       <r>   -4.0244    1.0000 </r>
       <r>   -3.8951    1.0000 </r>
       <r>   -3.6250    1.0000 </r>
       <r>   -3.4382    1.0000 </r>
       <r>   -3.3590    1.0000 </r>
       <r>   -3.2738    1.0000 </r>
       <r>   -3.0756    1.0000 </r>
       <r>   -2.9983    1.0000 </r>
       <r>   -2.7448    1.0000 </r>
       <r>   -2.6753    1.0000 </r>
       <r>   -2.4939    1.0000 </r>
       <r>   -2.4037    1.0000 </r>
       <r>   -2.2820    1.0000 </r>
       <r>   -2.2506    1.0000 </r>
       <r>   -2.1168    1.0000 </r>
       <r>   -1.9900    1.0000 </r>
       <r>   -1.9808    1.0000 </r>
       <r>   -1.8414    1.0000 </r>
       <r>   -1.8206    1.0000 </r>
       <r>   -1.7214    1.0000 </r>
       <r>   -1.5361    1.0000 </r>
       <r>   -1.3569    1.0000 </r>
       <r>   -1.1825    1.0000 </r>
       <r>   -1.0596    1.0000 </r>
       <r>   -0.9292    1.0000 </r>
       <r>   -0.4522    1.0000 </r>
       <r>   -0.1621    1.0000 </r>
       <r>    0.2985    0.0090 </r>
       <r>    0.6207    0.0000 </r>
       <r>    0.7950    0.0000 </r>
       <r>    1.3478    0.0000 </r>
       <r>    1.5434    0.0000 </r>
       <r>    1.7079    0.0000 </r>
       <r>    1.7958    0.0000 </r>
       <r>    1.8551    0.0000 </r>
       <r>    1.9844    0.0000 </r>
       <r>    2.2523    0.0000 </r>
       <r>    2.4149    0.0000 </r>
       <r>    2.5472    0.0000 </r>
       <r>    2.6657    0.0000 </r>
       <r>    2.6992    0.0000 </r>
       <r>    2.9763    0.0000 </r>
      </set>
      <set comment="kpoint 10">
       <r>  -13.8421    1.0000 </r>
       <r>  -13.1985    1.0000 </r>
       <r>  -12.9868    1.0000 </r>
       <r>  -12.8019    1.0000 </r>
       <r>  -12.3127    1.0000 </r>
       <r>  -12.2365    1.0000 </r>
       <r>  -11.6944    1.0000 </r>
       <r>  -11.5576    1.0000 </r>
       <r>  -11.2842    1.0000 </r>
       <r>  -11.0404    1.0000 </r>
       <r>  -10.7995    1.0000 </r>
       <r>  -10.6157    1.0000 </r>
       <r>   -8.7039    1.0000 </r>
       <r>   -8.6224    1.0000 </r>
       <r>   -7.3260    1.0000 </r>
       <r>   -7.1809    1.0000 </r>
       <r>   -6.9190    1.0000 </r>
       <r>   -6.6449    1.0000 </r>
       <r>   -6.5042    1.0000 </r>
       <r>   -6.4581    1.0000 </r>
       <r>   -6.0193    1.0000 </r>
       <r>   -5.6703    1.0000 </r>
       <r>   -5.6098    1.0000 </r>
       <r>   -4.8650    1.0000 </r>
       <r>   -4.7887    1.0000 </r>
       <r>   -4.3678    1.0000 </r>
       <r>   -4.2960    1.0000 </r>
       <r>   -4.1104    1.0000 </r>
       <r>   -4.0356    1.0000 </r>
       <r>   -3.9401    1.0000 </r>
       <r>   -3.7920    1.0000 </r>
       <r>   -3.6211    1.0000 </r>
       <r>   -3.5390    1.0000 </r>
       <r>   -3.2570    1.0000 </r>
       <r>   -3.0861    1.0000 </r>
       <r>   -3.0213    1.0000 </r>
       <r>   -2.9497    1.0000 </r>
       <r>   -2.8370    1.0000 </r>
       <r>   -2.7385    1.0000 </r>
       <r>   -2.6896    1.0000 </r>
       <r>   -2.5812    1.0000 </r>
       <r>   -2.3033    1.0000 </r>
       <r>   -2.1292    1.0000 </r>
       <r>   -1.9541    1.0000 </r>
       <r>   -1.9186    1.0000 </r>
       <r>   -1.8385    1.0000 </r>
       <r>   -1.5425    1.0000 </r>
       <r>   -1.4673    1.0000 </r>
       <r>   -1.2493    1.0000 </r>
       <r>   -1.1167    1.0000 </r>
       <r>   -0.9538    1.0000 </r>
       <r>   -0.4855    1.0000 </r>
       <r>   -0.3296    1.0000 </r>
       <r>    0.0183    0.9450 </r>
       <r>    0.6114    0.0000 </r>
       <r>    0.7906    0.0000 </r>
       <r>    1.4460    0.0000 </r>
       <r>    1.5885    0.0000 </r>
       <r>    1.7539    0.0000 </r>
       <r>    2.1406    0.0000 </r>
       <r>    2.3875    0.0000 </r>
       <r>    2.5543    0.0000 </r>
       <r>    2.7341    0.0000 </r>
       <r>    2.7609    0.0000 </r>
       <r>    2.9067    0.0000 </r>
       <r>    3.0299    0.0000 </r>
       <r>    3.0980    0.0000 </r>
       <r>    3.1561    0.0000 </r>
      </set>
      <set comment="kpoint 11">
       <r>  -13.5778    1.0000 </r>
       <r>  -12.8875    1.0000 </r>
       <r>  -12.7297    1.0000 </r>
       <r>  -12.5503    1.0000 </r>
       <r>  -12.0364    1.0000 </r>
       <r>  -11.9653    1.0000 </r>
       <r>  -11.5046    1.0000 </r>
       <r>  -11.2812    1.0000 </r>
       <r>  -11.0626    1.0000 </r>
       <r>  -10.8630    1.0000 </r>
       <r>  -10.5820    1.0000 </r>
       <r>  -10.4363    1.0000 </r>
       <r>   -8.7571    1.0000 </r>
       <r>   -8.6614    1.0000 </r>
       <r>   -7.4574    1.0000 </r>
       <r>   -7.3676    1.0000 </r>
       <r>   -7.2429    1.0000 </r>
       <r>   -6.6847    1.0000 </r>
       <r>   -6.6314    1.0000 </r>
       <r>   -6.5871    1.0000 </r>
       <r>   -6.2227    1.0000 </r>
       <r>   -5.9128    1.0000 </r>
       <r>   -5.7937    1.0000 </r>
       <r>   -5.2477    1.0000 </r>
       <r>   -5.1908    1.0000 </r>
       <r>   -5.0070    1.0000 </r>
       <r>   -4.6521    1.0000 </r>
       <r>   -4.5420    1.0000 </r>
       <r>   -4.4446    1.0000 </r>
       <r>   -4.1609    1.0000 </r>
       <r>   -4.0603    1.0000 </r>
       <r>   -3.9935    1.0000 </r>
       <r>   -3.7800    1.0000 </r>
       <r>   -3.6858    1.0000 </r>
       <r>   -3.5250    1.0000 </r>
       <r>   -3.3183    1.0000 </r>
       <r>   -3.1962    1.0000 </r>
       <r>   -3.0766    1.0000 </r>
       <r>   -3.0394    1.0000 </r>
       <r>   -2.8585    1.0000 </r>
       <r>   -2.5998    1.0000 </r>
       <r>   -2.5118    1.0000 </r>
       <r>   -2.1601    1.0000 </r>
       <r>   -1.9815    1.0000 </r>
       <r>   -1.9074    1.0000 </r>
       <r>   -1.8569    1.0000 </r>
       <r>   -1.7440    1.0000 </r>
       <r>   -1.5258    1.0000 </r>
       <r>   -1.3896    1.0000 </r>
       <r>   -1.3192    1.0000 </r>
       <r>   -1.1043    1.0000 </r>
       <r>   -0.7623    1.0000 </r>
       <r>   -0.5571    1.0000 </r>
       <r>   -0.4706    1.0000 </r>
       <r>    0.6152    0.0000 </r>
       <r>    0.6998    0.0000 </r>
       <r>    1.1466    0.0000 </r>
       <r>    1.4884    0.0000 </r>
       <r>    1.6249    0.0000 </r>
       <r>    1.6761    0.0000 </r>
       <r>    2.2089    0.0000 </r>
       <r>    2.3657    0.0000 </r>
       <r>    2.5736    0.0000 </r>
       <r>    2.7096    0.0000 </r>
       <r>    2.9025    0.0000 </r>
       <r>    2.9799    0.0000 </r>
       <r>    3.0701    0.0000 </r>
       <r>    3.2830    0.0000 </r>
      </set>
      <set comment="kpoint 12">
       <r>  -13.2301    1.0000 </r>
       <r>  -12.4717    1.0000 </r>
       <r>  -12.3750    1.0000 </r>
       <r>  -12.1909    1.0000 </r>
       <r>  -11.7099    1.0000 </r>
       <r>  -11.6192    1.0000 </r>
       <r>  -11.2721    1.0000 </r>
       <r>  -10.9675    1.0000 </r>
       <r>  -10.7992    1.0000 </r>
       <r>  -10.7304    1.0000 </r>
       <r>  -10.3764    1.0000 </r>
       <r>  -10.1659    1.0000 </r>
       <r>   -8.9556    1.0000 </r>
       <r>   -8.7792    1.0000 </r>
       <r>   -7.8692    1.0000 </r>
       <r>   -7.7052    1.0000 </r>
       <r>   -7.6644    1.0000 </r>
       <r>   -7.0967    1.0000 </r>
       <r>   -6.9507    1.0000 </r>
       <r>   -6.8311    1.0000 </r>
       <r>   -6.4841    1.0000 </r>
       <r>   -6.1970    1.0000 </r>
       <r>   -6.1500    1.0000 </r>
       <r>   -5.9069    1.0000 </r>
       <r>   -5.6568    1.0000 </r>
       <r>   -5.3593    1.0000 </r>
       <r>   -4.9248    1.0000 </r>
       <r>   -4.6975    1.0000 </r>
       <r>   -4.4212    1.0000 </r>
       <r>   -4.3529    1.0000 </r>
       <r>   -4.2850    1.0000 </r>
       <r>   -4.1275    1.0000 </r>
       <r>   -4.0001    1.0000 </r>
       <r>   -3.9500    1.0000 </r>
       <r>   -3.5425    1.0000 </r>
       <r>   -3.4154    1.0000 </r>
       <r>   -3.3225    1.0000 </r>
       <r>   -2.9992    1.0000 </r>
       <r>   -2.9662    1.0000 </r>
       <r>   -2.8728    1.0000 </r>
       <r>   -2.7754    1.0000 </r>
       <r>   -2.4808    1.0000 </r>
       <r>   -2.3159    1.0000 </r>
       <r>   -2.2720    1.0000 </r>
       <r>   -1.9609    1.0000 </r>
       <r>   -1.8931    1.0000 </r>
       <r>   -1.8601    1.0000 </r>
       <r>   -1.7363    1.0000 </r>
       <r>   -1.6719    1.0000 </r>
       <r>   -1.4328    1.0000 </r>
       <r>   -1.3347    1.0000 </r>
       <r>   -1.0373    1.0000 </r>
       <r>   -0.8855    1.0000 </r>
       <r>   -0.7194    1.0000 </r>
       <r>    0.4137    0.0000 </r>
       <r>    0.5428    0.0000 </r>
       <r>    0.8771    0.0000 </r>
       <r>    1.2505    0.0000 </r>
       <r>    1.3319    0.0000 </r>
       <r>    1.5969    0.0000 </r>
       <r>    2.0502    0.0000 </r>
       <r>    2.2225    0.0000 </r>
       <r>    2.3662    0.0000 </r>
       <r>    2.5005    0.0000 </r>
       <r>    2.6163    0.0000 </r>
       <r>    2.6784    0.0000 </r>
       <r>    2.8775    0.0000 </r>
       <r>    2.9942    0.0000 </r>
      </set>
      <set comment="kpoint 13">
       <r>  -12.8351    1.0000 </r>
       <r>  -11.9773    1.0000 </r>
       <r>  -11.9539    1.0000 </r>
       <r>  -11.7404    1.0000 </r>
       <r>  -11.4570    1.0000 </r>
       <r>  -11.2339    1.0000 </r>
       <r>  -11.0635    1.0000 </r>
       <r>  -10.7096    1.0000 </r>
       <r>  -10.6848    1.0000 </r>
       <r>  -10.5891    1.0000 </r>
       <r>  -10.4520    1.0000 </r>
       <r>   -9.8232    1.0000 </r>
       <r>   -9.0886    1.0000 </r>
       <r>   -8.9459    1.0000 </r>
       <r>   -8.3608    1.0000 </r>
       <r>   -8.0971    1.0000 </r>
       <r>   -7.8913    1.0000 </r>
       <r>   -7.7631    1.0000 </r>
       <r>   -7.3513    1.0000 </r>
       <r>   -7.3087    1.0000 </r>
       <r>   -6.7498    1.0000 </r>
       <r>   -6.6860    1.0000 </r>
       <r>   -6.6390    1.0000 </r>
       <r>   -6.5998    1.0000 </r>
       <r>   -5.6873    1.0000 </r>
       <r>   -5.3232    1.0000 </r>
       <r>   -4.8067    1.0000 </r>
       <r>   -4.7653    1.0000 </r>
       <r>   -4.4766    1.0000 </r>
       <r>   -4.3667    1.0000 </r>
       <r>   -4.1045    1.0000 </r>
       <r>   -3.9972    1.0000 </r>
       <r>   -3.8512    1.0000 </r>
       <r>   -3.8170    1.0000 </r>
       <r>   -3.7833    1.0000 </r>
       <r>   -3.3370    1.0000 </r>
       <r>   -3.3248    1.0000 </r>
       <r>   -3.2715    1.0000 </r>
       <r>   -3.1050    1.0000 </r>
       <r>   -2.9188    1.0000 </r>
       <r>   -2.8365    1.0000 </r>
       <r>   -2.6189    1.0000 </r>
       <r>   -2.5180    1.0000 </r>
       <r>   -2.3310    1.0000 </r>
       <r>   -2.2727    1.0000 </r>
       <r>   -2.1528    1.0000 </r>
       <r>   -2.0556    1.0000 </r>
       <r>   -1.8771    1.0000 </r>
       <r>   -1.7734    1.0000 </r>
       <r>   -1.4987    1.0000 </r>
       <r>   -1.3804    1.0000 </r>
       <r>   -1.3141    1.0000 </r>
       <r>   -1.0279    1.0000 </r>
       <r>   -0.7338    1.0000 </r>
       <r>    0.0900    0.7202 </r>
       <r>    0.4087    0.0000 </r>
       <r>    0.7538    0.0000 </r>
       <r>    1.2191    0.0000 </r>
       <r>    1.3563    0.0000 </r>
       <r>    1.5838    0.0000 </r>
       <r>    1.8271    0.0000 </r>
       <r>    1.9932    0.0000 </r>
       <r>    2.1692    0.0000 </r>
       <r>    2.2037    0.0000 </r>
       <r>    2.4187    0.0000 </r>
       <r>    2.6346    0.0000 </r>
       <r>    2.6997    0.0000 </r>
       <r>    2.7310    0.0000 </r>
      </set>
      <set comment="kpoint 14">
       <r>  -12.4984    1.0000 </r>
       <r>  -11.7002    1.0000 </r>
       <r>  -11.4183    1.0000 </r>
       <r>  -11.2928    1.0000 </r>
       <r>  -11.2445    1.0000 </r>
       <r>  -11.0146    1.0000 </r>
       <r>  -10.9512    1.0000 </r>
       <r>  -10.8494    1.0000 </r>
       <r>  -10.6882    1.0000 </r>
       <r>  -10.6814    1.0000 </r>
       <r>  -10.5680    1.0000 </r>
       <r>   -9.5524    1.0000 </r>
       <r>   -9.2205    1.0000 </r>
       <r>   -8.7880    1.0000 </r>
       <r>   -8.5392    1.0000 </r>
       <r>   -8.3847    1.0000 </r>
       <r>   -8.3132    1.0000 </r>
       <r>   -7.9115    1.0000 </r>
       <r>   -7.8062    1.0000 </r>
       <r>   -7.5076    1.0000 </r>
       <r>   -7.3053    1.0000 </r>
       <r>   -7.1208    1.0000 </r>
       <r>   -7.0259    1.0000 </r>
       <r>   -6.6811    1.0000 </r>
       <r>   -5.6843    1.0000 </r>
       <r>   -5.0022    1.0000 </r>
       <r>   -4.8371    1.0000 </r>
       <r>   -4.4581    1.0000 </r>
       <r>   -4.2504    1.0000 </r>
       <r>   -4.2010    1.0000 </r>
       <r>   -4.1188    1.0000 </r>
       <r>   -4.0776    1.0000 </r>
       <r>   -3.9206    1.0000 </r>
       <r>   -3.6869    1.0000 </r>
       <r>   -3.6401    1.0000 </r>
       <r>   -3.6274    1.0000 </r>
       <r>   -3.4888    1.0000 </r>
       <r>   -3.3183    1.0000 </r>
       <r>   -3.2434    1.0000 </r>
       <r>   -3.0410    1.0000 </r>
       <r>   -2.9882    1.0000 </r>
       <r>   -2.7520    1.0000 </r>
       <r>   -2.6353    1.0000 </r>
       <r>   -2.5822    1.0000 </r>
       <r>   -2.4400    1.0000 </r>
       <r>   -2.1760    1.0000 </r>
       <r>   -2.1047    1.0000 </r>
       <r>   -1.8949    1.0000 </r>
       <r>   -1.6936    1.0000 </r>
       <r>   -1.5505    1.0000 </r>
       <r>   -1.5299    1.0000 </r>
       <r>   -1.3612    1.0000 </r>
       <r>   -1.0433    1.0000 </r>
       <r>   -0.6508    1.0000 </r>
       <r>   -0.1514    1.0000 </r>
       <r>    0.3409    0.0015 </r>
       <r>    0.7952    0.0000 </r>
       <r>    1.4356    0.0000 </r>
       <r>    1.5005    0.0000 </r>
       <r>    1.5798    0.0000 </r>
       <r>    1.6366    0.0000 </r>
       <r>    1.7763    0.0000 </r>
       <r>    2.0409    0.0000 </r>
       <r>    2.1860    0.0000 </r>
       <r>    2.3369    0.0000 </r>
       <r>    2.4663    0.0000 </r>
       <r>    2.5147    0.0000 </r>
       <r>    2.6174    0.0000 </r>
      </set>
      <set comment="kpoint 15">
       <r>  -12.5042    1.0000 </r>
       <r>  -11.6844    1.0000 </r>
       <r>  -11.5205    1.0000 </r>
       <r>  -11.2630    1.0000 </r>
       <r>  -11.0523    1.0000 </r>
       <r>  -11.0452    1.0000 </r>
       <r>  -10.9264    1.0000 </r>
       <r>  -10.7932    1.0000 </r>
       <r>  -10.7433    1.0000 </r>
       <r>  -10.7135    1.0000 </r>
       <r>  -10.6864    1.0000 </r>
       <r>   -9.5565    1.0000 </r>
       <r>   -9.1610    1.0000 </r>
       <r>   -8.8077    1.0000 </r>
       <r>   -8.7400    1.0000 </r>
       <r>   -8.4197    1.0000 </r>
       <r>   -8.0514    1.0000 </r>
       <r>   -7.9285    1.0000 </r>
       <r>   -7.7185    1.0000 </r>
       <r>   -7.5938    1.0000 </r>
       <r>   -7.2668    1.0000 </r>
       <r>   -7.2045    1.0000 </r>
       <r>   -7.0381    1.0000 </r>
       <r>   -6.5671    1.0000 </r>
       <r>   -5.7200    1.0000 </r>
       <r>   -4.8686    1.0000 </r>
       <r>   -4.7139    1.0000 </r>
       <r>   -4.5638    1.0000 </r>
       <r>   -4.3558    1.0000 </r>
       <r>   -4.2821    1.0000 </r>
       <r>   -4.0778    1.0000 </r>
       <r>   -3.9922    1.0000 </r>
       <r>   -3.9865    1.0000 </r>
       <r>   -3.8694    1.0000 </r>
       <r>   -3.6553    1.0000 </r>
       <r>   -3.6326    1.0000 </r>
       <r>   -3.5502    1.0000 </r>
       <r>   -3.4084    1.0000 </r>
       <r>   -3.3467    1.0000 </r>
       <r>   -3.0387    1.0000 </r>
       <r>   -2.8336    1.0000 </r>
       <r>   -2.7321    1.0000 </r>
       <r>   -2.6743    1.0000 </r>
       <r>   -2.4685    1.0000 </r>
       <r>   -2.3733    1.0000 </r>
       <r>   -2.1654    1.0000 </r>
       <r>   -2.1164    1.0000 </r>
       <r>   -1.9372    1.0000 </r>
       <r>   -1.6929    1.0000 </r>
       <r>   -1.5701    1.0000 </r>
       <r>   -1.4913    1.0000 </r>
       <r>   -1.2800    1.0000 </r>
       <r>   -1.0616    1.0000 </r>
       <r>   -0.6539    1.0000 </r>
       <r>   -0.0985    0.9994 </r>
       <r>    0.3414    0.0015 </r>
       <r>    0.9213    0.0000 </r>
       <r>    1.3840    0.0000 </r>
       <r>    1.5180    0.0000 </r>
       <r>    1.6845    0.0000 </r>
       <r>    1.7785    0.0000 </r>
       <r>    1.8157    0.0000 </r>
       <r>    2.1867    0.0000 </r>
       <r>    2.2768    0.0000 </r>
       <r>    2.3587    0.0000 </r>
       <r>    2.3916    0.0000 </r>
       <r>    2.5601    0.0000 </r>
       <r>    2.6054    0.0000 </r>
      </set>
      <set comment="kpoint 16">
       <r>  -12.8506    1.0000 </r>
       <r>  -12.0883    1.0000 </r>
       <r>  -11.7852    1.0000 </r>
       <r>  -11.6679    1.0000 </r>
       <r>  -11.4669    1.0000 </r>
       <r>  -11.2359    1.0000 </r>
       <r>  -11.0537    1.0000 </r>
       <r>  -10.9181    1.0000 </r>
       <r>  -10.6348    1.0000 </r>
       <r>  -10.6136    1.0000 </r>
       <r>  -10.4354    1.0000 </r>
       <r>   -9.8344    1.0000 </r>
       <r>   -9.1121    1.0000 </r>
       <r>   -8.7265    1.0000 </r>
       <r>   -8.4774    1.0000 </r>
       <r>   -8.3051    1.0000 </r>
       <r>   -7.9466    1.0000 </r>
       <r>   -7.4294    1.0000 </r>
       <r>   -7.3377    1.0000 </r>
       <r>   -7.3091    1.0000 </r>
       <r>   -6.8535    1.0000 </r>
       <r>   -6.7892    1.0000 </r>
       <r>   -6.6557    1.0000 </r>
       <r>   -6.2965    1.0000 </r>
       <r>   -5.7477    1.0000 </r>
       <r>   -5.0302    1.0000 </r>
       <r>   -4.8565    1.0000 </r>
       <r>   -4.8219    1.0000 </r>
       <r>   -4.4338    1.0000 </r>
       <r>   -4.3920    1.0000 </r>
       <r>   -4.2594    1.0000 </r>
       <r>   -4.1028    1.0000 </r>
       <r>   -4.0695    1.0000 </r>
       <r>   -3.8675    1.0000 </r>
       <r>   -3.7064    1.0000 </r>
       <r>   -3.6189    1.0000 </r>
       <r>   -3.4215    1.0000 </r>
       <r>   -3.3755    1.0000 </r>
       <r>   -3.1567    1.0000 </r>
       <r>   -2.8099    1.0000 </r>
       <r>   -2.7430    1.0000 </r>
       <r>   -2.5853    1.0000 </r>
       <r>   -2.5024    1.0000 </r>
       <r>   -2.2879    1.0000 </r>
       <r>   -2.2183    1.0000 </r>
       <r>   -2.1108    1.0000 </r>
       <r>   -1.9266    1.0000 </r>
       <r>   -1.9197    1.0000 </r>
       <r>   -1.7840    1.0000 </r>
       <r>   -1.4907    1.0000 </r>
       <r>   -1.4298    1.0000 </r>
       <r>   -1.2156    1.0000 </r>
       <r>   -0.9984    1.0000 </r>
       <r>   -0.6847    1.0000 </r>
       <r>    0.1439    0.4295 </r>
       <r>    0.4442    0.0000 </r>
       <r>    1.0141    0.0000 </r>
       <r>    1.3739    0.0000 </r>
       <r>    1.5304    0.0000 </r>
       <r>    1.8003    0.0000 </r>
       <r>    1.9247    0.0000 </r>
       <r>    2.1460    0.0000 </r>
       <r>    2.2771    0.0000 </r>
       <r>    2.3618    0.0000 </r>
       <r>    2.4405    0.0000 </r>
       <r>    2.5345    0.0000 </r>
       <r>    2.6026    0.0000 </r>
       <r>    2.7198    0.0000 </r>
      </set>
      <set comment="kpoint 17">
       <r>  -13.2496    1.0000 </r>
       <r>  -12.5821    1.0000 </r>
       <r>  -12.1841    1.0000 </r>
       <r>  -11.9845    1.0000 </r>
       <r>  -11.9292    1.0000 </r>
       <r>  -11.6344    1.0000 </r>
       <r>  -11.2314    1.0000 </r>
       <r>  -11.1282    1.0000 </r>
       <r>  -10.7586    1.0000 </r>
       <r>  -10.7443    1.0000 </r>
       <r>  -10.4056    1.0000 </r>
       <r>  -10.1959    1.0000 </r>
       <r>   -8.7535    1.0000 </r>
       <r>   -8.5403    1.0000 </r>
       <r>   -8.1736    1.0000 </r>
       <r>   -7.9596    1.0000 </r>
       <r>   -7.5188    1.0000 </r>
       <r>   -6.9887    1.0000 </r>
       <r>   -6.9249    1.0000 </r>
       <r>   -6.8441    1.0000 </r>
       <r>   -6.5923    1.0000 </r>
       <r>   -6.1380    1.0000 </r>
       <r>   -5.9738    1.0000 </r>
       <r>   -5.9608    1.0000 </r>
       <r>   -5.6265    1.0000 </r>
       <r>   -5.1300    1.0000 </r>
       <r>   -4.8747    1.0000 </r>
       <r>   -4.6879    1.0000 </r>
       <r>   -4.6318    1.0000 </r>
       <r>   -4.4968    1.0000 </r>
       <r>   -4.2971    1.0000 </r>
       <r>   -4.2286    1.0000 </r>
       <r>   -4.1123    1.0000 </r>
       <r>   -3.8967    1.0000 </r>
       <r>   -3.7311    1.0000 </r>
       <r>   -3.4453    1.0000 </r>
       <r>   -3.3564    1.0000 </r>
       <r>   -3.0670    1.0000 </r>
       <r>   -2.9507    1.0000 </r>
       <r>   -2.8616    1.0000 </r>
       <r>   -2.7407    1.0000 </r>
       <r>   -2.5562    1.0000 </r>
       <r>   -2.3291    1.0000 </r>
       <r>   -2.0216    1.0000 </r>
       <r>   -1.9831    1.0000 </r>
       <r>   -1.8805    1.0000 </r>
       <r>   -1.8274    1.0000 </r>
       <r>   -1.7054    1.0000 </r>
       <r>   -1.6831    1.0000 </r>
       <r>   -1.4232    1.0000 </r>
       <r>   -1.3391    1.0000 </r>
       <r>   -1.0978    1.0000 </r>
       <r>   -0.8410    1.0000 </r>
       <r>   -0.6224    1.0000 </r>
       <r>    0.3960    0.0001 </r>
       <r>    0.6292    0.0000 </r>
       <r>    1.0568    0.0000 </r>
       <r>    1.5627    0.0000 </r>
       <r>    1.6958    0.0000 </r>
       <r>    1.9480    0.0000 </r>
       <r>    2.0201    0.0000 </r>
       <r>    2.2679    0.0000 </r>
       <r>    2.3820    0.0000 </r>
       <r>    2.5397    0.0000 </r>
       <r>    2.6360    0.0000 </r>
       <r>    2.7237    0.0000 </r>
       <r>    2.7675    0.0000 </r>
       <r>    2.8786    0.0000 </r>
      </set>
      <set comment="kpoint 18">
       <r>  -13.5964    1.0000 </r>
       <r>  -12.9772    1.0000 </r>
       <r>  -12.5767    1.0000 </r>
       <r>  -12.3346    1.0000 </r>
       <r>  -12.2606    1.0000 </r>
       <r>  -11.9860    1.0000 </r>
       <r>  -11.5240    1.0000 </r>
       <r>  -11.3390    1.0000 </r>
       <r>  -11.0151    1.0000 </r>
       <r>  -10.9127    1.0000 </r>
       <r>  -10.5840    1.0000 </r>
       <r>  -10.4764    1.0000 </r>
       <r>   -8.5503    1.0000 </r>
       <r>   -8.3841    1.0000 </r>
       <r>   -7.7709    1.0000 </r>
       <r>   -7.6275    1.0000 </r>
       <r>   -7.0693    1.0000 </r>
       <r>   -6.6989    1.0000 </r>
       <r>   -6.6475    1.0000 </r>
       <r>   -6.6127    1.0000 </r>
       <r>   -6.2871    1.0000 </r>
       <r>   -5.8018    1.0000 </r>
       <r>   -5.7172    1.0000 </r>
       <r>   -5.3191    1.0000 </r>
       <r>   -5.2074    1.0000 </r>
       <r>   -4.8144    1.0000 </r>
       <r>   -4.6141    1.0000 </r>
       <r>   -4.5835    1.0000 </r>
       <r>   -4.4951    1.0000 </r>
       <r>   -4.1908    1.0000 </r>
       <r>   -4.1204    1.0000 </r>
       <r>   -4.0466    1.0000 </r>
       <r>   -3.7971    1.0000 </r>
       <r>   -3.6941    1.0000 </r>
       <r>   -3.5711    1.0000 </r>
       <r>   -3.4331    1.0000 </r>
       <r>   -3.3222    1.0000 </r>
       <r>   -2.9911    1.0000 </r>
       <r>   -2.9563    1.0000 </r>
       <r>   -2.8487    1.0000 </r>
       <r>   -2.5901    1.0000 </r>
       <r>   -2.4251    1.0000 </r>
       <r>   -2.1988    1.0000 </r>
       <r>   -1.9295    1.0000 </r>
       <r>   -1.8843    1.0000 </r>
       <r>   -1.8072    1.0000 </r>
       <r>   -1.7384    1.0000 </r>
       <r>   -1.5259    1.0000 </r>
       <r>   -1.4433    1.0000 </r>
       <r>   -1.3730    1.0000 </r>
       <r>   -1.1062    1.0000 </r>
       <r>   -0.6877    1.0000 </r>
       <r>   -0.5784    1.0000 </r>
       <r>   -0.4372    1.0000 </r>
       <r>    0.5229    0.0000 </r>
       <r>    0.7793    0.0000 </r>
       <r>    1.2445    0.0000 </r>
       <r>    1.6608    0.0000 </r>
       <r>    1.8480    0.0000 </r>
[...]
       <r>    2.7367    0.0000 </r>
      </set>
      <set comment="kpoint 54">
       <r>  -12.5019    1.0000 </r>
       <r>  -11.6839    1.0000 </r>
       <r>  -11.4761    1.0000 </r>
       <r>  -11.2963    1.0000 </r>
       <r>  -11.1510    1.0000 </r>
       <r>  -11.0211    1.0000 </r>
       <r>  -10.9425    1.0000 </r>
       <r>  -10.8343    1.0000 </r>
       <r>  -10.7054    1.0000 </r>
       <r>  -10.6989    1.0000 </r>
       <r>  -10.6082    1.0000 </r>
       <r>   -9.5518    1.0000 </r>
       <r>   -9.1917    1.0000 </r>
       <r>   -8.8017    1.0000 </r>
       <r>   -8.6490    1.0000 </r>
       <r>   -8.4266    1.0000 </r>
       <r>   -8.1034    1.0000 </r>
       <r>   -7.9811    1.0000 </r>
       <r>   -7.7533    1.0000 </r>
       <r>   -7.5507    1.0000 </r>
       <r>   -7.2801    1.0000 </r>
       <r>   -7.1520    1.0000 </r>
       <r>   -7.0568    1.0000 </r>
       <r>   -6.6095    1.0000 </r>
       <r>   -5.6901    1.0000 </r>
       <r>   -4.9294    1.0000 </r>
       <r>   -4.8502    1.0000 </r>
       <r>   -4.4647    1.0000 </r>
       <r>   -4.2964    1.0000 </r>
       <r>   -4.2420    1.0000 </r>
       <r>   -4.1230    1.0000 </r>
       <r>   -4.0427    1.0000 </r>
       <r>   -3.9328    1.0000 </r>
       <r>   -3.7525    1.0000 </r>
       <r>   -3.7000    1.0000 </r>
       <r>   -3.5598    1.0000 </r>
       <r>   -3.5401    1.0000 </r>
       <r>   -3.3630    1.0000 </r>
       <r>   -3.2411    1.0000 </r>
       <r>   -3.0433    1.0000 </r>
       <r>   -3.0264    1.0000 </r>
       <r>   -2.7472    1.0000 </r>
       <r>   -2.6775    1.0000 </r>
       <r>   -2.4284    1.0000 </r>
       <r>   -2.3660    1.0000 </r>
       <r>   -2.1961    1.0000 </r>
       <r>   -2.0964    1.0000 </r>
       <r>   -1.9170    1.0000 </r>
       <r>   -1.7052    1.0000 </r>
       <r>   -1.5756    1.0000 </r>
       <r>   -1.5093    1.0000 </r>
       <r>   -1.3067    1.0000 </r>
       <r>   -1.0681    1.0000 </r>
       <r>   -0.6686    1.0000 </r>
       <r>   -0.1210    0.9998 </r>
       <r>    0.3628    0.0005 </r>
       <r>    0.8180    0.0000 </r>
       <r>    1.3586    0.0000 </r>
       <r>    1.5663    0.0000 </r>
       <r>    1.6303    0.0000 </r>
       <r>    1.6837    0.0000 </r>
       <r>    1.8992    0.0000 </r>
       <r>    2.0546    0.0000 </r>
       <r>    2.1035    0.0000 </r>
       <r>    2.3398    0.0000 </r>
       <r>    2.4183    0.0000 </r>
       <r>    2.4762    0.0000 </r>
       <r>    2.5327    0.0000 </r>
      </set>
     </set>
    </set>
   </array>
  </eigenvalues>
  <separator name="orbital magnetization" >
   <v name="MAGDIPOLOUT">      0.00000000      0.00000000      0.00000000</v>
  </separator>
  <dos>
   <i name="efermi">      0.13129225 </i>
   <total>
    <array>
     <dimension dim="1">gridpoints</dimension>
     <dimension dim="2">spin</dimension>
     <field>energy</field>
     <field>total</field>
     <field>integrated</field>
     <set>
      <set comment="spin 1">
       <r>   -15.0804     0.0000     0.0000 </r>
       <r>   -15.0157     0.0000     0.0000 </r>
       <r>   -14.9511     0.0000     0.0000 </r>
       <r>   -14.8865     0.0000     0.0000 </r>
       <r>   -14.8218     0.0000     0.0000 </r>
       <r>   -14.7572     0.0000     0.0000 </r>
       <r>   -14.6925     0.0000     0.0000 </r>
       <r>   -14.6279     0.0000     0.0000 </r>
       <r>   -14.5633     0.0000     0.0000 </r>
       <r>   -14.4986     0.0000     0.0000 </r>
       <r>   -14.4340     0.0000     0.0000 </r>
       <r>   -14.3693     0.0000     0.0000 </r>
       <r>   -14.3047     0.0010     0.0001 </r>
       <r>   -14.2401     0.0193     0.0013 </r>
       <r>   -14.1754     0.1763     0.0127 </r>
       <r>   -14.1108     0.8093     0.0650 </r>
       <r>   -14.0461     1.9178     0.1890 </r>
       <r>   -13.9815     2.4481     0.3472 </r>
       <r>   -13.9168     2.0840     0.4820 </r>
       <r>   -13.8522     1.9116     0.6055 </r>
       <r>   -13.7876     1.6113     0.7097 </r>
       <r>   -13.7229     0.8738     0.7662 </r>
       <r>   -13.6583     0.8158     0.8189 </r>
       <r>   -13.5936     1.6454     0.9252 </r>
       <r>   -13.5290     2.2474     1.0705 </r>
       <r>   -13.4644     2.2719     1.2174 </r>
       <r>   -13.3997     2.2435     1.3624 </r>
       <r>   -13.3351     2.4845     1.5230 </r>
       <r>   -13.2704     3.4628     1.7468 </r>
       <r>   -13.2058     4.4489     2.0344 </r>
       <r>   -13.1412     4.2514     2.3092 </r>
       <r>   -13.0765     3.5511     2.5388 </r>
       <r>   -13.0119     3.6626     2.7755 </r>
       <r>   -12.9472     4.6082     3.0734 </r>
       <r>   -12.8826     5.6019     3.4355 </r>
       <r>   -12.8180     5.9103     3.8176 </r>
       <r>   -12.7533     4.9988     4.1407 </r>
       <r>   -12.6887     3.8342     4.3885 </r>
       <r>   -12.6240     4.1716     4.6582 </r>
       <r>   -12.5594     6.3023     5.0656 </r>
       <r>   -12.4947     7.8763     5.5747 </r>
       <r>   -12.4301     7.4702     6.0576 </r>
       <r>   -12.3655     6.3092     6.4654 </r>
       <r>   -12.3008     5.8158     6.8414 </r>
       <r>   -12.2362     5.6296     7.2053 </r>
       <r>   -12.1715     4.6983     7.5090 </r>
       <r>   -12.1069     3.8218     7.7560 </r>
       <r>   -12.0423     4.7015     8.0599 </r>
       <r>   -11.9776     6.6050     8.4869 </r>
       <r>   -11.9130     7.1121     8.9466 </r>
       <r>   -11.8483     6.2434     9.3502 </r>
       <r>   -11.7837     6.1907     9.7504 </r>
       <r>   -11.7191     7.4442    10.2316 </r>
       <r>   -11.6544     8.4153    10.7755 </r>
       <r>   -11.5898     8.4205    11.3198 </r>
       <r>   -11.5251     8.5922    11.8752 </r>
       <r>   -11.4605     8.4939    12.4243 </r>
       <r>   -11.3959     7.1925    12.8892 </r>
       <r>   -11.3312     7.0313    13.3437 </r>
       <r>   -11.2666     9.4384    13.9538 </r>
       <r>   -11.2019    10.8485    14.6551 </r>
       <r>   -11.1373     9.7728    15.2868 </r>
       <r>   -11.0727     9.7303    15.9158 </r>
       <r>   -11.0080    10.9636    16.6245 </r>
       <r>   -10.9434    10.8494    17.3258 </r>
       <r>   -10.8787     9.8904    17.9651 </r>
       <r>   -10.8141    10.6456    18.6533 </r>
       <r>   -10.7494    13.1531    19.5035 </r>
       <r>   -10.6848    14.3633    20.4320 </r>
       <r>   -10.6202    12.7827    21.2582 </r>
       <r>   -10.5555     9.3889    21.8652 </r>
       <r>   -10.4909     6.3782    22.2774 </r>
       <r>   -10.4262     5.3711    22.6246 </r>
       <r>   -10.3616     4.3019    22.9027 </r>
       <r>   -10.2970     2.3156    23.0524 </r>
       <r>   -10.2323     1.4211    23.1443 </r>
       <r>   -10.1677     1.6724    23.2524 </r>
       <r>   -10.1030     1.3796    23.3415 </r>
       <r>   -10.0384     0.5605    23.3778 </r>
       <r>    -9.9738     0.1932    23.3903 </r>
       <r>    -9.9091     0.5232    23.4241 </r>
       <r>    -9.8445     1.3523    23.5115 </r>
       <r>    -9.7798     1.6357    23.6172 </r>
       <r>    -9.7152     0.9575    23.6791 </r>
       <r>    -9.6506     0.5900    23.7173 </r>
       <r>    -9.5859     1.1735    23.7931 </r>
       <r>    -9.5213     1.6779    23.9016 </r>
       <r>    -9.4566     1.1258    23.9743 </r>
       <r>    -9.3920     0.3607    23.9977 </r>
       <r>    -9.3273     0.1921    24.0101 </r>
       <r>    -9.2627     0.6946    24.0550 </r>
       <r>    -9.1981     1.7666    24.1692 </r>
       <r>    -9.1334     2.6572    24.3409 </r>
       <r>    -9.0688     2.5879    24.5082 </r>
       <r>    -9.0041     1.9582    24.6348 </r>
       <r>    -8.9395     2.0623    24.7681 </r>
       <r>    -8.8749     3.3812    24.9867 </r>
       <r>    -8.8102     6.0377    25.3770 </r>
       <r>    -8.7456     8.8461    25.9488 </r>
       <r>    -8.6809     9.2053    26.5438 </r>
       <r>    -8.6163     7.6077    27.0356 </r>
       <r>    -8.5517     6.2066    27.4368 </r>
       <r>    -8.4870     5.3594    27.7832 </r>
       <r>    -8.4224     5.2417    28.1220 </r>
       <r>    -8.3577     5.6168    28.4851 </r>
       <r>    -8.2931     4.8163    28.7965 </r>
       <r>    -8.2285     3.0815    28.9956 </r>
       <r>    -8.1638     2.4032    29.1510 </r>
       <r>    -8.0992     3.1214    29.3528 </r>
       <r>    -8.0345     4.1436    29.6206 </r>
       <r>    -7.9699     4.9186    29.9385 </r>
       <r>    -7.9052     5.4386    30.2901 </r>
       <r>    -7.8406     5.3333    30.6348 </r>
       <r>    -7.7760     5.3157    30.9785 </r>
       <r>    -7.7113     5.3495    31.3242 </r>
       <r>    -7.6467     4.9097    31.6416 </r>
       <r>    -7.5820     4.8177    31.9530 </r>
       <r>    -7.5174     5.0510    32.2795 </r>
       <r>    -7.4528     5.6040    32.6418 </r>
       <r>    -7.3881     7.2391    33.1097 </r>
       <r>    -7.3235     9.3170    33.7120 </r>
       <r>    -7.2588     9.5611    34.3300 </r>
       <r>    -7.1942     7.9120    34.8415 </r>
       <r>    -7.1296     6.9790    35.2926 </r>
       <r>    -7.0649     7.5394    35.7799 </r>
       <r>    -7.0003     8.5963    36.3356 </r>
       <r>    -6.9356     8.9583    36.9147 </r>
       <r>    -6.8710     8.0833    37.4372 </r>
       <r>    -6.8064     7.2620    37.9066 </r>
       <r>    -6.7417     8.3050    38.4435 </r>
       <r>    -6.6771    11.5579    39.1906 </r>
       <r>    -6.6124    13.8324    40.0847 </r>
       <r>    -6.5478    12.0374    40.8628 </r>
       <r>    -6.4831     8.7198    41.4265 </r>
       <r>    -6.4185     6.4620    41.8442 </r>
       <r>    -6.3539     5.5595    42.2036 </r>
       <r>    -6.2892     5.7238    42.5735 </r>
       <r>    -6.2246     5.5091    42.9297 </r>
       <r>    -6.1599     4.7289    43.2353 </r>
       <r>    -6.0953     3.8556    43.4846 </r>
       <r>    -6.0307     3.7410    43.7264 </r>
       <r>    -5.9660     4.8173    44.0378 </r>
       <r>    -5.9014     5.3229    44.3819 </r>
       <r>    -5.8367     5.3387    44.7270 </r>
       <r>    -5.7721     7.2844    45.1978 </r>
       <r>    -5.7075    10.3317    45.8657 </r>
       <r>    -5.6428    10.6390    46.5534 </r>
       <r>    -5.5782     7.4219    47.0332 </r>
       <r>    -5.5135     3.8502    47.2820 </r>
       <r>    -5.4489     2.1508    47.4211 </r>
       <r>    -5.3843     2.8732    47.6068 </r>
       <r>    -5.3196     4.5351    47.8999 </r>
       <r>    -5.2550     5.3139    48.2434 </r>
       <r>    -5.1903     5.3603    48.5899 </r>
       <r>    -5.1257     4.3820    48.8732 </r>
       <r>    -5.0610     3.4110    49.0937 </r>
       <r>    -4.9964     4.4282    49.3799 </r>
       <r>    -4.9318     6.7233    49.8145 </r>
       <r>    -4.8671     9.2149    50.4102 </r>
       <r>    -4.8025    10.6655    51.0996 </r>
       <r>    -4.7378    10.0562    51.7497 </r>
       <r>    -4.6732     9.1938    52.3439 </r>
       <r>    -4.6086     9.1217    52.9336 </r>
       <r>    -4.5439     9.3050    53.5351 </r>
       <r>    -4.4793     9.6781    54.1607 </r>
       <r>    -4.4146     9.5275    54.7765 </r>
       <r>    -4.3500     9.3756    55.3826 </r>
       <r>    -4.2854    10.6987    56.0742 </r>
       <r>    -4.2207    12.8071    56.9020 </r>
       <r>    -4.1561    14.9746    57.8700 </r>
       <r>    -4.0914    17.2763    58.9867 </r>
       <r>    -4.0268    17.9465    60.1468 </r>
       <r>    -3.9622    15.8993    61.1746 </r>
       <r>    -3.8975    13.0926    62.0209 </r>
       <r>    -3.8329    11.6036    62.7709 </r>
       <r>    -3.7682    11.7633    63.5313 </r>
       <r>    -3.7036    13.1362    64.3805 </r>
       <r>    -3.6389    14.2697    65.3029 </r>
       <r>    -3.5743    13.7095    66.1891 </r>
       <r>    -3.5097    12.1329    66.9734 </r>
       <r>    -3.4450    11.6780    67.7282 </r>
       <r>    -3.3804    13.3852    68.5935 </r>
       <r>    -3.3157    15.0898    69.5689 </r>
       <r>    -3.2511    14.6211    70.5140 </r>
       <r>    -3.1865    12.4919    71.3215 </r>
       <r>    -3.1218    11.8875    72.0899 </r>
       <r>    -3.0572    14.2884    73.0135 </r>
       <r>    -2.9925    16.5898    74.0859 </r>
       <r>    -2.9279    16.1287    75.1285 </r>
       <r>    -2.8633    14.5071    76.0662 </r>
       <r>    -2.7986    14.2341    76.9863 </r>
       <r>    -2.7340    14.7962    77.9428 </r>
       <r>    -2.6693    14.0499    78.8510 </r>
       <r>    -2.6047    12.5585    79.6628 </r>
       <r>    -2.5401    12.3226    80.4593 </r>
       <r>    -2.4754    12.8239    81.2883 </r>
       <r>    -2.4108    13.3769    82.1530 </r>
       <r>    -2.3461    13.8667    83.0493 </r>
       <r>    -2.2815    13.8164    83.9424 </r>
       <r>    -2.2168    13.8629    84.8385 </r>
       <r>    -2.1522    14.6725    85.7870 </r>
       <r>    -2.0876    15.2036    86.7697 </r>
       <r>    -2.0229    15.6050    87.7785 </r>
       <r>    -1.9583    18.2494    88.9581 </r>
       <r>    -1.8936    21.5073    90.3484 </r>
       <r>    -1.8290    21.1684    91.7167 </r>
       <r>    -1.7644    18.3773    92.9046 </r>
       <r>    -1.6997    15.8973    93.9323 </r>
       <r>    -1.6351    13.2484    94.7886 </r>
       <r>    -1.5704    12.0784    95.5694 </r>
       <r>    -1.5058    13.7679    96.4594 </r>
       <r>    -1.4412    15.5538    97.4648 </r>
       <r>    -1.3765    15.7104    98.4803 </r>
       <r>    -1.3119    14.0523    99.3887 </r>
       <r>    -1.2472    10.9388   100.0958 </r>
       <r>    -1.1826     8.7205   100.6595 </r>
       <r>    -1.1180     9.1701   101.2522 </r>
       <r>    -1.0533    10.4802   101.9297 </r>
       <r>    -0.9887    10.1451   102.5855 </r>
       <r>    -0.9240     8.6034   103.1416 </r>
       <r>    -0.8594     6.6082   103.5688 </r>
       <r>    -0.7947     4.9220   103.8869 </r>
       <r>    -0.7301     5.1528   104.2200 </r>
       <r>    -0.6655     6.3978   104.6336 </r>
       <r>    -0.6008     6.5040   105.0540 </r>
       <r>    -0.5362     6.0479   105.4449 </r>
       <r>    -0.4715     6.2265   105.8474 </r>
       <r>    -0.4069     5.9870   106.2344 </r>
       <r>    -0.3423     4.5572   106.5290 </r>
       <r>    -0.2776     3.1129   106.7302 </r>
       <r>    -0.2130     2.8802   106.9164 </r>
       <r>    -0.1483     3.6842   107.1545 </r>
       <r>    -0.0837     3.7259   107.3954 </r>
       <r>    -0.0191     2.8501   107.5796 </r>
       <r>     0.0456     2.7388   107.7567 </r>
       <r>     0.1102     2.9158   107.9451 </r>
       <r>     0.1749     2.3237   108.0954 </r>
       <r>     0.2395     2.0151   108.2256 </r>
       <r>     0.3041     3.4840   108.4508 </r>
       <r>     0.3688     5.9378   108.8346 </r>
       <r>     0.4334     7.2485   109.3032 </r>
       <r>     0.4981     7.1404   109.7648 </r>
       <r>     0.5627     6.8550   110.2079 </r>
       <r>     0.6273     6.3095   110.6157 </r>
       <r>     0.6920     5.2819   110.9571 </r>
       <r>     0.7566     5.4426   111.3090 </r>
       <r>     0.8213     6.8171   111.7496 </r>
       <r>     0.8859     6.6833   112.1816 </r>
       <r>     0.9506     5.0120   112.5056 </r>
       <r>     1.0152     3.5332   112.7340 </r>
       <r>     1.0798     2.6989   112.9085 </r>
       <r>     1.1445     2.8800   113.0946 </r>
       <r>     1.2091     4.0118   113.3540 </r>
       <r>     1.2738     5.6160   113.7170 </r>
       <r>     1.3384     7.7220   114.2161 </r>
       <r>     1.4030     9.4040   114.8240 </r>
       <r>     1.4677    10.1081   115.4774 </r>
       <r>     1.5323    11.6182   116.2284 </r>
       <r>     1.5970    13.4820   117.0999 </r>
       <r>     1.6616    13.5973   117.9788 </r>
       <r>     1.7262    12.8008   118.8063 </r>
       <r>     1.7909    12.2952   119.6011 </r>
       <r>     1.8555    11.0935   120.3182 </r>
       <r>     1.9202     8.7543   120.8841 </r>
       <r>     1.9848     7.5485   121.3720 </r>
       <r>     2.0494     8.5041   121.9217 </r>
       <r>     2.1141     9.9063   122.5621 </r>
       <r>     2.1787    11.3384   123.2950 </r>
       <r>     2.2434    12.9402   124.1314 </r>
       <r>     2.3080    13.9228   125.0314 </r>
       <r>     2.3727    14.5975   125.9750 </r>
       <r>     2.4373    14.9369   126.9406 </r>
       <r>     2.5019    14.9474   127.9068 </r>
       <r>     2.5666    15.1848   128.8883 </r>
       <r>     2.6312    16.1269   129.9308 </r>
       <r>     2.6959    17.2403   131.0452 </r>
       <r>     2.7605    16.2230   132.0939 </r>
       <r>     2.8251    12.8870   132.9269 </r>
       <r>     2.8898    10.3797   133.5979 </r>
       <r>     2.9544     9.6147   134.2194 </r>
       <r>     3.0191     8.8417   134.7909 </r>
       <r>     3.0837     7.2922   135.2623 </r>
       <r>     3.1483     5.2072   135.5989 </r>
       <r>     3.2130     3.0659   135.7971 </r>
       <r>     3.2776     1.6580   135.9042 </r>
       <r>     3.3423     0.9530   135.9658 </r>
       <r>     3.4069     0.4167   135.9928 </r>
       <r>     3.4715     0.0995   135.9992 </r>
       <r>     3.5362     0.0116   136.0000 </r>
       <r>     3.6008     0.0006   136.0000 </r>
       <r>     3.6655     0.0000   136.0000 </r>
       <r>     3.7301     0.0000   136.0000 </r>
       <r>     3.7948     0.0000   136.0000 </r>
       <r>     3.8594     0.0000   136.0000 </r>
       <r>     3.9240     0.0000   136.0000 </r>
       <r>     3.9887     0.0000   136.0000 </r>
       <r>     4.0533     0.0000   136.0000 </r>
       <r>     4.1180     0.0000   136.0000 </r>
       <r>     4.1826     0.0000   136.0000 </r>
       <r>     4.2472     0.0000   136.0000 </r>
       <r>     4.3119     0.0000   136.0000 </r>
      </set>
     </set>
    </array>
   </total>
  </dos>
 </calculation>
 <structure name="finalpos" >
  <crystal>
   <varray name="basis" >
    <v>       3.54040000       0.00000000       0.00000000 </v>
    <v>      -1.77020000      10.29434800       0.00000000 </v>
    <v>       0.00000000       0.00000000      27.50142900 </v>
   </varray>
   <i name="volume">   1002.32009712 </i>
   <varray name="rec_basis" >
    <v>       0.28245396       0.04857034       0.00000000 </v>
    <v>       0.00000000       0.09714068       0.00000000 </v>
    <v>       0.00000000       0.00000000       0.03636175 </v>
   </varray>
  </crystal>
  <varray name="positions" >
   <v>       0.11402300       0.22804500       0.23316207 </v>
   <v>       0.41402300       0.92804500       0.51499159 </v>
   <v>       0.45808900       0.91617900       0.20939482 </v>
   <v>       0.75808900       0.61617900       0.49122434 </v>
   <v>       0.31085400       0.62170900       0.08414979 </v>
   <v>       0.31085400       0.62170900       0.36597930 </v>
   <v>       0.99923000       0.99846000       0.08631254 </v>
   <v>       0.99923000       0.99846000       0.36814206 </v>
   <v>       0.65492700       0.30985400       0.06041748 </v>
   <v>       0.65492700       0.30985400       0.34224700 </v>
   <v>       0.76973800       0.53947500       0.20725292 </v>
   <v>       0.06973800       0.23947500       0.48908244 </v>
   <v>       0.93971600       0.87943300       0.15783749 </v>
   <v>       0.23971600       0.57943300       0.43966701 </v>
   <v>       0.20515200       0.41030300       0.18578822 </v>
   <v>       0.50515200       0.11030300       0.46761774 </v>
   <v>       0.20184900       0.40369900       0.09969156 </v>
   <v>       0.20184900       0.40369900       0.38152107 </v>
   <v>       0.56380500       0.12761000       0.10779021 </v>
   <v>       0.56380500       0.12761000       0.38961973 </v>
   <v>       0.56710600       0.13421200       0.19387616 </v>
   <v>       0.86710600       0.83421200       0.47570568 </v>
   <v>       0.82923400       0.65846800       0.13571444 </v>
   <v>       0.12923400       0.35846800       0.41754396 </v>
  </varray>
 </structure>
</modeling>
