<?xml version="1.0" encoding="ISO-8859-1"?>
<modeling>
 <generator>
  <i name="program" type="string">vasp </i>
  <i name="version" type="string">5.4.1  </i>
  <i name="subversion" type="string">24Jun15 (build May 10 2016 14:18:23) complex                          parallel </i>
  <i name="platform" type="string">IFC91_ompi </i>
  <i name="date" type="string">2016 12 12 </i>
  <i name="time" type="string">06:34:20 </i>
 </generator>
 <incar>
  <i type="string" name="PREC">accurate</i>
  <i type="string" name="ALGO"> Fast</i>
  <i type="int" name="ISPIN">     2</i>
  <i type="int" name="IBRION">     2</i>
  <i name="EDIFF">      0.00010000</i>
  <i type="int" name="NSW">     0</i>
  <i type="int" name="ISIF">     3</i>
  <i name="ENCUT">    500.00000000</i>
  <v name="MAGMOM">      6.00000000      0.50000000      0.50000000      6.00000000      0.50000000      0.50000000</v>
  <i type="string" name="LREAL"> Auto</i>
  <i type="int" name="ISMEAR">     1</i>
  <i name="SIGMA">      0.10000000</i>
  <i type="logical" name="LWAVE"> F  </i>
  <i type="logical" name="LCHARG"> F  </i>
  <i type="logical" name="LVTOT"> T  </i>
  <i type="logical" name="LVHAR"> T  </i>
  <i type="logical" name="LAECHG"> F  </i>
  <v type="int" name="KPOINT_BSE">    -1     0     0     0</v>
  <i type="string" name="GGA"> Bo</i>
  <i name="PARAM1">      0.18333333</i>
  <i name="PARAM2">      0.22000000</i>
  <i type="logical" name="LUSE_VDW"> T  </i>
  <i name="AGGAC">      0.00000000</i>
 </incar>
 <kpoints>
  <generation param="Gamma">
   <v type="int" name="divisions">      13       13        1 </v>
   <v name="usershift">      0.00000000       0.00000000       0.00000000 </v>
   <v name="genvec1">      0.07692308       0.00000000       0.00000000 </v>
   <v name="genvec2">      0.00000000       0.07692308       0.00000000 </v>
   <v name="genvec3">      0.00000000       0.00000000       1.00000000 </v>
   <v name="shift">      0.00000000       0.00000000       0.00000000 </v>
  </generation>
  <varray name="kpointlist" >
   <v>       0.00000000       0.00000000       0.00000000 </v>
   <v>       0.07692308      -0.00000000       0.00000000 </v>
   <v>       0.15384615       0.00000000       0.00000000 </v>
   <v>       0.23076923       0.00000000       0.00000000 </v>
   <v>       0.30769231      -0.00000000       0.00000000 </v>
   <v>       0.38461538       0.00000000       0.00000000 </v>
   <v>       0.46153846       0.00000000       0.00000000 </v>
   <v>       0.07692308       0.07692308       0.00000000 </v>
   <v>       0.15384615       0.07692308       0.00000000 </v>
   <v>       0.23076923       0.07692308       0.00000000 </v>
   <v>       0.30769231       0.07692308       0.00000000 </v>
   <v>       0.38461538       0.07692308       0.00000000 </v>
   <v>       0.46153846       0.07692308       0.00000000 </v>
   <v>      -0.46153846       0.07692308       0.00000000 </v>
   <v>      -0.38461538       0.07692308       0.00000000 </v>
   <v>      -0.30769231       0.07692308       0.00000000 </v>
   <v>      -0.23076923       0.07692308       0.00000000 </v>
   <v>      -0.15384615       0.07692308       0.00000000 </v>
   <v>      -0.07692308       0.07692308       0.00000000 </v>
   <v>       0.15384615       0.15384615       0.00000000 </v>
   <v>       0.23076923       0.15384615       0.00000000 </v>
   <v>       0.30769231       0.15384615       0.00000000 </v>
   <v>       0.38461538       0.15384615       0.00000000 </v>
   <v>       0.46153846       0.15384615       0.00000000 </v>
   <v>      -0.46153846       0.15384615       0.00000000 </v>
   <v>      -0.38461538       0.15384615       0.00000000 </v>
   <v>      -0.30769231       0.15384615       0.00000000 </v>
   <v>      -0.23076923       0.15384615       0.00000000 </v>
   <v>      -0.15384615       0.15384615       0.00000000 </v>
   <v>       0.23076923       0.23076923       0.00000000 </v>
   <v>       0.30769231       0.23076923       0.00000000 </v>
   <v>       0.38461538       0.23076923       0.00000000 </v>
   <v>       0.46153846       0.23076923       0.00000000 </v>
   <v>      -0.46153846       0.23076923       0.00000000 </v>
   <v>      -0.38461538       0.23076923       0.00000000 </v>
   <v>      -0.30769231       0.23076923       0.00000000 </v>
   <v>      -0.23076923       0.23076923       0.00000000 </v>
   <v>       0.30769231       0.30769231       0.00000000 </v>
   <v>       0.38461538       0.30769231       0.00000000 </v>
   <v>       0.46153846       0.30769231       0.00000000 </v>
   <v>      -0.46153846       0.30769231       0.00000000 </v>
   <v>      -0.38461538       0.30769231       0.00000000 </v>
   <v>      -0.30769231       0.30769231       0.00000000 </v>
   <v>       0.38461538       0.38461538       0.00000000 </v>
   <v>       0.46153846       0.38461538       0.00000000 </v>
   <v>      -0.46153846       0.38461538       0.00000000 </v>
   <v>      -0.38461538       0.38461538       0.00000000 </v>
   <v>       0.46153846       0.46153846       0.00000000 </v>
   <v>      -0.46153846       0.46153846       0.00000000 </v>
  </varray>
  <varray name="weights" >
   <v>       0.00591716 </v>
   <v>       0.02366864 </v>
   <v>       0.02366864 </v>
   <v>       0.02366864 </v>
   <v>       0.02366864 </v>
   <v>       0.02366864 </v>
   <v>       0.02366864 </v>
   <v>       0.01183432 </v>
   <v>       0.02366864 </v>
   <v>       0.02366864 </v>
   <v>       0.02366864 </v>
   <v>       0.02366864 </v>
   <v>       0.02366864 </v>
   <v>       0.02366864 </v>
   <v>       0.02366864 </v>
   <v>       0.02366864 </v>
   <v>       0.02366864 </v>
   <v>       0.02366864 </v>
   <v>       0.01183432 </v>
   <v>       0.01183432 </v>
   <v>       0.02366864 </v>
   <v>       0.02366864 </v>
   <v>       0.02366864 </v>
   <v>       0.02366864 </v>
   <v>       0.02366864 </v>
   <v>       0.02366864 </v>
   <v>       0.02366864 </v>
   <v>       0.02366864 </v>
   <v>       0.01183432 </v>
   <v>       0.01183432 </v>
   <v>       0.02366864 </v>
   <v>       0.02366864 </v>
   <v>       0.02366864 </v>
   <v>       0.02366864 </v>
   <v>       0.02366864 </v>
   <v>       0.02366864 </v>
   <v>       0.01183432 </v>
   <v>       0.01183432 </v>
   <v>       0.02366864 </v>
   <v>       0.02366864 </v>
   <v>       0.02366864 </v>
   <v>       0.02366864 </v>
   <v>       0.01183432 </v>
   <v>       0.01183432 </v>
   <v>       0.02366864 </v>
   <v>       0.02366864 </v>
   <v>       0.01183432 </v>
   <v>       0.01183432 </v>
   <v>       0.01183432 </v>
  </varray>
 </kpoints>
 <parameters>
  <separator name="general" >
   <i type="string" name="SYSTEM">unknown system</i>
   <i type="logical" name="LCOMPAT"> F  </i>
  </separator>
  <separator name="electronic" >
   <i type="string" name="PREC">accura</i>
   <i name="ENMAX">    500.00000000</i>
   <i name="ENAUG">    392.42700000</i>
   <i name="EDIFF">      0.00010000</i>
   <i type="int" name="IALGO">    68</i>
   <i type="int" name="IWAVPR">    10</i>
   <i type="int" name="NBANDS">    36</i>
   <i name="NELECT">     48.00000000</i>
   <i type="int" name="TURBO">     0</i>
   <i type="int" name="IRESTART">     0</i>
   <i type="int" name="NREBOOT">     0</i>
   <i type="int" name="NMIN">     0</i>
   <i name="EREF">      0.00000000</i>
   <separator name="electronic smearing" >
    <i type="int" name="ISMEAR">     1</i>
    <i name="SIGMA">      0.10000000</i>
    <i name="KSPACING">      0.50000000</i>
    <i type="logical" name="KGAMMA"> T  </i>
   </separator>
   <separator name="electronic projectors" >
    <i type="logical" name="LREAL"> T  </i>
    <v name="ROPT">     -0.00025000     -0.00025000     -0.00025000     -0.00025000</v>
    <i type="int" name="LMAXPAW">  -100</i>
    <i type="int" name="LMAXMIX">     2</i>
    <i type="logical" name="NLSPLINE"> F  </i>
   </separator>
   <separator name="electronic startup" >
    <i type="int" name="ISTART">     0</i>
    <i type="int" name="ICHARG">     2</i>
    <i type="int" name="INIWAV">     1</i>
   </separator>
   <separator name="electronic spin" >
    <i type="int" name="ISPIN">     2</i>
    <i type="logical" name="LNONCOLLINEAR"> F  </i>
    <v name="MAGMOM">      6.00000000      0.50000000      0.50000000      6.00000000      0.50000000      0.50000000</v>
    <i name="NUPDOWN">     -1.00000000</i>
    <i type="logical" name="LSORBIT"> F  </i>
    <v name="SAXIS">      0.00000000      0.00000000      1.00000000</v>
    <i type="logical" name="LSPIRAL"> F  </i>
    <v name="QSPIRAL">      0.00000000      0.00000000      0.00000000</v>
    <i type="logical" name="LZEROZ"> F  </i>
   </separator>
   <separator name="electronic exchange-correlation" >
    <i type="logical" name="LASPH"> F  </i>
    <i type="logical" name="LMETAGGA"> F  </i>
   </separator>
   <separator name="electronic convergence" >
    <i type="int" name="NELM">    60</i>
    <i type="int" name="NELMDL">     0</i>
    <i type="int" name="NELMIN">     2</i>
    <i name="ENINI">    500.00000000</i>
    <separator name="electronic convergence detail" >
     <i type="logical" name="LDIAG"> T  </i>
     <i type="logical" name="LSUBROT"> F  </i>
     <i name="WEIMIN">      0.00000000</i>
     <i name="EBREAK">      0.00000069</i>
     <i name="DEPER">      0.30000000</i>
     <i type="int" name="NRMM">     4</i>
     <i name="TIME">      0.40000000</i>
    </separator>
   </separator>
   <separator name="electronic mixer" >
    <i name="AMIX">      0.40000000</i>
    <i name="BMIX">      1.00000000</i>
    <i name="AMIN">      0.10000000</i>
    <i name="AMIX_MAG">      1.60000000</i>
    <i name="BMIX_MAG">      1.00000000</i>
    <separator name="electronic mixer details" >
     <i type="int" name="IMIX">     4</i>
     <i type="logical" name="MIXFIRST"> F  </i>
     <i type="int" name="MAXMIX">   -45</i>
     <i name="WC">    100.00000000</i>
     <i type="int" name="INIMIX">     1</i>
     <i type="int" name="MIXPRE">     1</i>
     <i type="int" name="MREMOVE">     5</i>
    </separator>
   </separator>
   <separator name="electronic dipolcorrection" >
    <i type="logical" name="LDIPOL"> F  </i>
    <i type="logical" name="LMONO"> F  </i>
    <i type="int" name="IDIPOL">     0</i>
    <i name="EPSILON">      1.00000000</i>
    <v name="DIPOL">   -100.00000000   -100.00000000   -100.00000000</v>
    <i name="EFIELD">      0.00000000</i>
   </separator>
  </separator>
  <separator name="grids" >
   <i type="int" name="NGX">    24</i>
   <i type="int" name="NGY">    24</i>
   <i type="int" name="NGZ">   180</i>
   <i type="int" name="NGXF">    48</i>
   <i type="int" name="NGYF">    48</i>
   <i type="int" name="NGZF">   360</i>
   <i type="logical" name="ADDGRID"> F  </i>
  </separator>
  <separator name="ionic" >
   <i type="int" name="NSW">     0</i>
   <i type="int" name="IBRION">    -1</i>
   <i type="int" name="ISIF">     3</i>
   <i name="PSTRESS">      0.00000000</i>
   <i name="EDIFFG">      0.00100000</i>
   <i type="int" name="NFREE">     1</i>
   <i name="POTIM">      0.50000000</i>
   <i name="SMASS">     -3.00000000</i>
   <i name="SCALEE">      1.00000000</i>
  </separator>
  <separator name="ionic md" >
   <i name="TEBEG">      0.00010000</i>
   <i name="TEEND">      0.00010000</i>
   <i type="int" name="NBLOCK">     1</i>
   <i type="int" name="KBLOCK">     1</i>
   <i type="int" name="NPACO">   256</i>
   <i name="APACO">     16.00000000</i>
  </separator>
  <separator name="symmetry" >
   <i type="int" name="ISYM">     2</i>
   <i name="SYMPREC">      0.00001000</i>
  </separator>
  <separator name="dos" >
   <i type="logical" name="LORBIT"> F  </i>
   <v name="RWIGS">     -1.00000000     -1.00000000     -1.00000000     -1.00000000</v>
   <i type="int" name="NEDOS">   301</i>
   <i name="EMIN">     10.00000000</i>
   <i name="EMAX">    -10.00000000</i>
   <i name="EFERMI">      0.00000000</i>
  </separator>
  <separator name="writing" >
   <i type="int" name="NWRITE">     2</i>
   <i type="logical" name="LWAVE"> F  </i>
   <i type="logical" name="LCHARG"> F  </i>
   <i type="logical" name="LPARD"> F  </i>
   <i type="logical" name="LVTOT"> F  </i>
   <i type="logical" name="LVHAR"> T  </i>
   <i type="logical" name="LELF"> F  </i>
   <i type="logical" name="LOPTICS"> F  </i>
   <v name="STM">      0.00000000      0.00000000      0.00000000      0.00000000      0.00000000      0.00000000      0.00000000</v>
  </separator>
  <separator name="performance" >
   <i type="int" name="NPAR">     4</i>
   <i type="int" name="NSIM">     4</i>
   <i type="int" name="NBLK">    -1</i>
   <i type="logical" name="LPLANE"> T  </i>
   <i type="logical" name="LSCALAPACK"> T  </i>
   <i type="logical" name="LSCAAWARE"> F  </i>
   <i type="logical" name="LSCALU"> F  </i>
   <i type="logical" name="LASYNC"> F  </i>
   <i type="logical" name="LORBITALREAL"> F  </i>
  </separator>
  <separator name="miscellaneous" >
   <i type="int" name="IDIOT">     3</i>
   <i type="logical" name="LMUSIC"> F  </i>
   <v name="POMASS">     95.94000000     32.06600000     95.94000000     32.06600000</v>
   <v name="DARWINR">      0.00000000      0.00000000      0.00000000      0.00000000</v>
   <v name="DARWINV">      1.00000000      1.00000000      1.00000000      1.00000000</v>
   <i type="logical" name="LCORR"> T  </i>
  </separator>
  <i type="logical" name="GGA_COMPAT"> T  </i>
  <i type="logical" name="LBERRY"> F  </i>
  <i type="int" name="ICORELEVEL">     0</i>
  <i type="logical" name="LDAU"> F  </i>
  <i type="int" name="I_CONSTRAINED_M">     0</i>
  <separator name="electronic exchange-correlation" >
   <i type="string" name="GGA">BO</i>
   <i type="int" name="VOSKOWN">     0</i>
   <i type="logical" name="LHFCALC"> F  </i>
   <i type="string" name="PRECFOCK"></i>
   <i type="logical" name="LSYMGRAD"> F  </i>
   <i type="logical" name="LHFONE"> F  </i>
   <i type="logical" name="LRHFCALC"> F  </i>
   <i type="logical" name="LTHOMAS"> F  </i>
   <i type="logical" name="LMODELHF"> F  </i>
   <i name="ENCUT4O">     -1.00000000</i>
   <i type="int" name="EXXOEP">     0</i>
   <i type="int" name="FOURORBIT">     0</i>
   <i name="AEXX">      0.00000000</i>
   <i name="HFALPHA">      0.00000000</i>
   <i name="MCALPHA">      0.00000000</i>
   <i name="ALDAX">      1.00000000</i>
   <i name="AGGAX">      1.00000000</i>
   <i name="ALDAC">      1.00000000</i>
   <i name="AGGAC">      0.00000000</i>
   <i type="int" name="NKREDX">     1</i>
   <i type="int" name="NKREDY">     1</i>
   <i type="int" name="NKREDZ">     1</i>
   <i type="logical" name="SHIFTRED"> F  </i>
   <i type="logical" name="ODDONLY"> F  </i>
   <i type="logical" name="EVENONLY"> F  </i>
   <i type="int" name="LMAXFOCK">     0</i>
   <i type="int" name="NMAXFOCKAE">     0</i>
   <i type="logical" name="LFOCKAEDFT"> F  </i>
   <i name="HFSCREEN">      0.00000000</i>
   <i name="HFSCREENC">      0.00000000</i>
   <i type="int" name="NBANDSGWLOW">     0</i>
  </separator>
  <separator name="vdW DFT" >
   <i type="logical" name="LUSE_VDW"> T  </i>
   <i name="Zab_VDW">     -0.84910000</i>
   <i name="PARAM1">      0.18333333</i>
   <i name="PARAM2">      0.22000000</i>
   <i name="PARAM3">      0.00000000</i>
  </separator>
  <separator name="model GW" >
   <i type="int" name="MODEL_GW">     0</i>
   <i name="MODEL_EPS0">     20.39722663</i>
   <i name="MODEL_ALPHA">      1.00000000</i>
  </separator>
  <separator name="linear response parameters" >
   <i type="logical" name="LEPSILON"> F  </i>
   <i type="logical" name="LRPA"> F  </i>
   <i type="logical" name="LNABLA"> F  </i>
   <i type="logical" name="LVEL"> F  </i>
   <i type="int" name="KINTER">     0</i>
   <i name="CSHIFT">      0.10000000</i>
   <i name="OMEGAMAX">     -1.00000000</i>
   <i name="DEG_THRESHOLD">      0.00200000</i>
  </separator>
  <separator name="orbital magnetization" >
   <i type="logical" name="NUCIND"> F  </i>
   <v name="MAGPOS">      0.00000000      0.00000000      0.00000000</v>
   <i type="logical" name="LNICSALL"> T  </i>
   <i type="logical" name="ORBITALMAG"> F  </i>
   <i type="logical" name="LMAGBLOCH"> F  </i>
   <i type="logical" name="LCHIMAG"> F  </i>
   <i type="logical" name="LGAUGE"> T  </i>
   <i type="int" name="MAGATOM">     0</i>
   <v name="MAGDIPOL">      0.00000000      0.00000000      0.00000000</v>
   <v name="AVECCONST">      0.00000000      0.00000000      0.00000000</v>
  </separator>
  <separator name="response functions" >
   <i type="logical" name="LADDER"> F  </i>
   <i type="logical" name="LFXC"> F  </i>
   <i type="logical" name="LHARTREE"> T  </i>
   <i type="int" name="IBSE">     0</i>
   <v type="int" name="KPOINT">    -1     0     0     0</v>
   <i type="logical" name="LTCTE"> F  </i>
   <i type="logical" name="LTETE"> F  </i>
   <i type="logical" name="LTRIPLET"> F  </i>
   <i type="logical" name="LFXCEPS"> F  </i>
   <i type="logical" name="LFXHEG"> F  </i>
   <i type="int" name="NATURALO">     0</i>
   <i type="logical" name="L2ORDER"> F  </i>
   <i type="logical" name="LUSEW"> F  </i>
   <i name="ENCUTGW">     -2.00000000</i>
   <i name="ENCUTGWSOFT">     -2.00000000</i>
   <i name="ENCUTLF">     -1.00000000</i>
   <i type="int" name="LMAXMP2">    -1</i>
   <i name="SCISSOR">      0.00000000</i>
   <i type="int" name="NOMEGA">     0</i>
   <i type="int" name="NOMEGAR">     0</i>
   <i type="int" name="NBANDSGW">    -1</i>
   <i type="int" name="NBANDSO">    -1</i>
   <i type="int" name="NBANDSV">    -1</i>
   <i type="int" name="NELM">     1</i>
   <i type="int" name="NELMHF">     1</i>
   <i type="int" name="DIM">     3</i>
   <i type="int" name="ANTIRES">     0</i>
   <i name="OMEGAMAX">    -30.00000000</i>
   <i name="OMEGAMIN">    -30.00000000</i>
   <i name="OMEGATL">   -200.00000000</i>
   <i type="int" name="OMEGAGRID">     0</i>
   <i name="CSHIFT">     -0.10000000</i>
   <i type="logical" name="SELFENERGY"> F  </i>
   <i type="logical" name="LSPECTRAL"> F  </i>
   <i type="logical" name="LSPECTRALGW"> F  </i>
   <i type="logical" name="LSINGLES"> F  </i>
   <i type="logical" name="LFERMIGW"> F  </i>
   <i type="logical" name="ODDONLYGW"> F  </i>
   <i type="logical" name="EVENONLYGW"> F  </i>
   <i type="int" name="NKREDLFX">     1</i>
   <i type="int" name="NKREDLFY">     1</i>
   <i type="int" name="NKREDLFZ">     1</i>
   <i type="int" name="MAXMEM">  1800</i>
   <i type="int" name="TELESCOPE">     0</i>
   <i type="int" name="TAUPAR">     1</i>
   <i type="int" name="OMEGAPAR">    -1</i>
   <i name="LAMBDA">      1.00000000</i>
  </separator>
  <separator name="External order field" >
   <i name="OFIELD_KAPPA">      0.00000000</i>
   <v name="OFIELD_K">      0.00000000      0.00000000      0.00000000</v>
   <i name="OFIELD_Q6_NEAR">      0.00000000</i>
   <i name="OFIELD_Q6_FAR">      0.00000000</i>
   <i name="OFIELD_A">      0.00000000</i>
  </separator>
 </parameters>
 <atominfo>
  <atoms>       6 </atoms>
  <types>       4 </types>
  <array name="atoms" >
   <dimension dim="1">ion</dimension>
   <field type="string">element</field>
   <field type="int">atomtype</field>
   <set>
    <rc><c>Mo</c><c>   1</c></rc>
    <rc><c>S </c><c>   2</c></rc>
    <rc><c>S </c><c>   2</c></rc>
    <rc><c>Mo</c><c>   3</c></rc>
    <rc><c>S </c><c>   4</c></rc>
    <rc><c>S </c><c>   4</c></rc>
   </set>
  </array>
  <array name="atomtypes" >
   <dimension dim="1">type</dimension>
   <field type="int">atomspertype</field>
   <field type="string">element</field>
   <field>mass</field>
   <field>valence</field>
   <field type="string">pseudopotential</field>
   <set>
    <rc><c>   1</c><c>Mo</c><c>     95.94000000</c><c>     12.00000000</c><c> PAW_PBE Mo_pv 08Apr2002                </c></rc>
    <rc><c>   2</c><c>S </c><c>     32.06600000</c><c>      6.00000000</c><c>  PAW_PBE S 17Jan2003                   </c></rc>
    <rc><c>   1</c><c>Mo</c><c>     95.94000000</c><c>     12.00000000</c><c> PAW_PBE Mo_pv 08Apr2002                </c></rc>
    <rc><c>   2</c><c>S </c><c>     32.06600000</c><c>      6.00000000</c><c>  PAW_PBE S 17Jan2003                   </c></rc>
   </set>
  </array>
 </atominfo>
 <structure name="initialpos" >
  <crystal>
   <varray name="basis" >
    <v>       3.19031700       0.00000000       0.00000000 </v>
    <v>      -1.59515800       2.76289700       0.00000000 </v>
    <v>       0.00000000       0.00000000      23.14049200 </v>
   </varray>
   <i name="volume">    203.97226633 </i>
   <varray name="rec_basis" >
    <v>       0.31344848       0.18096941       0.00000000 </v>
    <v>       0.00000000       0.36193894       0.00000000 </v>
    <v>       0.00000000       0.00000000       0.04321429 </v>
   </varray>
  </crystal>
  <varray name="positions" >
   <v>       0.66666700       0.33333300       0.06785900 </v>
   <v>       0.33333300       0.66666700       0.00000000 </v>
   <v>       0.33333300       0.66666700       0.13571500 </v>
   <v>       0.95238100       0.04761900       0.36562700 </v>
   <v>       0.61904700       0.38095300       0.29776900 </v>
   <v>       0.61904700       0.38095300       0.43348300 </v>
  </varray>
 </structure>
 <calculation>
  <scstep>
   <time name="dav">   32.09   32.22</time>
   <time name="total">   42.34   42.50</time>
   <energy>
    <i name="alphaZ">    104.15310261 </i>
    <i name="ewald">   7085.19226015 </i>
    <i name="hartreedc"> -10495.30664250 </i>
    <i name="XCdc">    128.44655686 </i>
    <i name="pawpsdc">   2252.92270536 </i>
    <i name="pawaedc">  -2205.68654582 </i>
    <i name="eentropy">     -0.00092320 </i>
    <i name="bandstr">   -160.93246430 </i>
    <i name="atom">   3688.31848598 </i>
    <i name="e_fr_energy">    397.10653514 </i>
    <i name="e_wo_entrp">    397.10745834 </i>
    <i name="e_0_energy">    397.10684287 </i>
   </energy>
  </scstep>
  <scstep>
   <time name="dav">   34.60   34.65</time>
   <time name="total">   34.61   34.65</time>
   <energy>
    <i name="e_fr_energy">     -1.68719664 </i>
    <i name="e_wo_entrp">     -1.68688649 </i>
    <i name="e_0_energy">     -1.68709326 </i>
   </energy>
  </scstep>
  <scstep>
   <time name="dav">   36.08   36.16</time>
   <time name="total">   36.09   36.16</time>
   <energy>
    <i name="e_fr_energy">    -32.94221637 </i>
    <i name="e_wo_entrp">    -32.94293155 </i>
    <i name="e_0_energy">    -32.94245477 </i>
   </energy>
  </scstep>
  <scstep>
   <time name="dav">   33.85   33.88</time>
   <time name="total">   33.86   33.89</time>
   <energy>
    <i name="e_fr_energy">    -33.82262235 </i>
    <i name="e_wo_entrp">    -33.82415937 </i>
    <i name="e_0_energy">    -33.82313469 </i>
   </energy>
  </scstep>
  <scstep>
   <time name="dav">   35.85   35.89</time>
   <time name="total">   38.68   38.72</time>
   <energy>
    <i name="e_fr_energy">    -33.84984567 </i>
    <i name="e_wo_entrp">    -33.85140592 </i>
    <i name="e_0_energy">    -33.85036576 </i>
   </energy>
  </scstep>
  <scstep>
   <time name="diag">    6.66    6.72</time>
   <time name="diis">   23.33   23.35</time>
   <time name="orth">    0.23    0.23</time>
   <time name="total">   42.96   43.06</time>
   <energy>
    <i name="e_fr_energy">    -30.00734633 </i>
    <i name="e_wo_entrp">    -30.00669793 </i>
    <i name="e_0_energy">    -30.00713020 </i>
   </energy>
  </scstep>
  <scstep>
   <time name="diag">    6.58    6.59</time>
   <time name="diis">   23.14   23.16</time>
   <time name="orth">    0.23    0.23</time>
   <time name="total">   42.70   42.78</time>
   <energy>
    <i name="e_fr_energy">    -33.34619739 </i>
    <i name="e_wo_entrp">    -33.34645734 </i>
    <i name="e_0_energy">    -33.34628404 </i>
   </energy>
  </scstep>
  <scstep>
   <time name="diag">    6.69    6.69</time>
   <time name="diis">   23.30   23.32</time>
   <time name="orth">    0.23    0.23</time>
   <time name="total">   42.91   42.96</time>
   <energy>
    <i name="e_fr_energy">    -34.50262121 </i>
    <i name="e_wo_entrp">    -34.50278661 </i>
    <i name="e_0_energy">    -34.50267634 </i>
   </energy>
  </scstep>
  <scstep>
   <time name="diag">    6.62    6.63</time>
   <time name="diis">   23.63   23.74</time>
   <time name="orth">    0.23    0.24</time>
   <time name="total">   43.14   43.26</time>
   <energy>
    <i name="e_fr_energy">    -36.78862252 </i>
    <i name="e_wo_entrp">    -36.78878717 </i>
    <i name="e_0_energy">    -36.78867740 </i>
   </energy>
  </scstep>
  <scstep>
   <time name="diag">    6.58    6.59</time>
   <time name="diis">   21.68   21.70</time>
   <time name="orth">    0.23    0.23</time>
   <time name="total">   41.13   41.16</time>
   <energy>
    <i name="e_fr_energy">    -38.88115124 </i>
    <i name="e_wo_entrp">    -38.88131423 </i>
    <i name="e_0_energy">    -38.88120557 </i>
   </energy>
  </scstep>
  <scstep>
   <time name="diag">    6.66    6.68</time>
   <time name="diis">   22.63   22.65</time>
   <time name="orth">    0.23    0.23</time>
   <time name="total">   42.06   42.14</time>
   <energy>
    <i name="e_fr_energy">    -39.33910364 </i>
    <i name="e_wo_entrp">    -39.33942847 </i>
    <i name="e_0_energy">    -39.33921192 </i>
   </energy>
  </scstep>
  <scstep>
   <time name="diag">    6.63    6.64</time>
   <time name="diis">   22.31   22.33</time>
   <time name="orth">    0.24    0.24</time>
   <time name="total">   41.73   41.80</time>
   <energy>
    <i name="e_fr_energy">    -39.38653136 </i>
    <i name="e_wo_entrp">    -39.38685672 </i>
    <i name="e_0_energy">    -39.38663981 </i>
   </energy>
  </scstep>
  <scstep>
   <time name="diag">    6.68    6.69</time>
   <time name="diis">   24.66   24.69</time>
   <time name="orth">    0.24    0.24</time>
   <time name="total">   44.11   44.15</time>
   <energy>
    <i name="e_fr_energy">    -39.40293875 </i>
    <i name="e_wo_entrp">    -39.40326532 </i>
    <i name="e_0_energy">    -39.40304761 </i>
   </energy>
  </scstep>
  <scstep>
   <time name="diag">    6.69    6.70</time>
   <time name="diis">   23.51   23.56</time>
   <time name="orth">    0.23    0.23</time>
   <time name="total">   42.95   43.01</time>
   <energy>
    <i name="e_fr_energy">    -39.40523220 </i>
    <i name="e_wo_entrp">    -39.40555905 </i>
    <i name="e_0_energy">    -39.40534115 </i>
   </energy>
  </scstep>
  <scstep>
   <time name="diag">    6.63    6.63</time>
   <time name="diis">   21.81   21.83</time>
   <time name="orth">    0.23    0.24</time>
   <time name="total">   41.25   41.28</time>
   <energy>
    <i name="e_fr_energy">    -39.40476327 </i>
    <i name="e_wo_entrp">    -39.40508988 </i>
    <i name="e_0_energy">    -39.40487214 </i>
   </energy>
  </scstep>
  <scstep>
   <time name="diag">    6.67    6.68</time>
   <time name="diis">   17.03   17.15</time>
   <time name="orth">    0.24    0.24</time>
   <time name="total">   36.46   36.59</time>
   <energy>
    <i name="e_fr_energy">    -39.40517008 </i>
    <i name="e_wo_entrp">    -39.40549673 </i>
    <i name="e_0_energy">    -39.40527896 </i>
   </energy>
  </scstep>
  <scstep>
   <time name="diag">    6.58    6.59</time>
   <time name="diis">   16.40   16.41</time>
   <time name="orth">    0.23    0.23</time>
   <time name="total">   35.72   35.75</time>
   <energy>
    <i name="e_fr_energy">    -39.40539673 </i>
    <i name="e_wo_entrp">    -39.40572335 </i>
    <i name="e_0_energy">    -39.40550560 </i>
   </energy>
  </scstep>
  <scstep>
   <time name="diag">    6.60    6.61</time>
   <time name="diis">   15.46   15.48</time>
   <time name="orth">    0.23    0.24</time>
   <time name="total">   34.85   34.88</time>
   <energy>
    <i name="e_fr_energy">    -39.40565206 </i>
    <i name="e_wo_entrp">    -39.40597867 </i>
    <i name="e_0_energy">    -39.40576093 </i>
   </energy>
  </scstep>
  <scstep>
   <time name="diag">    6.63    6.68</time>
   <time name="diis">   16.03   16.05</time>
   <time name="orth">    0.23    0.23</time>
   <time name="total">   35.49   35.71</time>
   <energy>
    <i name="e_fr_energy">    -39.40616292 </i>
    <i name="e_wo_entrp">    -39.40648949 </i>
    <i name="e_0_energy">    -39.40627177 </i>
   </energy>
  </scstep>
  <scstep>
   <time name="diag">    6.59    6.60</time>
   <time name="diis">   16.24   16.28</time>
   <time name="orth">    0.23    0.23</time>
   <time name="total">   35.68   35.76</time>
   <energy>
    <i name="e_fr_energy">    -39.40633531 </i>
    <i name="e_wo_entrp">    -39.40666187 </i>
    <i name="e_0_energy">    -39.40644416 </i>
   </energy>
  </scstep>
  <scstep>
   <time name="diag">    6.68    6.68</time>
   <time name="diis">   14.92   14.93</time>
   <time name="orth">    0.24    0.24</time>
   <time name="total">   31.55   31.61</time>
   <energy>
    <i name="alphaZ">    104.15310261 </i>
    <i name="ewald">   7085.19226015 </i>
    <i name="hartreedc"> -10478.81225396 </i>
    <i name="XCdc">    122.64472150 </i>
    <i name="pawpsdc">   2399.19705230 </i>
    <i name="pawaedc">  -2361.38254423 </i>
    <i name="eentropy">      0.00032655 </i>
    <i name="bandstr">   -598.71751470 </i>
    <i name="atom">   3688.31848598 </i>
    <i name="e_fr_energy">    -39.40636380 </i>
    <i name="e_wo_entrp">    -39.40669035 </i>
    <i name="e_0_energy">    -39.40647265 </i>
   </energy>
  </scstep>
  <structure>
   <crystal>
    <varray name="basis" >
     <v>       3.19031700       0.00000000       0.00000000 </v>
     <v>      -1.59515800       2.76289700       0.00000000 </v>
     <v>       0.00000000       0.00000000      23.14049200 </v>
    </varray>
    <i name="volume">    203.97226633 </i>
    <varray name="rec_basis" >
     <v>       0.31344848       0.18096941       0.00000000 </v>
     <v>       0.00000000       0.36193894       0.00000000 </v>
     <v>       0.00000000       0.00000000       0.04321429 </v>
    </varray>
   </crystal>
   <varray name="positions" >
    <v>       0.66666700       0.33333300       0.06785900 </v>
    <v>       0.33333300       0.66666700       0.00000000 </v>
    <v>       0.33333300       0.66666700       0.13571500 </v>
    <v>       0.95238100       0.04761900       0.36562700 </v>
    <v>       0.61904700       0.38095300       0.29776900 </v>
    <v>       0.61904700       0.38095300       0.43348300 </v>
   </varray>
  </structure>
  <varray name="forces" >
   <v>      -0.00116374       0.00067189       0.00003730 </v>
   <v>       0.00004168      -0.00002406      -0.05377640 </v>
   <v>      -0.00417068       0.00240795       0.14114710 </v>
   <v>       0.00159854      -0.00092292      -0.00013902 </v>
   <v>       0.00346660      -0.00200144      -0.14556957 </v>
   <v>       0.00022760      -0.00013140       0.05830060 </v>
  </varray>
  <varray name="stress" >
   <v>       3.30326914      -0.04747397       0.15792386 </v>
   <v>      -0.04747397       3.24845366      -0.09117744 </v>
   <v>       0.15792379      -0.09117740      -1.17088503 </v>
  </varray>
  <energy>
   <i name="e_fr_energy">    -39.40636380 </i>
   <i name="e_wo_entrp">    -39.40647265 </i>
   <i name="e_0_energy">      0.00032655 </i>
  </energy>
  <time name="totalsc">  886.39  888.07</time>
  <eigenvalues>
   <array>
    <dimension dim="1">band</dimension>
    <dimension dim="2">kpoint</dimension>
    <dimension dim="3">spin</dimension>
    <field>eigene</field>
    <field>occ</field>
    <set>
     <set comment="spin 1">
      <set comment="kpoint 1">
       <r>  -34.9976    1.0000 </r>
       <r>  -34.9888    1.0000 </r>
       <r>  -34.8072    1.0000 </r>
       <r>  -34.8072    1.0000 </r>
       <r>  -34.7985    1.0000 </r>
       <r>  -34.7985    1.0000 </r>
       <r>  -13.9628    1.0000 </r>
       <r>  -13.9294    1.0000 </r>
       <r>  -12.6899    1.0000 </r>
       <r>  -12.6331    1.0000 </r>
       <r>   -5.6357    1.0000 </r>
       <r>   -5.4369    1.0000 </r>
       <r>   -2.6265    1.0000 </r>
       <r>   -2.6264    1.0000 </r>
       <r>   -2.6178    1.0000 </r>
       <r>   -2.6177    1.0000 </r>
       <r>   -2.0974    1.0000 </r>
       <r>   -1.5574    1.0000 </r>
       <r>   -1.5326    1.0000 </r>
       <r>   -1.5323    1.0000 </r>
       <r>   -1.5236    1.0000 </r>
       <r>   -1.5231    1.0000 </r>
       <r>   -0.2054    1.0000 </r>
       <r>    0.1340    0.8104 </r>
       <r>    2.6958   -0.0000 </r>
       <r>    2.6994   -0.0000 </r>
       <r>    2.7093   -0.0000 </r>
       <r>    2.7123   -0.0000 </r>
       <r>    2.8768   -0.0000 </r>
       <r>    2.8817   -0.0000 </r>
       <r>    2.8924   -0.0000 </r>
       <r>    2.8981   -0.0000 </r>
       <r>    5.2628    0.0000 </r>
       <r>    5.3969    0.0000 </r>
       <r>    6.3372    0.0000 </r>
       <r>    6.5360    0.0000 </r>
      </set>
      <set comment="kpoint 2">
       <r>  -34.9935    1.0000 </r>
       <r>  -34.9847    1.0000 </r>
       <r>  -34.8284    1.0000 </r>
       <r>  -34.8198    1.0000 </r>
       <r>  -34.8121    1.0000 </r>
       <r>  -34.8034    1.0000 </r>
       <r>  -13.8761    1.0000 </r>
       <r>  -13.8428    1.0000 </r>
       <r>  -12.6537    1.0000 </r>
       <r>  -12.5985    1.0000 </r>
       <r>   -5.5361    1.0000 </r>
       <r>   -5.3379    1.0000 </r>
       <r>   -2.8132    1.0000 </r>
       <r>   -2.8044    1.0000 </r>
       <r>   -2.5358    1.0000 </r>
       <r>   -2.5269    1.0000 </r>
       <r>   -2.4072    1.0000 </r>
       <r>   -2.1119    1.0000 </r>
       <r>   -1.6701    1.0000 </r>
       <r>   -1.6606    1.0000 </r>
       <r>   -1.3382    1.0000 </r>
       <r>   -1.1135    1.0000 </r>
       <r>   -0.2282    1.0000 </r>
       <r>    0.0674    1.0307 </r>
       <r>    2.5870   -0.0000 </r>
       <r>    2.6018   -0.0000 </r>
       <r>    2.6383   -0.0000 </r>
       <r>    2.6962   -0.0000 </r>
       <r>    2.7818   -0.0000 </r>
       <r>    2.8024   -0.0000 </r>
       <r>    2.8442   -0.0000 </r>
       <r>    2.8607   -0.0000 </r>
       <r>    5.4046    0.0000 </r>
       <r>    5.5349    0.0000 </r>
       <r>    6.6881    0.0000 </r>
       <r>    6.9191    0.0000 </r>
      </set>
      <set comment="kpoint 3">
       <r>  -34.9821    1.0000 </r>
       <r>  -34.9733    1.0000 </r>
       <r>  -34.8869    1.0000 </r>
       <r>  -34.8783    1.0000 </r>
       <r>  -34.8255    1.0000 </r>
       <r>  -34.8168    1.0000 </r>
       <r>  -13.6277    1.0000 </r>
       <r>  -13.5950    1.0000 </r>
       <r>  -12.5501    1.0000 </r>
       <r>  -12.4992    1.0000 </r>
       <r>   -5.2757    1.0000 </r>
       <r>   -5.0826    1.0000 </r>
       <r>   -3.2620    1.0000 </r>
       <r>   -3.2518    1.0000 </r>
       <r>   -2.9243    1.0000 </r>
       <r>   -2.7231    1.0000 </r>
       <r>   -2.2802    1.0000 </r>
       <r>   -2.2710    1.0000 </r>
       <r>   -2.0053    1.0000 </r>
       <r>   -1.9953    1.0000 </r>
       <r>   -1.2381    1.0000 </r>
       <r>   -0.9829    1.0000 </r>
       <r>   -0.3628    1.0000 </r>
       <r>   -0.1849    1.0000 </r>
       <r>    2.1773   -0.0000 </r>
       <r>    2.3414   -0.0000 </r>
       <r>    2.4937   -0.0000 </r>
       <r>    2.5524   -0.0000 </r>
       <r>    2.5760   -0.0000 </r>
       <r>    2.5905   -0.0000 </r>
       <r>    3.1904    0.0000 </r>
       <r>    3.2109    0.0000 </r>
       <r>    5.7589    0.0000 </r>
       <r>    5.8845    0.0000 </r>
       <r>    7.3454    0.0000 </r>
       <r>    7.8231    0.0000 </r>
      </set>
      <set comment="kpoint 4">
       <r>  -34.9684    1.0000 </r>
       <r>  -34.9660    1.0000 </r>
       <r>  -34.9598    1.0000 </r>
       <r>  -34.9572    1.0000 </r>
       <r>  -34.8443    1.0000 </r>
       <r>  -34.8356    1.0000 </r>
       <r>  -13.2526    1.0000 </r>
       <r>  -13.2215    1.0000 </r>
       <r>  -12.3946    1.0000 </r>
       <r>  -12.3505    1.0000 </r>
       <r>   -5.0176    1.0000 </r>
       <r>   -4.8587    1.0000 </r>
       <r>   -3.7156    1.0000 </r>
       <r>   -3.6825    1.0000 </r>
       <r>   -3.4702    1.0000 </r>
       <r>   -3.3375    1.0000 </r>
       <r>   -2.4005    1.0000 </r>
       <r>   -2.3900    1.0000 </r>
       <r>   -1.9110    1.0000 </r>
       <r>   -1.9007    1.0000 </r>
       <r>   -1.4042    1.0000 </r>
       <r>   -1.1737    1.0000 </r>
       <r>   -0.6849    1.0000 </r>
       <r>   -0.6117    1.0000 </r>
       <r>    1.9556   -0.0000 </r>
       <r>    2.2038   -0.0000 </r>
       <r>    2.3024   -0.0000 </r>
       <r>    2.3267   -0.0000 </r>
       <r>    2.6924   -0.0000 </r>
       <r>    2.8607   -0.0000 </r>
       <r>    3.5706    0.0000 </r>
       <r>    3.5990    0.0000 </r>
       <r>    6.2782    0.0000 </r>
       <r>    6.3924    0.0000 </r>
       <r>    7.7193    0.0000 </r>
       <r>    8.2616    0.0000 </r>
      </set>
      <set comment="kpoint 5">
       <r>  -35.0537    1.0000 </r>
       <r>  -35.0450    1.0000 </r>
       <r>  -34.9488    1.0000 </r>
       <r>  -34.9401    1.0000 </r>
       <r>  -34.8642    1.0000 </r>
       <r>  -34.8555    1.0000 </r>
       <r>  -12.8127    1.0000 </r>
       <r>  -12.7847    1.0000 </r>
       <r>  -12.2149    1.0000 </r>
       <r>  -12.1794    1.0000 </r>
       <r>   -5.0919    1.0000 </r>
       <r>   -5.0137    1.0000 </r>
       <r>   -4.0261    1.0000 </r>
       <r>   -3.9368    1.0000 </r>
       <r>   -3.8607    1.0000 </r>
       <r>   -3.7786    1.0000 </r>
       <r>   -2.7559    1.0000 </r>
       <r>   -2.7450    1.0000 </r>
       <r>   -1.6718    1.0000 </r>
       <r>   -1.5157    1.0000 </r>
       <r>   -1.5032    1.0000 </r>
       <r>   -1.4732    1.0000 </r>
       <r>   -0.9785    1.0000 </r>
       <r>   -0.9293    1.0000 </r>
       <r>    2.0553   -0.0000 </r>
       <r>    2.1346   -0.0000 </r>
       <r>    2.1554   -0.0000 </r>
       <r>    2.2845   -0.0000 </r>
       <r>    3.1057    0.0000 </r>
       <r>    3.3066    0.0000 </r>
       <r>    3.8712    0.0000 </r>
       <r>    3.9097    0.0000 </r>
       <r>    6.8997    0.0000 </r>
       <r>    7.0017    0.0000 </r>
       <r>    7.7651    0.0000 </r>
       <r>    8.0222    0.0000 </r>
      </set>
      <set comment="kpoint 6">
       <r>  -35.1234    1.0000 </r>
       <r>  -35.1148    1.0000 </r>
       <r>  -34.9346    1.0000 </r>
       <r>  -34.9258    1.0000 </r>
       <r>  -34.8806    1.0000 </r>
       <r>  -34.8720    1.0000 </r>
       <r>  -12.4020    1.0000 </r>
       <r>  -12.3790    1.0000 </r>
       <r>  -12.0517    1.0000 </r>
       <r>  -12.0252    1.0000 </r>
       <r>   -5.4187    1.0000 </r>
       <r>   -5.3801    1.0000 </r>
       <r>   -4.4572    1.0000 </r>
       <r>   -4.3993    1.0000 </r>
       <r>   -3.9318    1.0000 </r>
       <r>   -3.8465    1.0000 </r>
       <r>   -3.0159    1.0000 </r>
       <r>   -3.0047    1.0000 </r>
       <r>   -1.8771    1.0000 </r>
       <r>   -1.7072    1.0000 </r>
       <r>   -1.1993    1.0000 </r>
       <r>   -1.1821    1.0000 </r>
       <r>   -0.9319    1.0000 </r>
       <r>   -0.8672    1.0000 </r>
       <r>    2.0911   -0.0000 </r>
       <r>    2.1059   -0.0000 </r>
       <r>    2.3182   -0.0000 </r>
       <r>    2.4677   -0.0000 </r>
       <r>    3.5073    0.0000 </r>
       <r>    3.6954    0.0000 </r>
       <r>    4.0578    0.0000 </r>
       <r>    4.1055    0.0000 </r>
       <r>    6.8481    0.0000 </r>
       <r>    7.0958    0.0000 </r>
       <r>    7.5844    0.0000 </r>
       <r>    7.8258    0.0000 </r>
      </set>
      <set comment="kpoint 7">
       <r>  -35.1624    1.0000 </r>
       <r>  -35.1538    1.0000 </r>
       <r>  -34.9265    1.0000 </r>
       <r>  -34.9178    1.0000 </r>
       <r>  -34.8899    1.0000 </r>
       <r>  -34.8812    1.0000 </r>
       <r>  -12.1441    1.0000 </r>
       <r>  -12.1261    1.0000 </r>
       <r>  -11.9523    1.0000 </r>
       <r>  -11.9325    1.0000 </r>
       <r>   -5.6598    1.0000 </r>
       <r>   -5.6321    1.0000 </r>
       <r>   -4.7098    1.0000 </r>
       <r>   -4.6665    1.0000 </r>
       <r>   -4.0333    1.0000 </r>
       <r>   -3.9567    1.0000 </r>
       <r>   -3.1518    1.0000 </r>
       <r>   -3.1406    1.0000 </r>
       <r>   -1.9757    1.0000 </r>
       <r>   -1.8247    1.0000 </r>
       <r>   -1.0330    1.0000 </r>
       <r>   -1.0122    1.0000 </r>
       <r>   -0.7063    1.0000 </r>
       <r>   -0.6419    1.0000 </r>
       <r>    2.1179   -0.0000 </r>
       <r>    2.1285   -0.0000 </r>
       <r>    2.5648   -0.0000 </r>
       <r>    2.6266   -0.0000 </r>
       <r>    3.7307    0.0000 </r>
       <r>    3.8936    0.0000 </r>
       <r>    4.1424    0.0000 </r>
       <r>    4.1954    0.0000 </r>
       <r>    6.0843    0.0000 </r>
       <r>    6.4169    0.0000 </r>
       <r>    7.9021    0.0000 </r>
       <r>    7.9355    0.0000 </r>
      </set>
      <set comment="kpoint 8">
       <r>  -34.9857    1.0000 </r>
       <r>  -34.9769    1.0000 </r>
       <r>  -34.8674    1.0000 </r>
       <r>  -34.8587    1.0000 </r>
       <r>  -34.8221    1.0000 </r>
       <r>  -34.8134    1.0000 </r>
       <r>  -13.7085    1.0000 </r>
       <r>  -13.6756    1.0000 </r>
       <r>  -12.5837    1.0000 </r>
       <r>  -12.5314    1.0000 </r>
       <r>   -5.3542    1.0000 </r>
       <r>   -5.1582    1.0000 </r>
       <r>   -3.1260    1.0000 </r>
       <r>   -3.1173    1.0000 </r>
       <r>   -2.7568    1.0000 </r>
       <r>   -2.5241    1.0000 </r>
       <r>   -2.3675    1.0000 </r>
       <r>   -2.3587    1.0000 </r>
       <r>   -1.9828    1.0000 </r>
       <r>   -1.9738    1.0000 </r>
       <r>   -1.1712    1.0000 </r>
       <r>   -0.9262    1.0000 </r>
       <r>   -0.3068    1.0000 </r>
       <r>   -0.0916    1.0006 </r>
       <r>    2.2921   -0.0000 </r>
       <r>    2.4090   -0.0000 </r>
       <r>    2.4543   -0.0000 </r>
       <r>    2.5248   -0.0000 </r>
       <r>    2.6189   -0.0000 </r>
       <r>    2.6330   -0.0000 </r>
       <r>    3.1253    0.0000 </r>
       <r>    3.1367    0.0000 </r>
       <r>    5.6481    0.0000 </r>
       <r>    5.7762    0.0000 </r>
       <r>    7.1907    0.0000 </r>
       <r>    7.5874    0.0000 </r>
      </set>
      <set comment="kpoint 9">
       <r>  -34.9720    1.0000 </r>
       <r>  -34.9632    1.0000 </r>
       <r>  -34.9349    1.0000 </r>
       <r>  -34.9263    1.0000 </r>
       <r>  -34.8406    1.0000 </r>
       <r>  -34.8319    1.0000 </r>
       <r>  -13.3962    1.0000 </r>
       <r>  -13.3643    1.0000 </r>
       <r>  -12.4536    1.0000 </r>
       <r>  -12.4067    1.0000 </r>
       <r>   -5.0766    1.0000 </r>
       <r>   -4.8963    1.0000 </r>
       <r>   -3.5646    1.0000 </r>
       <r>   -3.5487    1.0000 </r>
       <r>   -3.2043    1.0000 </r>
       <r>   -3.0391    1.0000 </r>
       <r>   -2.4670    1.0000 </r>
       <r>   -2.4498    1.0000 </r>
       <r>   -2.0832    1.0000 </r>
       <r>   -2.0738    1.0000 </r>
       <r>   -1.1458    1.0000 </r>
       <r>   -0.9290    1.0000 </r>
       <r>   -0.5426    1.0000 </r>
       <r>   -0.4413    1.0000 </r>
       <r>    1.9604   -0.0000 </r>
       <r>    2.1606   -0.0000 </r>
       <r>    2.3945   -0.0000 </r>
       <r>    2.4111   -0.0000 </r>
       <r>    2.4627   -0.0000 </r>
       <r>    2.5901   -0.0000 </r>
       <r>    3.5346    0.0000 </r>
       <r>    3.5469    0.0000 </r>
       <r>    6.0839    0.0000 </r>
       <r>    6.2065    0.0000 </r>
       <r>    7.7004    0.0000 </r>
       <r>    8.0849    0.0000 </r>
      </set>
      <set comment="kpoint 10">
       <r>  -35.0153    1.0000 </r>
       <r>  -35.0066    1.0000 </r>
       <r>  -34.9554    1.0000 </r>
       <r>  -34.9466    1.0000 </r>
       <r>  -34.8630    1.0000 </r>
       <r>  -34.8543    1.0000 </r>
       <r>  -12.9866    1.0000 </r>
       <r>  -12.9570    1.0000 </r>
       <r>  -12.2841    1.0000 </r>
       <r>  -12.2449    1.0000 </r>
       <r>   -4.9671    1.0000 </r>
       <r>   -4.8534    1.0000 </r>
       <r>   -3.8456    1.0000 </r>
       <r>   -3.7768    1.0000 </r>
       <r>   -3.7168    1.0000 </r>
       <r>   -3.6289    1.0000 </r>
       <r>   -2.8575    1.0000 </r>
       <r>   -2.8177    1.0000 </r>
       <r>   -1.7996    1.0000 </r>
       <r>   -1.7889    1.0000 </r>
       <r>   -1.3548    1.0000 </r>
       <r>   -1.1797    1.0000 </r>
       <r>   -0.8482    1.0000 </r>
       <r>   -0.8088    1.0000 </r>
       <r>    1.8624   -0.0000 </r>
       <r>    2.0405   -0.0000 </r>
       <r>    2.2796   -0.0000 </r>
       <r>    2.3506   -0.0000 </r>
       <r>    2.7455   -0.0000 </r>
       <r>    2.9125    0.0000 </r>
       <r>    3.8888    0.0000 </r>
       <r>    3.9075    0.0000 </r>
       <r>    6.6767    0.0000 </r>
       <r>    6.7811    0.0000 </r>
       <r>    7.9394    0.0000 </r>
       <r>    8.5057    0.0000 </r>
      </set>
      <set comment="kpoint 11">
       <r>  -35.0899    1.0000 </r>
       <r>  -35.0813    1.0000 </r>
       <r>  -34.9397    1.0000 </r>
       <r>  -34.9309    1.0000 </r>
       <r>  -34.8840    1.0000 </r>
       <r>  -34.8753    1.0000 </r>
       <r>  -12.5563    1.0000 </r>
       <r>  -12.5307    1.0000 </r>
       <r>  -12.1090    1.0000 </r>
       <r>  -12.0786    1.0000 </r>
       <r>   -5.2056    1.0000 </r>
       <r>   -5.1530    1.0000 </r>
       <r>   -4.2754    1.0000 </r>
       <r>   -4.2185    1.0000 </r>
       <r>   -3.8537    1.0000 </r>
       <r>   -3.7641    1.0000 </r>
       <r>   -3.0703    1.0000 </r>
       <r>   -3.0310    1.0000 </r>
       <r>   -1.6667    1.0000 </r>
       <r>   -1.6315    1.0000 </r>
       <r>   -1.6156    1.0000 </r>
       <r>   -1.4964    1.0000 </r>
       <r>   -0.8700    1.0000 </r>
       <r>   -0.8408    1.0000 </r>
       <r>    1.9685   -0.0000 </r>
       <r>    2.0793   -0.0000 </r>
       <r>    2.3215   -0.0000 </r>
       <r>    2.4119   -0.0000 </r>
       <r>    3.1757    0.0000 </r>
       <r>    3.3404    0.0000 </r>
       <r>    4.0970    0.0000 </r>
       <r>    4.1155    0.0000 </r>
       <r>    7.2464    0.0000 </r>
       <r>    7.3756    0.0000 </r>
       <r>    7.6125    0.0000 </r>
       <r>    7.9586    0.0000 </r>
      </set>
      <set comment="kpoint 12">
       <r>  -35.1423    1.0000 </r>
       <r>  -35.1336    1.0000 </r>
       <r>  -34.9285    1.0000 </r>
       <r>  -34.9197    1.0000 </r>
       <r>  -34.8989    1.0000 </r>
       <r>  -34.8902    1.0000 </r>
       <r>  -12.2140    1.0000 </r>
       <r>  -12.1939    1.0000 </r>
       <r>  -11.9732    1.0000 </r>
       <r>  -11.9510    1.0000 </r>
       <r>   -5.4908    1.0000 </r>
       <r>   -5.4594    1.0000 </r>
       <r>   -4.6649    1.0000 </r>
       <r>   -4.6262    1.0000 </r>
       <r>   -3.9524    1.0000 </r>
       <r>   -3.8724    1.0000 </r>
       <r>   -3.1588    1.0000 </r>
       <r>   -3.1348    1.0000 </r>
       <r>   -1.8794    1.0000 </r>
       <r>   -1.7441    1.0000 </r>
       <r>   -1.4987    1.0000 </r>
       <r>   -1.4701    1.0000 </r>
       <r>   -0.6537    1.0000 </r>
       <r>   -0.6157    1.0000 </r>
       <r>    2.1073   -0.0000 </r>
       <r>    2.1493   -0.0000 </r>
       <r>    2.4992   -0.0000 </r>
       <r>    2.5746   -0.0000 </r>
       <r>    3.5816    0.0000 </r>
       <r>    3.7103    0.0000 </r>
       <r>    4.1055    0.0000 </r>
       <r>    4.1431    0.0000 </r>
       <r>    6.4912    0.0000 </r>
       <r>    6.8184    0.0000 </r>
       <r>    8.0271    0.0000 </r>
       <r>    8.1878    0.0000 </r>
      </set>
      <set comment="kpoint 13">
       <r>  -35.1610    1.0000 </r>
       <r>  -35.1524    1.0000 </r>
       <r>  -34.9245    1.0000 </r>
       <r>  -34.9157    1.0000 </r>
       <r>  -34.9042    1.0000 </r>
       <r>  -34.8955    1.0000 </r>
       <r>  -12.0802    1.0000 </r>
       <r>  -12.0635    1.0000 </r>
       <r>  -11.9211    1.0000 </r>
       <r>  -11.9029    1.0000 </r>
       <r>   -5.6080    1.0000 </r>
       <r>   -5.5817    1.0000 </r>
       <r>   -4.8075    1.0000 </r>
       <r>   -4.7740    1.0000 </r>
       <r>   -4.0221    1.0000 </r>
       <r>   -3.9464    1.0000 </r>
       <r>   -3.1789    1.0000 </r>
       <r>   -3.1655    1.0000 </r>
       <r>   -1.9636    1.0000 </r>
       <r>   -1.8320    1.0000 </r>
       <r>   -1.4275    1.0000 </r>
       <r>   -1.4054    1.0000 </r>
       <r>   -0.5189    1.0000 </r>
       <r>   -0.4744    1.0000 </r>
       <r>    2.1396   -0.0000 </r>
       <r>    2.1517   -0.0000 </r>
       <r>    2.6495   -0.0000 </r>
       <r>    2.6904   -0.0000 </r>
       <r>    3.8482    0.0000 </r>
       <r>    3.8985    0.0000 </r>
       <r>    3.9874    0.0000 </r>
       <r>    4.0613    0.0000 </r>
       <r>    6.0626    0.0000 </r>
       <r>    6.4192    0.0000 </r>
       <r>    8.2927    0.0000 </r>
       <r>    8.3545    0.0000 </r>
      </set>
      <set comment="kpoint 14">
       <r>  -35.1423    1.0000 </r>
       <r>  -35.1336    1.0000 </r>
       <r>  -34.9285    1.0000 </r>
       <r>  -34.9197    1.0000 </r>
       <r>  -34.8989    1.0000 </r>
       <r>  -34.8902    1.0000 </r>
       <r>  -12.2138    1.0000 </r>
       <r>  -12.1941    1.0000 </r>
       <r>  -11.9730    1.0000 </r>
       <r>  -11.9512    1.0000 </r>
       <r>   -5.4908    1.0000 </r>
       <r>   -5.4595    1.0000 </r>
       <r>   -4.6646    1.0000 </r>
       <r>   -4.6266    1.0000 </r>
       <r>   -3.9522    1.0000 </r>
       <r>   -3.8726    1.0000 </r>
       <r>   -3.1591    1.0000 </r>
       <r>   -3.1343    1.0000 </r>
       <r>   -1.8771    1.0000 </r>
       <r>   -1.7451    1.0000 </r>
       <r>   -1.4919    1.0000 </r>
       <r>   -1.4789    1.0000 </r>
       <r>   -0.6544    1.0000 </r>
       <r>   -0.6149    1.0000 </r>
       <r>    2.1059   -0.0000 </r>
       <r>    2.1509   -0.0000 </r>
       <r>    2.5000   -0.0000 </r>
       <r>    2.5739   -0.0000 </r>
       <r>    3.5894    0.0000 </r>
       <r>    3.7025    0.0000 </r>
       <r>    4.1011    0.0000 </r>
       <r>    4.1469    0.0000 </r>
       <r>    6.4911    0.0000 </r>
       <r>    6.8182    0.0000 </r>
       <r>    8.0153    0.0000 </r>
       <r>    8.1577    0.0000 </r>
      </set>
      <set comment="kpoint 15">
       <r>  -35.0899    1.0000 </r>
       <r>  -35.0813    1.0000 </r>
       <r>  -34.9397    1.0000 </r>
       <r>  -34.9309    1.0000 </r>
       <r>  -34.8840    1.0000 </r>
       <r>  -34.8753    1.0000 </r>
       <r>  -12.5560    1.0000 </r>
       <r>  -12.5309    1.0000 </r>
       <r>  -12.1087    1.0000 </r>
       <r>  -12.0789    1.0000 </r>
       <r>   -5.2056    1.0000 </r>
       <r>   -5.1531    1.0000 </r>
       <r>   -4.2749    1.0000 </r>
       <r>   -4.2189    1.0000 </r>
       <r>   -3.8530    1.0000 </r>
       <r>   -3.7650    1.0000 </r>
       <r>   -3.0701    1.0000 </r>
       <r>   -3.0309    1.0000 </r>
       <r>   -1.6562    1.0000 </r>
       <r>   -1.6353    1.0000 </r>
       <r>   -1.6177    1.0000 </r>
       <r>   -1.5019    1.0000 </r>
       <r>   -0.8699    1.0000 </r>
       <r>   -0.8411    1.0000 </r>
       <r>    1.9691   -0.0000 </r>
       <r>    2.0794   -0.0000 </r>
       <r>    2.3219   -0.0000 </r>
       <r>    2.4111   -0.0000 </r>
       <r>    3.1819    0.0000 </r>
       <r>    3.3334    0.0000 </r>
       <r>    4.0979    0.0000 </r>
       <r>    4.1150    0.0000 </r>
       <r>    7.2460    0.0000 </r>
       <r>    7.3806    0.0000 </r>
       <r>    7.5977    0.0000 </r>
       <r>    7.9753    0.0000 </r>
      </set>
      <set comment="kpoint 16">
       <r>  -35.0153    1.0000 </r>
       <r>  -35.0066    1.0000 </r>
       <r>  -34.9554    1.0000 </r>
       <r>  -34.9466    1.0000 </r>
       <r>  -34.8630    1.0000 </r>
       <r>  -34.8543    1.0000 </r>
       <r>  -12.9864    1.0000 </r>
       <r>  -12.9572    1.0000 </r>
       <r>  -12.2839    1.0000 </r>
       <r>  -12.2452    1.0000 </r>
       <r>   -4.9671    1.0000 </r>
       <r>   -4.8534    1.0000 </r>
       <r>   -3.8440    1.0000 </r>
       <r>   -3.7781    1.0000 </r>
       <r>   -3.7166    1.0000 </r>
       <r>   -3.6294    1.0000 </r>
       <r>   -2.8567    1.0000 </r>
       <r>   -2.8181    1.0000 </r>
       <r>   -1.7996    1.0000 </r>
       <r>   -1.7886    1.0000 </r>
       <r>   -1.3513    1.0000 </r>
       <r>   -1.1835    1.0000 </r>
       <r>   -0.8475    1.0000 </r>
       <r>   -0.8108    1.0000 </r>
       <r>    1.8638   -0.0000 </r>
       <r>    2.0394   -0.0000 </r>
       <r>    2.2801   -0.0000 </r>
       <r>    2.3499   -0.0000 </r>
       <r>    2.7498   -0.0000 </r>
       <r>    2.9084    0.0000 </r>
       <r>    3.8899    0.0000 </r>
       <r>    3.9071    0.0000 </r>
       <r>    6.6766    0.0000 </r>
       <r>    6.7812    0.0000 </r>
       <r>    7.9396    0.0000 </r>
       <r>    8.5071    0.0000 </r>
      </set>
      <set comment="kpoint 17">
       <r>  -34.9720    1.0000 </r>
       <r>  -34.9632    1.0000 </r>
       <r>  -34.9350    1.0000 </r>
       <r>  -34.9263    1.0000 </r>
       <r>  -34.8406    1.0000 </r>
       <r>  -34.8319    1.0000 </r>
       <r>  -13.3961    1.0000 </r>
       <r>  -13.3644    1.0000 </r>
       <r>  -12.4534    1.0000 </r>
       <r>  -12.4069    1.0000 </r>
       <r>   -5.0763    1.0000 </r>
       <r>   -4.8965    1.0000 </r>
       <r>   -3.5640    1.0000 </r>
       <r>   -3.5493    1.0000 </r>
       <r>   -3.2046    1.0000 </r>
       <r>   -3.0388    1.0000 </r>
       <r>   -2.4662    1.0000 </r>
       <r>   -2.4506    1.0000 </r>
       <r>   -2.0831    1.0000 </r>
       <r>   -2.0738    1.0000 </r>
       <r>   -1.1416    1.0000 </r>
       <r>   -0.9326    1.0000 </r>
       <r>   -0.5410    1.0000 </r>
       <r>   -0.4454    1.0000 </r>
       <r>    1.9621   -0.0000 </r>
       <r>    2.1608   -0.0000 </r>
       <r>    2.3946   -0.0000 </r>
       <r>    2.4093   -0.0000 </r>
       <r>    2.4657   -0.0000 </r>
       <r>    2.5883   -0.0000 </r>
       <r>    3.5342    0.0000 </r>
       <r>    3.5477    0.0000 </r>
       <r>    6.0839    0.0000 </r>
       <r>    6.2064    0.0000 </r>
       <r>    7.7008    0.0000 </r>
       <r>    8.0894    0.0000 </r>
      </set>
      <set comment="kpoint 18">
       <r>  -34.9857    1.0000 </r>
       <r>  -34.9769    1.0000 </r>
       <r>  -34.8674    1.0000 </r>
       <r>  -34.8587    1.0000 </r>
       <r>  -34.8221    1.0000 </r>
       <r>  -34.8134    1.0000 </r>
       <r>  -13.7084    1.0000 </r>
       <r>  -13.6756    1.0000 </r>
       <r>  -12.5836    1.0000 </r>
       <r>  -12.5315    1.0000 </r>
       <r>   -5.3539    1.0000 </r>
       <r>   -5.1584    1.0000 </r>
       <r>   -3.1261    1.0000 </r>
       <r>   -3.1172    1.0000 </r>
       <r>   -2.7572    1.0000 </r>
       <r>   -2.5237    1.0000 </r>
       <r>   -2.3675    1.0000 </r>
       <r>   -2.3587    1.0000 </r>
       <r>   -1.9828    1.0000 </r>
       <r>   -1.9738    1.0000 </r>
       <r>   -1.1673    1.0000 </r>
       <r>   -0.9296    1.0000 </r>
       <r>   -0.3055    1.0000 </r>
       <r>   -0.0955    1.0005 </r>
       <r>    2.2974   -0.0000 </r>
       <r>    2.4093   -0.0000 </r>
       <r>    2.4565   -0.0000 </r>
       <r>    2.5196   -0.0000 </r>
       <r>    2.6193   -0.0000 </r>
       <r>    2.6322   -0.0000 </r>
       <r>    3.1261    0.0000 </r>
       <r>    3.1359    0.0000 </r>
       <r>    5.6496    0.0000 </r>
       <r>    5.7761    0.0000 </r>
       <r>    7.1966    0.0000 </r>
       <r>    7.5930    0.0000 </r>
      </set>
      <set comment="kpoint 19">
       <r>  -34.9935    1.0000 </r>
       <r>  -34.9847    1.0000 </r>
       <r>  -34.8285    1.0000 </r>
       <r>  -34.8198    1.0000 </r>
       <r>  -34.8120    1.0000 </r>
       <r>  -34.8034    1.0000 </r>
       <r>  -13.8761    1.0000 </r>
       <r>  -13.8429    1.0000 </r>
       <r>  -12.6536    1.0000 </r>
       <r>  -12.5985    1.0000 </r>
       <r>   -5.5360    1.0000 </r>
       <r>   -5.3379    1.0000 </r>
       <r>   -2.8132    1.0000 </r>
       <r>   -2.8043    1.0000 </r>
       <r>   -2.5357    1.0000 </r>
       <r>   -2.5270    1.0000 </r>
       <r>   -2.4075    1.0000 </r>
       <r>   -2.1118    1.0000 </r>
       <r>   -1.6699    1.0000 </r>
       <r>   -1.6608    1.0000 </r>
       <r>   -1.3356    1.0000 </r>
       <r>   -1.1157    1.0000 </r>
       <r>   -0.2278    1.0000 </r>
       <r>    0.0658    1.0316 </r>
       <r>    2.5913   -0.0000 </r>
       <r>    2.6011   -0.0000 </r>
       <r>    2.6426   -0.0000 </r>
       <r>    2.6895   -0.0000 </r>
       <r>    2.7842   -0.0000 </r>
       <r>    2.8006   -0.0000 </r>
       <r>    2.8459   -0.0000 </r>
       <r>    2.8580   -0.0000 </r>
       <r>    5.4046    0.0000 </r>
       <r>    5.5348    0.0000 </r>
       <r>    6.6887    0.0000 </r>
       <r>    6.9203    0.0000 </r>
      </set>
      <set comment="kpoint 20">
       <r>  -34.9971    1.0000 </r>
       <r>  -34.9884    1.0000 </r>
       <r>  -34.9577    1.0000 </r>
       <r>  -34.9489    1.0000 </r>
       <r>  -34.8670    1.0000 </r>
       <r>  -34.8583    1.0000 </r>
       <r>  -13.0478    1.0000 </r>
       <r>  -13.0177    1.0000 </r>
       <r>  -12.3080    1.0000 </r>
       <r>  -12.2674    1.0000 </r>
       <r>   -4.9138    1.0000 </r>
       <r>   -4.7810    1.0000 </r>
       <r>   -3.7971    1.0000 </r>
       <r>   -3.7454    1.0000 </r>
       <r>   -3.5097    1.0000 </r>
       <r>   -3.4202    1.0000 </r>
       <r>   -3.0891    1.0000 </r>
       <r>   -3.0195    1.0000 </r>
       <r>   -1.9512    1.0000 </r>
       <r>   -1.9412    1.0000 </r>
       <r>   -1.1206    1.0000 </r>
       <r>   -0.9633    1.0000 </r>
       <r>   -0.7824    1.0000 </r>
       <r>   -0.7488    1.0000 </r>
       <r>    1.7714   -0.0000 </r>
       <r>    1.9636   -0.0000 </r>
       <r>    2.3219   -0.0000 </r>
       <r>    2.3897   -0.0000 </r>
       <r>    2.5152   -0.0000 </r>
       <r>    2.6686   -0.0000 </r>
       <r>    3.9280    0.0000 </r>
       <r>    3.9643    0.0000 </r>
       <r>    6.6013    0.0000 </r>
       <r>    6.7126    0.0000 </r>
       <r>    8.0861    0.0000 </r>
       <r>    8.5018    0.0000 </r>
      </set>
      <set comment="kpoint 21">
       <r>  -35.0599    1.0000 </r>
       <r>  -35.0512    1.0000 </r>
       <r>  -34.9425    1.0000 </r>
       <r>  -34.9338    1.0000 </r>
       <r>  -34.8973    1.0000 </r>
       <r>  -34.8886    1.0000 </r>
       <r>  -12.6422    1.0000 </r>
       <r>  -12.6154    1.0000 </r>
       <r>  -12.1386    1.0000 </r>
       <r>  -12.1058    1.0000 </r>
       <r>   -5.0072    1.0000 </r>
       <r>   -4.9383    1.0000 </r>
       <r>   -4.0923    1.0000 </r>
       <r>   -4.0607    1.0000 </r>
       <r>   -3.7620    1.0000 </r>
       <r>   -3.6735    1.0000 </r>
       <r>   -3.3001    1.0000 </r>
       <r>   -3.1972    1.0000 </r>
       <r>   -2.0756    1.0000 </r>
       <r>   -2.0630    1.0000 </r>
       <r>   -1.3318    1.0000 </r>
       <r>   -1.2217    1.0000 </r>
       <r>   -0.8379    1.0000 </r>
       <r>   -0.8284    1.0000 </r>
       <r>    1.8049   -0.0000 </r>
       <r>    2.0125   -0.0000 </r>
       <r>    2.3891   -0.0000 </r>
       <r>    2.4323   -0.0000 </r>
       <r>    2.7806   -0.0000 </r>
       <r>    2.9331    0.0000 </r>
       <r>    4.1878    0.0000 </r>
       <r>    4.2406    0.0000 </r>
       <r>    7.2403    0.0000 </r>
       <r>    7.3372    0.0000 </r>
       <r>    8.1350    0.0000 </r>
       <r>    8.3935    0.0000 </r>
      </set>
      <set comment="kpoint 22">
       <r>  -35.1105    1.0000 </r>
       <r>  -35.1018    1.0000 </r>
       <r>  -34.9299    1.0000 </r>
       <r>  -34.9233    1.0000 </r>
       <r>  -34.9212    1.0000 </r>
       <r>  -34.9146    1.0000 </r>
       <r>  -12.2683    1.0000 </r>
       <r>  -12.2465    1.0000 </r>
       <r>  -11.9833    1.0000 </r>
       <r>  -11.9589    1.0000 </r>
       <r>   -5.2140    1.0000 </r>
       <r>   -5.1735    1.0000 </r>
       <r>   -4.6363    1.0000 </r>
       <r>   -4.6148    1.0000 </r>
       <r>   -3.7800    1.0000 </r>
       <r>   -3.6978    1.0000 </r>
       <r>   -3.2700    1.0000 </r>
       <r>   -3.1893    1.0000 </r>
       <r>   -2.2126    1.0000 </r>
       <r>   -2.1801    1.0000 </r>
       <r>   -1.6608    1.0000 </r>
       <r>   -1.5706    1.0000 </r>
       <r>   -0.6658    1.0000 </r>
       <r>   -0.6503    1.0000 </r>
       <r>    2.0270   -0.0000 </r>
       <r>    2.1870   -0.0000 </r>
       <r>    2.5074   -0.0000 </r>
       <r>    2.5395   -0.0000 </r>
       <r>    3.1379    0.0000 </r>
       <r>    3.2581    0.0000 </r>
       <r>    4.2650    0.0000 </r>
       <r>    4.3389    0.0000 </r>
       <r>    7.1238    0.0000 </r>
       <r>    7.4090    0.0000 </r>
       <r>    8.0902    0.0000 </r>
       <r>    8.3496    0.0000 </r>
      </set>
      <set comment="kpoint 23">
       <r>  -35.1386    1.0000 </r>
       <r>  -35.1300    1.0000 </r>
       <r>  -34.9381    1.0000 </r>
       <r>  -34.9294    1.0000 </r>
       <r>  -34.9228    1.0000 </r>
       <r>  -34.9140    1.0000 </r>
       <r>  -12.0367    1.0000 </r>
       <r>  -12.0201    1.0000 </r>
       <r>  -11.8879    1.0000 </r>
       <r>  -11.8700    1.0000 </r>
       <r>   -5.3447    1.0000 </r>
       <r>   -5.3172    1.0000 </r>
       <r>   -4.9439    1.0000 </r>
       <r>   -4.9243    1.0000 </r>
       <r>   -3.9222    1.0000 </r>
       <r>   -3.8465    1.0000 </r>
       <r>   -3.1786    1.0000 </r>
       <r>   -3.1319    1.0000 </r>
       <r>   -2.2086    1.0000 </r>
       <r>   -2.1690    1.0000 </r>
       <r>   -1.9164    1.0000 </r>
       <r>   -1.8237    1.0000 </r>
       <r>   -0.4382    1.0000 </r>
       <r>   -0.4092    1.0000 </r>
       <r>    2.0623   -0.0000 </r>
       <r>    2.0983   -0.0000 </r>
       <r>    2.7686   -0.0000 </r>
       <r>    2.8380   -0.0000 </r>
       <r>    3.4118    0.0000 </r>
       <r>    3.4779    0.0000 </r>
       <r>    4.2096    0.0000 </r>
       <r>    4.3265    0.0000 </r>
       <r>    6.4094    0.0000 </r>
       <r>    6.7852    0.0000 </r>
       <r>    8.7827    0.0000 </r>
       <r>    9.0057    0.0000 </r>
      </set>
      <set comment="kpoint 24">
       <r>  -35.1386    1.0000 </r>
       <r>  -35.1300    1.0000 </r>
       <r>  -34.9381    1.0000 </r>
       <r>  -34.9294    1.0000 </r>
       <r>  -34.9228    1.0000 </r>
       <r>  -34.9140    1.0000 </r>
       <r>  -12.0364    1.0000 </r>
       <r>  -12.0204    1.0000 </r>
       <r>  -11.8876    1.0000 </r>
       <r>  -11.8703    1.0000 </r>
       <r>   -5.3446    1.0000 </r>
       <r>   -5.3174    1.0000 </r>
       <r>   -4.9437    1.0000 </r>
       <r>   -4.9245    1.0000 </r>
       <r>   -3.9221    1.0000 </r>
       <r>   -3.8466    1.0000 </r>
       <r>   -3.1789    1.0000 </r>
       <r>   -3.1315    1.0000 </r>
       <r>   -2.2032    1.0000 </r>
       <r>   -2.1729    1.0000 </r>
       <r>   -1.9172    1.0000 </r>
       <r>   -1.8249    1.0000 </r>
       <r>   -0.4382    1.0000 </r>
       <r>   -0.4091    1.0000 </r>
       <r>    2.0616   -0.0000 </r>
       <r>    2.0990   -0.0000 </r>
       <r>    2.7686   -0.0000 </r>
       <r>    2.8382   -0.0000 </r>
       <r>    3.4334    0.0000 </r>
       <r>    3.4556    0.0000 </r>
       <r>    4.2094    0.0000 </r>
       <r>    4.3267    0.0000 </r>
       <r>    6.4096    0.0000 </r>
       <r>    6.7853    0.0000 </r>
       <r>    8.7314    0.0000 </r>
       <r>    8.9959    0.0000 </r>
      </set>
      <set comment="kpoint 25">
       <r>  -35.1105    1.0000 </r>
       <r>  -35.1018    1.0000 </r>
       <r>  -34.9299    1.0000 </r>
       <r>  -34.9232    1.0000 </r>
       <r>  -34.9212    1.0000 </r>
       <r>  -34.9146    1.0000 </r>
       <r>  -12.2677    1.0000 </r>
       <r>  -12.2470    1.0000 </r>
       <r>  -11.9827    1.0000 </r>
       <r>  -11.9596    1.0000 </r>
       <r>   -5.2139    1.0000 </r>
       <r>   -5.1736    1.0000 </r>
       <r>   -4.6357    1.0000 </r>
       <r>   -4.6154    1.0000 </r>
       <r>   -3.7787    1.0000 </r>
       <r>   -3.6988    1.0000 </r>
       <r>   -3.2695    1.0000 </r>
       <r>   -3.1893    1.0000 </r>
       <r>   -2.2057    1.0000 </r>
       <r>   -2.1861    1.0000 </r>
       <r>   -1.6589    1.0000 </r>
       <r>   -1.5750    1.0000 </r>
       <r>   -0.6662    1.0000 </r>
       <r>   -0.6497    1.0000 </r>
       <r>    2.0259   -0.0000 </r>
       <r>    2.1887   -0.0000 </r>
       <r>    2.5086   -0.0000 </r>
       <r>    2.5378   -0.0000 </r>
       <r>    3.1511    0.0000 </r>
       <r>    3.2436    0.0000 </r>
       <r>    4.2662    0.0000 </r>
       <r>    4.3382    0.0000 </r>
       <r>    7.1230    0.0000 </r>
       <r>    7.4089    0.0000 </r>
       <r>    8.0877    0.0000 </r>
       <r>    8.3513    0.0000 </r>
      </set>
      <set comment="kpoint 26">
       <r>  -35.0599    1.0000 </r>
       <r>  -35.0512    1.0000 </r>
       <r>  -34.9425    1.0000 </r>
       <r>  -34.9338    1.0000 </r>
       <r>  -34.8973    1.0000 </r>
       <r>  -34.8886    1.0000 </r>
       <r>  -12.6417    1.0000 </r>
       <r>  -12.6158    1.0000 </r>
       <r>  -12.1379    1.0000 </r>
       <r>  -12.1065    1.0000 </r>
       <r>   -5.0074    1.0000 </r>
       <r>   -4.9382    1.0000 </r>
       <r>   -4.0917    1.0000 </r>
       <r>   -4.0618    1.0000 </r>
       <r>   -3.7574    1.0000 </r>
       <r>   -3.6772    1.0000 </r>
       <r>   -3.2991    1.0000 </r>
       <r>   -3.1981    1.0000 </r>
       <r>   -2.0764    1.0000 </r>
       <r>   -2.0620    1.0000 </r>
       <r>   -1.3248    1.0000 </r>
       <r>   -1.2304    1.0000 </r>
       <r>   -0.8405    1.0000 </r>
       <r>   -0.8261    1.0000 </r>
       <r>    1.8054   -0.0000 </r>
       <r>    2.0124   -0.0000 </r>
       <r>    2.3899   -0.0000 </r>
       <r>    2.4308   -0.0000 </r>
       <r>    2.7866   -0.0000 </r>
       <r>    2.9273    0.0000 </r>
       <r>    4.1914    0.0000 </r>
       <r>    4.2375    0.0000 </r>
       <r>    7.2404    0.0000 </r>
       <r>    7.3370    0.0000 </r>
       <r>    8.1293    0.0000 </r>
       <r>    8.3849    0.0000 </r>
      </set>
      <set comment="kpoint 27">
       <r>  -34.9971    1.0000 </r>
       <r>  -34.9884    1.0000 </r>
       <r>  -34.9577    1.0000 </r>
       <r>  -34.9489    1.0000 </r>
       <r>  -34.8669    1.0000 </r>
       <r>  -34.8583    1.0000 </r>
       <r>  -13.0475    1.0000 </r>
       <r>  -13.0180    1.0000 </r>
       <r>  -12.3075    1.0000 </r>
       <r>  -12.2680    1.0000 </r>
       <r>   -4.9139    1.0000 </r>
       <r>   -4.7809    1.0000 </r>
       <r>   -3.7929    1.0000 </r>
       <r>   -3.7500    1.0000 </r>
       <r>   -3.5094    1.0000 </r>
       <r>   -3.4200    1.0000 </r>
       <r>   -3.0873    1.0000 </r>
       <r>   -3.0213    1.0000 </r>
       <r>   -1.9518    1.0000 </r>
       <r>   -1.9405    1.0000 </r>
       <r>   -1.1103    1.0000 </r>
       <r>   -0.9720    1.0000 </r>
       <r>   -0.7802    1.0000 </r>
       <r>   -0.7553    1.0000 </r>
       <r>    1.7728   -0.0000 </r>
       <r>    1.9632   -0.0000 </r>
       <r>    2.3227   -0.0000 </r>
       <r>    2.3887   -0.0000 </r>
       <r>    2.5179   -0.0000 </r>
       <r>    2.6670   -0.0000 </r>
       <r>    3.9288    0.0000 </r>
       <r>    3.9638    0.0000 </r>
       <r>    6.6015    0.0000 </r>
       <r>    6.7121    0.0000 </r>
       <r>    8.0878    0.0000 </r>
       <r>    8.5043    0.0000 </r>
      </set>
      <set comment="kpoint 28">
       <r>  -34.9720    1.0000 </r>
       <r>  -34.9632    1.0000 </r>
       <r>  -34.9350    1.0000 </r>
       <r>  -34.9263    1.0000 </r>
       <r>  -34.8406    1.0000 </r>
       <r>  -34.8319    1.0000 </r>
       <r>  -13.3960    1.0000 </r>
       <r>  -13.3645    1.0000 </r>
       <r>  -12.4532    1.0000 </r>
       <r>  -12.4071    1.0000 </r>
       <r>   -5.0762    1.0000 </r>
       <r>   -4.8966    1.0000 </r>
       <r>   -3.5618    1.0000 </r>
       <r>   -3.5514    1.0000 </r>
       <r>   -3.2045    1.0000 </r>
       <r>   -3.0391    1.0000 </r>
       <r>   -2.4665    1.0000 </r>
       <r>   -2.4501    1.0000 </r>
       <r>   -2.0832    1.0000 </r>
       <r>   -2.0738    1.0000 </r>
       <r>   -1.1359    1.0000 </r>
       <r>   -0.9373    1.0000 </r>
       <r>   -0.5391    1.0000 </r>
       <r>   -0.4501    1.0000 </r>
       <r>    1.9647   -0.0000 </r>
       <r>    2.1607   -0.0000 </r>
       <r>    2.3924   -0.0000 </r>
       <r>    2.4139   -0.0000 </r>
       <r>    2.4644   -0.0000 </r>
       <r>    2.5871   -0.0000 </r>
       <r>    3.5310    0.0000 </r>
       <r>    3.5506    0.0000 </r>
       <r>    6.0842    0.0000 </r>
       <r>    6.2059    0.0000 </r>
       <r>    7.7014    0.0000 </r>
       <r>    8.0910    0.0000 </r>
      </set>
      <set comment="kpoint 29">
       <r>  -34.9821    1.0000 </r>
       <r>  -34.9733    1.0000 </r>
       <r>  -34.8870    1.0000 </r>
       <r>  -34.8783    1.0000 </r>
       <r>  -34.8254    1.0000 </r>
       <r>  -34.8168    1.0000 </r>
       <r>  -13.6275    1.0000 </r>
       <r>  -13.5951    1.0000 </r>
       <r>  -12.5499    1.0000 </r>
       <r>  -12.4994    1.0000 </r>
       <r>   -5.2753    1.0000 </r>
       <r>   -5.0829    1.0000 </r>
       <r>   -3.2612    1.0000 </r>
       <r>   -3.2525    1.0000 </r>
       <r>   -2.9246    1.0000 </r>
       <r>   -2.7231    1.0000 </r>
       <r>   -2.2801    1.0000 </r>
       <r>   -2.2710    1.0000 </r>
       <r>   -2.0053    1.0000 </r>
       <r>   -1.9954    1.0000 </r>
       <r>   -1.2306    1.0000 </r>
       <r>   -0.9891    1.0000 </r>
       <r>   -0.3607    1.0000 </r>
       <r>   -0.1909    1.0000 </r>
       <r>    2.1846   -0.0000 </r>
       <r>    2.3399   -0.0000 </r>
       <r>    2.4966   -0.0000 </r>
       <r>    2.5527   -0.0000 </r>
       <r>    2.5758   -0.0000 </r>
       <r>    2.5849   -0.0000 </r>
       <r>    3.1916    0.0000 </r>
       <r>    3.2097    0.0000 </r>
       <r>    5.7607    0.0000 </r>
       <r>    5.8840    0.0000 </r>
       <r>    7.3371    0.0000 </r>
       <r>    7.8057    0.0000 </r>
      </set>
      <set comment="kpoint 30">
       <r>  -35.0923    1.0000 </r>
       <r>  -35.0837    1.0000 </r>
       <r>  -34.9389    1.0000 </r>
       <r>  -34.9304    1.0000 </r>
       <r>  -34.9302    1.0000 </r>
       <r>  -34.9217    1.0000 </r>
       <r>  -12.2887    1.0000 </r>
       <r>  -12.2662    1.0000 </r>
       <r>  -11.9860    1.0000 </r>
       <r>  -11.9607    1.0000 </r>
       <r>   -5.0677    1.0000 </r>
       <r>   -5.0200    1.0000 </r>
       <r>   -4.6216    1.0000 </r>
       <r>   -4.6105    1.0000 </r>
       <r>   -3.6267    1.0000 </r>
       <r>   -3.5471    1.0000 </r>
       <r>   -3.3319    1.0000 </r>
       <r>   -3.2256    1.0000 </r>
       <r>   -2.6022    1.0000 </r>
       <r>   -2.5928    1.0000 </r>
       <r>   -1.5395    1.0000 </r>
       <r>   -1.4766    1.0000 </r>
       <r>   -0.6921    1.0000 </r>
       <r>   -0.6814    1.0000 </r>
       <r>    1.9781   -0.0000 </r>
       <r>    2.1909   -0.0000 </r>
       <r>    2.5225   -0.0000 </r>
       <r>    2.5365   -0.0000 </r>
       <r>    2.9225    0.0000 </r>
       <r>    3.0416    0.0000 </r>
       <r>    4.3686    0.0000 </r>
       <r>    4.4423    0.0000 </r>
       <r>    7.5660    0.0000 </r>
       <r>    7.7282    0.0000 </r>
       <r>    8.1350    0.0000 </r>
       <r>    8.5458    0.0000 </r>
      </set>
      <set comment="kpoint 31">
       <r>  -35.1092    1.0000 </r>
       <r>  -35.1005    1.0000 </r>
       <r>  -34.9744    1.0000 </r>
       <r>  -34.9657    1.0000 </r>
       <r>  -34.9218    1.0000 </r>
       <r>  -34.9131    1.0000 </r>
       <r>  -12.0164    1.0000 </r>
       <r>  -11.9994    1.0000 </r>
       <r>  -11.8659    1.0000 </r>
       <r>  -11.8477    1.0000 </r>
       <r>   -5.0533    1.0000 </r>
       <r>   -5.0368    1.0000 </r>
       <r>   -5.0280    1.0000 </r>
       <r>   -5.0053    1.0000 </r>
       <r>   -3.7094    1.0000 </r>
       <r>   -3.6440    1.0000 </r>
       <r>   -3.1733    1.0000 </r>
       <r>   -3.0921    1.0000 </r>
       <r>   -2.9620    1.0000 </r>
       <r>   -2.9200    1.0000 </r>
       <r>   -1.8637    1.0000 </r>
       <r>   -1.8149    1.0000 </r>
       <r>   -0.4244    1.0000 </r>
       <r>   -0.4113    1.0000 </r>
       <r>    1.9501   -0.0000 </r>
       <r>    2.0087   -0.0000 </r>
       <r>    2.8499   -0.0000 </r>
       <r>    2.9537    0.0000 </r>
       <r>    3.0705    0.0000 </r>
       <r>    3.1474    0.0000 </r>
       <r>    4.4769    0.0000 </r>
       <r>    4.5619    0.0000 </r>
       <r>    6.9834    0.0000 </r>
       <r>    7.2876    0.0000 </r>
       <r>    8.3271    0.0000 </r>
       <r>    8.5345    0.0000 </r>
      </set>
      <set comment="kpoint 32">
       <r>  -35.1136    1.0000 </r>
       <r>  -35.1049    1.0000 </r>
       <r>  -34.9889    1.0000 </r>
       <r>  -34.9802    1.0000 </r>
       <r>  -34.9187    1.0000 </r>
       <r>  -34.9100    1.0000 </r>
       <r>  -11.9122    1.0000 </r>
       <r>  -11.8990    1.0000 </r>
       <r>  -11.8192    1.0000 </r>
       <r>  -11.8052    1.0000 </r>
       <r>   -5.1965    1.0000 </r>
       <r>   -5.1854    1.0000 </r>
       <r>   -4.9873    1.0000 </r>
       <r>   -4.9648    1.0000 </r>
       <r>   -3.8763    1.0000 </r>
       <r>   -3.8073    1.0000 </r>
       <r>   -3.0515    1.0000 </r>
       <r>   -3.0253    1.0000 </r>
       <r>   -2.9883    1.0000 </r>
       <r>   -2.9655    1.0000 </r>
       <r>   -2.0487    1.0000 </r>
       <r>   -1.9907    1.0000 </r>
       <r>   -0.2528    1.0000 </r>
       <r>   -0.2330    1.0000 </r>
       <r>    1.8252   -0.0000 </r>
       <r>    1.8377   -0.0000 </r>
       <r>    3.0633    0.0000 </r>
       <r>    3.1243    0.0000 </r>
       <r>    3.1629    0.0000 </r>
       <r>    3.2344    0.0000 </r>
       <r>    4.5163    0.0000 </r>
       <r>    4.6042    0.0000 </r>
       <r>    6.6337    0.0000 </r>
       <r>    7.0164    0.0000 </r>
       <r>    8.2422    0.0000 </r>
       <r>    8.6312    0.0000 </r>
      </set>
      <set comment="kpoint 33">
       <r>  -35.1092    1.0000 </r>
       <r>  -35.1005    1.0000 </r>
       <r>  -34.9744    1.0000 </r>
       <r>  -34.9657    1.0000 </r>
       <r>  -34.9218    1.0000 </r>
       <r>  -34.9131    1.0000 </r>
       <r>  -12.0153    1.0000 </r>
       <r>  -12.0002    1.0000 </r>
       <r>  -11.8650    1.0000 </r>
       <r>  -11.8489    1.0000 </r>
       <r>   -5.0532    1.0000 </r>
       <r>   -5.0378    1.0000 </r>
       <r>   -5.0270    1.0000 </r>
       <r>   -5.0055    1.0000 </r>
       <r>   -3.7089    1.0000 </r>
       <r>   -3.6435    1.0000 </r>
       <r>   -3.1719    1.0000 </r>
       <r>   -3.0926    1.0000 </r>
       <r>   -2.9564    1.0000 </r>
       <r>   -2.9260    1.0000 </r>
       <r>   -1.8677    1.0000 </r>
       <r>   -1.8126    1.0000 </r>
       <r>   -0.4245    1.0000 </r>
       <r>   -0.4109    1.0000 </r>
       <r>    1.9497   -0.0000 </r>
       <r>    2.0088   -0.0000 </r>
       <r>    2.8526   -0.0000 </r>
       <r>    2.9512    0.0000 </r>
       <r>    3.0854    0.0000 </r>
       <r>    3.1310    0.0000 </r>
       <r>    4.4806    0.0000 </r>
       <r>    4.5573    0.0000 </r>
       <r>    6.9877    0.0000 </r>
       <r>    7.2955    0.0000 </r>
       <r>    8.3598    0.0000 </r>
       <r>    8.5410    0.0000 </r>
      </set>
      <set comment="kpoint 34">
       <r>  -35.0924    1.0000 </r>
       <r>  -35.0837    1.0000 </r>
       <r>  -34.9388    1.0000 </r>
       <r>  -34.9304    1.0000 </r>
       <r>  -34.9302    1.0000 </r>
       <r>  -34.9217    1.0000 </r>
       <r>  -12.2876    1.0000 </r>
       <r>  -12.2672    1.0000 </r>
       <r>  -11.9848    1.0000 </r>
       <r>  -11.9620    1.0000 </r>
       <r>   -5.0676    1.0000 </r>
       <r>   -5.0202    1.0000 </r>
       <r>   -4.6210    1.0000 </r>
       <r>   -4.6116    1.0000 </r>
       <r>   -3.6144    1.0000 </r>
       <r>   -3.5562    1.0000 </r>
       <r>   -3.3313    1.0000 </r>
       <r>   -3.2278    1.0000 </r>
       <r>   -2.6057    1.0000 </r>
       <r>   -2.5896    1.0000 </r>
       <r>   -1.5298    1.0000 </r>
       <r>   -1.4883    1.0000 </r>
       <r>   -0.6947    1.0000 </r>
       <r>   -0.6784    1.0000 </r>
       <r>    1.9770   -0.0000 </r>
       <r>    2.1914   -0.0000 </r>
       <r>    2.5237   -0.0000 </r>
       <r>    2.5353   -0.0000 </r>
       <r>    2.9287    0.0000 </r>
       <r>    3.0342    0.0000 </r>
       <r>    4.3786    0.0000 </r>
       <r>    4.4326    0.0000 </r>
       <r>    7.5949    0.0000 </r>
       <r>    7.7007    0.0000 </r>
       <r>    8.1014    0.0000 </r>
       <r>    8.2600    0.0000 </r>
      </set>
      <set comment="kpoint 35">
       <r>  -35.0599    1.0000 </r>
       <r>  -35.0512    1.0000 </r>
       <r>  -34.9425    1.0000 </r>
       <r>  -34.9338    1.0000 </r>
       <r>  -34.8973    1.0000 </r>
       <r>  -34.8886    1.0000 </r>
       <r>  -12.6414    1.0000 </r>
       <r>  -12.6161    1.0000 </r>
       <r>  -12.1375    1.0000 </r>
       <r>  -12.1070    1.0000 </r>
       <r>   -5.0074    1.0000 </r>
       <r>   -4.9383    1.0000 </r>
       <r>   -4.0912    1.0000 </r>
       <r>   -4.0638    1.0000 </r>
       <r>   -3.7474    1.0000 </r>
       <r>   -3.6842    1.0000 </r>
       <r>   -3.2996    1.0000 </r>
       <r>   -3.1992    1.0000 </r>
       <r>   -2.0770    1.0000 </r>
       <r>   -2.0616    1.0000 </r>
       <r>   -1.3134    1.0000 </r>
       <r>   -1.2412    1.0000 </r>
       <r>   -0.8399    1.0000 </r>
       <r>   -0.8277    1.0000 </r>
       <r>    1.8043   -0.0000 </r>
       <r>    2.0126   -0.0000 </r>
       <r>    2.3906   -0.0000 </r>
       <r>    2.4317   -0.0000 </r>
       <r>    2.7820   -0.0000 </r>
       <r>    2.9324    0.0000 </r>
       <r>    4.1950    0.0000 </r>
       <r>    4.2331    0.0000 </r>
       <r>    7.2404    0.0000 </r>
       <r>    7.3363    0.0000 </r>
       <r>    8.1991    0.0000 </r>
       <r>    8.2919    0.0000 </r>
      </set>
      <set comment="kpoint 36">
       <r>  -35.0153    1.0000 </r>
       <r>  -35.0066    1.0000 </r>
       <r>  -34.9554    1.0000 </r>
       <r>  -34.9466    1.0000 </r>
       <r>  -34.8630    1.0000 </r>
       <r>  -34.8543    1.0000 </r>
       <r>  -12.9861    1.0000 </r>
       <r>  -12.9575    1.0000 </r>
       <r>  -12.2834    1.0000 </r>
       <r>  -12.2457    1.0000 </r>
       <r>   -4.9672    1.0000 </r>
       <r>   -4.8533    1.0000 </r>
       <r>   -3.8375    1.0000 </r>
       <r>   -3.7852    1.0000 </r>
       <r>   -3.7148    1.0000 </r>
       <r>   -3.6304    1.0000 </r>
       <r>   -2.8570    1.0000 </r>
       <r>   -2.8179    1.0000 </r>
       <r>   -1.8000    1.0000 </r>
       <r>   -1.7884    1.0000 </r>
       <r>   -1.3370    1.0000 </r>
       <r>   -1.1965    1.0000 </r>
       <r>   -0.8427    1.0000 </r>
       <r>   -0.8191    1.0000 </r>
       <r>    1.8636   -0.0000 </r>
       <r>    2.0414   -0.0000 </r>
       <r>    2.2792   -0.0000 </r>
       <r>    2.3519   -0.0000 </r>
       <r>    2.7478   -0.0000 </r>
       <r>    2.9108    0.0000 </r>
       <r>    3.8840    0.0000 </r>
       <r>    3.9119    0.0000 </r>
       <r>    6.6761    0.0000 </r>
       <r>    6.7794    0.0000 </r>
       <r>    7.9389    0.0000 </r>
       <r>    8.5356    0.0000 </r>
      </set>
      <set comment="kpoint 37">
       <r>  -34.9684    1.0000 </r>
       <r>  -34.9660    1.0000 </r>
       <r>  -34.9597    1.0000 </r>
       <r>  -34.9572    1.0000 </r>
       <r>  -34.8443    1.0000 </r>
       <r>  -34.8356    1.0000 </r>
       <r>  -13.2523    1.0000 </r>
       <r>  -13.2218    1.0000 </r>
       <r>  -12.3941    1.0000 </r>
[...]
       <r>    -2.2260     1.3878    18.3610 </r>
       <r>    -2.0640     3.1445    18.8702 </r>
       <r>    -1.9021     3.5588    19.4466 </r>
       <r>    -1.7401     3.8202    20.0653 </r>
       <r>    -1.5781     2.9346    20.5406 </r>
       <r>    -1.4162     3.1496    21.0507 </r>
       <r>    -1.2542     1.7234    21.3298 </r>
       <r>    -1.0923     2.4068    21.7196 </r>
       <r>    -0.9303     1.7683    22.0060 </r>
       <r>    -0.7683     3.5330    22.5782 </r>
       <r>    -0.6064     2.9550    23.0568 </r>
       <r>    -0.4444     2.0949    23.3961 </r>
       <r>    -0.2825     1.9887    23.7182 </r>
       <r>    -0.1205     1.2162    23.9152 </r>
       <r>     0.0415     0.3447    23.9710 </r>
       <r>     0.2034     0.1848    24.0009 </r>
       <r>     0.3654    -0.0056    24.0000 </r>
       <r>     0.5273    -0.0001    24.0000 </r>
       <r>     0.6893    -0.0000    24.0000 </r>
       <r>     0.8512    -0.0000    24.0000 </r>
       <r>     1.0132    -0.0000    24.0000 </r>
       <r>     1.1752    -0.0000    24.0000 </r>
       <r>     1.3371    -0.0000    24.0000 </r>
       <r>     1.4991    -0.0062    23.9990 </r>
       <r>     1.6610     0.1224    24.0188 </r>
       <r>     1.8230     1.0033    24.1813 </r>
       <r>     1.9850     2.5240    24.5901 </r>
       <r>     2.1469     5.5896    25.4954 </r>
       <r>     2.3089     3.4664    26.0568 </r>
       <r>     2.4708     4.8619    26.8442 </r>
       <r>     2.6328     5.2183    27.6894 </r>
       <r>     2.7948     3.0542    28.1840 </r>
       <r>     2.9567     3.2781    28.7149 </r>
       <r>     3.1187     2.3039    29.0881 </r>
       <r>     3.2806     2.9543    29.5666 </r>
       <r>     3.4426     1.4205    29.7966 </r>
       <r>     3.6045     2.0667    30.1313 </r>
       <r>     3.7665     1.0727    30.3051 </r>
       <r>     3.9285     1.8500    30.6047 </r>
       <r>     4.0904     1.9207    30.9158 </r>
       <r>     4.2524     3.0980    31.4175 </r>
       <r>     4.4143     1.6782    31.6893 </r>
       <r>     4.5763     1.1757    31.8797 </r>
       <r>     4.7383     0.6604    31.9867 </r>
       <r>     4.9002     0.0864    32.0007 </r>
       <r>     5.0622    -0.0044    32.0000 </r>
       <r>     5.2241     0.0038    32.0006 </r>
       <r>     5.3861     0.1189    32.0198 </r>
       <r>     5.5480     0.3038    32.0690 </r>
       <r>     5.7100     0.3287    32.1223 </r>
       <r>     5.8720     0.5090    32.2047 </r>
       <r>     6.0339     0.2335    32.2425 </r>
       <r>     6.1959     0.9015    32.3885 </r>
       <r>     6.3578     0.7866    32.5159 </r>
       <r>     6.5198     1.0127    32.6799 </r>
       <r>     6.6818     1.1619    32.8681 </r>
       <r>     6.8437     1.7671    33.1543 </r>
       <r>     7.0057     1.2411    33.3553 </r>
       <r>     7.1676     1.1417    33.5402 </r>
       <r>     7.3296     2.2108    33.8983 </r>
       <r>     7.4916     1.1469    34.0840 </r>
       <r>     7.6535     1.0480    34.2538 </r>
       <r>     7.8155     1.4626    34.4906 </r>
       <r>     7.9774     1.5726    34.7453 </r>
       <r>     8.1394     2.3815    35.1310 </r>
       <r>     8.3013     1.6638    35.4005 </r>
       <r>     8.4633     1.5541    35.6522 </r>
       <r>     8.6253     1.1473    35.8380 </r>
       <r>     8.7872     0.5469    35.9266 </r>
       <r>     8.9492     0.2041    35.9596 </r>
       <r>     9.1111     0.2587    36.0015 </r>
       <r>     9.2731    -0.0093    36.0000 </r>
       <r>     9.4351    -0.0001    36.0000 </r>
       <r>     9.5970    -0.0000    36.0000 </r>
       <r>     9.7590    -0.0000    36.0000 </r>
       <r>     9.9209     0.0000    36.0000 </r>
       <r>    10.0829     0.0000    36.0000 </r>
       <r>    10.2448     0.0000    36.0000 </r>
       <r>    10.4068     0.0000    36.0000 </r>
       <r>    10.5688     0.0000    36.0000 </r>
       <r>    10.7307     0.0000    36.0000 </r>
       <r>    10.8927     0.0000    36.0000 </r>
       <r>    11.0546     0.0000    36.0000 </r>
       <r>    11.2166     0.0000    36.0000 </r>
      </set>
      <set comment="spin 2">
       <r>   -37.3710     0.0000     0.0000 </r>
       <r>   -37.2090     0.0000     0.0000 </r>
       <r>   -37.0471     0.0000     0.0000 </r>
       <r>   -36.8851     0.0000     0.0000 </r>
       <r>   -36.7232     0.0000     0.0000 </r>
       <r>   -36.5612     0.0000     0.0000 </r>
       <r>   -36.3992     0.0000     0.0000 </r>
       <r>   -36.2373     0.0000     0.0000 </r>
       <r>   -36.0753    -0.0000    -0.0000 </r>
       <r>   -35.9134    -0.0000    -0.0000 </r>
       <r>   -35.7514    -0.0000    -0.0000 </r>
       <r>   -35.5895    -0.0000    -0.0000 </r>
       <r>   -35.4275    -0.0008    -0.0001 </r>
       <r>   -35.2655    -0.1865    -0.0303 </r>
       <r>   -35.1036     4.0944     0.6328 </r>
       <r>   -34.9416    15.0653     3.0727 </r>
       <r>   -34.7797    18.0623     5.9981 </r>
       <r>   -34.6177     0.0397     6.0045 </r>
       <r>   -34.4557    -0.0279     6.0000 </r>
       <r>   -34.2938    -0.0000     6.0000 </r>
       <r>   -34.1318    -0.0000     6.0000 </r>
       <r>   -33.9699     0.0000     6.0000 </r>
       <r>   -33.8079     0.0000     6.0000 </r>
       <r>   -33.6459     0.0000     6.0000 </r>
       <r>   -33.4840     0.0000     6.0000 </r>
       <r>   -33.3220     0.0000     6.0000 </r>
       <r>   -33.1601     0.0000     6.0000 </r>
       <r>   -32.9981     0.0000     6.0000 </r>
       <r>   -32.8362     0.0000     6.0000 </r>
       <r>   -32.6742     0.0000     6.0000 </r>
       <r>   -32.5122     0.0000     6.0000 </r>
       <r>   -32.3503     0.0000     6.0000 </r>
       <r>   -32.1883     0.0000     6.0000 </r>
       <r>   -32.0264     0.0000     6.0000 </r>
       <r>   -31.8644     0.0000     6.0000 </r>
       <r>   -31.7024     0.0000     6.0000 </r>
       <r>   -31.5405     0.0000     6.0000 </r>
       <r>   -31.3785     0.0000     6.0000 </r>
       <r>   -31.2166     0.0000     6.0000 </r>
       <r>   -31.0546     0.0000     6.0000 </r>
       <r>   -30.8927     0.0000     6.0000 </r>
       <r>   -30.7307     0.0000     6.0000 </r>
       <r>   -30.5687     0.0000     6.0000 </r>
       <r>   -30.4068     0.0000     6.0000 </r>
       <r>   -30.2448     0.0000     6.0000 </r>
       <r>   -30.0829     0.0000     6.0000 </r>
       <r>   -29.9209     0.0000     6.0000 </r>
       <r>   -29.7589     0.0000     6.0000 </r>
       <r>   -29.5970     0.0000     6.0000 </r>
       <r>   -29.4350     0.0000     6.0000 </r>
       <r>   -29.2731     0.0000     6.0000 </r>
       <r>   -29.1111     0.0000     6.0000 </r>
       <r>   -28.9491     0.0000     6.0000 </r>
       <r>   -28.7872     0.0000     6.0000 </r>
       <r>   -28.6252     0.0000     6.0000 </r>
       <r>   -28.4633     0.0000     6.0000 </r>
       <r>   -28.3013     0.0000     6.0000 </r>
       <r>   -28.1394     0.0000     6.0000 </r>
       <r>   -27.9774     0.0000     6.0000 </r>
       <r>   -27.8154     0.0000     6.0000 </r>
       <r>   -27.6535     0.0000     6.0000 </r>
       <r>   -27.4915     0.0000     6.0000 </r>
       <r>   -27.3296     0.0000     6.0000 </r>
       <r>   -27.1676     0.0000     6.0000 </r>
       <r>   -27.0056     0.0000     6.0000 </r>
       <r>   -26.8437     0.0000     6.0000 </r>
       <r>   -26.6817     0.0000     6.0000 </r>
       <r>   -26.5198     0.0000     6.0000 </r>
       <r>   -26.3578     0.0000     6.0000 </r>
       <r>   -26.1959     0.0000     6.0000 </r>
       <r>   -26.0339     0.0000     6.0000 </r>
       <r>   -25.8719     0.0000     6.0000 </r>
       <r>   -25.7100     0.0000     6.0000 </r>
       <r>   -25.5480     0.0000     6.0000 </r>
       <r>   -25.3861     0.0000     6.0000 </r>
       <r>   -25.2241     0.0000     6.0000 </r>
       <r>   -25.0621     0.0000     6.0000 </r>
       <r>   -24.9002     0.0000     6.0000 </r>
       <r>   -24.7382     0.0000     6.0000 </r>
       <r>   -24.5763     0.0000     6.0000 </r>
       <r>   -24.4143     0.0000     6.0000 </r>
       <r>   -24.2523     0.0000     6.0000 </r>
       <r>   -24.0904     0.0000     6.0000 </r>
       <r>   -23.9284     0.0000     6.0000 </r>
       <r>   -23.7665     0.0000     6.0000 </r>
       <r>   -23.6045     0.0000     6.0000 </r>
       <r>   -23.4426     0.0000     6.0000 </r>
       <r>   -23.2806     0.0000     6.0000 </r>
       <r>   -23.1186     0.0000     6.0000 </r>
       <r>   -22.9567     0.0000     6.0000 </r>
       <r>   -22.7947     0.0000     6.0000 </r>
       <r>   -22.6328     0.0000     6.0000 </r>
       <r>   -22.4708     0.0000     6.0000 </r>
       <r>   -22.3088     0.0000     6.0000 </r>
       <r>   -22.1469     0.0000     6.0000 </r>
       <r>   -21.9849     0.0000     6.0000 </r>
       <r>   -21.8230     0.0000     6.0000 </r>
       <r>   -21.6610     0.0000     6.0000 </r>
       <r>   -21.4990     0.0000     6.0000 </r>
       <r>   -21.3371     0.0000     6.0000 </r>
       <r>   -21.1751     0.0000     6.0000 </r>
       <r>   -21.0132     0.0000     6.0000 </r>
       <r>   -20.8512     0.0000     6.0000 </r>
       <r>   -20.6893     0.0000     6.0000 </r>
       <r>   -20.5273     0.0000     6.0000 </r>
       <r>   -20.3653     0.0000     6.0000 </r>
       <r>   -20.2034     0.0000     6.0000 </r>
       <r>   -20.0414     0.0000     6.0000 </r>
       <r>   -19.8795     0.0000     6.0000 </r>
       <r>   -19.7175     0.0000     6.0000 </r>
       <r>   -19.5555     0.0000     6.0000 </r>
       <r>   -19.3936     0.0000     6.0000 </r>
       <r>   -19.2316     0.0000     6.0000 </r>
       <r>   -19.0697     0.0000     6.0000 </r>
       <r>   -18.9077     0.0000     6.0000 </r>
       <r>   -18.7458     0.0000     6.0000 </r>
       <r>   -18.5838     0.0000     6.0000 </r>
       <r>   -18.4218     0.0000     6.0000 </r>
       <r>   -18.2599     0.0000     6.0000 </r>
       <r>   -18.0979     0.0000     6.0000 </r>
       <r>   -17.9360     0.0000     6.0000 </r>
       <r>   -17.7740     0.0000     6.0000 </r>
       <r>   -17.6120     0.0000     6.0000 </r>
       <r>   -17.4501     0.0000     6.0000 </r>
       <r>   -17.2881     0.0000     6.0000 </r>
       <r>   -17.1262     0.0000     6.0000 </r>
       <r>   -16.9642     0.0000     6.0000 </r>
       <r>   -16.8022     0.0000     6.0000 </r>
       <r>   -16.6403     0.0000     6.0000 </r>
       <r>   -16.4783     0.0000     6.0000 </r>
       <r>   -16.3164     0.0000     6.0000 </r>
       <r>   -16.1544     0.0000     6.0000 </r>
       <r>   -15.9925     0.0000     6.0000 </r>
       <r>   -15.8305     0.0000     6.0000 </r>
       <r>   -15.6685     0.0000     6.0000 </r>
       <r>   -15.5066     0.0000     6.0000 </r>
       <r>   -15.3446     0.0000     6.0000 </r>
       <r>   -15.1827     0.0000     6.0000 </r>
       <r>   -15.0207     0.0000     6.0000 </r>
       <r>   -14.8587    -0.0000     6.0000 </r>
       <r>   -14.6968    -0.0000     6.0000 </r>
       <r>   -14.5348    -0.0000     6.0000 </r>
       <r>   -14.3729    -0.0000     6.0000 </r>
       <r>   -14.2109    -0.0001     6.0000 </r>
       <r>   -14.0490    -0.0066     5.9989 </r>
       <r>   -13.8870     0.1935     6.0303 </r>
       <r>   -13.7250     0.4348     6.1007 </r>
       <r>   -13.5631     0.7016     6.2143 </r>
       <r>   -13.4011     0.3520     6.2713 </r>
       <r>   -13.2392     0.8244     6.4048 </r>
       <r>   -13.0772     0.2686     6.4483 </r>
       <r>   -12.9152     1.1568     6.6357 </r>
       <r>   -12.7533     0.4134     6.7026 </r>
       <r>   -12.5913     1.4607     6.9392 </r>
       <r>   -12.4294     2.3725     7.3234 </r>
       <r>   -12.2674     2.5729     7.7402 </r>
       <r>   -12.1054     3.9046     8.3725 </r>
       <r>   -11.9435     5.4534     9.2558 </r>
       <r>   -11.7815     4.3457     9.9596 </r>
       <r>   -11.6196     0.2663    10.0027 </r>
       <r>   -11.4576    -0.0167    10.0000 </r>
       <r>   -11.2957    -0.0000    10.0000 </r>
       <r>   -11.1337    -0.0000    10.0000 </r>
       <r>   -10.9717     0.0000    10.0000 </r>
       <r>   -10.8098     0.0000    10.0000 </r>
       <r>   -10.6478     0.0000    10.0000 </r>
       <r>   -10.4859     0.0000    10.0000 </r>
       <r>   -10.3239     0.0000    10.0000 </r>
       <r>   -10.1619     0.0000    10.0000 </r>
       <r>   -10.0000     0.0000    10.0000 </r>
       <r>    -9.8380     0.0000    10.0000 </r>
       <r>    -9.6761     0.0000    10.0000 </r>
       <r>    -9.5141     0.0000    10.0000 </r>
       <r>    -9.3521     0.0000    10.0000 </r>
       <r>    -9.1902     0.0000    10.0000 </r>
       <r>    -9.0282     0.0000    10.0000 </r>
       <r>    -8.8663     0.0000    10.0000 </r>
       <r>    -8.7043     0.0000    10.0000 </r>
       <r>    -8.5424     0.0000    10.0000 </r>
       <r>    -8.3804     0.0000    10.0000 </r>
       <r>    -8.2184     0.0000    10.0000 </r>
       <r>    -8.0565     0.0000    10.0000 </r>
       <r>    -7.8945     0.0000    10.0000 </r>
       <r>    -7.7326     0.0000    10.0000 </r>
       <r>    -7.5706     0.0000    10.0000 </r>
       <r>    -7.4086     0.0000    10.0000 </r>
       <r>    -7.2467     0.0000    10.0000 </r>
       <r>    -7.0847     0.0000    10.0000 </r>
       <r>    -6.9228     0.0000    10.0000 </r>
       <r>    -6.7608     0.0000    10.0000 </r>
       <r>    -6.5989    -0.0000    10.0000 </r>
       <r>    -6.4369    -0.0000    10.0000 </r>
       <r>    -6.2749    -0.0000    10.0000 </r>
       <r>    -6.1130    -0.0000    10.0000 </r>
       <r>    -5.9510    -0.0000    10.0000 </r>
       <r>    -5.7891    -0.0187     9.9970 </r>
       <r>    -5.6271     0.4066    10.0628 </r>
       <r>    -5.4651     1.2563    10.2663 </r>
       <r>    -5.3032     2.0223    10.5938 </r>
       <r>    -5.1412     2.7482    11.0389 </r>
       <r>    -4.9793     4.5445    11.7749 </r>
       <r>    -4.8173     3.4342    12.3311 </r>
       <r>    -4.6553     1.9553    12.6478 </r>
       <r>    -4.4934     1.8156    12.9418 </r>
       <r>    -4.3314     0.3464    12.9980 </r>
       <r>    -4.1695     0.7803    13.1243 </r>
       <r>    -4.0075     1.3316    13.3400 </r>
       <r>    -3.8456     3.6831    13.9365 </r>
       <r>    -3.6836     5.3960    14.8104 </r>
       <r>    -3.5216     2.7641    15.2581 </r>
       <r>    -3.3597     1.2441    15.4596 </r>
       <r>    -3.1977     2.9808    15.9424 </r>
       <r>    -3.0358     5.6564    16.8585 </r>
       <r>    -2.8738     3.2070    17.3779 </r>
       <r>    -2.7118     1.8943    17.6847 </r>
       <r>    -2.5499     0.9002    17.8305 </r>
       <r>    -2.3879     1.8879    18.1362 </r>
       <r>    -2.2260     1.3878    18.3610 </r>
       <r>    -2.0640     3.1447    18.8703 </r>
       <r>    -1.9021     3.5592    19.4468 </r>
       <r>    -1.7401     3.8198    20.0654 </r>
       <r>    -1.5781     2.9348    20.5407 </r>
       <r>    -1.4162     3.1494    21.0508 </r>
       <r>    -1.2542     1.7234    21.3299 </r>
       <r>    -1.0923     2.4067    21.7197 </r>
       <r>    -0.9303     1.7687    22.0061 </r>
       <r>    -0.7683     3.5325    22.5783 </r>
       <r>    -0.6064     2.9551    23.0569 </r>
       <r>    -0.4444     2.0949    23.3961 </r>
       <r>    -0.2825     1.9887    23.7182 </r>
       <r>    -0.1205     1.2161    23.9152 </r>
       <r>     0.0415     0.3446    23.9710 </r>
       <r>     0.2034     0.1847    24.0009 </r>
       <r>     0.3654    -0.0056    24.0000 </r>
       <r>     0.5273    -0.0001    24.0000 </r>
       <r>     0.6893    -0.0000    24.0000 </r>
       <r>     0.8512    -0.0000    24.0000 </r>
       <r>     1.0132    -0.0000    24.0000 </r>
       <r>     1.1752    -0.0000    24.0000 </r>
       <r>     1.3371    -0.0000    24.0000 </r>
       <r>     1.4991    -0.0062    23.9990 </r>
       <r>     1.6610     0.1224    24.0188 </r>
       <r>     1.8230     1.0034    24.1813 </r>
       <r>     1.9850     2.5244    24.5902 </r>
       <r>     2.1469     5.5896    25.4955 </r>
       <r>     2.3089     3.4663    26.0569 </r>
       <r>     2.4708     4.8622    26.8443 </r>
       <r>     2.6328     5.2180    27.6894 </r>
       <r>     2.7948     3.0542    28.1841 </r>
       <r>     2.9567     3.2781    28.7150 </r>
       <r>     3.1187     2.3041    29.0882 </r>
       <r>     3.2806     2.9540    29.5666 </r>
       <r>     3.4426     1.4204    29.7967 </r>
       <r>     3.6045     2.0667    30.1314 </r>
       <r>     3.7665     1.0726    30.3051 </r>
       <r>     3.9285     1.8503    30.6047 </r>
       <r>     4.0904     1.9208    30.9158 </r>
       <r>     4.2524     3.0979    31.4176 </r>
       <r>     4.4143     1.6780    31.6893 </r>
       <r>     4.5763     1.1757    31.8797 </r>
       <r>     4.7383     0.6603    31.9867 </r>
       <r>     4.9002     0.0863    32.0007 </r>
       <r>     5.0622    -0.0042    32.0000 </r>
       <r>     5.2241     0.0005    32.0001 </r>
       <r>     5.3861     0.0958    32.0156 </r>
       <r>     5.5480     0.3144    32.0665 </r>
       <r>     5.7100     0.3150    32.1175 </r>
       <r>     5.8720     0.5186    32.2015 </r>
       <r>     6.0339     0.2278    32.2384 </r>
       <r>     6.1959     0.8879    32.3822 </r>
       <r>     6.3578     0.7965    32.5112 </r>
       <r>     6.5198     1.0273    32.6775 </r>
       <r>     6.6818     1.0730    32.8513 </r>
       <r>     6.8437     1.8440    33.1500 </r>
       <r>     7.0057     1.0337    33.3174 </r>
       <r>     7.1676     1.1673    33.5065 </r>
       <r>     7.3296     2.2389    33.8691 </r>
       <r>     7.4916     1.3353    34.0853 </r>
       <r>     7.6535     0.9097    34.2327 </r>
       <r>     7.8155     1.6246    34.4958 </r>
       <r>     7.9774     1.4152    34.7250 </r>
       <r>     8.1394     2.0774    35.0614 </r>
       <r>     8.3013     2.2887    35.4321 </r>
       <r>     8.4633     0.9483    35.5857 </r>
       <r>     8.6253     1.2492    35.7880 </r>
       <r>     8.7872     0.7710    35.9129 </r>
       <r>     8.9492     0.3747    35.9736 </r>
       <r>     9.1111     0.1690    36.0009 </r>
       <r>     9.2731    -0.0057    36.0000 </r>
       <r>     9.4351    -0.0001    36.0000 </r>
       <r>     9.5970    -0.0000    36.0000 </r>
       <r>     9.7590    -0.0000    36.0000 </r>
       <r>     9.9209     0.0000    36.0000 </r>
       <r>    10.0829     0.0000    36.0000 </r>
       <r>    10.2448     0.0000    36.0000 </r>
       <r>    10.4068     0.0000    36.0000 </r>
       <r>    10.5688     0.0000    36.0000 </r>
       <r>    10.7307     0.0000    36.0000 </r>
       <r>    10.8927     0.0000    36.0000 </r>
       <r>    11.0546     0.0000    36.0000 </r>
       <r>    11.2166     0.0000    36.0000 </r>
      </set>
     </set>
    </array>
   </total>
  </dos>
 </calculation>
 <structure name="finalpos" >
  <crystal>
   <varray name="basis" >
    <v>       3.19031700       0.00000000       0.00000000 </v>
    <v>      -1.59515800       2.76289700       0.00000000 </v>
    <v>       0.00000000       0.00000000      23.14049200 </v>
   </varray>
   <i name="volume">    203.97226633 </i>
   <varray name="rec_basis" >
    <v>       0.31344848       0.18096941       0.00000000 </v>
    <v>       0.00000000       0.36193894       0.00000000 </v>
    <v>       0.00000000       0.00000000       0.04321429 </v>
   </varray>
  </crystal>
  <varray name="positions" >
   <v>       0.66666700       0.33333300       0.06785900 </v>
   <v>       0.33333300       0.66666700       0.00000000 </v>
   <v>       0.33333300       0.66666700       0.13571500 </v>
   <v>       0.95238100       0.04761900       0.36562700 </v>
   <v>       0.61904700       0.38095300       0.29776900 </v>
   <v>       0.61904700       0.38095300       0.43348300 </v>
  </varray>
 </structure>
</modeling>
