 vasp.5.3.5 31Mar14 (build Oct 29 2014 16:16:03) complex                        
  
 executed on          Linux-UFHPC date 2016.02.09  18:44:33
 running on    8 total cores
 distrk:  each k-point on    8 cores,    1 groups
 distr:  one band on NCORES_PER_BAND=   2 cores,    4 groups


--------------------------------------------------------------------------------------------------------


 INCAR:
 POTCAR:    PAW_PBE P 17Jan2003                   
 POTCAR:   PAW_PBE Si 05Jan2001                   

 ----------------------------------------------------------------------------- 
|                                                                             |
|  ADVICE TO THIS USER RUNNING 'VASP/VAMP'   (HEAR YOUR MASTER'S VOICE ...):  |
|                                                                             |
|      You have switched on vdW-DFT.                                          |
|      This routine was written and supplied by Jiri Klimes.                  |
|      We recommed that you carefully read and cite the following             |
|      publication                                                            |
|      J. Klimes, D.R. Bowler, A. Michelides                                  |
|        J. Phys.: Cond Matt. 22 022201 (2010)                                |
|      J. Klimes, D.R. Bowler, A. Michelides                                  |
|        Phys. Rev. B. 83, 195131 (2011)                                      |
|      and references therein.                                                |
|                                                                             |
 ----------------------------------------------------------------------------- 

 POTCAR:    PAW_PBE P 17Jan2003                   
   VRHFIN =P : s2p3                                                             
   LEXCH  = PE                                                                  
   EATOM  =   176.0430 eV,   12.9388 Ry                                         
                                                                                
   TITEL  = PAW_PBE P 17Jan2003                                                 
   LULTRA =        F    use ultrasoft PP ?                                      
   IUNSCR =        1    unscreen: 0-lin 1-nonlin 2-no                           
   RPACOR =    1.500    partial core radius                                     
   POMASS =   30.974; ZVAL   =    5.000    mass and valenz                      
   RCORE  =    1.900    outmost cutoff radius                                   
   RWIGS  =    2.330; RWIGS  =    1.233    wigner-seitz radius (au A)           
   ENMAX  =  270.000; ENMIN  =  191.280 eV                                      
   ICORE  =        2    local potential                                         
   LCOR   =        T    correct aug charges                                     
   LPAW   =        T    paw PP                                                  
   EAUG   =  342.924                                                            
   DEXC   =    -.002                                                            
   RMAX   =    2.887    core radius for proj-oper                               
   RAUG   =    1.300    factor for augmentation sphere                          
   RDEP   =    1.931    radius for radial grids                                 
   QCUT   =   -4.330; QGAM   =    8.659    optimization parameters              
                                                                                
   Description                                                                  
     l     E      TYP  RCUT    TYP  RCUT                                        
     0   .000     23  1.900                                                     
     0   .000     23  1.900                                                     
     1   .000     23  1.900                                                     
     1   .000     23  1.900                                                     
     2   .000     23  1.900                                                     
  local pseudopotential read in
  partial core-charges read in
  atomic valenz-charges read in
  non local Contribution for L=           0  read in
    real space projection operators read in
  non local Contribution for L=           0  read in
    real space projection operators read in
  non local Contribution for L=           1  read in
    real space projection operators read in
  non local Contribution for L=           1  read in
    real space projection operators read in
    PAW grid and wavefunctions read in
 
   number of l-projection  operators is LMAX  =           4
   number of lm-projection operators is LMMAX =           8
 
 POTCAR:   PAW_PBE Si 05Jan2001                   
   VRHFIN =Si: s2p2                                                             
   LEXCH  = PE                                                                  
   EATOM  =   103.0669 eV,    7.5752 Ry                                         
                                                                                
   TITEL  = PAW_PBE Si 05Jan2001                                                
   LULTRA =        F    use ultrasoft PP ?                                      
   IUNSCR =        1    unscreen: 0-lin 1-nonlin 2-no                           
   RPACOR =    1.500    partial core radius                                     
   POMASS =   28.085; ZVAL   =    4.000    mass and valenz                      
   RCORE  =    1.900    outmost cutoff radius                                   
   RWIGS  =    2.480; RWIGS  =    1.312    wigner-seitz radius (au A)           
   ENMAX  =  245.345; ENMIN  =  184.009 eV                                      
   ICORE  =        2    local potential                                         
   LCOR   =        T    correct aug charges                                     
   LPAW   =        T    paw PP                                                  
   EAUG   =  322.069                                                            
   DEXC   =    -.007                                                            
   RMAX   =    2.944    core radius for proj-oper                               
   RAUG   =    1.300    factor for augmentation sphere                          
   RDEP   =    1.993    radius for radial grids                                 
   QCUT   =   -4.246; QGAM   =    8.493    optimization parameters              
                                                                                
   Description                                                                  
     l     E      TYP  RCUT    TYP  RCUT                                        
     0   .000     23  1.900                                                     
     0   .000     23  1.900                                                     
     1   .000     23  1.900                                                     
     1   .000     23  1.900                                                     
     2   .000      7  1.900                                                     
  local pseudopotential read in
  partial core-charges read in
  atomic valenz-charges read in
  non local Contribution for L=           0  read in
    real space projection operators read in
  non local Contribution for L=           0  read in
    real space projection operators read in
  non local Contribution for L=           1  read in
    real space projection operators read in
  non local Contribution for L=           1  read in
    real space projection operators read in
    PAW grid and wavefunctions read in
 
   number of l-projection  operators is LMAX  =           4
   number of lm-projection operators is LMMAX =           8
 
 Optimization of the real space projectors (new method)

 maximal supplied QI-value         = 19.84
 optimisation between [QCUT,QGAM] = [  8.73, 17.66] = [ 21.34, 87.33] Ry 
 Optimized for a Real-space Cutoff    1.50 Angstroem

   l    n(q)    QCUT    max X(q) W(low)/X(q) W(high)/X(q)  e(spline) 
   0      8     8.731     6.651    0.16E-04    0.15E-04    0.77E-08
   0      8     8.731    90.285    0.16E-03    0.90E-04    0.16E-06
   1      7     8.731     4.328    0.47E-04    0.36E-04    0.45E-07
   1      7     8.731    54.583    0.13E-03    0.39E-03    0.20E-06
 Optimization of the real space projectors (new method)

 maximal supplied QI-value         = 19.84
 optimisation between [QCUT,QGAM] = [  8.73, 17.66] = [ 21.34, 87.33] Ry 
 Optimized for a Real-space Cutoff    1.46 Angstroem

   l    n(q)    QCUT    max X(q) W(low)/X(q) W(high)/X(q)  e(spline) 
   0      8     8.731     8.708    0.16E-04    0.11E-04    0.68E-08
   0      8     8.731   106.241    0.24E-03    0.77E-04    0.13E-06
   1      7     8.731     5.901    0.34E-04    0.38E-04    0.36E-07
   1      7     8.731    73.241    0.12E-03    0.39E-03    0.15E-06

 ----------------------------------------------------------------------------- 
|                                                                             |
|  ADVICE TO THIS USER RUNNING 'VASP/VAMP'   (HEAR YOUR MASTER'S VOICE ...):  |
|                                                                             |
|      You enforced a specific xc-type in the INCAR file,                     |
|      a different type was found on the POTCAR file                          |
|          I HOPE YOU KNOW, WHAT YOU ARE  DOING                               |
|                                                                             |
 ----------------------------------------------------------------------------- 

  PAW_PBE P 17Jan2003                   :
 energy of atom  1       EATOM= -176.0430
 kinetic energy error for atom=    0.0040 (will be added to EATOM!!)
 PAW_PBE Si 05Jan2001                   :
 energy of atom  2       EATOM= -103.0669
 kinetic energy error for atom=    0.0021 (will be added to EATOM!!)
 
 
 POSCAR: Si12                                    
  positions in direct lattice
  No initial velocities read in
 exchange correlation table for  LEXCH =       42
   RHO(1)=    0.500       N(1)  =     2000
   RHO(2)=  100.500       N(2)  =     4000
 


--------------------------------------------------------------------------------------------------------


 ion  position               nearest neighbor table
   1  0.114  0.228  0.233-  15 2.28  21 2.29  21 2.29
   2  0.914  0.028  0.515-  16 2.28  22 2.29  22 2.29
   3  0.458  0.916  0.209-  21 2.28  13 2.30  13 2.30
   4  0.258  0.716  0.491-  22 2.28  14 2.30  14 2.30
   5  0.311  0.622  0.084-  17 2.28  23 2.30  23 2.30
   6  0.311  0.622  0.366-  18 2.28  14 2.54  24 2.62  14 3.00
   7  0.999  0.998  0.086-  19 2.29  19 2.29  13 2.32
   8  0.999  0.998  0.368-  20 2.29  20 2.29
   9  0.655  0.310  0.060-  19 2.28  17 2.29  17 2.29
  10  0.655  0.310  0.342-  20 2.28  18 2.29  18 2.29  24 2.60
  11  0.770  0.539  0.207-  15 2.29  15 2.29  23 2.32
  12  0.570  0.339  0.489-  16 2.29  16 2.29  24 2.32
  13  0.940  0.879  0.158-   3 2.30   3 2.30   7 2.32  23 2.35
  14  0.740  0.679  0.440-   4 2.30   4 2.30  24 2.35   6 2.54   6 3.00
  15  0.205  0.410  0.186-   1 2.28  11 2.29  11 2.29  17 2.37
  16  0.005  0.210  0.468-   2 2.28  12 2.29  12 2.29  20 2.71  18 3.11  20 3.14
  17  0.202  0.404  0.100-   5 2.28   9 2.29   9 2.29  15 2.37
  18  0.202  0.404  0.382-  24 1.82   6 2.28  10 2.29  10 2.29  24 2.41  16 3.11
  19  0.564  0.128  0.108-   9 2.28   7 2.29   7 2.29  21 2.37
  20  0.564  0.128  0.390-  10 2.28   8 2.29   8 2.29  16 2.71  22 3.11  16 3.14
  21  0.567  0.134  0.194-   3 2.28   1 2.29   1 2.29  19 2.37
  22  0.367  0.934  0.476-   4 2.28   2 2.29   2 2.29  20 3.11
  23  0.829  0.658  0.136-   5 2.30   5 2.30  11 2.32  13 2.35
  24  0.629  0.458  0.418-  18 1.82  12 2.32  14 2.35  18 2.41  10 2.60   6 2.62
 
  LATTYP: Found a base centered orthorhombic cell.
 ALAT       =     3.5404000000
 B/A-ratio  =     5.8153587165
 C/A-ratio  =     7.7678875268
  
  Lattice vectors:
  
 A1 = (   1.7702000000,  10.2943480000,   0.0000000000)
 A2 = (   1.7702000000, -10.2943480000,   0.0000000000)
 A3 = (   0.0000000000,   0.0000000000, -27.5014290000)


Analysis of symmetry for initial positions (statically):
=====================================================================
 Subroutine PRICEL returns:
 Original cell was already a primitive cell.
 

 Routine SETGRP: Setting up the symmetry group for a 
 base centered orthorhombic supercell.


 Subroutine GETGRP returns: Found  1 space group operations
 (whereof  1 operations were pure point group operations)
 out of a pool of  8 trial point group operations.


The static configuration has the point symmetry C_1 .


Analysis of symmetry for dynamics (positions and initial velocities):
=====================================================================
 Subroutine PRICEL returns:
 Original cell was already a primitive cell.
 

 Routine SETGRP: Setting up the symmetry group for a 
 base centered orthorhombic supercell.


 Subroutine GETGRP returns: Found  1 space group operations
 (whereof  1 operations were pure point group operations)
 out of a pool of  8 trial point group operations.


The dynamic configuration has the point symmetry C_1 .
 
 
 KPOINTS: pymatgen generated KPOINTS with grid den

Automatic generation of k-mesh.
Space group operators:
 irot       det(A)        alpha          n_x          n_y          n_z        tau_x        tau_y        tau_z
    1     1.000000     0.000000     1.000000     0.000000     0.000000     0.000000     0.000000     0.000000
 
 Subroutine IBZKPT returns following result:
 ===========================================
 
 Found     54 irreducible k-points:
 
 Following reciprocal coordinates:
            Coordinates               Weight
  0.000000  0.000000  0.000000      1.000000
  0.076923 -0.000000  0.000000      2.000000
  0.153846 -0.000000  0.000000      2.000000
  0.230769 -0.000000  0.000000      2.000000
  0.307692 -0.000000  0.000000      2.000000
  0.384615 -0.000000  0.000000      2.000000
  0.461538 -0.000000  0.000000      2.000000
  0.000000  0.250000  0.000000      2.000000
  0.076923  0.250000  0.000000      2.000000
  0.153846  0.250000  0.000000      2.000000
  0.230769  0.250000  0.000000      2.000000
  0.307692  0.250000  0.000000      2.000000
  0.384615  0.250000  0.000000      2.000000
  0.461538  0.250000  0.000000      2.000000
 -0.461538  0.250000  0.000000      2.000000
 -0.384615  0.250000  0.000000      2.000000
 -0.307692  0.250000  0.000000      2.000000
 -0.230769  0.250000  0.000000      2.000000
 -0.153846  0.250000  0.000000      2.000000
 -0.076923  0.250000  0.000000      2.000000
  0.000000  0.500000  0.000000      1.000000
  0.076923  0.500000  0.000000      2.000000
  0.153846  0.500000  0.000000      2.000000
  0.230769  0.500000  0.000000      2.000000
  0.307692  0.500000  0.000000      2.000000
  0.384615  0.500000  0.000000      2.000000
  0.461538  0.500000  0.000000      2.000000
  0.000000  0.000000  0.500000      1.000000
  0.076923 -0.000000  0.500000      2.000000
  0.153846 -0.000000  0.500000      2.000000
  0.230769 -0.000000  0.500000      2.000000
  0.307692 -0.000000  0.500000      2.000000
  0.384615 -0.000000  0.500000      2.000000
  0.461538 -0.000000  0.500000      2.000000
  0.000000  0.250000  0.500000      2.000000
  0.076923  0.250000  0.500000      2.000000
  0.153846  0.250000  0.500000      2.000000
  0.230769  0.250000  0.500000      2.000000
  0.307692  0.250000  0.500000      2.000000
  0.384615  0.250000  0.500000      2.000000
  0.461538  0.250000  0.500000      2.000000
 -0.461538  0.250000  0.500000      2.000000
 -0.384615  0.250000  0.500000      2.000000
 -0.307692  0.250000  0.500000      2.000000
 -0.230769  0.250000  0.500000      2.000000
 -0.153846  0.250000  0.500000      2.000000
 -0.076923  0.250000  0.500000      2.000000
  0.000000  0.500000  0.500000      1.000000
  0.076923  0.500000  0.500000      2.000000
  0.153846  0.500000  0.500000      2.000000
  0.230769  0.500000  0.500000      2.000000
  0.307692  0.500000  0.500000      2.000000
  0.384615  0.500000  0.500000      2.000000
  0.461538  0.500000  0.500000      2.000000
 
 Following cartesian coordinates:
            Coordinates               Weight
  0.000000  0.000000  0.000000      1.000000
  0.021727  0.003736  0.000000      2.000000
  0.043454  0.007472  0.000000      2.000000
  0.065182  0.011209  0.000000      2.000000
  0.086909  0.014945  0.000000      2.000000
  0.108636  0.018681  0.000000      2.000000
  0.130363  0.022417  0.000000      2.000000
  0.000000  0.024285  0.000000      2.000000
  0.021727  0.028021  0.000000      2.000000
  0.043454  0.031758  0.000000      2.000000
  0.065182  0.035494  0.000000      2.000000
  0.086909  0.039230  0.000000      2.000000
  0.108636  0.042966  0.000000      2.000000
  0.130363  0.046702  0.000000      2.000000
 -0.130363  0.001868  0.000000      2.000000
 -0.108636  0.005604  0.000000      2.000000
 -0.086909  0.009340  0.000000      2.000000
 -0.065182  0.013077  0.000000      2.000000
 -0.043454  0.016813  0.000000      2.000000
 -0.021727  0.020549  0.000000      2.000000
  0.000000  0.048570  0.000000      1.000000
  0.021727  0.052307  0.000000      2.000000
  0.043454  0.056043  0.000000      2.000000
  0.065182  0.059779  0.000000      2.000000
  0.086909  0.063515  0.000000      2.000000
  0.108636  0.067251  0.000000      2.000000
  0.130363  0.070987  0.000000      2.000000
  0.000000  0.000000  0.018181      1.000000
  0.021727  0.003736  0.018181      2.000000
  0.043454  0.007472  0.018181      2.000000
  0.065182  0.011209  0.018181      2.000000
  0.086909  0.014945  0.018181      2.000000
  0.108636  0.018681  0.018181      2.000000
  0.130363  0.022417  0.018181      2.000000
  0.000000  0.024285  0.018181      2.000000
  0.021727  0.028021  0.018181      2.000000
  0.043454  0.031758  0.018181      2.000000
  0.065182  0.035494  0.018181      2.000000
  0.086909  0.039230  0.018181      2.000000
  0.108636  0.042966  0.018181      2.000000
  0.130363  0.046702  0.018181      2.000000
 -0.130363  0.001868  0.018181      2.000000
 -0.108636  0.005604  0.018181      2.000000
 -0.086909  0.009340  0.018181      2.000000
 -0.065182  0.013077  0.018181      2.000000
 -0.043454  0.016813  0.018181      2.000000
 -0.021727  0.020549  0.018181      2.000000
  0.000000  0.048570  0.018181      1.000000
  0.021727  0.052307  0.018181      2.000000
  0.043454  0.056043  0.018181      2.000000
  0.065182  0.059779  0.018181      2.000000
  0.086909  0.063515  0.018181      2.000000
  0.108636  0.067251  0.018181      2.000000
  0.130363  0.070987  0.018181      2.000000
 


--------------------------------------------------------------------------------------------------------




 Dimension of arrays:
   k-points           NKPTS =     54   k-points in BZ     NKDIM =     54   number of bands    NBANDS=     68
   number of dos      NEDOS =    301   number of ions     NIONS =     24
   non local maximal  LDIM  =      4   non local SUM 2l+1 LMDIM =      8
   total plane-waves  NPLWV = 192000
   max r-space proj   IRMAX =   2772   max aug-charges    IRDMAX=   6603
   dimension x,y,z NGX =    20 NGY =   60 NGZ =  160
   dimension x,y,z NGXF=    40 NGYF=  120 NGZF=  320
   support grid    NGXF=    40 NGYF=  120 NGZF=  320
   ions per type =              12  12
 NGX,Y,Z   is equivalent  to a cutoff of   9.39,  9.55,  9.67 a.u.
 NGXF,Y,Z  is equivalent  to a cutoff of  18.78, 19.10, 19.34 a.u.


 I would recommend the setting:
   dimension x,y,z NGX =    20 NGY =   59 NGZ =  155
 SYSTEM =  unknown system                          
 POSCAR =  Si12                                    

 Startparameter for this run:
   NWRITE =      2    write-flag & timer
   PREC   = accura    normal or accurate (medium, high low for compatibility)
   ISTART =      0    job   : 0-new  1-cont  2-samecut
   ICHARG =      2    charge: 1-file 2-atom 10-const
   ISPIN  =      1    spin polarized calculation?
   LNONCOLLINEAR =      F non collinear calculations
   LSORBIT =      F    spin-orbit coupling
   INIWAV =      1    electr: 0-lowe 1-rand  2-diag
   LASPH  =      F    aspherical Exc in radial PAW
   METAGGA=      F    non-selfconsistent MetaGGA calc.

 Electronic Relaxation 1
   ENCUT  =  300.0 eV  22.05 Ry    4.70 a.u.   5.00 14.75 38.84*2*pi/ulx,y,z
   ENINI  =  300.0     initial cutoff
   ENAUG  =  342.9 eV  augmentation charge cutoff
   NELM   =     60;   NELMIN=  2; NELMDL= -5     # of ELM steps 
   EDIFF  = 0.1E-05   stopping-criterion for ELM
   LREAL  =      T    real-space projection
   NLSPLINE    = F    spline interpolate recip. space projectors
   LCOMPAT=      F    compatible to vasp.4.4
   GGA_COMPAT  = T    GGA compatible to vasp.4.4-vasp.4.6
   LMAXPAW     = -100 max onsite density
   LMAXMIX     =    2 max onsite mixed and CHGCAR
   VOSKOWN=      0    Vosko Wilk Nusair interpolation
   ROPT   =   -0.00025  -0.00025
 Ionic relaxation
   EDIFFG = 0.1E-04   stopping-criterion for IOM
   NSW    =      0    number of steps for IOM
   NBLOCK =      1;   KBLOCK =      1    inner block; outer block 
   IBRION =     -1    ionic relax: 0-MD 1-quasi-New 2-CG
   NFREE  =      1    steps in history (QN), initial steepest desc. (CG)
   ISIF   =      3    stress and relaxation
   IWAVPR =     10    prediction:  0-non 1-charg 2-wave 3-comb
   ISYM   =      2    0-nonsym 1-usesym 2-fastsym
   LCORR  =      T    Harris-Foulkes like correction to forces

   POTIM  = 0.5000    time-step for ionic-motion
   TEIN   =    0.0    initial temperature
   TEBEG  =    0.0;   TEEND  =   0.0 temperature during run
   SMASS  =  -3.00    Nose mass-parameter (am)
   estimated Nose-frequenzy (Omega)   =  0.10E-29 period in steps =****** mass=  -0.286E-27a.u.
   SCALEE = 1.0000    scale energy and forces
   NPACO  =    256;   APACO  = 16.0  distance and # of slots for P.C.
   PSTRESS=    0.0 pullay stress

  Mass of Ions in am
   POMASS =  30.97 28.09
  Ionic Valenz
   ZVAL   =   5.00  4.00
  Atomic Wigner-Seitz radii
   RWIGS  =  -1.00 -1.00
  virtual crystal weights 
   VCA    =   1.00  1.00
   NELECT =     108.0000    total number of electrons
   NUPDOWN=      -1.0000    fix difference up-down

 DOS related values:
   EMIN   =  10.00;   EMAX   =-10.00  energy-range for DOS
   EFERMI =   0.00
   ISMEAR =     0;   SIGMA  =   0.10  broadening in eV -4-tet -1-fermi 0-gaus

 Electronic relaxation 2 (details)
   IALGO  =     38    algorithm
   LDIAG  =      T    sub-space diagonalisation (order eigenvalues)
   LSUBROT=      F    optimize rotation matrix (better conditioning)
   TURBO    =      0    0=normal 1=particle mesh
   IRESTART =      0    0=no restart 2=restart with 2 vectors
   NREBOOT  =      0    no. of reboots
   NMIN     =      0    reboot dimension
   EREF     =   0.00    reference energy to select bands
   IMIX   =      4    mixing-type and parameters
     AMIX     =   0.40;   BMIX     =  1.00
     AMIX_MAG =   1.60;   BMIX_MAG =  1.00
     AMIN     =   0.10
     WC   =   100.;   INIMIX=   1;  MIXPRE=   1;  MAXMIX= -45

 Intra band minimization:
   WEIMIN = 0.0000     energy-eigenvalue tresh-hold
   EBREAK =  0.37E-08  absolut break condition
   DEPER  =   0.30     relativ break condition  

   TIME   =   0.40     timestep for ELM

  volume/ion in A,a.u.               =      41.76       281.83
  Fermi-wavevector in a.u.,A,eV,Ry     =   0.779018  1.472130  8.256946  0.606868
  Thomas-Fermi vector in A             =   1.882034
 
 Write flags
   LWAVE  =      F    write WAVECAR
   LCHARG =      F    write CHGCAR
   LVTOT  =      F    write LOCPOT, total local potential
   LVHAR  =      F    write LOCPOT, Hartree potential only
   LELF   =      F    write electronic localiz. function (ELF)
   LORBIT =      0    0 simple, 1 ext, 2 COOP (PROOUT)


 Dipole corrections
   LMONO  =      F    monopole corrections only (constant potential shift)
   LDIPOL =      F    correct potential (dipole corrections)
   IDIPOL =      0    1-x, 2-y, 3-z, 4-all directions 
   EPSILON=  1.0000000 bulk dielectric constant

 Exchange correlation treatment:
   GGA     =    BO    GGA type
   LEXCH   =    42    internal setting for exchange type
   VOSKOWN=      0    Vosko Wilk Nusair interpolation
   LHFCALC =     F    Hartree Fock is set to
   LHFONE  =     F    Hartree Fock one center treatment
   AEXX    =    0.0000 exact exchange contribution

 vdW DFT:
   LUSE_VDW   =     T    switch on vdW DFT
   Zab_VDW    =-.8491    correlation parameter
   PARAM1     =0.1833
   PARAM2     =0.2200
   PARAM3     =0.0000

 Linear response parameters
   LEPSILON=     F    determine dielectric tensor
   LRPA    =     F    only Hartree local field effects (RPA)
   LNABLA  =     F    use nabla operator in PAW spheres
   LVEL    =     F    velocity operator in full k-point grid
   LINTERFAST=   F  fast interpolation
   KINTER  =     0    interpolate to denser k-point grid
   CSHIFT  =0.1000    complex shift for real part using Kramers Kronig
   OMEGAMAX=  -1.0    maximum frequency
   DEG_THRESHOLD= 0.2000000E-02 threshold for treating states as degnerate
   RTIME   =    0.100 relaxation time in fs

 Orbital magnetization related:
   ORBITALMAG=     F  switch on orbital magnetization
   LCHIMAG   =     F  perturbation theory with respect to B field
   DQ        =  0.001000  dq finite difference perturbation B field



--------------------------------------------------------------------------------------------------------


 Static calculation
 charge density and potential will be updated during run
 non-spin polarized calculation
 Variant of blocked Davidson
 Davidson routine will perform the subspace rotation
 perform sub-space diagonalisation
    after iterative eigenvector-optimisation
 modified Broyden-mixing scheme, WC =      100.0
 initial mixing is a Kerker type mixing with AMIX =  0.4000 and BMIX =      1.0000
 Hartree-type preconditioning will be used
 using additional bands           14
 real space projection scheme for non local part
 use partial core corrections
 calculate Harris-corrections to forces 
   (improved forces if not selfconsistent)
 use gradient corrections 
 use of overlap-Matrix (Vanderbilt PP)
 Gauss-broadening in eV      SIGMA  =   0.10


--------------------------------------------------------------------------------------------------------


  energy-cutoff  :      300.00
  volume of cell :     1002.32
      direct lattice vectors                 reciprocal lattice vectors
     3.540400000  0.000000000  0.000000000     0.282453960  0.048570342  0.000000000
    -1.770200000 10.294348000  0.000000000     0.000000000  0.097140683  0.000000000
     0.000000000  0.000000000 27.501429000     0.000000000  0.000000000  0.036361747

  length of vectors
     3.540400000 10.445439617 27.501429000     0.286599577  0.097140683  0.036361747


 
 k-points in units of 2pi/SCALE and weight: pymatgen generated KPOINTS with grid den
   0.00000000  0.00000000  0.00000000       0.010
   0.02172723  0.00373618  0.00000000       0.019
   0.04345446  0.00747236  0.00000000       0.019
   0.06518168  0.01120854  0.00000000       0.019
   0.08690891  0.01494472  0.00000000       0.019
   0.10863614  0.01868090  0.00000000       0.019
   0.13036337  0.02241708  0.00000000       0.019
   0.00000000  0.02428517  0.00000000       0.019
   0.02172723  0.02802135  0.00000000       0.019
   0.04345446  0.03175753  0.00000000       0.019
   0.06518168  0.03549371  0.00000000       0.019
   0.08690891  0.03922989  0.00000000       0.019
   0.10863614  0.04296607  0.00000000       0.019
   0.13036337  0.04670225  0.00000000       0.019
  -0.13036337  0.00186809  0.00000000       0.019
  -0.10863614  0.00560427  0.00000000       0.019
  -0.08690891  0.00934045  0.00000000       0.019
  -0.06518168  0.01307663  0.00000000       0.019
  -0.04345446  0.01681281  0.00000000       0.019
  -0.02172723  0.02054899  0.00000000       0.019
   0.00000000  0.04857034  0.00000000       0.010
   0.02172723  0.05230652  0.00000000       0.019
   0.04345446  0.05604270  0.00000000       0.019
   0.06518168  0.05977888  0.00000000       0.019
   0.08690891  0.06351506  0.00000000       0.019
   0.10863614  0.06725124  0.00000000       0.019
   0.13036337  0.07098742  0.00000000       0.019
   0.00000000  0.00000000  0.01818087       0.010
   0.02172723  0.00373618  0.01818087       0.019
   0.04345446  0.00747236  0.01818087       0.019
   0.06518168  0.01120854  0.01818087       0.019
   0.08690891  0.01494472  0.01818087       0.019
   0.10863614  0.01868090  0.01818087       0.019
   0.13036337  0.02241708  0.01818087       0.019
   0.00000000  0.02428517  0.01818087       0.019
   0.02172723  0.02802135  0.01818087       0.019
   0.04345446  0.03175753  0.01818087       0.019
   0.06518168  0.03549371  0.01818087       0.019
   0.08690891  0.03922989  0.01818087       0.019
   0.10863614  0.04296607  0.01818087       0.019
   0.13036337  0.04670225  0.01818087       0.019
  -0.13036337  0.00186809  0.01818087       0.019
  -0.10863614  0.00560427  0.01818087       0.019
  -0.08690891  0.00934045  0.01818087       0.019
  -0.06518168  0.01307663  0.01818087       0.019
  -0.04345446  0.01681281  0.01818087       0.019
  -0.02172723  0.02054899  0.01818087       0.019
   0.00000000  0.04857034  0.01818087       0.010
   0.02172723  0.05230652  0.01818087       0.019
   0.04345446  0.05604270  0.01818087       0.019
   0.06518168  0.05977888  0.01818087       0.019
   0.08690891  0.06351506  0.01818087       0.019
   0.10863614  0.06725124  0.01818087       0.019
   0.13036337  0.07098742  0.01818087       0.019
 
 k-points in reciprocal lattice and weights: pymatgen generated KPOINTS with grid den
   0.00000000  0.00000000  0.00000000       0.010
   0.07692308 -0.00000000  0.00000000       0.019
   0.15384615 -0.00000000  0.00000000       0.019
   0.23076923 -0.00000000  0.00000000       0.019
   0.30769231 -0.00000000  0.00000000       0.019
   0.38461538 -0.00000000  0.00000000       0.019
   0.46153846 -0.00000000  0.00000000       0.019
   0.00000000  0.25000000  0.00000000       0.019
   0.07692308  0.25000000  0.00000000       0.019
   0.15384615  0.25000000  0.00000000       0.019
   0.23076923  0.25000000  0.00000000       0.019
   0.30769231  0.25000000  0.00000000       0.019
   0.38461538  0.25000000  0.00000000       0.019
   0.46153846  0.25000000  0.00000000       0.019
  -0.46153846  0.25000000  0.00000000       0.019
  -0.38461538  0.25000000  0.00000000       0.019
  -0.30769231  0.25000000  0.00000000       0.019
  -0.23076923  0.25000000  0.00000000       0.019
  -0.15384615  0.25000000  0.00000000       0.019
  -0.07692308  0.25000000  0.00000000       0.019
   0.00000000  0.50000000  0.00000000       0.010
   0.07692308  0.50000000  0.00000000       0.019
   0.15384615  0.50000000  0.00000000       0.019
   0.23076923  0.50000000  0.00000000       0.019
   0.30769231  0.50000000  0.00000000       0.019
   0.38461538  0.50000000  0.00000000       0.019
   0.46153846  0.50000000  0.00000000       0.019
   0.00000000  0.00000000  0.50000000       0.010
   0.07692308 -0.00000000  0.50000000       0.019
   0.15384615 -0.00000000  0.50000000       0.019
   0.23076923 -0.00000000  0.50000000       0.019
   0.30769231 -0.00000000  0.50000000       0.019
   0.38461538 -0.00000000  0.50000000       0.019
   0.46153846 -0.00000000  0.50000000       0.019
   0.00000000  0.25000000  0.50000000       0.019
   0.07692308  0.25000000  0.50000000       0.019
   0.15384615  0.25000000  0.50000000       0.019
   0.23076923  0.25000000  0.50000000       0.019
   0.30769231  0.25000000  0.50000000       0.019
   0.38461538  0.25000000  0.50000000       0.019
   0.46153846  0.25000000  0.50000000       0.019
  -0.46153846  0.25000000  0.50000000       0.019
  -0.38461538  0.25000000  0.50000000       0.019
  -0.30769231  0.25000000  0.50000000       0.019
  -0.23076923  0.25000000  0.50000000       0.019
  -0.15384615  0.25000000  0.50000000       0.019
  -0.07692308  0.25000000  0.50000000       0.019
   0.00000000  0.50000000  0.50000000       0.010
   0.07692308  0.50000000  0.50000000       0.019
   0.15384615  0.50000000  0.50000000       0.019
   0.23076923  0.50000000  0.50000000       0.019
   0.30769231  0.50000000  0.50000000       0.019
   0.38461538  0.50000000  0.50000000       0.019
   0.46153846  0.50000000  0.50000000       0.019
 
 position of ions in fractional coordinates (direct lattice) 
   0.11402300  0.22804500  0.23316207
   0.91402300  0.02804500  0.51499159
   0.45808900  0.91617900  0.20939482
   0.25808900  0.71617900  0.49122434
   0.31085400  0.62170900  0.08414979
   0.31085400  0.62170900  0.36597930
   0.99923000  0.99846000  0.08631254
   0.99923000  0.99846000  0.36814206
   0.65492700  0.30985400  0.06041748
   0.65492700  0.30985400  0.34224700
   0.76973800  0.53947500  0.20725292
   0.56973800  0.33947500  0.48908244
   0.93971600  0.87943300  0.15783749
   0.73971600  0.67943300  0.43966701
   0.20515200  0.41030300  0.18578822
   0.00515200  0.21030300  0.46761774
   0.20184900  0.40369900  0.09969156
   0.20184900  0.40369900  0.38152107
   0.56380500  0.12761000  0.10779021
   0.56380500  0.12761000  0.38961973
   0.56710600  0.13421200  0.19387616
   0.36710600  0.93421200  0.47570568
   0.82923400  0.65846800  0.13571444
   0.62923400  0.45846800  0.41754396
 
 position of ions in cartesian coordinates  (Angst):
   0.00000177  2.34757459  6.41229012
   3.18636177  0.28870499 14.16300462
  -0.00000177  9.43146546  5.75865686
  -0.35404177  7.37259586 13.50937136
  -0.00000177  6.40008880  2.31423934
  -0.00000177  6.40008880 10.06495384
   1.77020000 10.27849470  2.37371832
   1.77020000 10.27849470 10.12443282
   1.77020000  3.18974491  1.66156717
   1.77020000  3.18974491  9.41228167
   1.77020177  5.55354339  5.69975143
   1.41616177  3.49467379 13.45046593
   1.77019823  9.05318934  4.34075665
   1.41615823  6.99431974 12.09147115
   0.00000177  4.22380187  5.10944151
  -0.35403823  2.16493227 12.86015601
  -0.00000177  4.15581799  2.74166024
  -0.00000177  4.15581799 10.49237474
   1.77020000  1.31366175  2.96438477
   1.77020000  1.31366175 10.71509927
   1.77020000  1.38162503  5.33187152
  -0.35404000  9.61710343 13.08258602
   1.77020000  6.77849874  3.73234107
   1.41616000  4.71962914 11.48305557
 


--------------------------------------------------------------------------------------------------------


 k-point  1 :   0.0000 0.0000 0.0000  plane waves:   11717
 k-point  2 :   0.0769-0.0000 0.0000  plane waves:   11762
 k-point  3 :   0.1538-0.0000 0.0000  plane waves:   11805
 k-point  4 :   0.2308-0.0000 0.0000  plane waves:   11824
 k-point  5 :   0.3077-0.0000 0.0000  plane waves:   11875
 k-point  6 :   0.3846-0.0000 0.0000  plane waves:   11864
 k-point  7 :   0.4615-0.0000 0.0000  plane waves:   11883
 k-point  8 :   0.0000 0.2500 0.0000  plane waves:   11683
 k-point  9 :   0.0769 0.2500 0.0000  plane waves:   11756
 k-point 10 :   0.1538 0.2500 0.0000  plane waves:   11807
 k-point 11 :   0.2308 0.2500 0.0000  plane waves:   11853
 k-point 12 :   0.3077 0.2500 0.0000  plane waves:   11866
 k-point 13 :   0.3846 0.2500 0.0000  plane waves:   11889
 k-point 14 :   0.4615 0.2500 0.0000  plane waves:   11885
 k-point 15 :  -0.4615 0.2500 0.0000  plane waves:   11886
 k-point 16 :  -0.3846 0.2500 0.0000  plane waves:   11867
 k-point 17 :  -0.3077 0.2500 0.0000  plane waves:   11849
 k-point 18 :  -0.2308 0.2500 0.0000  plane waves:   11827
 k-point 19 :  -0.1538 0.2500 0.0000  plane waves:   11801
 k-point 20 :  -0.0769 0.2500 0.0000  plane waves:   11757
 k-point 21 :   0.0000 0.5000 0.0000  plane waves:   11710
 k-point 22 :   0.0769 0.5000 0.0000  plane waves:   11762
 k-point 23 :   0.1538 0.5000 0.0000  plane waves:   11782
 k-point 24 :   0.2308 0.5000 0.0000  plane waves:   11841
 k-point 25 :   0.3077 0.5000 0.0000  plane waves:   11876
 k-point 26 :   0.3846 0.5000 0.0000  plane waves:   11889
 k-point 27 :   0.4615 0.5000 0.0000  plane waves:   11881
 k-point 28 :   0.0000 0.0000 0.5000  plane waves:   11698
 k-point 29 :   0.0769-0.0000 0.5000  plane waves:   11752
 k-point 30 :   0.1538-0.0000 0.5000  plane waves:   11800
 k-point 31 :   0.2308-0.0000 0.5000  plane waves:   11834
 k-point 32 :   0.3077-0.0000 0.5000  plane waves:   11850
 k-point 33 :   0.3846-0.0000 0.5000  plane waves:   11888
 k-point 34 :   0.4615-0.0000 0.5000  plane waves:   11896
 k-point 35 :   0.0000 0.2500 0.5000  plane waves:   11714
 k-point 36 :   0.0769 0.2500 0.5000  plane waves:   11754
 k-point 37 :   0.1538 0.2500 0.5000  plane waves:   11802
 k-point 38 :   0.2308 0.2500 0.5000  plane waves:   11840
 k-point 39 :   0.3077 0.2500 0.5000  plane waves:   11858
 k-point 40 :   0.3846 0.2500 0.5000  plane waves:   11896
 k-point 41 :   0.4615 0.2500 0.5000  plane waves:   11886
 k-point 42 :  -0.4615 0.2500 0.5000  plane waves:   11852
 k-point 43 :  -0.3846 0.2500 0.5000  plane waves:   11838
 k-point 44 :  -0.3077 0.2500 0.5000  plane waves:   11842
 k-point 45 :  -0.2308 0.2500 0.5000  plane waves:   11840
 k-point 46 :  -0.1538 0.2500 0.5000  plane waves:   11804
 k-point 47 :  -0.0769 0.2500 0.5000  plane waves:   11748
 k-point 48 :   0.0000 0.5000 0.5000  plane waves:   11724
 k-point 49 :   0.0769 0.5000 0.5000  plane waves:   11748
 k-point 50 :   0.1538 0.5000 0.5000  plane waves:   11814
 k-point 51 :   0.2308 0.5000 0.5000  plane waves:   11832
 k-point 52 :   0.3077 0.5000 0.5000  plane waves:   11868
 k-point 53 :   0.3846 0.5000 0.5000  plane waves:   11892
 k-point 54 :   0.4615 0.5000 0.5000  plane waves:   11878

 maximum and minimum number of plane-waves per node :      5964     5832

 maximum number of plane-waves:     11896
 maximum index in each direction: 
   IXMAX=    5   IYMAX=   14   IZMAX=   38
   IXMIN=   -5   IYMIN=  -15   IZMIN=  -39

 WARNING: aliasing errors must be expected set NGX to  22 to avoid them
 NGY is ok and might be reduce to  60
 NGZ is ok and might be reduce to 156
 aliasing errors are usually negligible using standard VASP settings
 and one can safely disregard these warnings

 real space projection operators:
  total allocation   :       3793.25 KBytes
  max/ min on nodes  :       1899.38       1893.88


 parallel 3D FFT for wavefunctions:
    minimum data exchange during FFTs selected (reduces bandwidth)
 parallel 3D FFT for charge:
    minimum data exchange during FFTs selected (reduces bandwidth)


 total amount of memory used by VASP on root node   146493. kBytes
========================================================================

   base      :      30000. kBytes
   nonlr-proj:       3452. kBytes
   fftplans  :       9347. kBytes
   grid      :      14649. kBytes
   one-center:         36. kBytes
   wavefun   :      89009. kBytes
 
     INWAV:  cpu time    0.00: real time    0.00
 Broyden mixing: mesh for mixing (old mesh)
   NGX =  9   NGY = 29   NGZ = 77
  (NGX  = 40   NGY  =120   NGZ  =320)
  gives a total of  20097 points

 initial charge density was supplied:
 charge density of overlapping atoms calculated
 number of electron     108.0000000 magnetization 
 keeping initial charge density in first step


--------------------------------------------------------------------------------------------------------


 Maximum index for non-local projection operator         1333
 Maximum index for augmentation-charges          822 (set IRDMAX)


--------------------------------------------------------------------------------------------------------


 First call to EWALD:  gamma=   0.177
 Maximum number of real-space cells 7x 3x 1
 Maximum number of reciprocal cells 1x 3x 7

 FEWALD executed in parallel
    FEWALD:  cpu time    0.00: real time    0.00


----------------------------------------- Iteration    1(   1)  ---------------------------------------


vdW kernel read from vdw_kernel.bindat
  0.0000  0.2424  0.5071  0.7962  1.1119  1.4567  1.8333  2.2446  2.6937  3.1842
  3.7199  4.3049  4.9438  5.6415  6.4036  7.2358  8.1446  9.1372 10.2212 11.4050
 12.6979 14.1099 15.6519 17.3360 19.1751 21.1837 23.3773 25.7729 28.3892 31.2465
 34.3669 37.7748 41.4965 45.5611 50.0000
 
    POTLOK:  cpu time   13.76: real time   13.77
    SETDIJ:  cpu time    0.01: real time    0.01
     EDDAV:  cpu time   56.81: real time   56.83
       DOS:  cpu time    0.01: real time    0.01
    --------------------------------------------
      LOOP:  cpu time   70.60: real time   70.62

 eigenvalue-minimisations  :  7360
 total energy-change (2. order) : 0.4897372E+03  (-0.2865052E+04)
 number of electron     108.0000000 magnetization 
 augmentation part      108.0000000 magnetization 

 Free energy of the ion-electron system (eV)
  ---------------------------------------------------
  alpha Z        PSCENC =        36.80884744
  Ewald energy   TEWEN  =     11942.45779161
  -Hartree energ DENC   =    -14992.91738989
  -exchange      EXHF   =         0.00000000
  -V(xc)+E(xc)   XCENC  =       -87.93535579
  PAW double counting   =      1056.43050070     -732.41190547
  entropy T*S    EENTRO =        -0.04156884
  eigenvalues    EBANDS =       -86.69493317
  atomic energy  EATOM  =      3354.04126044
  ---------------------------------------------------
  free energy    TOTEN  =       489.73724704 eV

  energy without entropy =      489.77881587  energy(sigma->0) =      489.75803146


--------------------------------------------------------------------------------------------------------




----------------------------------------- Iteration    1(   2)  ---------------------------------------


     EDDAV:  cpu time   70.12: real time   70.14
       DOS:  cpu time    0.01: real time    0.01
    --------------------------------------------
      LOOP:  cpu time   70.13: real time   70.15

 eigenvalue-minimisations  :  9756
 total energy-change (2. order) :-0.5570432E+03  (-0.5423817E+03)
 number of electron     108.0000000 magnetization 
 augmentation part      108.0000000 magnetization 

 Free energy of the ion-electron system (eV)
  ---------------------------------------------------
  alpha Z        PSCENC =        36.80884744
  Ewald energy   TEWEN  =     11942.45779161
  -Hartree energ DENC   =    -14992.91738989
  -exchange      EXHF   =         0.00000000
  -V(xc)+E(xc)   XCENC  =       -87.93535579
  PAW double counting   =      1056.43050070     -732.41190547
  entropy T*S    EENTRO =        -0.02250400
  eigenvalues    EBANDS =      -643.75722029
  atomic energy  EATOM  =      3354.04126044
  ---------------------------------------------------
  free energy    TOTEN  =       -67.30597523 eV

  energy without entropy =      -67.28347124  energy(sigma->0) =      -67.29472324


--------------------------------------------------------------------------------------------------------




----------------------------------------- Iteration    1(   3)  ---------------------------------------


     EDDAV:  cpu time   64.01: real time   64.02
       DOS:  cpu time    0.01: real time    0.01
    --------------------------------------------
      LOOP:  cpu time   64.02: real time   64.04

 eigenvalue-minimisations  :  8812
 total energy-change (2. order) :-0.5533200E+02  (-0.5449323E+02)
 number of electron     108.0000000 magnetization 
 augmentation part      108.0000000 magnetization 

 Free energy of the ion-electron system (eV)
  ---------------------------------------------------
  alpha Z        PSCENC =        36.80884744
  Ewald energy   TEWEN  =     11942.45779161
  -Hartree energ DENC   =    -14992.91738989
  -exchange      EXHF   =         0.00000000
  -V(xc)+E(xc)   XCENC  =       -87.93535579
  PAW double counting   =      1056.43050070     -732.41190547
  entropy T*S    EENTRO =        -0.03492133
  eigenvalues    EBANDS =      -699.07680691
  atomic energy  EATOM  =      3354.04126044
  ---------------------------------------------------
  free energy    TOTEN  =      -122.63797919 eV

  energy without entropy =     -122.60305786  energy(sigma->0) =     -122.62051853


--------------------------------------------------------------------------------------------------------




----------------------------------------- Iteration    1(   4)  ---------------------------------------


     EDDAV:  cpu time   76.18: real time   76.20
       DOS:  cpu time    0.01: real time    0.01
    --------------------------------------------
      LOOP:  cpu time   76.19: real time   76.21

 eigenvalue-minimisations  : 10928
 total energy-change (2. order) :-0.2463548E+01  (-0.2446062E+01)
 number of electron     108.0000000 magnetization 
 augmentation part      108.0000000 magnetization 

 Free energy of the ion-electron system (eV)
  ---------------------------------------------------
  alpha Z        PSCENC =        36.80884744
  Ewald energy   TEWEN  =     11942.45779161
  -Hartree energ DENC   =    -14992.91738989
  -exchange      EXHF   =         0.00000000
  -V(xc)+E(xc)   XCENC  =       -87.93535579
  PAW double counting   =      1056.43050070     -732.41190547
  entropy T*S    EENTRO =        -0.03716915
  eigenvalues    EBANDS =      -701.53810665
  atomic energy  EATOM  =      3354.04126044
  ---------------------------------------------------
  free energy    TOTEN  =      -125.10152676 eV

  energy without entropy =     -125.06435760  energy(sigma->0) =     -125.08294218


--------------------------------------------------------------------------------------------------------




----------------------------------------- Iteration    1(   5)  ---------------------------------------


     EDDAV:  cpu time   71.05: real time   71.06
       DOS:  cpu time    0.01: real time    0.01
    CHARGE:  cpu time    3.55: real time    3.55
    MIXING:  cpu time    0.01: real time    0.01
    --------------------------------------------
      LOOP:  cpu time   74.61: real time   74.63

 eigenvalue-minimisations  : 10024
 total energy-change (2. order) :-0.5878795E-01  (-0.5872040E-01)
 number of electron     107.9999994 magnetization 
 augmentation part       -9.5545918 magnetization 

 Broyden mixing:
  rms(total) = 0.10063E+01    rms(broyden)= 0.10061E+01
  rms(prec ) = 0.10795E+01
  weight for this iteration     100.00

 Free energy of the ion-electron system (eV)
  ---------------------------------------------------
  alpha Z        PSCENC =        36.80884744
  Ewald energy   TEWEN  =     11942.45779161
  -Hartree energ DENC   =    -14992.91738989
  -exchange      EXHF   =         0.00000000
  -V(xc)+E(xc)   XCENC  =       -87.93535579
  PAW double counting   =      1056.43050070     -732.41190547
  entropy T*S    EENTRO =        -0.03729956
  eigenvalues    EBANDS =      -701.59676420
  atomic energy  EATOM  =      3354.04126044
  ---------------------------------------------------
  free energy    TOTEN  =      -125.16031471 eV

  energy without entropy =     -125.12301515  energy(sigma->0) =     -125.14166493


--------------------------------------------------------------------------------------------------------




----------------------------------------- Iteration    1(   6)  ---------------------------------------


    POTLOK:  cpu time   12.51: real time   12.51
    SETDIJ:  cpu time    0.01: real time    0.02
     EDDAV:  cpu time   64.85: real time   64.86
       DOS:  cpu time    0.01: real time    0.01
    CHARGE:  cpu time    3.15: real time    3.15
    MIXING:  cpu time    0.01: real time    0.01
    --------------------------------------------
      LOOP:  cpu time   80.54: real time   80.56

 eigenvalue-minimisations  :  8816
 total energy-change (2. order) : 0.2292045E+01  (-0.5866851E+00)
 number of electron     107.9999995 magnetization 
 augmentation part       -9.4183465 magnetization 

 Broyden mixing:
  rms(total) = 0.55217E+00    rms(broyden)= 0.55215E+00
  rms(prec ) = 0.58297E+00
  weight for this iteration     100.00

 eigenvalues of (default mixing * dielectric matrix)
  average eigenvalue GAMMA=   1.8721
  1.8721

 Free energy of the ion-electron system (eV)
  ---------------------------------------------------
  alpha Z        PSCENC =        36.80884744
  Ewald energy   TEWEN  =     11942.45779161
  -Hartree energ DENC   =    -15034.49107767
  -exchange      EXHF   =         0.00000000
  -V(xc)+E(xc)   XCENC  =       -84.99892514
  PAW double counting   =      1112.60393546     -790.16345066
  entropy T*S    EENTRO =        -0.03980784
  eigenvalues    EBANDS =      -659.08684328
  atomic energy  EATOM  =      3354.04126044
  ---------------------------------------------------
  free energy    TOTEN  =      -122.86826963 eV

  energy without entropy =     -122.82846178  energy(sigma->0) =     -122.84836571


--------------------------------------------------------------------------------------------------------




----------------------------------------- Iteration    1(   7)  ---------------------------------------


    POTLOK:  cpu time   12.89: real time   12.89
    SETDIJ:  cpu time    0.01: real time    0.01
     EDDAV:  cpu time   66.12: real time   66.14
       DOS:  cpu time    0.01: real time    0.01
    CHARGE:  cpu time    3.59: real time    3.59
    MIXING:  cpu time    0.01: real time    0.01
    --------------------------------------------
      LOOP:  cpu time   82.63: real time   82.65

 eigenvalue-minimisations  :  8888
 total energy-change (2. order) : 0.1920966E+00  (-0.3522427E+00)
 number of electron     107.9999995 magnetization 
 augmentation part       -9.3300230 magnetization 

 Broyden mixing:
  rms(total) = 0.21006E+00    rms(broyden)= 0.21004E+00
  rms(prec ) = 0.22965E+00
  weight for this iteration     100.00

 eigenvalues of (default mixing * dielectric matrix)
  average eigenvalue GAMMA=   1.5459
  0.9505  2.1413

 Free energy of the ion-electron system (eV)
  ---------------------------------------------------
  alpha Z        PSCENC =        36.80884744
  Ewald energy   TEWEN  =     11942.45779161
  -Hartree energ DENC   =    -15059.87691927
  -exchange      EXHF   =         0.00000000
  -V(xc)+E(xc)   XCENC  =       -82.16508471
  PAW double counting   =      1154.76780137     -833.53333049
  entropy T*S    EENTRO =        -0.03512904
  eigenvalues    EBANDS =      -635.14141035
  atomic energy  EATOM  =      3354.04126044
  ---------------------------------------------------
  free energy    TOTEN  =      -122.67617299 eV

  energy without entropy =     -122.64104395  energy(sigma->0) =     -122.65860847


--------------------------------------------------------------------------------------------------------




----------------------------------------- Iteration    1(   8)  ---------------------------------------


    POTLOK:  cpu time   12.22: real time   12.22
    SETDIJ:  cpu time    0.01: real time    0.02
     EDDAV:  cpu time   66.41: real time   66.42
       DOS:  cpu time    0.01: real time    0.01
    CHARGE:  cpu time    3.17: real time    3.17
    MIXING:  cpu time    0.01: real time    0.01
    --------------------------------------------
      LOOP:  cpu time   81.83: real time   81.84

 eigenvalue-minimisations  :  9000
 total energy-change (2. order) :-0.1223623E-01  (-0.9020620E-01)
 number of electron     107.9999995 magnetization 
 augmentation part       -9.3131406 magnetization 

 Broyden mixing:
  rms(total) = 0.10158E+00    rms(broyden)= 0.10157E+00
  rms(prec ) = 0.11232E+00
  weight for this iteration     100.00

 eigenvalues of (default mixing * dielectric matrix)
  average eigenvalue GAMMA=   1.4450
  2.3184  1.3351  0.6815

 Free energy of the ion-electron system (eV)
  ---------------------------------------------------
  alpha Z        PSCENC =        36.80884744
  Ewald energy   TEWEN  =     11942.45779161
  -Hartree energ DENC   =    -15074.58507589
  -exchange      EXHF   =         0.00000000
  -V(xc)+E(xc)   XCENC  =       -81.16703706
  PAW double counting   =      1162.97769617     -841.98716364
  entropy T*S    EENTRO =        -0.03809286
  eigenvalues    EBANDS =      -621.19663544
  atomic energy  EATOM  =      3354.04126044
  ---------------------------------------------------
  free energy    TOTEN  =      -122.68840921 eV

  energy without entropy =     -122.65031635  energy(sigma->0) =     -122.66936278


--------------------------------------------------------------------------------------------------------




----------------------------------------- Iteration    1(   9)  ---------------------------------------


    POTLOK:  cpu time   12.92: real time   12.93
    SETDIJ:  cpu time    0.01: real time    0.01
     EDDAV:  cpu time   64.93: real time   64.95
       DOS:  cpu time    0.01: real time    0.01
    CHARGE:  cpu time    3.94: real time    3.94
    MIXING:  cpu time    0.01: real time    0.01
    --------------------------------------------
      LOOP:  cpu time   81.84: real time   81.85

 eigenvalue-minimisations  :  8880
 total energy-change (2. order) : 0.2252475E-01  (-0.1739159E-01)
 number of electron     107.9999995 magnetization 
 augmentation part       -9.3160224 magnetization 

 Broyden mixing:
  rms(total) = 0.49813E-01    rms(broyden)= 0.49809E-01
  rms(prec ) = 0.55846E-01
  weight for this iteration     100.00

 eigenvalues of (default mixing * dielectric matrix)
  average eigenvalue GAMMA=   1.4199
  2.5274  1.6130  0.9109  0.6284

 Free energy of the ion-electron system (eV)
  ---------------------------------------------------
  alpha Z        PSCENC =        36.80884744
  Ewald energy   TEWEN  =     11942.45779161
  -Hartree energ DENC   =    -15077.78984282
  -exchange      EXHF   =         0.00000000
  -V(xc)+E(xc)   XCENC  =       -80.86117214
  PAW double counting   =      1161.61348532     -840.59446372
  entropy T*S    EENTRO =        -0.03749859
  eigenvalues    EBANDS =      -618.30429200
  atomic energy  EATOM  =      3354.04126044
  ---------------------------------------------------
  free energy    TOTEN  =      -122.66588446 eV

  energy without entropy =     -122.62838587  energy(sigma->0) =     -122.64713516


--------------------------------------------------------------------------------------------------------




----------------------------------------- Iteration    1(  10)  ---------------------------------------


    POTLOK:  cpu time   12.13: real time   12.13
    SETDIJ:  cpu time    0.01: real time    0.01
     EDDAV:  cpu time   66.50: real time   66.51
       DOS:  cpu time    0.01: real time    0.01
    CHARGE:  cpu time    3.54: real time    3.55
    MIXING:  cpu time    0.01: real time    0.01
    --------------------------------------------
      LOOP:  cpu time   82.21: real time   82.23

 eigenvalue-minimisations  :  9032
 total energy-change (2. order) : 0.1649878E-01  (-0.4889139E-02)
 number of electron     107.9999995 magnetization 
 augmentation part       -9.3194793 magnetization 

 Broyden mixing:
  rms(total) = 0.19938E-01    rms(broyden)= 0.19935E-01
  rms(prec ) = 0.23215E-01
  weight for this iteration     100.00

 eigenvalues of (default mixing * dielectric matrix)
  average eigenvalue GAMMA=   1.3520
  2.6017  1.6018  1.1879  0.7903  0.5782

 Free energy of the ion-electron system (eV)
  ---------------------------------------------------
  alpha Z        PSCENC =        36.80884744
  Ewald energy   TEWEN  =     11942.45779161
  -Hartree energ DENC   =    -15078.97328942
  -exchange      EXHF   =         0.00000000
  -V(xc)+E(xc)   XCENC  =       -80.70821264
  PAW double counting   =      1159.44715438     -838.37134163
  entropy T*S    EENTRO =        -0.03717582
  eigenvalues    EBANDS =      -617.31442006
  atomic energy  EATOM  =      3354.04126044
  ---------------------------------------------------
  free energy    TOTEN  =      -122.64938569 eV

  energy without entropy =     -122.61220986  energy(sigma->0) =     -122.63079777


--------------------------------------------------------------------------------------------------------




----------------------------------------- Iteration    1(  11)  ---------------------------------------


    POTLOK:  cpu time   12.29: real time   12.29
    SETDIJ:  cpu time    0.01: real time    0.02
     EDDAV:  cpu time   66.32: real time   66.34
       DOS:  cpu time    0.01: real time    0.01
    CHARGE:  cpu time    3.15: real time    3.15
    MIXING:  cpu time    0.01: real time    0.01
    --------------------------------------------
      LOOP:  cpu time   81.81: real time   81.83

 eigenvalue-minimisations  :  9128
 total energy-change (2. order) : 0.8146005E-02  (-0.1108429E-02)
 number of electron     107.9999995 magnetization 
 augmentation part       -9.3197491 magnetization 

 Broyden mixing:
  rms(total) = 0.91423E-02    rms(broyden)= 0.91410E-02
  rms(prec ) = 0.10748E-01
  weight for this iteration     100.00

 eigenvalues of (default mixing * dielectric matrix)
  average eigenvalue GAMMA=   1.3266
  2.6464  1.5934  1.4287  0.9786  0.7244  0.5883

 Free energy of the ion-electron system (eV)
  ---------------------------------------------------
  alpha Z        PSCENC =        36.80884744
  Ewald energy   TEWEN  =     11942.45779161
  -Hartree energ DENC   =    -15080.73703921
  -exchange      EXHF   =         0.00000000
  -V(xc)+E(xc)   XCENC  =       -80.66341204
  PAW double counting   =      1158.29589184     -837.18824843
  entropy T*S    EENTRO =        -0.03768265
  eigenvalues    EBANDS =      -615.61864869
  atomic energy  EATOM  =      3354.04126044
  ---------------------------------------------------
  free energy    TOTEN  =      -122.64123968 eV

  energy without entropy =     -122.60355703  energy(sigma->0) =     -122.62239835


--------------------------------------------------------------------------------------------------------




----------------------------------------- Iteration    1(  12)  ---------------------------------------


    POTLOK:  cpu time   12.98: real time   12.98
    SETDIJ:  cpu time    0.01: real time    0.01
     EDDAV:  cpu time   66.52: real time   66.53
       DOS:  cpu time    0.01: real time    0.01
    CHARGE:  cpu time    3.64: real time    3.64
    MIXING:  cpu time    0.01: real time    0.01
    --------------------------------------------
      LOOP:  cpu time   83.17: real time   83.19

 eigenvalue-minimisations  :  9144
 total energy-change (2. order) : 0.5586128E-02  (-0.1912851E-03)
 number of electron     107.9999995 magnetization 
 augmentation part       -9.3197759 magnetization 

 Broyden mixing:
  rms(total) = 0.47035E-02    rms(broyden)= 0.47030E-02
  rms(prec ) = 0.61158E-02
  weight for this iteration     100.00

 eigenvalues of (default mixing * dielectric matrix)
  average eigenvalue GAMMA=   1.3514
  2.6902  1.9167  1.3066  1.3066  0.9355  0.7160  0.5883

 Free energy of the ion-electron system (eV)
  ---------------------------------------------------
  alpha Z        PSCENC =        36.80884744
  Ewald energy   TEWEN  =     11942.45779161
  -Hartree energ DENC   =    -15081.76122918
  -exchange      EXHF   =         0.00000000
  -V(xc)+E(xc)   XCENC  =       -80.65053818
  PAW double counting   =      1157.47440494     -836.34499346
  entropy T*S    EENTRO =        -0.03754649
  eigenvalues    EBANDS =      -614.62365068
  atomic energy  EATOM  =      3354.04126044
  ---------------------------------------------------
  free energy    TOTEN  =      -122.63565355 eV

  energy without entropy =     -122.59810706  energy(sigma->0) =     -122.61688031


--------------------------------------------------------------------------------------------------------




----------------------------------------- Iteration    1(  13)  ---------------------------------------


    POTLOK:  cpu time   12.14: real time   12.14
    SETDIJ:  cpu time    0.02: real time    0.02
     EDDAV:  cpu time   67.86: real time   67.87
       DOS:  cpu time    0.01: real time    0.01
    CHARGE:  cpu time    3.16: real time    3.16
    MIXING:  cpu time    0.01: real time    0.01
    --------------------------------------------
      LOOP:  cpu time   83.19: real time   83.21

 eigenvalue-minimisations  :  9320
 total energy-change (2. order) : 0.4396932E-02  (-0.4885441E-04)
 number of electron     107.9999995 magnetization 
 augmentation part       -9.3200423 magnetization 

 Broyden mixing:
  rms(total) = 0.24215E-02    rms(broyden)= 0.24213E-02
  rms(prec ) = 0.37343E-02
  weight for this iteration     100.00

 eigenvalues of (default mixing * dielectric matrix)
  average eigenvalue GAMMA=   1.3676
  2.7249  2.2287  1.3816  1.3816  1.0668  0.7848  0.7848  0.5872

 Free energy of the ion-electron system (eV)
  ---------------------------------------------------
  alpha Z        PSCENC =        36.80884744
  Ewald energy   TEWEN  =     11942.45779161
  -Hartree energ DENC   =    -15082.73933007
  -exchange      EXHF   =         0.00000000
  -V(xc)+E(xc)   XCENC  =       -80.64451983
  PAW double counting   =      1156.88837592     -835.74353374
  entropy T*S    EENTRO =        -0.03750384
  eigenvalues    EBANDS =      -613.66264457
  atomic energy  EATOM  =      3354.04126044
  ---------------------------------------------------
  free energy    TOTEN  =      -122.63125662 eV

  energy without entropy =     -122.59375278  energy(sigma->0) =     -122.61250470


--------------------------------------------------------------------------------------------------------




----------------------------------------- Iteration    1(  14)  ---------------------------------------


    POTLOK:  cpu time   12.94: real time   12.95
    SETDIJ:  cpu time    0.01: real time    0.02
     EDDAV:  cpu time   69.21: real time   69.22
       DOS:  cpu time    0.01: real time    0.01
    CHARGE:  cpu time    3.52: real time    3.52
    MIXING:  cpu time    0.01: real time    0.01
    --------------------------------------------
      LOOP:  cpu time   85.71: real time   85.73

 eigenvalue-minimisations  :  9744
 total energy-change (2. order) : 0.2378952E-02  (-0.1289966E-04)
 number of electron     107.9999995 magnetization 
 augmentation part       -9.3199157 magnetization 

 Broyden mixing:
  rms(total) = 0.13920E-02    rms(broyden)= 0.13919E-02
  rms(prec ) = 0.24439E-02
  weight for this iteration     100.00

 eigenvalues of (default mixing * dielectric matrix)
  average eigenvalue GAMMA=   1.4251
  2.9253  2.5393  1.5905  1.2970  1.2970  0.5863  0.9053  0.9053  0.7801

 Free energy of the ion-electron system (eV)
  ---------------------------------------------------
  alpha Z        PSCENC =        36.80884744
  Ewald energy   TEWEN  =     11942.45779161
  -Hartree energ DENC   =    -15083.67148254
  -exchange      EXHF   =         0.00000000
  -V(xc)+E(xc)   XCENC  =       -80.64047622
  PAW double counting   =      1156.57409183     -835.42133269
  entropy T*S    EENTRO =        -0.03752266
  eigenvalues    EBANDS =      -612.74005488
  atomic energy  EATOM  =      3354.04126044
  ---------------------------------------------------
  free energy    TOTEN  =      -122.62887767 eV

  energy without entropy =     -122.59135501  energy(sigma->0) =     -122.61011634


--------------------------------------------------------------------------------------------------------




----------------------------------------- Iteration    1(  15)  ---------------------------------------


    POTLOK:  cpu time   12.14: real time   12.14
    SETDIJ:  cpu time    0.02: real time    0.02
     EDDAV:  cpu time   64.69: real time   64.70
       DOS:  cpu time    0.01: real time    0.01
    CHARGE:  cpu time    3.38: real time    3.38
    MIXING:  cpu time    0.01: real time    0.01
    --------------------------------------------
      LOOP:  cpu time   80.24: real time   80.26

 eigenvalue-minimisations  :  8896
 total energy-change (2. order) : 0.9270466E-03  (-0.7145846E-05)
 number of electron     107.9999995 magnetization 
 augmentation part       -9.3197019 magnetization 

 Broyden mixing:
  rms(total) = 0.78745E-03    rms(broyden)= 0.78742E-03
  rms(prec ) = 0.14653E-02
  weight for this iteration     100.00

 eigenvalues of (default mixing * dielectric matrix)
  average eigenvalue GAMMA=   1.5178
  3.4304  2.6624  1.9929  1.3314  1.2930  1.2930  0.5865  0.9021  0.9021  0.7846

 Free energy of the ion-electron system (eV)
  ---------------------------------------------------
  alpha Z        PSCENC =        36.80884744
  Ewald energy   TEWEN  =     11942.45779161
  -Hartree energ DENC   =    -15084.65371731
  -exchange      EXHF   =         0.00000000
  -V(xc)+E(xc)   XCENC  =       -80.63496630
  PAW double counting   =      1156.43338131     -835.27739555
  entropy T*S    EENTRO =        -0.03750434
  eigenvalues    EBANDS =      -611.76564793
  atomic energy  EATOM  =      3354.04126044
  ---------------------------------------------------
  free energy    TOTEN  =      -122.62795062 eV

  energy without entropy =     -122.59044628  energy(sigma->0) =     -122.60919845


--------------------------------------------------------------------------------------------------------




----------------------------------------- Iteration    1(  16)  ---------------------------------------


    POTLOK:  cpu time   12.73: real time   12.73
    SETDIJ:  cpu time    0.02: real time    0.02
     EDDAV:  cpu time   60.13: real time   60.14
       DOS:  cpu time    0.01: real time    0.01
    CHARGE:  cpu time    3.16: real time    3.16
    MIXING:  cpu time    0.01: real time    0.01
    --------------------------------------------
      LOOP:  cpu time   76.06: real time   76.07

 eigenvalue-minimisations  :  8136
 total energy-change (2. order) :-0.4308852E-03  (-0.9950954E-05)
 number of electron     107.9999995 magnetization 
 augmentation part       -9.3195254 magnetization 

 Broyden mixing:
  rms(total) = 0.46960E-03    rms(broyden)= 0.46956E-03
  rms(prec ) = 0.80661E-03
  weight for this iteration     100.00

 eigenvalues of (default mixing * dielectric matrix)
  average eigenvalue GAMMA=   1.6732
  4.7500  2.7630  2.2708  1.7986  1.3022  1.3022  0.5864  1.0046  1.0046  0.8114
  0.8114

 Free energy of the ion-electron system (eV)
  ---------------------------------------------------
  alpha Z        PSCENC =        36.80884744
  Ewald energy   TEWEN  =     11942.45779161
  -Hartree energ DENC   =    -15085.52982913
  -exchange      EXHF   =         0.00000000
  -V(xc)+E(xc)   XCENC  =       -80.62977262
  PAW double counting   =      1156.45154155     -835.29621621
  entropy T*S    EENTRO =        -0.03750845
  eigenvalues    EBANDS =      -610.89449615
  atomic energy  EATOM  =      3354.04126044
  ---------------------------------------------------
  free energy    TOTEN  =      -122.62838151 eV

  energy without entropy =     -122.59087306  energy(sigma->0) =     -122.60962728


--------------------------------------------------------------------------------------------------------




----------------------------------------- Iteration    1(  17)  ---------------------------------------


    POTLOK:  cpu time   12.91: real time   12.92
    SETDIJ:  cpu time    0.01: real time    0.02
     EDDAV:  cpu time   61.37: real time   61.38
       DOS:  cpu time    0.01: real time    0.01
    CHARGE:  cpu time    3.27: real time    3.27
    MIXING:  cpu time    0.01: real time    0.01
    --------------------------------------------
      LOOP:  cpu time   77.59: real time   77.61

 eigenvalue-minimisations  :  8384
 total energy-change (2. order) :-0.4287800E-03  (-0.2184475E-04)
 number of electron     107.9999995 magnetization 
 augmentation part       -9.3194870 magnetization 

 Broyden mixing:
  rms(total) = 0.24907E-03    rms(broyden)= 0.24905E-03
  rms(prec ) = 0.42965E-03
  weight for this iteration     100.00

 eigenvalues of (default mixing * dielectric matrix)
  average eigenvalue GAMMA=   1.7424
  5.5325  2.8241  2.5176  1.7129  1.7129  1.2583  1.2583  0.5865  0.9457  0.9457
  0.8074  0.8074

 Free energy of the ion-electron system (eV)
  ---------------------------------------------------
  alpha Z        PSCENC =        36.80884744
  Ewald energy   TEWEN  =     11942.45779161
  -Hartree energ DENC   =    -15086.07476754
  -exchange      EXHF   =         0.00000000
  -V(xc)+E(xc)   XCENC  =       -80.62711737
  PAW double counting   =      1156.47506659     -835.32022036
  entropy T*S    EENTRO =        -0.03750107
  eigenvalues    EBANDS =      -610.35217004
  atomic energy  EATOM  =      3354.04126044
  ---------------------------------------------------
  free energy    TOTEN  =      -122.62881029 eV

  energy without entropy =     -122.59130922  energy(sigma->0) =     -122.61005975


--------------------------------------------------------------------------------------------------------




----------------------------------------- Iteration    1(  18)  ---------------------------------------


    POTLOK:  cpu time   12.87: real time   12.88
    SETDIJ:  cpu time    0.01: real time    0.01
     EDDAV:  cpu time   57.67: real time   57.68
       DOS:  cpu time    0.01: real time    0.01
    CHARGE:  cpu time    3.14: real time    3.14
    MIXING:  cpu time    0.01: real time    0.01
    --------------------------------------------
      LOOP:  cpu time   73.72: real time   73.73

 eigenvalue-minimisations  :  7576
 total energy-change (2. order) :-0.1497412E-03  (-0.5007670E-05)
 number of electron     107.9999995 magnetization 
 augmentation part       -9.3194599 magnetization 

 Broyden mixing:
  rms(total) = 0.14977E-03    rms(broyden)= 0.14976E-03
  rms(prec ) = 0.27554E-03
  weight for this iteration     100.00

 eigenvalues of (default mixing * dielectric matrix)
  average eigenvalue GAMMA=   1.8086
  6.2825  2.9824  2.5999  1.9833  1.7649  1.3110  1.3110  1.1738  0.5865  0.9519
  0.9519  0.8063  0.8063

 Free energy of the ion-electron system (eV)
  ---------------------------------------------------
  alpha Z        PSCENC =        36.80884744
  Ewald energy   TEWEN  =     11942.45779161
  -Hartree energ DENC   =    -15086.27811895
  -exchange      EXHF   =         0.00000000
  -V(xc)+E(xc)   XCENC  =       -80.62605196
  PAW double counting   =      1156.49160130     -835.33705507
  entropy T*S    EENTRO =        -0.03750265
  eigenvalues    EBANDS =      -610.14973220
  atomic energy  EATOM  =      3354.04126044
  ---------------------------------------------------
  free energy    TOTEN  =      -122.62896003 eV

  energy without entropy =     -122.59145738  energy(sigma->0) =     -122.61020870


--------------------------------------------------------------------------------------------------------




----------------------------------------- Iteration    1(  19)  ---------------------------------------


    POTLOK:  cpu time   12.74: real time   12.74
    SETDIJ:  cpu time    0.01: real time    0.01
     EDDAV:  cpu time   53.28: real time   53.29
       DOS:  cpu time    0.01: real time    0.01
    CHARGE:  cpu time    3.39: real time    3.39
    MIXING:  cpu time    0.01: real time    0.01
    --------------------------------------------
      LOOP:  cpu time   69.44: real time   69.46

 eigenvalue-minimisations  :  6788
 total energy-change (2. order) :-0.1667278E-04  (-0.2441061E-05)
 number of electron     107.9999995 magnetization 
 augmentation part       -9.3194555 magnetization 

 Broyden mixing:
  rms(total) = 0.10051E-03    rms(broyden)= 0.10051E-03
  rms(prec ) = 0.17768E-03
  weight for this iteration     100.00

 eigenvalues of (default mixing * dielectric matrix)
  average eigenvalue GAMMA=   1.8320
  6.5460  3.1676  2.6802  2.2727  1.6803  1.6803  1.2633  1.2633  0.5865  0.8091
  0.8091  0.9592  0.9592  0.9713

 Free energy of the ion-electron system (eV)
  ---------------------------------------------------
  alpha Z        PSCENC =        36.80884744
  Ewald energy   TEWEN  =     11942.45779161
  -Hartree energ DENC   =    -15086.40425017
  -exchange      EXHF   =         0.00000000
  -V(xc)+E(xc)   XCENC  =       -80.62574728
  PAW double counting   =      1156.48716172     -835.33242362
  entropy T*S    EENTRO =        -0.03750401
  eigenvalues    EBANDS =      -610.02411284
  atomic energy  EATOM  =      3354.04126044
  ---------------------------------------------------
  free energy    TOTEN  =      -122.62897670 eV

  energy without entropy =     -122.59147269  energy(sigma->0) =     -122.61022470


--------------------------------------------------------------------------------------------------------




----------------------------------------- Iteration    1(  20)  ---------------------------------------


    POTLOK:  cpu time   12.70: real time   12.70
    SETDIJ:  cpu time    0.01: real time    0.01
     EDDAV:  cpu time   54.78: real time   54.79
       DOS:  cpu time    0.01: real time    0.01
    CHARGE:  cpu time    3.55: real time    3.55
    MIXING:  cpu time    0.01: real time    0.01
    --------------------------------------------
      LOOP:  cpu time   71.07: real time   71.08

 eigenvalue-minimisations  :  7064
 total energy-change (2. order) :-0.1333592E-04  (-0.1470802E-05)
 number of electron     107.9999995 magnetization 
 augmentation part       -9.3194599 magnetization 

 Broyden mixing:
  rms(total) = 0.69853E-04    rms(broyden)= 0.69848E-04
  rms(prec ) = 0.11604E-03
  weight for this iteration     100.00

 eigenvalues of (default mixing * dielectric matrix)
  average eigenvalue GAMMA=   1.8721
  6.9346  3.5452  2.7389  2.3600  1.8506  1.5504  1.5504  0.5865  1.2210  1.2210
  0.8115  0.8115  0.9593  0.9701  0.9701

 Free energy of the ion-electron system (eV)
  ---------------------------------------------------
  alpha Z        PSCENC =        36.80884744
  Ewald energy   TEWEN  =     11942.45779161
  -Hartree energ DENC   =    -15086.44528354
  -exchange      EXHF   =         0.00000000
  -V(xc)+E(xc)   XCENC  =       -80.62586728
  PAW double counting   =      1156.48080381     -835.32591237
  entropy T*S    EENTRO =        -0.03750146
  eigenvalues    EBANDS =      -609.98312869
  atomic energy  EATOM  =      3354.04126044
  ---------------------------------------------------
  free energy    TOTEN  =      -122.62899004 eV

  energy without entropy =     -122.59148858  energy(sigma->0) =     -122.61023931


--------------------------------------------------------------------------------------------------------




----------------------------------------- Iteration    1(  21)  ---------------------------------------


    POTLOK:  cpu time   12.22: real time   12.22
    SETDIJ:  cpu time    0.01: real time    0.02
     EDDAV:  cpu time   54.50: real time   54.51
       DOS:  cpu time    0.01: real time    0.01
    CHARGE:  cpu time    3.86: real time    3.86
    MIXING:  cpu time    0.01: real time    0.01
    --------------------------------------------
      LOOP:  cpu time   70.62: real time   70.64

 eigenvalue-minimisations  :  7008
 total energy-change (2. order) : 0.1413630E-04  (-0.1463846E-05)
 number of electron     107.9999995 magnetization 
 augmentation part       -9.3194545 magnetization 

 Broyden mixing:
  rms(total) = 0.45245E-04    rms(broyden)= 0.45243E-04
  rms(prec ) = 0.69715E-04
  weight for this iteration     100.00

 eigenvalues of (default mixing * dielectric matrix)
  average eigenvalue GAMMA=   1.9357
  7.0612  4.5014  2.8419  2.5837  1.8564  1.8564  1.3896  1.3896  0.5865  1.1960
  1.1960  0.8111  0.8111  0.9410  0.9744  0.9744

 Free energy of the ion-electron system (eV)
  ---------------------------------------------------
  alpha Z        PSCENC =        36.80884744
  Ewald energy   TEWEN  =     11942.45779161
  -Hartree energ DENC   =    -15086.48131850
  -exchange      EXHF   =         0.00000000
  -V(xc)+E(xc)   XCENC  =       -80.62584420
  PAW double counting   =      1156.47995270     -835.32506377
  entropy T*S    EENTRO =        -0.03750181
  eigenvalues    EBANDS =      -609.94709982
  atomic energy  EATOM  =      3354.04126044
  ---------------------------------------------------
  free energy    TOTEN  =      -122.62897590 eV

  energy without entropy =     -122.59147409  energy(sigma->0) =     -122.61022500


--------------------------------------------------------------------------------------------------------




----------------------------------------- Iteration    1(  22)  ---------------------------------------


    POTLOK:  cpu time   12.00: real time   12.00
    SETDIJ:  cpu time    0.02: real time    0.02
     EDDAV:  cpu time   50.68: real time   50.69
       DOS:  cpu time    0.01: real time    0.01
    CHARGE:  cpu time    3.17: real time    3.17
    MIXING:  cpu time    0.01: real time    0.01
    --------------------------------------------
      LOOP:  cpu time   65.89: real time   65.91

 eigenvalue-minimisations  :  6232
 total energy-change (2. order) : 0.4163888E-04  (-0.9051205E-06)
 number of electron     107.9999995 magnetization 
 augmentation part       -9.3194589 magnetization 

 Broyden mixing:
  rms(total) = 0.24897E-04    rms(broyden)= 0.24895E-04
  rms(prec ) = 0.34843E-04
  weight for this iteration     100.00

 eigenvalues of (default mixing * dielectric matrix)
  average eigenvalue GAMMA=   2.0443
  7.7441  5.8146  3.0027  2.6089  2.1624  1.7136  1.5072  1.5072  1.2368  1.2368
  0.5865  1.1430  0.8123  0.8123  0.9708  0.9708  0.9227

 Free energy of the ion-electron system (eV)
  ---------------------------------------------------
  alpha Z        PSCENC =        36.80884744
  Ewald energy   TEWEN  =     11942.45779161
  -Hartree energ DENC   =    -15086.48726153
  -exchange      EXHF   =         0.00000000
  -V(xc)+E(xc)   XCENC  =       -80.62596857
  PAW double counting   =      1156.47790670     -835.32298152
  entropy T*S    EENTRO =        -0.03750157
  eigenvalues    EBANDS =      -609.94102726
  atomic energy  EATOM  =      3354.04126044
  ---------------------------------------------------
  free energy    TOTEN  =      -122.62893426 eV

  energy without entropy =     -122.59143269  energy(sigma->0) =     -122.61018347


--------------------------------------------------------------------------------------------------------




----------------------------------------- Iteration    1(  23)  ---------------------------------------


    POTLOK:  cpu time   13.02: real time   13.02
    SETDIJ:  cpu time    0.01: real time    0.02
     EDDAV:  cpu time   51.45: real time   51.47
       DOS:  cpu time    0.01: real time    0.01
    CHARGE:  cpu time    3.52: real time    3.52
    MIXING:  cpu time    0.02: real time    0.02
    --------------------------------------------
      LOOP:  cpu time   68.03: real time   68.05

 eigenvalue-minimisations  :  6344
 total energy-change (2. order) : 0.4893993E-04  (-0.4070779E-06)
 number of electron     107.9999995 magnetization 
 augmentation part       -9.3194584 magnetization 

 Broyden mixing:
  rms(total) = 0.13250E-04    rms(broyden)= 0.13248E-04
  rms(prec ) = 0.16545E-04
  weight for this iteration     100.00

 eigenvalues of (default mixing * dielectric matrix)
  average eigenvalue GAMMA=   2.1157
  8.3529  6.5080  3.2027  2.7632  2.3745  1.7973  1.7973  1.3947  1.3947  0.5865
  1.2189  1.2189  0.8112  0.8112  0.9836  0.9836  0.9422  0.9422

 Free energy of the ion-electron system (eV)
  ---------------------------------------------------
  alpha Z        PSCENC =        36.80884744
  Ewald energy   TEWEN  =     11942.45779161
  -Hartree energ DENC   =    -15086.49793432
  -exchange      EXHF   =         0.00000000
  -V(xc)+E(xc)   XCENC  =       -80.62595249
  PAW double counting   =      1156.47814018     -835.32322903
  entropy T*S    EENTRO =        -0.03750172
  eigenvalues    EBANDS =      -609.93030742
  atomic energy  EATOM  =      3354.04126044
  ---------------------------------------------------
  free energy    TOTEN  =      -122.62888532 eV

  energy without entropy =     -122.59138360  energy(sigma->0) =     -122.61013446


[...]
     31      -3.9949      2.00000
     32      -3.8449      2.00000
     33      -3.7419      2.00000
     34      -3.4545      2.00000
     35      -3.3400      2.00000
     36      -3.2379      2.00000
     37      -3.1703      2.00000
     38      -3.0272      2.00000
     39      -2.9012      2.00000
     40      -2.7077      2.00000
     41      -2.6462      2.00000
     42      -2.5617      2.00000
     43      -2.3333      2.00000
     44      -2.2211      2.00000
     45      -2.1075      2.00000
     46      -1.9935      2.00000
     47      -1.8759      2.00000
     48      -1.6943      2.00000
     49      -1.5009      2.00000
     50      -1.3442      2.00000
     51      -1.0990      2.00000
     52      -0.5325      2.00000
     53      -0.2267      1.99999
     54      -0.0744      1.97141
     55       0.4704      0.00000
     56       0.8277      0.00000
     57       1.1392      0.00000
     58       1.3600      0.00000
     59       1.4644      0.00000
     60       1.5670      0.00000
     61       2.0877      0.00000
     62       2.4236      0.00000
     63       2.5586      0.00000
     64       2.6961      0.00000
     65       2.8706      0.00000
     66       2.9271      0.00000
     67       3.0478      0.00000
     68       3.2078      0.00000

 k-point    52 :       0.3077    0.5000    0.5000
  band No.  band energies     occupation 
      1     -13.1884      2.00000
      2     -12.6197      2.00000
      3     -12.2691      2.00000
      4     -11.9150      2.00000
      5     -11.7589      2.00000
      6     -11.3425      2.00000
      7     -11.1245      2.00000
      8     -10.9180      2.00000
      9     -10.8282      2.00000
     10     -10.5659      2.00000
     11     -10.5014      2.00000
     12     -10.0081      2.00000
     13      -9.0315      2.00000
     14      -8.2622      2.00000
     15      -7.8939      2.00000
     16      -7.8767      2.00000
     17      -7.1924      2.00000
     18      -7.1678      2.00000
     19      -7.0796      2.00000
     20      -6.7670      2.00000
     21      -6.3053      2.00000
     22      -6.1968      2.00000
     23      -6.0384      2.00000
     24      -5.8765      2.00000
     25      -5.4643      2.00000
     26      -5.0650      2.00000
     27      -5.0079      2.00000
     28      -4.6544      2.00000
     29      -4.5627      2.00000
     30      -4.4337      2.00000
     31      -4.2901      2.00000
     32      -4.1840      2.00000
     33      -3.9152      2.00000
     34      -3.5880      2.00000
     35      -3.4571      2.00000
     36      -3.3436      2.00000
     37      -3.1959      2.00000
     38      -3.0680      2.00000
     39      -3.0010      2.00000
     40      -2.8799      2.00000
     41      -2.7121      2.00000
     42      -2.6303      2.00000
     43      -2.3726      2.00000
     44      -2.3183      2.00000
     45      -2.0896      2.00000
     46      -2.0181      2.00000
     47      -1.9599      2.00000
     48      -1.8488      2.00000
     49      -1.7793      2.00000
     50      -1.4891      2.00000
     51      -1.3220      2.00000
     52      -0.6934      2.00000
     53      -0.5431      2.00000
     54      -0.2340      1.99999
     55       0.2008      0.08871
     56       0.4696      0.00000
     57       0.8311      0.00000
     58       1.1695      0.00000
     59       1.2096      0.00000
     60       1.3376      0.00000
     61       2.0449      0.00000
     62       2.1572      0.00000
     63       2.3230      0.00000
     64       2.3969      0.00000
     65       2.4961      0.00000
     66       2.7940      0.00000
     67       2.8573      0.00000
     68       3.0355      0.00000

 k-point    53 :       0.3846    0.5000    0.5000
  band No.  band energies     occupation 
      1     -12.7336      2.00000
      2     -12.1432      2.00000
      3     -11.7722      2.00000
      4     -11.4757      2.00000
      5     -11.3643      2.00000
      6     -11.0469      2.00000
      7     -10.8808      2.00000
      8     -10.7244      2.00000
      9     -10.6569      2.00000
     10     -10.5690      2.00000
     11     -10.4087      2.00000
     12      -9.7702      2.00000
     13      -9.0159      2.00000
     14      -8.5937      2.00000
     15      -8.3613      2.00000
     16      -8.1204      2.00000
     17      -7.7235      2.00000
     18      -7.6477      2.00000
     19      -7.4974      2.00000
     20      -7.1924      2.00000
     21      -6.8280      2.00000
     22      -6.7683      2.00000
     23      -6.6023      2.00000
     24      -6.4184      2.00000
     25      -5.4063      2.00000
     26      -5.0579      2.00000
     27      -4.7870      2.00000
     28      -4.7305      2.00000
     29      -4.5724      2.00000
     30      -4.3959      2.00000
     31      -4.2405      2.00000
     32      -4.1436      2.00000
     33      -3.9394      2.00000
     34      -3.6452      2.00000
     35      -3.6283      2.00000
     36      -3.4265      2.00000
     37      -3.3002      2.00000
     38      -3.2505      2.00000
     39      -3.2154      2.00000
     40      -2.9807      2.00000
     41      -2.7776      2.00000
     42      -2.6493      2.00000
     43      -2.4423      2.00000
     44      -2.3917      2.00000
     45      -2.2665      2.00000
     46      -2.1739      2.00000
     47      -2.0479      2.00000
     48      -1.9679      2.00000
     49      -1.8198      2.00000
     50      -1.5749      2.00000
     51      -1.3710      2.00000
     52      -0.9375      2.00000
     53      -0.6649      2.00000
     54      -0.3840      2.00000
     55       0.1000      0.78162
     56       0.1742      0.18482
     57       0.6201      0.00000
     58       1.0405      0.00000
     59       1.1732      0.00000
     60       1.4069      0.00000
     61       1.7309      0.00000
     62       1.9740      0.00000
     63       2.0237      0.00000
     64       2.2120      0.00000
     65       2.2427      0.00000
     66       2.5422      0.00000
     67       2.7051      0.00000
     68       2.8625      0.00000

 k-point    54 :       0.4615    0.5000    0.5000
  band No.  band energies     occupation 
      1     -12.3255      2.00000
      2     -11.6006      2.00000
      3     -11.2734      2.00000
      4     -11.2343      2.00000
      5     -11.0688      2.00000
      6     -10.9553      2.00000
      7     -10.8908      2.00000
      8     -10.8277      2.00000
      9     -10.7303      2.00000
     10     -10.6384      2.00000
     11     -10.3290      2.00000
     12      -9.5085      2.00000
     13      -8.7808      2.00000
     14      -8.7692      2.00000
     15      -8.5530      2.00000
     16      -8.4803      2.00000
     17      -8.2274      2.00000
     18      -7.7238      2.00000
     19      -7.6745      2.00000
     20      -7.4499      2.00000
     21      -7.4005      2.00000
     22      -7.2718      2.00000
     23      -7.1810      2.00000
     24      -6.5667      2.00000
     25      -5.1146      2.00000
     26      -5.0473      2.00000
     27      -4.6062      2.00000
     28      -4.5620      2.00000
     29      -4.3624      2.00000
     30      -4.3209      2.00000
     31      -4.1775      2.00000
     32      -4.0527      2.00000
     33      -3.9094      2.00000
     34      -3.8675      2.00000
     35      -3.6761      2.00000
     36      -3.6111      2.00000
     37      -3.4224      2.00000
     38      -3.3603      2.00000
     39      -3.3287      2.00000
     40      -3.1301      2.00000
     41      -2.9760      2.00000
     42      -2.8019      2.00000
     43      -2.5555      2.00000
     44      -2.4779      2.00000
     45      -2.3047      2.00000
     46      -2.2203      2.00000
     47      -2.1181      2.00000
     48      -1.8907      2.00000
     49      -1.7943      2.00000
     50      -1.6255      2.00000
     51      -1.3515      2.00000
     52      -0.9811      2.00000
     53      -0.6038      2.00000
     54      -0.5127      2.00000
     55      -0.0596      1.95225
     56       0.0116      1.66927
     57       0.5735      0.00000
     58       0.9281      0.00000
     59       1.2512      0.00000
     60       1.4675      0.00000
     61       1.5466      0.00000
     62       1.7731      0.00000
     63       1.9375      0.00000
     64       2.1449      0.00000
     65       2.2422      0.00000
     66       2.3637      0.00000
     67       2.6217      0.00000
     68       2.6905      0.00000


--------------------------------------------------------------------------------------------------------


 soft charge-density along one line, spin component           1
         0         1         2         3         4         5         6         7         8         9
 total charge-density along one line
 
 pseudopotential strength for first ion, spin component:           1
 29.809   0.008  -0.001  -0.022  -0.000  -0.000  -0.001   0.000
  0.008   0.009   0.000  -0.000   0.000  -0.000   0.000  -0.000
 -0.001   0.000   6.554  -0.001   0.000  -0.003   0.000  -0.000
 -0.022  -0.000  -0.001   6.549   0.000   0.000  -0.003  -0.000
 -0.000   0.000   0.000   0.000   6.555  -0.000  -0.000  -0.003
 -0.000  -0.000  -0.003   0.000  -0.000   0.015  -0.000   0.000
 -0.001   0.000   0.000  -0.003  -0.000  -0.000   0.015  -0.000
  0.000  -0.000  -0.000  -0.000  -0.003   0.000  -0.000   0.015
 total augmentation occupancy for first ion, spin component:           1
  1.810  -0.366   0.006   0.249  -0.000   0.002   0.114  -0.000
 -0.366   1.267   0.020   0.844  -0.000   0.004  -0.433  -0.000
  0.006   0.020   1.146   0.013  -0.000  -0.502   0.013   0.000
  0.249   0.844   0.013   1.290  -0.000   0.013  -0.420  -0.000
 -0.000  -0.000  -0.000  -0.000   1.148   0.000  -0.000  -0.527
  0.002   0.004  -0.502   0.013   0.000   0.290  -0.015  -0.000
  0.114  -0.433   0.013  -0.420  -0.000  -0.015   0.227   0.000
 -0.000  -0.000   0.000  -0.000  -0.527  -0.000   0.000   0.325


------------------------ aborting loop because EDIFF is reached ----------------------------------------


    CHARGE:  cpu time    3.57: real time    3.57
    FORLOC:  cpu time    0.05: real time    0.05
    FORNL :  cpu time   16.69: real time   16.69
    STRESS:  cpu time   50.59: real time   50.60
    FORCOR:  cpu time   12.06: real time   12.06
    FORHAR:  cpu time    0.14: real time    0.14
    MIXING:  cpu time    0.02: real time    0.02
    OFIELD:  cpu time    0.00: real time    0.00

  FORCE on cell =-STRESS in cart. coord.  units (eV):
  Direction    XX          YY          ZZ          XY          YZ          ZX
  --------------------------------------------------------------------------------------
  Alpha Z    36.80885    36.80885    36.80885
  Ewald   14470.71683 13931.05149-16459.31801     6.69517    44.71098    38.50769
  Hartree 14937.49729 14582.88627-14433.88454    -2.15489    14.91556     3.83513
  E(xc)    -356.68426  -356.44172  -355.06080    -0.16027    -0.12221    -0.08751
  Local  -30952.70114-30072.78693 29309.50512    -2.86077   -59.76405   -36.44222
  n-local  1161.52742  1151.45253  1137.80701     4.90741     5.51228     7.86672
  augment  -201.96386  -202.65240  -203.88813    -0.00135    -0.39910     0.08531
  Kinetic   918.25331   933.65607   973.87643    -3.93608     0.64415    -7.98245
  Fock        0.00000     0.00000     0.00000     0.00000     0.00000     0.00000
  -------------------------------------------------------------------------------------
  Total      13.45443     3.97416     5.84594     2.48921     5.49762     5.78267
  in kB      21.50649     6.35257     9.34455     3.97892     8.78778     9.24342
  external pressure =       12.40 kB  Pullay stress =        0.00 kB


 VOLUME and BASIS-vectors are now :
 -----------------------------------------------------------------------------
  energy-cutoff  :      300.00
  volume of cell :     1002.32
      direct lattice vectors                 reciprocal lattice vectors
     3.540400000  0.000000000  0.000000000     0.282453960  0.048570342  0.000000000
    -1.770200000 10.294348000  0.000000000     0.000000000  0.097140683  0.000000000
     0.000000000  0.000000000 27.501429000     0.000000000  0.000000000  0.036361747

  length of vectors
     3.540400000 10.445439617 27.501429000     0.286599577  0.097140683  0.036361747


 FORCES acting on ions
    electron-ion (+dipol)            ewald-force                    non-local-force                 convergence-correction
 -----------------------------------------------------------------------------------------------
   0.726E-02 0.118E+02 0.291E+02   -.604E-02 -.115E+02 -.247E+02   0.405E-02 -.254E+00 -.435E+01   -.782E-07 -.303E-06 0.249E-05
   -.116E+00 0.129E+02 -.564E+03   0.133E+00 -.127E+02 0.568E+03   -.790E-01 -.251E+00 -.351E+01   -.495E-06 -.372E-05 -.511E-05
   0.280E-02 0.630E+02 0.464E+02   -.662E-03 -.646E+02 -.421E+02   -.106E-02 0.159E+01 -.420E+01   0.533E-07 -.193E-05 0.103E-05
   0.375E+00 0.284E+02 -.518E+03   -.366E+00 -.292E+02 0.521E+03   -.187E+00 0.121E+01 -.298E+01   -.104E-05 0.116E-04 -.688E-05
   0.105E-02 -.575E+02 0.526E+03   0.780E-04 0.591E+02 -.531E+03   -.136E-02 -.154E+01 0.428E+01   -.502E-07 -.386E-05 -.608E-05
   0.733E+01 -.103E+03 -.507E+02   -.843E+01 0.105E+03 0.482E+02   0.129E+01 -.143E+01 0.257E+01   -.215E-05 0.810E-05 -.108E-04
   0.428E-03 0.540E+02 0.526E+03   0.149E-04 -.559E+02 -.530E+03   -.371E-03 0.192E+01 0.416E+01   0.256E-07 0.225E-05 0.236E-07
   0.979E+00 0.948E+02 -.849E+02   -.271E+00 -.979E+02 0.822E+02   -.278E+00 0.295E+01 0.315E+01   -.501E-06 0.313E-05 0.105E-06
   0.896E-03 0.190E+01 0.572E+03   -.837E-04 -.211E+01 -.577E+03   0.899E-03 0.207E+00 0.478E+01   -.594E-07 0.546E-05 -.138E-04
   -.232E+01 0.107E+02 0.825E+00   0.197E+01 -.107E+02 -.309E+01   0.953E+00 -.703E+00 0.161E+01   0.375E-05 -.638E-05 -.345E-05
   -.912E-02 -.657E+02 0.609E+02   0.509E-02 0.677E+02 -.568E+02   0.584E-02 -.193E+01 -.406E+01   -.387E-07 0.123E-05 0.101E-06
   -.643E+00 -.439E+02 -.549E+03   0.434E+00 0.462E+02 0.551E+03   0.299E+00 -.236E+01 -.185E+01   0.124E-05 -.116E-04 -.887E-05
   -.439E-02 0.307E+02 0.208E+03   0.449E-04 -.328E+02 -.208E+03   0.751E-02 0.211E+01 0.316E+00   -.828E-08 -.115E-05 0.901E-06
   -.571E+01 -.377E+02 -.246E+03   0.499E+01 0.348E+02 0.248E+03   0.475E+00 0.244E+01 -.253E+01   0.741E-06 0.780E-05 -.540E-05
   -.190E-02 -.121E+02 0.140E+03   -.128E-02 0.124E+02 -.143E+03   0.127E-02 -.262E+00 0.254E+01   0.173E-07 -.451E-06 -.313E-05
   -.259E+01 0.786E+01 -.334E+03   0.195E+01 -.795E+01 0.334E+03   0.292E-01 0.872E-01 0.312E+00   -.711E-06 -.757E-05 -.664E-05
   0.821E-03 -.517E+01 0.346E+03   0.551E-04 0.562E+01 -.344E+03   0.101E-02 -.460E+00 -.251E+01   0.709E-08 -.150E-06 -.624E-05
   0.264E+02 -.137E+01 -.105E+03   -.227E+02 0.548E+01 0.111E+03   -.139E+02 -.733E+01 -.140E+02   -.382E-05 -.642E-05 -.120E-04
   0.323E-02 0.101E+02 0.335E+03   -.208E-06 -.104E+02 -.332E+03   -.442E-02 0.224E+00 -.244E+01   -.102E-07 0.469E-05 -.407E-06
   0.236E+01 0.421E+02 -.150E+03   -.170E+01 -.438E+02 0.148E+03   0.960E-01 0.782E+00 0.148E+01   0.834E-06 -.950E-07 -.351E-05
   -.884E-02 0.125E+02 0.126E+03   0.408E-03 -.130E+02 -.129E+03   0.798E-02 0.470E+00 0.260E+01   0.296E-09 0.692E-06 -.176E-05
   0.811E-01 0.213E+02 -.307E+03   0.160E+00 -.211E+02 0.309E+03   -.437E+00 -.108E+00 -.161E+01   -.635E-07 0.120E-05 -.330E-05
   0.492E-03 -.319E+02 0.254E+03   -.398E-05 0.340E+02 -.254E+03   0.197E-02 -.214E+01 -.358E+00   0.200E-07 -.144E-05 -.294E-05
   -.272E+02 -.428E+02 -.253E+03   0.239E+02 0.431E+02 0.254E+03   0.129E+02 0.388E+01 0.708E+01   0.329E-05 -.860E-06 -.648E-05
 -----------------------------------------------------------------------------------------------
   -.113E+01 0.901E+00 0.955E+01   -.142E-13 0.426E-13 0.369E-12   0.113E+01 -.900E+00 -.955E+01   0.964E-06 0.323E-06 -.102E-03
 
 
 POSITION                                       TOTAL-FORCE (eV/Angst)
 -----------------------------------------------------------------------------------
      0.00000      2.34757      6.41229         0.004982     -0.027896      0.036404
      3.18636      0.28870     14.16300        -0.062296     -0.028037     -0.078307
     -0.00000      9.43147      5.75866         0.000797     -0.011798      0.101190
     -0.35404      7.37260     13.50937        -0.178511      0.468336     -0.079153
     -0.00000      6.40009      2.31424        -0.000515     -0.008408      0.009803
     -0.00000      6.40009     10.06495         0.190356      0.704887      0.025496
      1.77020     10.27849      2.37372        -0.000208      0.010858     -0.000195
      1.77020     10.27849     10.12443         0.429765     -0.088790      0.357679
      1.77020      3.18974      1.66157         0.001432      0.000187      0.012156
      1.77020      3.18974      9.41228         0.597254     -0.695139     -0.655543
      1.77020      5.55354      5.69975         0.001522      0.007554      0.101098
      1.41616      3.49467     13.45047         0.089514     -0.051469      0.552255
      1.77020      9.05319      4.34076         0.002884      0.008158      0.012459
      1.41616      6.99432     12.09147        -0.248753     -0.419950     -0.899322
      0.00000      4.22380      5.10944        -0.002187      0.040191      0.040016
     -0.35404      2.16493     12.86016        -0.607023     -0.007654     -0.083633
     -0.00000      4.15582      2.74166         0.001604     -0.006250     -0.029868
     -0.00000      4.15582     10.49237       -10.279957     -3.225466     -7.601533
      1.77020      1.31366      2.96438        -0.001474     -0.003547     -0.034046
      1.77020      1.31366     10.71510         0.758101     -0.924128     -0.172685
      1.77020      1.38163      5.33187        -0.000736     -0.068121      0.037454
     -0.35404      9.61710     13.08259        -0.196182      0.173811     -0.097179
      1.77020      6.77850      3.73234         0.002174      0.010149     -0.001628
      1.41616      4.71963     11.48306         9.497456      4.142522      8.447082
 -----------------------------------------------------------------------------------
    total drift:                                0.006717      0.000347      0.003213


--------------------------------------------------------------------------------------------------------



  FREE ENERGIE OF THE ION-ELECTRON SYSTEM (eV)
  ---------------------------------------------------
  free  energy   TOTEN  =      -122.62886045 eV

  energy  without entropy=     -122.59135868  energy(sigma->0) =     -122.61010957
 


--------------------------------------------------------------------------------------------------------


    POTLOK:  cpu time   12.64: real time   12.64


--------------------------------------------------------------------------------------------------------


     LOOP+:  cpu time 2108.36: real time 2109.04
    4ORBIT:  cpu time    0.00: real time    0.00

 total amount of memory used by VASP on root node   146493. kBytes
========================================================================

   base      :      30000. kBytes
   nonlr-proj:       3452. kBytes
   fftplans  :       9347. kBytes
   grid      :      14649. kBytes
   one-center:         36. kBytes
   wavefun   :      89009. kBytes
 
  
  
 General timing and accounting informations for this job:
 ========================================================
  
                  Total CPU time used (sec):     2122.203
                            User time (sec):     2098.307
                          System time (sec):       23.896
                         Elapsed time (sec):     2123.954
  
                   Maximum memory used (kb):      335096.
                   Average memory used (kb):           0.
  
                          Minor page faults:      7952222
                          Major page faults:            8
                 Voluntary context switches:         1562
