 running on    8 total cores
 distrk:  each k-point on    8 cores,    1 groups
 distr:  one band on    2 cores,    4 groups
 using from now: INCAR     
 vasp.5.3.5 31Mar14 (build Oct 29 2014 16:16:03) complex                        
  
 POSCAR found type information on POSCAR  P  Si
 POSCAR found :  2 types and      12 ions
 scaLAPACK will be used

 ----------------------------------------------------------------------------- 
|                                                                             |
|  ADVICE TO THIS USER RUNNING 'VASP/VAMP'   (HEAR YOUR MASTER'S VOICE ...):  |
|                                                                             |
|      You have switched on vdW-DFT.                                          |
|      This routine was written and supplied by Jiri Klimes.                  |
|      We recommed that you carefully read and cite the following             |
|      publication                                                            |
|      J. Klimes, D.R. Bowler, A. Michelides                                  |
|        J. Phys.: Cond Matt. 22 022201 (2010)                                |
|      J. Klimes, D.R. Bowler, A. Michelides                                  |
|        Phys. Rev. B. 83, 195131 (2011)                                      |
|      and references therein.                                                |
|                                                                             |
 ----------------------------------------------------------------------------- 


 ----------------------------------------------------------------------------- 
|                                                                             |
|  ADVICE TO THIS USER RUNNING 'VASP/VAMP'   (HEAR YOUR MASTER'S VOICE ...):  |
|                                                                             |
|      You enforced a specific xc-type in the INCAR file,                     |
|      a different type was found on the POTCAR file                          |
|          I HOPE YOU KNOW, WHAT YOU ARE  DOING                               |
|                                                                             |
 ----------------------------------------------------------------------------- 

 LDA part: xc-table for Pade appr. of Perdew


 VERY BAD NEWS! internal error in subroutine IBZKPT:
 Reciprocal lattice and k-lattice belong to different class of lattices. Often results are still useful...      96


 VERY BAD NEWS! internal error in subroutine IBZKPT:
 Reciprocal lattice and k-lattice belong to different class of lattices. Often results are still useful...      96


 VERY BAD NEWS! internal error in subroutine IBZKPT:
 Reciprocal lattice and k-lattice belong to different class of lattices. Often results are still useful...      96


 VERY BAD NEWS! internal error in subroutine IBZKPT:
 Reciprocal lattice and k-lattice belong to different class of lattices. Often results are still useful...      96


 VERY BAD NEWS! internal error in subroutine IBZKPT:
 Reciprocal lattice and k-lattice belong to different class of lattices. Often results are still useful...      96


 VERY BAD NEWS! internal error in subroutine IBZKPT:
 Reciprocal lattice and k-lattice belong to different class of lattices. Often results are still useful...      96


 VERY BAD NEWS! internal error in subroutine IBZKPT:
 Reciprocal lattice and k-lattice belong to different class of lattices. Often results are still useful...      96
 found WAVECAR, reading the header


 VERY BAD NEWS! internal error in subroutine IBZKPT:
 Reciprocal lattice and k-lattice belong to different class of lattices. Often results are still useful...      96
 POSCAR, INCAR and KPOINTS ok, starting setup
 WARNING: small aliasing (wrap around) errors must be expected
 FFT: planning ...
 reading WAVECAR
 the WAVECAR file was read successfully
 augmentation electrons   54.0061520924032     
 soft         electrons  0.000000000000000E+000
 total        electrons   54.0061520924032     
 augmentation electrons   54.0061520924032     
 soft         electrons  0.000000000000000E+000
 total        electrons   54.0061520924032     
 augmentation electrons   54.0061520924032     
 soft         electrons  0.000000000000000E+000
 total        electrons   54.0061520924032     
 augmentation electrons   54.0061520924032     
 soft         electrons  0.000000000000000E+000
 total        electrons   54.0061520924032     
 augmentation electrons   54.0061520924032     
 soft         electrons  0.000000000000000E+000
 total        electrons   54.0061520924032     
 augmentation electrons   54.0061520924032     
 soft         electrons  0.000000000000000E+000
 total        electrons   54.0061520924032     
 augmentation electrons   54.0061520924032     
 soft         electrons  0.000000000000000E+000
 total        electrons   54.0061520924032     
 augmentation electrons   54.0061520924032     
 soft         electrons  0.000000000000000E+000
 total        electrons   54.0061520924032     
 augmentation electrons   120.811292166363     
 soft         electrons  0.000000000000000E+000
 total        electrons   120.811292166363     
 augmentation electrons   120.811292166363     
 soft         electrons  0.000000000000000E+000
 total        electrons   120.811292166363     
 augmentation electrons   120.811292166363     
 soft         electrons  0.000000000000000E+000
 total        electrons   120.811292166363     
 augmentation electrons   120.811292166363     
 soft         electrons  0.000000000000000E+000
 total        electrons   120.811292166363     
 augmentation electrons   120.811292166363     
 soft         electrons  0.000000000000000E+000
 total        electrons   120.811292166363     
 augmentation electrons   120.811292166363     
 soft         electrons  0.000000000000000E+000
 total        electrons   120.811292166363     
 augmentation electrons   120.811292166363     
 soft         electrons  0.000000000000000E+000
 total        electrons   120.811292166363     
 augmentation electrons   120.811292166363     
 soft         electrons  0.000000000000000E+000
 total        electrons   120.811292166363     
 initial charge from wavefunction
 entering main loop
       N       E                     dE             d eps       ncg     rms          rms(c)
Total vdW correction in eV:      9.0663796
DAV:   1    -0.656381872352E+02   -0.65638E+02   -0.52179E-06  4152   0.102E-02    0.574E-05
Total vdW correction in eV:      9.0663784
DAV:   2    -0.656381879331E+02   -0.69796E-06   -0.63198E-07  3284   0.445E-03
Total vdW correction in eV:      9.0663793
Total vdW correction in eV:      9.0663780
   1 F= -.65638188E+02 E0= -.65638188E+02  d E =-.656382E+02
 curvature:   0.00 expect dE= 0.000E+00 dE for cont linesearch  0.000E+00
 trial: gam= 0.00000 g(F)=  0.148E-03 g(S)=  0.621E-03 ort = 0.000E+00 (trialstep = 0.100E+01)
 search vector abs. value=  0.769E-03
 bond charge predicted
       N       E                     dE             d eps       ncg     rms          rms(c)
Total vdW correction in eV:      9.0657237
DAV:   1    -0.656390237451E+02   -0.83651E-03   -0.16089E-02  4112   0.466E-01    0.928E-02
Total vdW correction in eV:      9.0606156
DAV:   2    -0.656389926511E+02    0.31094E-04   -0.94309E-04  4564   0.122E-01    0.486E-02
Total vdW correction in eV:      9.0561136
DAV:   3    -0.656393314589E+02   -0.33881E-03   -0.40028E-04  4852   0.692E-02    0.113E-02
Total vdW correction in eV:      9.0557469
DAV:   4    -0.656397524125E+02   -0.42095E-03   -0.36630E-05  4664   0.268E-02    0.484E-03
Total vdW correction in eV:      9.0552640
DAV:   5    -0.656400750458E+02   -0.32263E-03   -0.65458E-06  4600   0.121E-02    0.190E-03
Total vdW correction in eV:      9.0552142
DAV:   6    -0.656402330459E+02   -0.15800E-03   -0.14248E-06  3424   0.662E-03    0.882E-04
Total vdW correction in eV:      9.0552231
DAV:   7    -0.656403305877E+02   -0.97542E-04   -0.16389E-06  3336   0.664E-03    0.324E-04
Total vdW correction in eV:      9.0552558
DAV:   8    -0.656403172703E+02    0.13317E-04   -0.11443E-06  3316   0.581E-03    0.194E-04
Total vdW correction in eV:      9.0552752
DAV:   9    -0.656403323496E+02   -0.15079E-04   -0.12682E-06  3192   0.603E-03    0.124E-04
Total vdW correction in eV:      9.0552764
DAV:  10    -0.656403376165E+02   -0.52669E-05   -0.47230E-07  3328   0.417E-03    0.904E-05
Total vdW correction in eV:      9.0552961
DAV:  11    -0.656403537644E+02   -0.16148E-04   -0.14284E-06  3492   0.658E-03    0.614E-05
Total vdW correction in eV:      9.0552942
DAV:  12    -0.656403571067E+02   -0.33423E-05   -0.56070E-07  3268   0.446E-03    0.326E-05
Total vdW correction in eV:      9.0552914
DAV:  13    -0.656403724937E+02   -0.15387E-04   -0.16374E-06  3744   0.687E-03    0.187E-05
Total vdW correction in eV:      9.0552903
DAV:  14    -0.656403766207E+02   -0.41271E-05   -0.89040E-07  3152   0.544E-03    0.170E-05
Total vdW correction in eV:      9.0552881
DAV:  15    -0.656403835693E+02   -0.69486E-05   -0.12327E-06  3788   0.638E-03    0.887E-06
Total vdW correction in eV:      9.0552869
DAV:  16    -0.656403865028E+02   -0.29335E-05   -0.79186E-07  2956   0.515E-03    0.564E-06
Total vdW correction in eV:      9.0552865
DAV:  17    -0.656403867499E+02   -0.24704E-06   -0.38898E-07  2784   0.367E-03
Total vdW correction in eV:      9.0552862
Total vdW correction in eV:      9.0552861
   2 F= -.65640387E+02 E0= -.65640387E+02  d E =-.219882E-02
 trial-energy change:   -0.002199  1 .order   -0.000395   -0.000769   -0.000020
 step:   1.0017(harm=  1.0268)  dis= 0.00130  next Energy=   -65.640387 (dE=-0.220E-02)
 bond charge predicted
       N       E                     dE             d eps       ncg     rms          rms(c)
Total vdW correction in eV:      9.0552849
DAV:   1    -0.656403867186E+02   -0.21577E-06   -0.42461E-07  3080   0.374E-03    0.131E-04
Total vdW correction in eV:      9.0552775
DAV:   2    -0.656403882849E+02   -0.15663E-05   -0.32331E-07  2772   0.294E-03    0.900E-05
Total vdW correction in eV:      9.0552661
DAV:   3    -0.656403894406E+02   -0.11557E-05   -0.40158E-07  2756   0.340E-03    0.190E-05
Total vdW correction in eV:      9.0552678
DAV:   4    -0.656403894886E+02   -0.47978E-07   -0.26506E-07  2760   0.242E-03
Total vdW correction in eV:      9.0552666
Total vdW correction in eV:      9.0552678
   3 F= -.65640389E+02 E0= -.65640389E+02  d E =-.220156E-02
 curvature:  -0.06 expect dE=-0.152E-04 dE for cont linesearch -0.293E-07
 trial: gam= 0.28419 g(F)=  0.206E-03 g(S)=  0.308E-04 ort = 0.187E-04 (trialstep = 0.100E+01)
 search vector abs. value=  0.310E-03
 bond charge predicted
       N       E                     dE             d eps       ncg     rms          rms(c)
Total vdW correction in eV:      9.0558210
DAV:   1    -0.656404947205E+02   -0.10528E-03   -0.74460E-03  3924   0.316E-01    0.221E-02
Total vdW correction in eV:      9.0551463
DAV:   2    -0.656400910400E+02    0.40368E-03   -0.58192E-04  4884   0.924E-02    0.107E-02
Total vdW correction in eV:      9.0549570
DAV:   3    -0.656399964741E+02    0.94566E-04   -0.19252E-05  5208   0.218E-02    0.641E-03
Total vdW correction in eV:      9.0546406
DAV:   4    -0.656399636869E+02    0.32787E-04   -0.12217E-05  4740   0.160E-02    0.156E-03
Total vdW correction in eV:      9.0545676
DAV:   5    -0.656399805199E+02   -0.16833E-04   -0.37895E-06  3872   0.104E-02    0.852E-04
Total vdW correction in eV:      9.0545491
DAV:   6    -0.656399773424E+02    0.31775E-05   -0.15211E-06  3100   0.681E-03    0.413E-04
Total vdW correction in eV:      9.0545615
DAV:   7    -0.656399801724E+02   -0.28300E-05   -0.66747E-07  3048   0.487E-03    0.145E-04
Total vdW correction in eV:      9.0545705
DAV:   8    -0.656399867862E+02   -0.66138E-05   -0.59635E-07  2768   0.451E-03    0.797E-05
Total vdW correction in eV:      9.0545766
DAV:   9    -0.656399959376E+02   -0.91514E-05   -0.72887E-07  2984   0.501E-03    0.469E-05
Total vdW correction in eV:      9.0545832
DAV:  10    -0.656400020761E+02   -0.61386E-05   -0.67794E-07  3332   0.504E-03    0.318E-05
Total vdW correction in eV:      9.0545838
DAV:  11    -0.656400099930E+02   -0.79168E-05   -0.68019E-07  2828   0.519E-03    0.153E-05
Total vdW correction in eV:      9.0545855
DAV:  12    -0.656400159459E+02   -0.59529E-05   -0.77235E-07  3236   0.516E-03    0.132E-05
Total vdW correction in eV:      9.0545848
DAV:  13    -0.656400214464E+02   -0.55005E-05   -0.79380E-07  3292   0.505E-03    0.575E-06
Total vdW correction in eV:      9.0545845
DAV:  14    -0.656400225373E+02   -0.10909E-05   -0.47221E-07  2860   0.378E-03    0.464E-06
Total vdW correction in eV:      9.0545840
DAV:  15    -0.656400226863E+02   -0.14897E-06   -0.39303E-07  2804   0.351E-03
Total vdW correction in eV:      9.0545830
Total vdW correction in eV:      9.0545835
   4 F= -.65640023E+02 E0= -.65640023E+02  d E =0.366802E-03
 trial-energy change:    0.000367  1 .order   -0.000143   -0.000243   -0.000043
 step:   1.2151(harm=  1.2151)  dis= 0.00187  next Energy=   -65.640537 (dE=-0.147E-03)
 bond charge predicted
       N       E                     dE             d eps       ncg     rms          rms(c)
Total vdW correction in eV:      9.0547020
DAV:   1    -0.656400261404E+02   -0.36031E-05   -0.34359E-04  3980   0.680E-02    0.475E-03
Total vdW correction in eV:      9.0545572
DAV:   2    -0.656399294674E+02    0.96673E-04   -0.28619E-05  4588   0.218E-02    0.226E-03
Total vdW correction in eV:      9.0545144
DAV:   3    -0.656399102506E+02    0.19217E-04   -0.17858E-06  3324   0.795E-03    0.138E-03
Total vdW correction in eV:      9.0544418
DAV:   4    -0.656399023517E+02    0.78989E-05   -0.23164E-06  3528   0.861E-03    0.301E-04
Total vdW correction in eV:      9.0544303
DAV:   5    -0.656399101839E+02   -0.78322E-05   -0.67728E-07  3168   0.490E-03    0.179E-04
Total vdW correction in eV:      9.0544263
DAV:   6    -0.656399119276E+02   -0.17437E-05   -0.72055E-07  2948   0.474E-03    0.102E-04
Total vdW correction in eV:      9.0544304
DAV:   7    -0.656399121184E+02   -0.19080E-06   -0.74301E-07  2836   0.463E-03
Total vdW correction in eV:      9.0544362
Total vdW correction in eV:      9.0544333
   5 F= -.65639912E+02 E0= -.65639912E+02  d E =0.477370E-03
 curvature:  -0.78 expect dE=-0.792E-04 dE for cont linesearch -0.144E-10
 trial: gam= 0.45870 g(F)=  0.951E-04 g(S)=  0.693E-05 ort = 0.758E-07 (trialstep = 0.104E+01)
 search vector abs. value=  0.167E-03
 bond charge predicted
       N       E                     dE             d eps       ncg     rms          rms(c)
Total vdW correction in eV:      9.0553152
DAV:   1    -0.656399701503E+02   -0.58223E-04   -0.39508E-03  3888   0.231E-01    0.188E-02
Total vdW correction in eV:      9.0547250
DAV:   2    -0.656397200035E+02    0.25015E-03   -0.31687E-04  4888   0.707E-02    0.110E-02
Total vdW correction in eV:      9.0544803
DAV:   3    -0.656396515608E+02    0.68443E-04   -0.13479E-05  4984   0.183E-02    0.607E-03
Total vdW correction in eV:      9.0541235
DAV:   4    -0.656396710540E+02   -0.19493E-04   -0.92079E-06  4684   0.139E-02    0.133E-03
Total vdW correction in eV:      9.0540534
DAV:   5    -0.656397104964E+02   -0.39442E-04   -0.24529E-06  3572   0.836E-03    0.683E-04
Total vdW correction in eV:      9.0540361
DAV:   6    -0.656397151181E+02   -0.46217E-05   -0.11824E-06  3076   0.625E-03    0.354E-04
Total vdW correction in eV:      9.0540458
DAV:   7    -0.656397193257E+02   -0.42076E-05   -0.65778E-07  2856   0.461E-03    0.115E-04
Total vdW correction in eV:      9.0540480
DAV:   8    -0.656397239901E+02   -0.46644E-05   -0.41141E-07  2808   0.359E-03    0.717E-05
Total vdW correction in eV:      9.0540493
DAV:   9    -0.656397263174E+02   -0.23273E-05   -0.54362E-07  2740   0.400E-03    0.386E-05
Total vdW correction in eV:      9.0540519
DAV:  10    -0.656397273091E+02   -0.99161E-06   -0.40102E-07  2696   0.360E-03
Total vdW correction in eV:      9.0540516
Total vdW correction in eV:      9.0540518
   6 F= -.65639727E+02 E0= -.65639727E+02  d E =0.184809E-03
 trial-energy change:    0.000185  1 .order   -0.000075   -0.000106   -0.000043
 step:   1.7426(harm=  1.7426)  dis= 0.00180  next Energy=   -65.640001 (dE=-0.889E-04)
 bond charge predicted
       N       E                     dE             d eps       ncg     rms          rms(c)
Total vdW correction in eV:      9.0546427
DAV:   1    -0.656397351549E+02   -0.88375E-05   -0.17747E-03  3944   0.155E-01    0.126E-02
Total vdW correction in eV:      9.0542465
DAV:   2    -0.656395623207E+02    0.17283E-03   -0.14316E-04  4820   0.478E-02    0.734E-03
Total vdW correction in eV:      9.0540822
DAV:   3    -0.656395202747E+02    0.42046E-04   -0.75974E-06  4480   0.144E-02    0.408E-03
Total vdW correction in eV:      9.0538430
DAV:   4    -0.656395319803E+02   -0.11706E-04   -0.57654E-06  4144   0.119E-02    0.903E-04
Total vdW correction in eV:      9.0537920
DAV:   5    -0.656395592045E+02   -0.27224E-04   -0.16493E-06  3364   0.702E-03    0.444E-04
Total vdW correction in eV:      9.0537837
DAV:   6    -0.656395617730E+02   -0.25685E-05   -0.71750E-07  2968   0.509E-03    0.254E-04
Total vdW correction in eV:      9.0537912
DAV:   7    -0.656395647301E+02   -0.29571E-05   -0.55884E-07  2884   0.430E-03    0.799E-05
Total vdW correction in eV:      9.0537914
DAV:   8    -0.656395681841E+02   -0.34539E-05   -0.48959E-07  2720   0.374E-03    0.496E-05
Total vdW correction in eV:      9.0537922
DAV:   9    -0.656395694018E+02   -0.12177E-05   -0.36730E-07  2716   0.341E-03    0.319E-05
Total vdW correction in eV:      9.0537943
DAV:  10    -0.656395699426E+02   -0.54078E-06   -0.37336E-07  2644   0.349E-03
Total vdW correction in eV:      9.0537939
Total vdW correction in eV:      9.0537939
   7 F= -.65639570E+02 E0= -.65639570E+02  d E =0.342176E-03
 curvature:  -1.43 expect dE=-0.431E-04 dE for cont linesearch -0.795E-08
 trial: gam= 0.27239 g(F)=  0.293E-04 g(S)=  0.921E-06 ort = 0.965E-06 (trialstep = 0.118E+01)
 search vector abs. value=  0.431E-04
 bond charge predicted
       N       E                     dE             d eps       ncg     rms          rms(c)
Total vdW correction in eV:      9.0540382
DAV:   1    -0.656395831635E+02   -0.13762E-04   -0.11889E-03  3888   0.132E-01    0.742E-03
Total vdW correction in eV:      9.0539831
DAV:   2    -0.656394891973E+02    0.93966E-04   -0.97773E-05  4392   0.405E-02    0.510E-03
Total vdW correction in eV:      9.0539825
DAV:   3    -0.656394741979E+02    0.14999E-04   -0.46748E-06  4312   0.115E-02    0.343E-03
Total vdW correction in eV:      9.0539594
DAV:   4    -0.656394765931E+02   -0.23952E-05   -0.36790E-06  3648   0.101E-02    0.735E-04
Total vdW correction in eV:      9.0539439
DAV:   5    -0.656394805283E+02   -0.39352E-05   -0.14382E-06  2988   0.685E-03    0.499E-04
Total vdW correction in eV:      9.0539396
DAV:   6    -0.656394797874E+02    0.74090E-06   -0.83440E-07  2868   0.517E-03
Total vdW correction in eV:      9.0539457
Total vdW correction in eV:      9.0539421
   8 F= -.65639480E+02 E0= -.65639480E+02  d E =0.901552E-04
 trial-energy change:    0.000090  1 .order   -0.000021   -0.000036   -0.000007
 step:   1.4613(harm=  1.4613)  dis= 0.00092  next Energy=   -65.639592 (dE=-0.223E-04)
 bond charge predicted
       N       E                     dE             d eps       ncg     rms          rms(c)
Total vdW correction in eV:      9.0539995
DAV:   1    -0.656394790298E+02    0.14985E-05   -0.67319E-05  3984   0.315E-02    0.181E-03
Total vdW correction in eV:      9.0539883
DAV:   2    -0.656394560923E+02    0.22937E-04   -0.65937E-06  4100   0.116E-02    0.119E-03
Total vdW correction in eV:      9.0539886
DAV:   3    -0.656394520959E+02    0.39964E-05   -0.13329E-06  2944   0.677E-03    0.786E-04
Total vdW correction in eV:      9.0539848
DAV:   4    -0.656394506566E+02    0.14393E-05   -0.15500E-06  3060   0.700E-03    0.140E-04
Total vdW correction in eV:      9.0539813
DAV:   5    -0.656394520514E+02   -0.13948E-05   -0.52011E-07  2728   0.408E-03    0.117E-04
Total vdW correction in eV:      9.0539792
DAV:   6    -0.656394528950E+02   -0.84362E-06   -0.57122E-07  2832   0.396E-03
Total vdW correction in eV:      9.0539822
Total vdW correction in eV:      9.0539805
   9 F= -.65639453E+02 E0= -.65639453E+02  d E =0.117048E-03
 curvature:  -1.03 expect dE=-0.174E-04 dE for cont linesearch -0.758E-10
 trial: gam= 0.57063 g(F)=  0.153E-04 g(S)=  0.155E-05 ort = 0.562E-07 (trialstep = 0.124E+01)
 search vector abs. value=  0.310E-04
 bond charge predicted
       N       E                     dE             d eps       ncg     rms          rms(c)
Total vdW correction in eV:      9.0540335
DAV:   1    -0.656394636798E+02   -0.11628E-04   -0.91804E-04  3940   0.114E-01    0.794E-03
Total vdW correction in eV:      9.0538978
DAV:   2    -0.656394667025E+02   -0.30227E-05   -0.66458E-05  4516   0.344E-02    0.484E-03
Total vdW correction in eV:      9.0538402
DAV:   3    -0.656394763082E+02   -0.96056E-05   -0.39927E-06  3884   0.109E-02    0.274E-03
Total vdW correction in eV:      9.0537722
DAV:   4    -0.656395093625E+02   -0.33054E-04   -0.33388E-06  3468   0.966E-03    0.615E-04
Total vdW correction in eV:      9.0537590
DAV:   5    -0.656395223954E+02   -0.13033E-04   -0.10364E-06  2808   0.608E-03    0.383E-04
Total vdW correction in eV:      9.0537524
DAV:   6    -0.656395287934E+02   -0.63981E-05   -0.60963E-07  2736   0.463E-03    0.186E-04
Total vdW correction in eV:      9.0537519
DAV:   7    -0.656395308622E+02   -0.20687E-05   -0.36384E-07  2696   0.340E-03    0.830E-05
Total vdW correction in eV:      9.0537515
DAV:   8    -0.656395321406E+02   -0.12785E-05   -0.32800E-07  2664   0.313E-03    0.243E-05
Total vdW correction in eV:      9.0537509
DAV:   9    -0.656395322664E+02   -0.12579E-06   -0.19550E-07  2604   0.241E-03
Total vdW correction in eV:      9.0537502
Total vdW correction in eV:      9.0537505
  10 F= -.65639532E+02 E0= -.65639532E+02  d E =-.793714E-04
 trial-energy change:   -0.000079  1 .order   -0.000016   -0.000021   -0.000011
 step:   2.6034(harm=  2.6034)  dis= 0.00130  next Energy=   -65.639475 (dE=-0.220E-04)
 bond charge predicted
       N       E                     dE             d eps       ncg     rms          rms(c)
Total vdW correction in eV:      9.0538088
DAV:   1    -0.656395326717E+02   -0.53109E-06   -0.11132E-03  3904   0.125E-01    0.874E-03
Total vdW correction in eV:      9.0536591
DAV:   2    -0.656395368198E+02   -0.41481E-05   -0.79489E-05  4592   0.374E-02    0.535E-03
Total vdW correction in eV:      9.0535954
DAV:   3    -0.656395464989E+02   -0.96791E-05   -0.45563E-06  4196   0.111E-02    0.301E-03
Total vdW correction in eV:      9.0535218
DAV:   4    -0.656395832146E+02   -0.36716E-04   -0.31894E-06  3468   0.953E-03    0.687E-04
Total vdW correction in eV:      9.0535047
DAV:   5    -0.656395981425E+02   -0.14928E-04   -0.10679E-06  2848   0.618E-03    0.421E-04
Total vdW correction in eV:      9.0534976
DAV:   6    -0.656396047386E+02   -0.65962E-05   -0.64341E-07  2824   0.471E-03    0.207E-04
Total vdW correction in eV:      9.0534971
DAV:   7    -0.656396069235E+02   -0.21849E-05   -0.41429E-07  2704   0.365E-03    0.899E-05
Total vdW correction in eV:      9.0534965
DAV:   8    -0.656396082851E+02   -0.13616E-05   -0.48182E-07  2676   0.373E-03    0.288E-05
Total vdW correction in eV:      9.0534958
DAV:   9    -0.656396086578E+02   -0.37268E-06   -0.49284E-07  2696   0.357E-03
Total vdW correction in eV:      9.0534949
Total vdW correction in eV:      9.0534953
  11 F= -.65639609E+02 E0= -.65639609E+02  d E =-.155763E-03
 curvature:  -2.39 expect dE=-0.286E-04 dE for cont linesearch -0.292E-09
 trial: gam= 0.69158 g(F)=  0.115E-04 g(S)=  0.426E-06 ort = 0.615E-07 (trialstep = 0.151E+01)
 search vector abs. value=  0.269E-04
 bond charge predicted
       N       E                     dE             d eps       ncg     rms          rms(c)
Total vdW correction in eV:      9.0534352
DAV:   1    -0.656396140160E+02   -0.57309E-05   -0.10846E-03  3904   0.126E-01    0.753E-03
Total vdW correction in eV:      9.0533940
DAV:   2    -0.656395858655E+02    0.28151E-04   -0.84032E-05  4728   0.371E-02    0.500E-03
Total vdW correction in eV:      9.0533896
DAV:   3    -0.656395804071E+02    0.54585E-05   -0.37329E-06  3888   0.103E-02    0.327E-03
Total vdW correction in eV:      9.0533758
DAV:   4    -0.656395957894E+02   -0.15382E-04   -0.49901E-06  3952   0.112E-02    0.750E-04
Total vdW correction in eV:      9.0533759
DAV:   5    -0.656395982936E+02   -0.25042E-05   -0.17664E-06  2972   0.717E-03    0.563E-04
Total vdW correction in eV:      9.0533748
DAV:   6    -0.656396004550E+02   -0.21613E-05   -0.95665E-07  2940   0.521E-03    0.226E-04
Total vdW correction in eV:      9.0533746
DAV:   7    -0.656396014991E+02   -0.10442E-05   -0.60910E-07  2724   0.422E-03    0.102E-04
Total vdW correction in eV:      9.0533745
DAV:   8    -0.656396026025E+02   -0.11034E-05   -0.52816E-07  2728   0.384E-03    0.288E-05
Total vdW correction in eV:      9.0533745
DAV:   9    -0.656396029156E+02   -0.31308E-06   -0.29417E-07  2728   0.292E-03
Total vdW correction in eV:      9.0533749
Total vdW correction in eV:      9.0533747
  12 F= -.65639603E+02 E0= -.65639603E+02  d E =0.574221E-05
 trial-energy change:    0.000006  1 .order   -0.000013   -0.000018   -0.000007
 step:   2.4612(harm=  2.4612)  dis= 0.00091  next Energy=   -65.639623 (dE=-0.148E-04)
 bond charge predicted
       N       E                     dE             d eps       ncg     rms          rms(c)
Total vdW correction in eV:      9.0533370
DAV:   1    -0.656396028825E+02   -0.28003E-06   -0.42842E-04  3912   0.792E-02    0.473E-03
Total vdW correction in eV:      9.0533111
DAV:   2    -0.656395848675E+02    0.18015E-04   -0.33697E-05  4732   0.240E-02    0.313E-03
Total vdW correction in eV:      9.0533084
DAV:   3    -0.656395825260E+02    0.23415E-05   -0.17976E-06  3132   0.780E-03    0.206E-03
Total vdW correction in eV:      9.0533000
DAV:   4    -0.656395901491E+02   -0.76231E-05   -0.25594E-06  3416   0.888E-03    0.454E-04
Total vdW correction in eV:      9.0533001
DAV:   5    -0.656395917697E+02   -0.16206E-05   -0.78754E-07  2764   0.526E-03    0.380E-04
Total vdW correction in eV:      9.0532994
DAV:   6    -0.656395935708E+02   -0.18011E-05   -0.51480E-07  2692   0.413E-03    0.146E-04
Total vdW correction in eV:      9.0532991
DAV:   7    -0.656395944822E+02   -0.91139E-06   -0.40021E-07  2668   0.356E-03
Total vdW correction in eV:      9.0532993
Total vdW correction in eV:      9.0532991
  13 F= -.65639594E+02 E0= -.65639594E+02  d E =0.141756E-04
 curvature:  -2.75 expect dE=-0.512E-04 dE for cont linesearch -0.105E-08
 trial: gam= 1.58852 g(F)=  0.171E-04 g(S)=  0.151E-05 ort =-0.101E-06 (trialstep = 0.531E+00)
 search vector abs. value=  0.861E-04
 bond charge predicted
       N       E                     dE             d eps       ncg     rms          rms(c)
Total vdW correction in eV:      9.0533110
DAV:   1    -0.656396003935E+02   -0.68227E-05   -0.41714E-04  3912   0.781E-02    0.527E-03
Total vdW correction in eV:      9.0531974
DAV:   2    -0.656396113902E+02   -0.10997E-04   -0.31963E-05  4728   0.231E-02    0.329E-03
Total vdW correction in eV:      9.0531464
DAV:   3    -0.656396190601E+02   -0.76699E-05   -0.18963E-06  3140   0.789E-03    0.202E-03
Total vdW correction in eV:      9.0530720
DAV:   4    -0.656396454727E+02   -0.26413E-04   -0.23128E-06  3344   0.828E-03    0.433E-04
Total vdW correction in eV:      9.0530711
DAV:   5    -0.656396524199E+02   -0.69472E-05   -0.70439E-07  2696   0.495E-03    0.279E-04
Total vdW correction in eV:      9.0530697
DAV:   6    -0.656396574084E+02   -0.49885E-05   -0.43216E-07  2760   0.392E-03    0.125E-04
Total vdW correction in eV:      9.0530701
DAV:   7    -0.656396592651E+02   -0.18567E-05   -0.28959E-07  2652   0.301E-03    0.619E-05
Total vdW correction in eV:      9.0530709
DAV:   8    -0.656396614813E+02   -0.22162E-05   -0.49419E-07  2656   0.383E-03    0.184E-05
Total vdW correction in eV:      9.0530710
DAV:   9    -0.656396612940E+02    0.18730E-06   -0.29841E-07  2620   0.294E-03
Total vdW correction in eV:      9.0530717
Total vdW correction in eV:      9.0530712
  14 F= -.65639661E+02 E0= -.65639661E+02  d E =-.668117E-04
 trial-energy change:   -0.000067  1 .order   -0.000008   -0.000010   -0.000007
 step:   1.9161(harm=  1.9161)  dis= 0.00138  next Energy=   -65.639612 (dE=-0.177E-04)
 bond charge predicted
       N       E                     dE             d eps       ncg     rms          rms(c)
Total vdW correction in eV:      9.0531025
DAV:   1    -0.656396543348E+02    0.71465E-05   -0.28314E-03  3888   0.203E-01    0.137E-02
Total vdW correction in eV:      9.0528057
DAV:   2    -0.656396912998E+02   -0.36965E-04   -0.20972E-04  4752   0.574E-02    0.860E-03
Total vdW correction in eV:      9.0526733
DAV:   3    -0.656397094107E+02   -0.18111E-04   -0.87329E-06  4828   0.145E-02    0.524E-03
Total vdW correction in eV:      9.0524986
DAV:   4    -0.656397775088E+02   -0.68098E-04   -0.74320E-06  4388   0.128E-02    0.122E-03
Total vdW correction in eV:      9.0524812
DAV:   5    -0.656398004069E+02   -0.22898E-04   -0.18984E-06  3116   0.781E-03    0.744E-04
Total vdW correction in eV:      9.0524723
DAV:   6    -0.656398119042E+02   -0.11497E-04   -0.85175E-07  2844   0.539E-03    0.313E-04
Total vdW correction in eV:      9.0524750
DAV:   7    -0.656398151875E+02   -0.32834E-05   -0.71529E-07  2992   0.459E-03    0.148E-04
Total vdW correction in eV:      9.0524761
DAV:   8    -0.656398190938E+02   -0.39063E-05   -0.49229E-07  2692   0.392E-03    0.369E-05
Total vdW correction in eV:      9.0524761
DAV:   9    -0.656398196095E+02   -0.51564E-06   -0.37261E-07  2764   0.340E-03
Total vdW correction in eV:      9.0524774
Total vdW correction in eV:      9.0524765
  15 F= -.65639820E+02 E0= -.65639820E+02  d E =-.225127E-03
 curvature:  -4.47 expect dE=-0.491E-04 dE for cont linesearch -0.381E-07
 trial: gam= 0.48927 g(F)=  0.441E-05 g(S)=  0.658E-05 ort = 0.857E-06 (trialstep = 0.808E+00)
 search vector abs. value=  0.324E-04
 bond charge predicted
       N       E                     dE             d eps       ncg     rms          rms(c)
Total vdW correction in eV:      9.0526232
DAV:   1    -0.656398255040E+02   -0.64102E-05   -0.37063E-04  3912   0.730E-02    0.638E-03
Total vdW correction in eV:      9.0528895
DAV:   2    -0.656397606482E+02    0.64856E-04   -0.27672E-05  4584   0.221E-02    0.394E-03
Total vdW correction in eV:      9.0530632
DAV:   3    -0.656397464783E+02    0.14170E-04   -0.23189E-06  3084   0.850E-03    0.189E-03
Total vdW correction in eV:      9.0531914
DAV:   4    -0.656397263577E+02    0.20121E-04   -0.16975E-06  2992   0.726E-03    0.480E-04
Total vdW correction in eV:      9.0532094
DAV:   5    -0.656397071442E+02    0.19213E-04   -0.94151E-07  2708   0.566E-03    0.215E-04
Total vdW correction in eV:      9.0532087
DAV:   6    -0.656396978298E+02    0.93144E-05   -0.69464E-07  2736   0.443E-03    0.114E-04
Total vdW correction in eV:      9.0532067
DAV:   7    -0.656396918526E+02    0.59772E-05   -0.33196E-07  2752   0.343E-03    0.435E-05
Total vdW correction in eV:      9.0532060
DAV:   8    -0.656396895610E+02    0.22916E-05   -0.35201E-07  2620   0.342E-03    0.231E-05
Total vdW correction in eV:      9.0532041
DAV:   9    -0.656396891890E+02    0.37202E-06   -0.38992E-07  2656   0.350E-03
Total vdW correction in eV:      9.0532032
Total vdW correction in eV:      9.0532034
  16 F= -.65639689E+02 E0= -.65639689E+02  d E =0.130420E-03
 trial-energy change:    0.000130  1 .order   -0.000006   -0.000009   -0.000003
 step:   1.1316(harm=  1.1316)  dis= 0.00052  next Energy=   -65.639826 (dE=-0.646E-05)
 bond charge predicted
       N       E                     dE             d eps       ncg     rms          rms(c)
Total vdW correction in eV:      9.0532621
DAV:   1    -0.656396888148E+02    0.74623E-06   -0.59584E-05  3936   0.295E-02    0.256E-03
Total vdW correction in eV:      9.0533688
DAV:   2    -0.656396639486E+02    0.24866E-04   -0.50615E-06  3636   0.105E-02    0.155E-03
Total vdW correction in eV:      9.0534431
DAV:   3    -0.656396562956E+02    0.76530E-05   -0.12552E-06  2868   0.653E-03    0.719E-04
Total vdW correction in eV:      9.0534920
DAV:   4    -0.656396466715E+02    0.96241E-05   -0.98564E-07  2792   0.561E-03    0.183E-04
Total vdW correction in eV:      9.0534970
DAV:   5    -0.656396388212E+02    0.78503E-05   -0.50887E-07  2616   0.401E-03    0.788E-05
Total vdW correction in eV:      9.0534962
DAV:   6    -0.656396352065E+02    0.36147E-05   -0.21215E-07  2692   0.252E-03    0.458E-05
Total vdW correction in eV:      9.0534954
DAV:   7    -0.656396320702E+02    0.31363E-05   -0.38382E-07  2616   0.319E-03    0.156E-05
Total vdW correction in eV:      9.0534949
DAV:   8    -0.656396315547E+02    0.51558E-06   -0.36107E-07  2656   0.294E-03
Total vdW correction in eV:      9.0534934
Total vdW correction in eV:      9.0534942
  17 F= -.65639632E+02 E0= -.65639632E+02  d E =0.188055E-03
 curvature:  -1.61 expect dE=-0.357E-05 dE for cont linesearch -0.301E-09
 trial: gam= 0.26801 g(F)=  0.159E-05 g(S)=  0.626E-06 ort = 0.779E-07 (trialstep = 0.873E+00)
 search vector abs. value=  0.459E-05
 reached required accuracy - stopping structural energy minimisation
 writing wavefunctions
 augmentation electrons  -4.60970436814145     
 soft         electrons   58.6152572912687     
 total        electrons   54.0055529231273     
 augmentation electrons  -4.60970436814145     
 soft         electrons   58.6152572912687     
 total        electrons   54.0055529231273     
 augmentation electrons  -4.60970436814145     
 soft         electrons   58.6152572912687     
 total        electrons   54.0055529231273     
 augmentation electrons  -4.60970436814145     
 soft         electrons   58.6152572912687     
 total        electrons   54.0055529231273     
 augmentation electrons  -4.60970436814145     
 soft         electrons   58.6152572912687     
 total        electrons   54.0055529231273     
 augmentation electrons  -4.60970436814145     
 soft         electrons   58.6152572912687     
 total        electrons   54.0055529231273     
 augmentation electrons  -4.60970436814145     
 soft         electrons   58.6152572912687     
 total        electrons   54.0055529231273     
 augmentation electrons  -4.60970436814145     
 soft         electrons   58.6152572912687     
 total        electrons   54.0055529231273     
