  24  24   0   0
  0.4176334E+02  0.3540400E-09  0.1044544E-08  0.2750143E-08  0.5000000E-15
  1.000000000000000E-004
  CAR 
 unknown system                          
      4.23306513    -15.98660818  301     -0.02993454      1.00000000
    -15.987  0.0000E+00  0.0000E+00
    -15.919  0.0000E+00  0.0000E+00
    -15.852  0.0000E+00  0.0000E+00
    -15.784  0.0000E+00  0.0000E+00
    -15.717  0.0000E+00  0.0000E+00
    -15.650  0.0000E+00  0.0000E+00
    -15.582  0.0000E+00  0.0000E+00
    -15.515  0.6963E-13  0.4693E-14
    -15.447  0.6467E-10  0.4363E-11
    -15.380  0.2481E-07  0.1676E-08
    -15.313  0.3967E-05  0.2690E-06
    -15.245  0.2684E-03  0.1836E-04
    -15.178  0.7857E-02  0.5479E-03
    -15.110  0.1025E+00  0.7456E-02
    -15.043  0.6163E+00  0.4899E-01
    -14.976  0.1762E+01  0.1678E+00
    -14.908  0.2516E+01  0.3373E+00
    -14.841  0.2240E+01  0.4883E+00
    -14.773  0.2005E+01  0.6234E+00
    -14.706  0.1532E+01  0.7267E+00
    -14.639  0.8959E+00  0.7871E+00
    -14.571  0.1221E+01  0.8694E+00
    -14.504  0.1679E+01  0.9825E+00
    -14.436  0.1080E+01  0.1055E+01
    -14.369  0.4166E+00  0.1083E+01
    -14.302  0.6910E+00  0.1130E+01
    -14.234  0.1513E+01  0.1232E+01
    -14.167  0.1500E+01  0.1333E+01
    -14.099  0.6642E+00  0.1378E+01
    -14.032  0.3493E+00  0.1401E+01
    -13.965  0.9553E+00  0.1466E+01
    -13.897  0.1665E+01  0.1578E+01
    -13.830  0.1381E+01  0.1671E+01
    -13.762  0.1101E+01  0.1745E+01
    -13.695  0.1598E+01  0.1853E+01
    -13.628  0.1485E+01  0.1953E+01
    -13.560  0.7325E+00  0.2002E+01
    -13.493  0.6918E+00  0.2049E+01
    -13.425  0.1459E+01  0.2147E+01
    -13.358  0.2285E+01  0.2301E+01
    -13.291  0.2946E+01  0.2500E+01
    -13.223  0.3532E+01  0.2738E+01
    -13.156  0.3669E+01  0.2985E+01
    -13.088  0.3554E+01  0.3225E+01
    -13.021  0.3370E+01  0.3452E+01
    -12.954  0.3526E+01  0.3690E+01
    -12.886  0.4270E+01  0.3977E+01
    -12.819  0.4669E+01  0.4292E+01
    -12.751  0.4508E+01  0.4596E+01
    -12.684  0.4332E+01  0.4888E+01
    -12.617  0.4204E+01  0.5171E+01
    -12.549  0.4195E+01  0.5454E+01
    -12.482  0.4722E+01  0.5772E+01
    -12.414  0.5961E+01  0.6174E+01
    -12.347  0.6840E+01  0.6635E+01
    -12.280  0.6054E+01  0.7043E+01
    -12.212  0.4873E+01  0.7371E+01
    -12.145  0.4340E+01  0.7664E+01
    -12.077  0.4380E+01  0.7959E+01
    -12.010  0.5663E+01  0.8341E+01
    -11.943  0.7580E+01  0.8852E+01
    -11.875  0.7664E+01  0.9368E+01
    -11.808  0.6136E+01  0.9782E+01
    -11.740  0.5515E+01  0.1015E+02
    -11.673  0.5834E+01  0.1055E+02
    -11.606  0.6191E+01  0.1096E+02
    -11.538  0.7094E+01  0.1144E+02
    -11.471  0.8780E+01  0.1203E+02
    -11.403  0.1020E+02  0.1272E+02
    -11.336  0.9714E+01  0.1338E+02
    -11.269  0.8789E+01  0.1397E+02
    -11.201  0.9654E+01  0.1462E+02
    -11.134  0.1023E+02  0.1531E+02
    -11.066  0.9251E+01  0.1593E+02
    -10.999  0.8682E+01  0.1652E+02
    -10.932  0.8977E+01  0.1712E+02
    -10.864  0.8954E+01  0.1773E+02
    -10.797  0.8601E+01  0.1831E+02
    -10.729  0.8823E+01  0.1890E+02
    -10.662  0.8951E+01  0.1950E+02
    -10.595  0.9408E+01  0.2014E+02
    -10.527  0.1069E+02  0.2086E+02
    -10.460  0.1050E+02  0.2157E+02
    -10.392  0.9078E+01  0.2218E+02
    -10.325  0.8122E+01  0.2273E+02
    -10.258  0.7460E+01  0.2323E+02
    -10.190  0.6277E+01  0.2365E+02
    -10.123  0.3714E+01  0.2390E+02
    -10.056  0.1240E+01  0.2398E+02
     -9.988  0.2079E+00  0.2400E+02
     -9.921  0.1636E-01  0.2400E+02
     -9.853  0.5768E-03  0.2400E+02
     -9.786  0.8836E-05  0.2400E+02
     -9.719  0.5758E-07  0.2400E+02
     -9.651  0.2254E-09  0.2400E+02
     -9.584  0.2291E-07  0.2400E+02
     -9.516  0.3329E-05  0.2400E+02
     -9.449  0.2153E-03  0.2400E+02
     -9.382  0.6372E-02  0.2400E+02
     -9.314  0.8807E-01  0.2401E+02
     -9.247  0.5755E+00  0.2405E+02
     -9.179  0.1825E+01  0.2417E+02
     -9.112  0.3120E+01  0.2438E+02
     -9.045  0.3820E+01  0.2464E+02
     -8.977  0.4574E+01  0.2494E+02
     -8.910  0.5544E+01  0.2532E+02
     -8.842  0.6282E+01  0.2574E+02
     -8.775  0.6207E+01  0.2616E+02
     -8.708  0.6522E+01  0.2660E+02
     -8.640  0.8758E+01  0.2719E+02
     -8.573  0.1179E+02  0.2798E+02
     -8.505  0.1214E+02  0.2880E+02
     -8.438  0.9000E+01  0.2941E+02
     -8.371  0.6272E+01  0.2983E+02
     -8.303  0.5390E+01  0.3019E+02
     -8.236  0.4390E+01  0.3049E+02
     -8.168  0.3513E+01  0.3073E+02
     -8.101  0.3782E+01  0.3098E+02
     -8.034  0.4305E+01  0.3127E+02
     -7.966  0.3699E+01  0.3152E+02
     -7.899  0.2789E+01  0.3171E+02
     -7.831  0.2853E+01  0.3190E+02
     -7.764  0.3498E+01  0.3214E+02
     -7.697  0.4574E+01  0.3245E+02
     -7.629  0.5782E+01  0.3284E+02
     -7.562  0.6428E+01  0.3327E+02
     -7.494  0.5800E+01  0.3366E+02
     -7.427  0.4572E+01  0.3397E+02
     -7.360  0.4549E+01  0.3427E+02
     -7.292  0.5876E+01  0.3467E+02
     -7.225  0.7109E+01  0.3515E+02
     -7.157  0.7094E+01  0.3563E+02
     -7.090  0.6284E+01  0.3605E+02
     -7.023  0.5712E+01  0.3644E+02
     -6.955  0.4846E+01  0.3676E+02
     -6.888  0.4155E+01  0.3704E+02
     -6.820  0.5415E+01  0.3741E+02
     -6.753  0.8333E+01  0.3797E+02
     -6.686  0.1044E+02  0.3867E+02
     -6.618  0.1157E+02  0.3945E+02
     -6.551  0.1116E+02  0.4021E+02
     -6.483  0.9020E+01  0.4081E+02
     -6.416  0.6569E+01  0.4126E+02
     -6.349  0.4096E+01  0.4153E+02
     -6.281  0.2870E+01  0.4173E+02
     -6.214  0.2773E+01  0.4191E+02
     -6.146  0.3081E+01  0.4212E+02
     -6.079  0.4016E+01  0.4239E+02
     -6.012  0.5148E+01  0.4274E+02
     -5.944  0.5824E+01  0.4313E+02
     -5.877  0.6081E+01  0.4354E+02
     -5.809  0.6192E+01  0.4396E+02
     -5.742  0.6677E+01  0.4441E+02
     -5.675  0.7362E+01  0.4490E+02
     -5.607  0.7315E+01  0.4540E+02
     -5.540  0.6780E+01  0.4585E+02
     -5.472  0.6300E+01  0.4628E+02
     -5.405  0.5803E+01  0.4667E+02
     -5.338  0.5245E+01  0.4702E+02
     -5.270  0.4909E+01  0.4735E+02
     -5.203  0.5010E+01  0.4769E+02
     -5.135  0.5616E+01  0.4807E+02
     -5.068  0.6168E+01  0.4849E+02
     -5.001  0.7941E+01  0.4902E+02
     -4.933  0.1084E+02  0.4975E+02
     -4.866  0.1196E+02  0.5056E+02
     -4.798  0.1114E+02  0.5131E+02
     -4.731  0.1016E+02  0.5199E+02
     -4.664  0.1023E+02  0.5268E+02
     -4.596  0.1130E+02  0.5344E+02
     -4.529  0.1135E+02  0.5421E+02
     -4.461  0.1038E+02  0.5491E+02
     -4.394  0.1024E+02  0.5560E+02
     -4.327  0.1055E+02  0.5631E+02
     -4.259  0.1180E+02  0.5710E+02
     -4.192  0.1338E+02  0.5801E+02
     -4.124  0.1384E+02  0.5894E+02
     -4.057  0.1385E+02  0.5987E+02
     -3.990  0.1403E+02  0.6082E+02
     -3.922  0.1380E+02  0.6175E+02
     -3.855  0.1216E+02  0.6257E+02
     -3.787  0.9827E+01  0.6323E+02
     -3.720  0.9681E+01  0.6388E+02
     -3.653  0.1228E+02  0.6471E+02
     -3.585  0.1460E+02  0.6570E+02
     -3.518  0.1495E+02  0.6670E+02
     -3.450  0.1363E+02  0.6762E+02
     -3.383  0.1260E+02  0.6847E+02
     -3.316  0.1310E+02  0.6935E+02
     -3.248  0.1409E+02  0.7030E+02
     -3.181  0.1455E+02  0.7128E+02
     -3.113  0.1478E+02  0.7228E+02
     -3.046  0.1590E+02  0.7335E+02
     -2.979  0.1757E+02  0.7454E+02
     -2.911  0.1756E+02  0.7572E+02
     -2.844  0.1471E+02  0.7671E+02
     -2.776  0.1240E+02  0.7755E+02
     -2.709  0.1302E+02  0.7842E+02
     -2.642  0.1448E+02  0.7940E+02
     -2.574  0.1534E+02  0.8043E+02
     -2.507  0.1633E+02  0.8153E+02
     -2.439  0.1617E+02  0.8262E+02
     -2.372  0.1473E+02  0.8362E+02
     -2.305  0.1375E+02  0.8454E+02
     -2.237  0.1314E+02  0.8543E+02
     -2.170  0.1315E+02  0.8631E+02
     -2.102  0.1395E+02  0.8725E+02
     -2.035  0.1543E+02  0.8829E+02
     -1.968  0.1734E+02  0.8946E+02
     -1.900  0.1886E+02  0.9073E+02
     -1.833  0.2009E+02  0.9209E+02
     -1.765  0.2000E+02  0.9344E+02
     -1.698  0.1808E+02  0.9465E+02
     -1.631  0.1507E+02  0.9567E+02
     -1.563  0.1222E+02  0.9649E+02
     -1.496  0.1051E+02  0.9720E+02
     -1.428  0.9891E+01  0.9787E+02
     -1.361  0.1072E+02  0.9859E+02
     -1.294  0.1149E+02  0.9937E+02
     -1.226  0.1067E+02  0.1001E+03
     -1.159  0.9161E+01  0.1007E+03
     -1.091  0.8244E+01  0.1013E+03
     -1.024  0.7415E+01  0.1018E+03
     -0.957  0.6357E+01  0.1022E+03
     -0.889  0.6885E+01  0.1027E+03
     -0.822  0.7923E+01  0.1032E+03
     -0.754  0.8053E+01  0.1037E+03
     -0.687  0.8229E+01  0.1043E+03
     -0.620  0.7524E+01  0.1048E+03
     -0.552  0.4744E+01  0.1051E+03
     -0.485  0.2461E+01  0.1053E+03
     -0.417  0.3033E+01  0.1055E+03
     -0.350  0.5790E+01  0.1059E+03
     -0.283  0.8653E+01  0.1065E+03
     -0.215  0.8584E+01  0.1070E+03
     -0.148  0.6202E+01  0.1074E+03
     -0.080  0.4850E+01  0.1078E+03
     -0.013  0.4398E+01  0.1081E+03
      0.054  0.4440E+01  0.1084E+03
      0.122  0.5269E+01  0.1087E+03
      0.189  0.5559E+01  0.1091E+03
      0.257  0.5180E+01  0.1095E+03
      0.324  0.5212E+01  0.1098E+03
      0.391  0.5463E+01  0.1102E+03
      0.459  0.5671E+01  0.1106E+03
      0.526  0.6020E+01  0.1110E+03
      0.594  0.5802E+01  0.1113E+03
      0.661  0.4238E+01  0.1116E+03
      0.728  0.2780E+01  0.1118E+03
      0.796  0.2871E+01  0.1120E+03
      0.863  0.3617E+01  0.1123E+03
      0.931  0.4104E+01  0.1125E+03
      0.998  0.3989E+01  0.1128E+03
      1.065  0.4553E+01  0.1131E+03
      1.133  0.6517E+01  0.1136E+03
      1.200  0.8259E+01  0.1141E+03
      1.268  0.8157E+01  0.1147E+03
      1.335  0.6900E+01  0.1151E+03
      1.402  0.7192E+01  0.1156E+03
      1.470  0.8556E+01  0.1162E+03
      1.537  0.9402E+01  0.1168E+03
      1.605  0.1036E+02  0.1175E+03
      1.672  0.1128E+02  0.1183E+03
      1.739  0.1180E+02  0.1191E+03
      1.807  0.1301E+02  0.1199E+03
      1.874  0.1406E+02  0.1209E+03
      1.942  0.1362E+02  0.1218E+03
      2.009  0.1315E+02  0.1227E+03
      2.076  0.1297E+02  0.1236E+03
      2.144  0.1292E+02  0.1244E+03
      2.211  0.1437E+02  0.1254E+03
      2.278  0.1619E+02  0.1265E+03
      2.346  0.1577E+02  0.1276E+03
      2.413  0.1430E+02  0.1285E+03
      2.481  0.1377E+02  0.1295E+03
      2.548  0.1266E+02  0.1303E+03
      2.615  0.1136E+02  0.1311E+03
      2.683  0.1205E+02  0.1319E+03
      2.750  0.1332E+02  0.1328E+03
      2.818  0.1225E+02  0.1336E+03
      2.885  0.9582E+01  0.1343E+03
      2.952  0.7323E+01  0.1348E+03
      3.020  0.6213E+01  0.1352E+03
      3.087  0.5324E+01  0.1355E+03
      3.155  0.3794E+01  0.1358E+03
      3.222  0.2039E+01  0.1359E+03
      3.289  0.8399E+00  0.1360E+03
      3.357  0.2502E+00  0.1360E+03
      3.424  0.4305E-01  0.1360E+03
      3.492  0.3553E-02  0.1360E+03
      3.559  0.1290E-03  0.1360E+03
      3.626  0.1986E-05  0.1360E+03
      3.694  0.1276E-07  0.1360E+03
      3.761  0.3391E-10  0.1360E+03
      3.829  0.3706E-13  0.1360E+03
      3.896  0.0000E+00  0.1360E+03
      3.963  0.0000E+00  0.1360E+03
      4.031  0.0000E+00  0.1360E+03
      4.098  0.0000E+00  0.1360E+03
      4.166  0.0000E+00  0.1360E+03
      4.233  0.0000E+00  0.1360E+03
