   24   24    1    1
  0.4176334E+02  0.3540400E-09  0.1044544E-08  0.2750143E-08  0.5000000E-15
  1.000000000000000E-004
  CAR 
 unknown system                          
    108     54     68
 
  0.0000000E+00  0.0000000E+00  0.0000000E+00  0.9615385E-02
    1      -14.986608
    2      -13.482601
    3      -13.127084
    4      -12.925455
    5      -12.745602
    6      -12.420393
    7      -12.030241
    8      -11.759031
    9      -11.413071
   10      -11.373672
   11      -10.935916
   12      -10.560572
   13       -8.879031
   14       -8.634156
   15       -7.971553
   16       -7.769146
   17       -6.782577
   18       -6.726862
   19       -6.435196
   20       -6.043698
   21       -5.769446
   22       -5.429757
   23       -4.950699
   24       -4.769536
   25       -4.602509
   26       -4.108598
   27       -3.657659
   28       -3.552607
   29       -3.255966
   30       -3.086965
   31       -3.015633
   32       -2.996110
   33       -2.937393
   34       -2.790325
   35       -2.425065
   36       -2.395849
   37       -2.329162
   38       -2.322527
   39       -2.228682
   40       -2.166219
   41       -1.936198
   42       -1.816594
   43       -1.676509
   44       -1.639816
   45       -1.583383
   46       -1.529802
   47       -1.489576
   48       -1.375422
   49       -1.213293
   50       -1.105825
   51       -0.946507
   52       -0.870988
   53       -0.399456
   54        0.154323
   55        0.481953
   56        0.641248
   57        1.100140
   58        1.200316
   59        1.372952
   60        1.426207
   61        1.764169
   62        1.828373
   63        1.909673
   64        2.008409
   65        2.067218
   66        2.187404
   67        2.357519
   68        2.481479
 
  0.7692308E-01 -0.1387779E-16  0.0000000E+00  0.1923077E-01
    1      -14.934786
    2      -13.421240
    3      -13.076213
    4      -12.859944
    5      -12.693459
    6      -12.364785
    7      -11.967979
    8      -11.717639
    9      -11.354779
   10      -11.324160
   11      -10.887493
   12      -10.529277
   13       -8.853466
   14       -8.615575
   15       -8.009398
   16       -7.731280
   17       -6.759077
   18       -6.719511
   19       -6.429357
   20       -6.023284
   21       -5.735986
   22       -5.439508
   23       -4.965210
   24       -4.839566
   25       -4.684270
   26       -4.370350
   27       -3.697799
   28       -3.615816
   29       -3.572468
   30       -3.371450
   31       -3.212644
   32       -3.145227
   33       -3.069693
   34       -2.981356
   35       -2.787272
   36       -2.673920
   37       -2.562582
   38       -2.433474
   39       -2.360672
   40       -2.168826
   41       -2.114737
   42       -1.939638
   43       -1.910482
   44       -1.842747
   45       -1.764798
   46       -1.711096
   47       -1.521761
   48       -1.454049
   49       -1.192741
   50       -1.067023
   51       -0.907448
   52       -0.598130
   53       -0.346875
   54        0.046311
   55        0.478341
   56        0.768011
   57        1.081648
   58        1.508033
   59        1.655373
   60        1.806923
   61        1.894147
   62        2.040887
   63        2.172305
   64        2.238009
   65        2.273622
   66        2.340340
   67        2.538593
   68        2.665456
 
  0.1538462E+00 -0.2775558E-16  0.0000000E+00  0.1923077E-01
    1      -14.782518
    2      -13.238225
    3      -12.922208
    4      -12.668773
    5      -12.537749
    6      -12.199994
    7      -11.785507
    8      -11.595260
    9      -11.192468
   10      -11.175357
   11      -10.748544
   12      -10.445073
   13       -8.794772
   14       -8.570469
   15       -8.107118
   16       -7.688704
   17       -6.783294
   18       -6.662940
   19       -6.441225
   20       -6.090498
   21       -5.782108
   22       -5.661005
   23       -5.154904
   24       -4.971608
   25       -4.816200
   26       -4.549387
   27       -4.235370
   28       -4.137834
   29       -4.023710
   30       -3.912354
   31       -3.662788
   32       -3.563078
   33       -3.481983
   34       -3.264955
   35       -3.129273
   36       -3.053818
   37       -2.954231
   38       -2.906563
   39       -2.840193
   40       -2.662077
   41       -2.334573
   42       -2.215913
   43       -2.108673
   44       -2.013250
   45       -1.831932
   46       -1.754964
   47       -1.615288
   48       -1.564847
   49       -1.231159
   50       -1.107350
   51       -0.939821
   52       -0.575053
   53       -0.411457
   54       -0.230375
   55        0.438376
   56        1.014513
   57        1.131893
   58        1.690529
   59        1.923694
   60        2.043598
   61        2.271175
   62        2.321960
   63        2.486279
   64        2.676395
   65        2.714485
   66        2.866598
   67        2.984129
   68        3.076241
 
  0.2307692E+00 -0.4163336E-16  0.0000000E+00  0.1923077E-01
    1      -14.541085
    2      -12.937134
    3      -12.665254
    4      -12.365832
    5      -12.281557
    6      -11.933257
    7      -11.498156
    8      -11.402511
    9      -10.970218
   10      -10.926511
   11      -10.545180
   12      -10.341403
   13       -8.774447
   14       -8.518782
   15       -8.299014
   16       -7.763262
   17       -7.035938
   18       -6.716290
   19       -6.629221
   20       -6.574153
   21       -6.049567
   22       -5.683238
   23       -5.374393
   24       -5.280370
   25       -5.096755
   26       -4.996853
   27       -4.752018
   28       -4.548515
   29       -4.455176
   30       -4.309705
   31       -4.142956
   32       -3.958723
   33       -3.883374
   34       -3.718702
   35       -3.680196
   36       -3.411926
   37       -3.191405
   38       -2.983153
   39       -2.936449
   40       -2.764041
   41       -2.551918
   42       -2.516539
   43       -2.380362
   44       -1.960693
   45       -1.863758
   46       -1.814526
   47       -1.750828
   48       -1.641772
   49       -1.424847
   50       -1.344165
   51       -1.080612
   52       -0.853848
   53       -0.768519
   54       -0.279266
   55        0.320095
   56        0.791126
   57        1.143637
   58        1.639637
   59        1.923840
   60        2.046703
   61        2.220069
   62        2.311158
   63        2.425244
   64        2.695359
   65        2.728560
   66        2.876466
   67        2.938971
   68        3.010617
 
  0.3076923E+00 -0.5551115E-16  0.0000000E+00  0.1923077E-01
    1      -14.235723
    2      -12.525270
    3      -12.313849
    4      -11.976371
    5      -11.933377
    6      -11.581452
    7      -11.183085
    8      -11.133752
    9      -10.725783
   10      -10.656231
   11      -10.358735
   12      -10.271304
   13       -8.862716
   14       -8.598164
   15       -8.510108
   16       -8.024939
   17       -7.601791
   18       -7.197546
   19       -6.935315
   20       -6.842605
   21       -6.527412
   22       -6.109689
   23       -5.903734
   24       -5.738400
   25       -5.593881
   26       -5.154614
   27       -4.886869
   28       -4.726432
   29       -4.642201
   30       -4.417069
   31       -4.253409
   32       -4.197579
   33       -4.145607
   34       -3.882621
   35       -3.712481
   36       -3.528345
   37       -3.330220
   38       -3.147935
   39       -3.026016
   40       -2.889716
   41       -2.704938
   42       -2.575810
   43       -2.518324
   44       -2.245732
   45       -2.012894
   46       -1.890015
   47       -1.826424
   48       -1.810935
   49       -1.670786
   50       -1.620070
   51       -1.337529
   52       -1.103399
   53       -0.739784
   54       -0.250762
   55        0.086198
   56        0.555217
   57        0.891501
   58        1.432925
   59        1.654251
   60        1.831816
   61        1.951320
   62        2.061263
   63        2.278339
   64        2.415955
   65        2.496353
   66        2.716172
   67        2.826336
   68        2.876054
 
  0.3846154E+00 -0.8326673E-16  0.0000000E+00  0.1923077E-01
    1      -13.920095
    2      -12.016838
    3      -11.893593
    4      -11.563005
    5      -11.514516
    6      -11.183509
    7      -11.017918
    8      -10.792663
    9      -10.572435
   10      -10.552912
   11      -10.397693
   12      -10.202428
   13       -8.999756
   14       -8.773573
   15       -8.612110
   16       -8.317554
   17       -8.011047
   18       -7.658302
   19       -7.401731
   20       -7.354494
   21       -7.047697
   22       -6.706474
   23       -6.601992
   24       -6.211537
   25       -5.720349
   26       -5.154589
   27       -4.760825
   28       -4.579317
   29       -4.476546
   30       -4.369454
   31       -4.241962
   32       -4.176542
   33       -4.103297
   34       -4.013208
   35       -3.628453
   36       -3.592580
   37       -3.506416
   38       -3.217507
   39       -3.206172
   40       -3.093951
   41       -2.816144
   42       -2.722209
   43       -2.504704
   44       -2.455738
   45       -2.253565
   46       -2.148951
   47       -2.011646
   48       -1.969921
   49       -1.799051
   50       -1.769996
   51       -1.432312
   52       -1.232943
   53       -0.658042
   54       -0.204724
   55       -0.148252
   56        0.436874
   57        0.594751
   58        1.223541
   59        1.474557
   60        1.685018
   61        1.757129
   62        1.818604
   63        2.122561
   64        2.274709
   65        2.323333
   66        2.369878
   67        2.581901
   68        2.754854
 
  0.4615385E+00 -0.8326673E-16  0.0000000E+00  0.1923077E-01
    1      -13.698960
    2      -11.486398
    3      -11.442859
    4      -11.285840
    5      -11.092675
    6      -11.070952
    7      -10.882145
    8      -10.786793
    9      -10.673811
   10      -10.576420
   11      -10.511672
   12      -10.220399
   13       -9.137694
   14       -8.633346
   15       -8.559270
   16       -8.379961
   17       -8.273342
   18       -8.021231
   19       -7.880469
   20       -7.530869
   21       -7.504403
   22       -7.226495
   23       -7.126765
   24       -6.430830
   25       -5.586719
   26       -4.911073
   27       -4.854931
   28       -4.589438
   29       -4.449123
   30       -4.250954
   31       -4.106511
   32       -4.009738
   33       -3.951341
   34       -3.866837
   35       -3.776613
   36       -3.568994
   37       -3.509818
   38       -3.404758
   39       -3.261225
   40       -3.201670
   41       -2.957051
   42       -2.909159
   43       -2.738112
   44       -2.626234
   45       -2.358123
   46       -2.279447
   47       -2.114288
   48       -2.049660
   49       -1.832585
   50       -1.675815
   51       -1.501403
   52       -1.319350
   53       -0.673207
   54       -0.273791
   55       -0.114777
   56        0.238575
   57        0.603090
   58        1.107215
   59        1.417844
   60        1.513063
   61        1.635526
   62        1.742302
   63        1.921851
   64        2.052321
   65        2.161369
   66        2.429404
   67        2.527185
   68        2.616087
 
  0.0000000E+00  0.2500000E+00  0.0000000E+00  0.1923077E-01
    1      -14.983812
    2      -13.426856
    3      -13.254192
    4      -12.919493
    5      -12.712613
    6      -12.418462
    7      -11.979254
    8      -11.815563
    9      -11.421363
   10      -11.277601
   11      -10.944193
   12      -10.502473
   13       -9.067860
   14       -8.546565
   15       -8.456146
   16       -7.321084
   17       -6.771916
   18       -6.613498
   19       -6.544211
   20       -5.948005
   21       -5.693654
   22       -5.431179
   23       -4.960653
   24       -4.612314
   25       -4.418738
   26       -4.110426
   27       -3.956723
   28       -3.590319
   29       -3.382365
   30       -3.210769
   31       -3.069429
   32       -3.062455
   33       -2.952282
   34       -2.654193
   35       -2.604306
   36       -2.413205
   37       -2.329287
   38       -2.303535
   39       -2.146079
   40       -2.086091
   41       -2.004821
   42       -1.852008
   43       -1.827869
   44       -1.695743
   45       -1.569377
   46       -1.543172
   47       -1.360743
   48       -1.307064
   49       -1.230900
   50       -1.068117
   51       -0.926095
   52       -0.861473
   53       -0.322449
   54        0.124262
   55        0.496701
   56        0.752131
   57        1.111961
   58        1.236358
   59        1.385444
   60        1.452352
   61        1.699775
   62        1.784677
   63        1.863894
   64        1.914542
   65        2.241486
   66        2.311317
   67        2.388921
   68        2.595032
 
  0.7692308E-01  0.2500000E+00  0.0000000E+00  0.1923077E-01
    1      -14.931454
    2      -13.349845
    3      -13.215374
    4      -12.900507
    5      -12.609934
    6      -12.361101
    7      -11.976558
    8      -11.716164
    9      -11.379911
   10      -11.204955
   11      -10.899754
   12      -10.459954
   13       -9.068875
   14       -8.528601
   15       -8.506881
   16       -7.272329
   17       -6.772068
   18       -6.621727
   19       -6.474001
   20       -5.919103
   21       -5.645862
   22       -5.415777
   23       -4.973253
   24       -4.730949
   25       -4.634813
   26       -4.252771
   27       -4.012651
   28       -3.637642
   29       -3.565000
   30       -3.475335
   31       -3.337195
   32       -3.202248
   33       -3.085351
   34       -2.961702
   35       -2.879695
   36       -2.641061
   37       -2.510517
   38       -2.446958
   39       -2.389462
   40       -2.242369
   41       -2.123609
   42       -1.995338
   43       -1.963653
   44       -1.838472
   45       -1.752238
   46       -1.693583
   47       -1.562675
   48       -1.300595
   49       -1.208881
   50       -1.002479
   51       -0.843402
   52       -0.628554
   53       -0.278459
   54        0.071672
   55        0.364956
   56        0.900853
   57        1.108683
   58        1.523722
   59        1.661670
   60        1.784345
   61        1.872675
   62        1.998256
   63        2.023523
   64        2.197886
   65        2.270741
   66        2.573503
   67        2.703451
   68        2.773672
 
  0.1538462E+00  0.2500000E+00  0.0000000E+00  0.1923077E-01
    1      -14.779079
    2      -13.153096
    3      -13.057758
    4      -12.764174
    5      -12.399931
    6      -12.194394
    7      -11.872144
    8      -11.518289
    9      -11.240383
   10      -11.045843
   11      -10.758364
   12      -10.367123
   13       -9.002766
   14       -8.583360
   15       -8.486550
   16       -7.242959
   17       -6.800874
   18       -6.599007
   19       -6.442811
   20       -6.030750
   21       -5.703291
   22       -5.598556
   23       -5.190234
   24       -4.945327
   25       -4.789898
   26       -4.548402
   27       -4.322142
   28       -4.233737
   29       -4.045392
   30       -3.897513
   31       -3.743870
   32       -3.546194
   33       -3.513817
   34       -3.251258
   35       -3.112689
   36       -3.021233
   37       -2.907084
   38       -2.840579
   39       -2.746111
   40       -2.679832
   41       -2.542300
   42       -2.363978
   43       -2.260176
   44       -1.974992
   45       -1.857458
   46       -1.736365
   47       -1.602266
   48       -1.426229
   49       -1.182186
   50       -1.047619
   51       -0.878307
   52       -0.627644
   53       -0.417060
   54       -0.184721
   55        0.278056
   56        0.959163
   57        1.171768
   58        1.623907
   59        1.834996
   60        2.030630
   61        2.171414
   62        2.287394
   63        2.429362
   64        2.706330
   65        2.800297
   66        2.922496
   67        3.055571
   68        3.125368
 
  0.2307692E+00  0.2500000E+00  0.0000000E+00  0.1923077E-01
    1      -14.538027
    2      -12.841503
    3      -12.785708
    4      -12.513035
    5      -12.095367
    6      -11.926256
    7      -11.675719
    8      -11.241603
    9      -11.018531
   10      -10.829548
   11      -10.540871
   12      -10.255828
   13       -8.907140
   14       -8.714046
   15       -8.492488
   16       -7.332762
   17       -7.057557
   18       -6.685122
   19       -6.636409
   20       -6.582204
   21       -5.995371
   22       -5.768532
   23       -5.327371
   24       -5.187946
   25       -5.138606
   26       -4.995336
   27       -4.911034
   28       -4.609121
   29       -4.497383
   30       -4.456521
   31       -4.088727
   32       -3.959743
   33       -3.701007
   34       -3.587041
   35       -3.512997
   36       -3.359213
   37       -3.156602
   38       -3.036328
   39       -2.911103
   40       -2.733135
   41       -2.664645
   42       -2.524236
   43       -2.468148
   44       -1.980698
   45       -1.923527
   46       -1.808969
   47       -1.738376
   48       -1.671442
   49       -1.350817
   50       -1.268405
   51       -1.109603
   52       -0.902782
   53       -0.788012
   54       -0.258593
   55        0.185283
   56        0.589858
   57        1.208392
   58        1.476901
   59        1.613759
   60        1.788781
   61        2.110033
   62        2.283732
   63        2.454911
   64        2.633176
   65        2.752663
   66        2.895521
   67        3.080771
   68        3.228607
 
  0.3076923E+00  0.2500000E+00  0.0000000E+00  0.1923077E-01
    1      -14.233507
    2      -12.425136
    3      -12.409004
    4      -12.154286
    5      -11.728318
    6      -11.574882
    7      -11.415336
    8      -10.927838
    9      -10.754892
   10      -10.630321
   11      -10.334976
   12      -10.178263
   13       -8.913585
   14       -8.860942
   15       -8.558668
   16       -7.661158
   17       -7.637945
   18       -7.168303
   19       -7.054094
   20       -6.900877
   21       -6.517564
   22       -6.137720
   23       -5.858804
   24       -5.743223
   25       -5.556525
   26       -5.325226
   27       -4.886403
   28       -4.846611
   29       -4.703272
   30       -4.363394
   31       -4.266289
   32       -4.141760
   33       -3.958622
   34       -3.851302
   35       -3.648265
   36       -3.390760
   37       -3.278966
   38       -2.952461
   39       -2.908847
   40       -2.803577
   41       -2.741804
   42       -2.678083
   43       -2.438896
   44       -2.283701
   45       -2.203339
   46       -1.934349
   47       -1.865546
   48       -1.830980
   49       -1.709938
   50       -1.651833
   51       -1.338973
   52       -1.142848
   53       -0.741111
   54       -0.271540
   55        0.042322
   56        0.345631
   57        0.819605
   58        1.256331
   59        1.320800
   60        1.537170
   61        1.953573
   62        2.171706
   63        2.237256
   64        2.364474
   65        2.516516
   66        2.675939
   67        2.739927
   68        3.027026
 
  0.3846154E+00  0.2500000E+00  0.0000000E+00  0.1923077E-01
    1      -13.919048
    2      -11.953304
    3      -11.919873
    4      -11.704607
    5      -11.393892
    6      -11.184758
    7      -11.165001
    8      -10.669981
    9      -10.550749
   10      -10.533438
   11      -10.410647
   12      -10.173977
   13       -8.962193
   14       -8.903781
   15       -8.610015
   16       -8.093711
   17       -8.049478
   18       -7.724556
   19       -7.575406
   20       -7.295504
   21       -7.114802
   22       -6.636989
   23       -6.606278
   24       -6.268080
   25       -5.624014
   26       -5.288278
   27       -4.759812
   28       -4.719934
   29       -4.588332
   30       -4.397211
   31       -4.278434
   32       -4.061219
   33       -4.032801
   34       -3.802075
   35       -3.622770
   36       -3.358085
   37       -3.293847
   38       -3.225362
   39       -3.069898
   40       -3.018553
   41       -2.897376
   42       -2.784137
   43       -2.592241
   44       -2.428821
   45       -2.273285
   46       -2.163507
   47       -2.023410
   48       -2.009997
   49       -1.903453
   50       -1.785643
   51       -1.472373
   52       -1.314346
   53       -0.663449
   54       -0.324206
   55       -0.050016
   56        0.292181
   57        0.493908
   58        1.183169
   59        1.304600
   60        1.399435
   61        1.790472
   62        1.880366
   63        2.007045
   64        2.124567
   65        2.252093
   66        2.474880
   67        2.660646
   68        2.722820
 
  0.4615385E+00  0.2500000E+00  0.0000000E+00  0.1923077E-01
    1      -13.698802
    2      -11.481733
    3      -11.370751
    4      -11.283570
    5      -11.209906
    6      -11.098494
    7      -10.895636
    8      -10.806333
    9      -10.645018
   10      -10.521657
   11      -10.443401
   12      -10.269399
   13       -9.156769
   14       -8.564768
   15       -8.497784
   16       -8.343491
   17       -8.270901
   18       -8.185935
   19       -7.862522
   20       -7.608836
   21       -7.456335
   22       -7.254912
   23       -7.087476
   24       -6.472277
   25       -5.514273
   26       -4.965876
   27       -4.881296
   28       -4.649423
   29       -4.421459
   30       -4.255539
   31       -4.100391
   32       -4.047914
   33       -3.985133
   34       -3.872585
   35       -3.608561
   36       -3.518857
   37       -3.444331
   38       -3.387307
   39       -3.275953
   40       -3.203630
   41       -2.958027
   42       -2.932997
   43       -2.628162
   44       -2.558283
   45       -2.504025
   46       -2.224846
   47       -2.090074
   48       -2.051918
   49       -1.907793
   50       -1.679801
   51       -1.533608
   52       -1.380319
   53       -0.681927
   54       -0.318445
   55       -0.076179
   56        0.161052
   57        0.561489
   58        1.156006
   59        1.470942
   60        1.549435
   61        1.584285
   62        1.621604
   63        1.839955
   64        2.066584
   65        2.195500
   66        2.373981
   67        2.492610
   68        2.542411
 
 -0.4615385E+00  0.2500000E+00  0.0000000E+00  0.1923077E-01
    1      -13.699306
    2      -11.477401
    3      -11.444250
    4      -11.342383
    5      -11.050963
    6      -11.016392
    7      -10.868533
    8      -10.752421
    9      -10.698051
   10      -10.645994
   11      -10.529748
   12      -10.207891
   13       -9.139215
   14       -8.701857
   15       -8.543047
   16       -8.375343
   17       -8.325916
   18       -7.887334
   19       -7.839158
   20       -7.549299
   21       -7.499102
   22       -7.224227
   23       -7.163423
   24       -6.462398
   25       -5.552153
   26       -4.898472
   27       -4.676914
   28       -4.574205
   29       -4.516589
   30       -4.322791
   31       -4.162346
   32       -3.996668
   33       -3.938928
   34       -3.872888
   35       -3.827437
   36       -3.625614
   37       -3.584661
   38       -3.479346
   39       -3.301730
   40       -3.269595
   41       -2.976524
   42       -2.774715
   43       -2.658768
   44       -2.599357
   45       -2.353919
   46       -2.206087
   47       -2.104872
   48       -2.036425
   49       -1.847108
   50       -1.660066
   51       -1.488884
   52       -1.331237
   53       -0.681518
   54       -0.301196
   55       -0.045087
   56        0.200132
   57        0.597629
   58        1.152262
   59        1.409307
   60        1.545435
   61        1.721662
   62        1.813729
   63        1.853541
   64        2.271561
   65        2.304735
   66        2.427691
   67        2.460497
   68        2.608428
 
 -0.3846154E+00  0.2500000E+00  0.0000000E+00  0.1923077E-01
    1      -13.920820
    2      -12.043553
    3      -11.807445
    4      -11.690840
    5      -11.430276
    6      -11.181470
    7      -10.966413
    8      -10.871781
    9      -10.574754
   10      -10.519839
   11      -10.393054
   12      -10.254734
   13       -8.997098
   14       -8.686121
   15       -8.600237
   16       -8.431383
   17       -8.051715
   18       -7.639242
   19       -7.380440
   20       -7.270842
   21       -6.985215
   22       -6.756985
   23       -6.605257
   24       -6.277361
   25       -5.675674
   26       -4.996146
   27       -4.800321
   28       -4.728493
   29       -4.404992
   30       -4.344526
   31       -4.232871
   32       -4.203587
   33       -4.060041
   34       -3.954530
   35       -3.820976
   36       -3.663412
   37       -3.538074
   38       -3.348917
   39       -3.274727
   40       -3.106068
   41       -2.735768
   42       -2.684039
   43       -2.491519
   44       -2.463449
   45       -2.214668
   46       -2.137736
   47       -1.983405
   48       -1.889373
   49       -1.823406
   50       -1.747715
   51       -1.401821
   52       -1.201625
   53       -0.684399
   54       -0.218196
   55       -0.077108
   56        0.439337
   57        0.616808
   58        1.228705
   59        1.428917
   60        1.765508
   61        1.837177
   62        1.954377
   63        2.173600
   64        2.313771
   65        2.388060
   66        2.482150
   67        2.652330
   68        2.739776
 
 -0.3076923E+00  0.2500000E+00  0.0000000E+00  0.1923077E-01
    1      -14.236316
    2      -12.537644
    3      -12.267481
    4      -12.045281
    5      -11.891953
    6      -11.581136
    7      -11.186753
    8      -11.131201
    9      -10.718405
   10      -10.680261
   11      -10.364792
   12      -10.273523
   13       -8.802618
   14       -8.588812
   15       -8.494504
   16       -8.128106
   17       -7.558584
   18       -7.237972
   19       -6.940324
   20       -6.812994
   21       -6.467320
   22       -6.103308
   23       -5.912473
   24       -5.852684
   25       -5.493192
   26       -5.093552
   27       -4.904944
   28       -4.813440
   29       -4.587687
   30       -4.401277
   31       -4.260241
   32       -4.213162
   33       -4.167882
   34       -3.885695
   35       -3.834464
   36       -3.448618
   37       -3.396130
   38       -3.145446
   39       -3.025839
   40       -2.873170
   41       -2.701208
   42       -2.532872
   43       -2.485518
   44       -2.285669
   45       -1.987363
   46       -1.921879
   47       -1.827490
   48       -1.783994
   49       -1.708208
   50       -1.649369
   51       -1.306019
   52       -1.037899
   53       -0.750877
   54       -0.255524
   55        0.118013
   56        0.567807
   57        0.915968
   58        1.414235
   59        1.674945
   60        1.914839
   61        2.021042
   62        2.070732
   63        2.297201
   64        2.421674
   65        2.461343
   66        2.705292
   67        2.800242
   68        2.845962
 
 -0.2307692E+00  0.2500000E+00  0.0000000E+00  0.1923077E-01
    1      -14.541051
    2      -12.932873
    3      -12.668973
    4      -12.357842
    5      -12.296137
    6      -11.933398
    7      -11.481967
    8      -11.412282
    9      -10.973980
   10      -10.930768
   11      -10.543700
   12      -10.324213
   13       -8.697958
   14       -8.617322
   15       -8.339788
   16       -7.722040
   17       -6.998923
   18       -6.742900
   19       -6.632561
   20       -6.576971
   21       -6.026017
   22       -5.684877
   23       -5.408005
   24       -5.275608
   25       -5.063808
   26       -4.972571
   27       -4.770371
   28       -4.541931
   29       -4.458583
   30       -4.380947
   31       -4.134804
   32       -4.007694
   33       -3.876283
   34       -3.729088
   35       -3.654486
   36       -3.391461
   37       -3.097249
   38       -2.988882
   39       -2.931260
   40       -2.731892
   41       -2.555374
   42       -2.487152
   43       -2.388642
   44       -2.054846
   45       -1.874138
   46       -1.819312
   47       -1.749624
   48       -1.658791
   49       -1.423280
   50       -1.391832
   51       -1.063701
   52       -0.809396
   53       -0.740848
   54       -0.285523
   55        0.329182
   56        0.741824
   57        1.208199
   58        1.611389
   59        1.873323
   60        2.020885
   61        2.203073
   62        2.280982
   63        2.436143
   64        2.614276
   65        2.744010
   66        2.827074
   67        2.972245
   68        3.029139
 
 -0.1538462E+00  0.2500000E+00  0.0000000E+00  0.1923077E-01
    1      -14.781566
    2      -13.216606
    3      -12.976110
    4      -12.611612
    5      -12.582705
    6      -12.199954
    7      -11.705118
    8      -11.672414
    9      -11.205463
   10      -11.134358
   11      -10.746316
   12      -10.414574
   13       -8.851499
   14       -8.559185
   15       -8.319645
   16       -7.475291
   17       -6.784192
   18       -6.607378
   19       -6.494356
   20       -6.006448
   21       -5.872577
   22       -5.635495
   23       -5.106100
   24       -4.975227
   25       -4.791706
   26       -4.552305
   27       -4.229207
   28       -4.133393
   29       -4.096067
   30       -3.871119
   31       -3.753072
   32       -3.617653
   33       -3.470221
   34       -3.294585
   35       -3.124448
   36       -2.998563
   37       -2.923491
   38       -2.854219
   39       -2.776113
   40       -2.571899
   41       -2.452945
   42       -2.337950
   43       -2.143018
   44       -2.023817
   45       -1.840960
   46       -1.724516
   47       -1.593016
   48       -1.530809
   49       -1.260785
   50       -1.117423
   51       -0.925484
   52       -0.613140
   53       -0.416424
   54       -0.134197
   55        0.404853
   56        0.931964
   57        1.222227
   58        1.686701
   59        1.855448
   60        1.965553
   61        2.239335
   62        2.305650
   63        2.519218
   64        2.740200
   65        2.809626
   66        2.840831
   67        2.962655
   68        3.060249
 
 -0.7692308E-01  0.2500000E+00  0.0000000E+00  0.1923077E-01
    1      -14.932832
    2      -13.382284
    3      -13.173557
    4      -12.821869
    5      -12.703381