       N       E                     dE             d eps       ncg     rms          rms(c)
DAV:   1     0.503905031147E+03    0.50391E+03   -0.28728E+04  7360   0.790E+02
DAV:   2    -0.606308059870E+02   -0.56454E+03   -0.54951E+03  9748   0.191E+02
DAV:   3    -0.117857129810E+03   -0.57226E+02   -0.56389E+02  8756   0.627E+01
DAV:   4    -0.120520970109E+03   -0.26638E+01   -0.26439E+01 11128   0.144E+01
DAV:   5    -0.120580927378E+03   -0.59957E-01   -0.59868E-01 10056   0.211E+00    0.116E+01
DAV:   6    -0.116607304751E+03    0.39736E+01   -0.16035E+01  8864   0.106E+01    0.589E+00
DAV:   7    -0.116502914393E+03    0.10439E+00   -0.82336E+00  8796   0.686E+00    0.315E+00
DAV:   8    -0.116494333215E+03    0.85812E-02   -0.11891E+00  8704   0.306E+00    0.127E+00
DAV:   9    -0.116485817660E+03    0.85156E-02   -0.25580E-01  9344   0.164E+00    0.597E-01
DAV:  10    -0.116474811453E+03    0.11006E-01   -0.10788E-01  9064   0.969E-01    0.266E-01
DAV:  11    -0.116467541315E+03    0.72701E-02   -0.19004E-02  8928   0.391E-01    0.124E-01
DAV:  12    -0.116462460578E+03    0.50807E-02   -0.38517E-03  9056   0.180E-01    0.568E-02
DAV:  13    -0.116456880665E+03    0.55799E-02   -0.75802E-04  8952   0.817E-02    0.239E-02
DAV:  14    -0.116454982066E+03    0.18986E-02   -0.15268E-04  9632   0.353E-02    0.145E-02
DAV:  15    -0.116454050960E+03    0.93111E-03   -0.66751E-05  8808   0.222E-02    0.884E-03
DAV:  16    -0.116453932271E+03    0.11869E-03   -0.56625E-05  8184   0.189E-02    0.544E-03
DAV:  17    -0.116454445877E+03   -0.51361E-03   -0.16142E-04  8376   0.241E-02    0.301E-03
DAV:  18    -0.116454689449E+03   -0.24357E-03   -0.92143E-05  7656   0.158E-02    0.171E-03
DAV:  19    -0.116454754450E+03   -0.65001E-04   -0.16793E-05  7216   0.931E-03    0.110E-03
DAV:  20    -0.116454808060E+03   -0.53611E-04   -0.13723E-05  6936   0.777E-03    0.737E-04
DAV:  21    -0.116454798951E+03    0.91096E-05   -0.31321E-05  7312   0.112E-02    0.513E-04
DAV:  22    -0.116454747071E+03    0.51880E-04   -0.16536E-05  6592   0.111E-02    0.282E-04
DAV:  23    -0.116454674874E+03    0.72198E-04   -0.76063E-06  6600   0.876E-03    0.126E-04
DAV:  24    -0.116454669083E+03    0.57909E-05   -0.83936E-06  6672   0.914E-03    0.648E-05
DAV:  25    -0.116454655596E+03    0.13487E-04   -0.57168E-06  7056   0.810E-03    0.402E-05
DAV:  26    -0.116454659305E+03   -0.37098E-05   -0.37895E-06  6012   0.697E-03    0.226E-05
DAV:  27    -0.116454655869E+03    0.34363E-05   -0.18690E-06  5632   0.503E-03    0.121E-05
DAV:  28    -0.116454656238E+03   -0.36841E-06   -0.12616E-06  5852   0.441E-03
   1 F= -.11645466E+03 E0= -.11644390E+03  d E =-.215079E-01
