 vasp.5.3.5 31Mar14 (build Oct 29 2014 16:16:03) complex                        
  
 executed on          Linux-UFHPC date 2016.02.09  18:53:31
 running on    8 total cores
 distrk:  each k-point on    8 cores,    1 groups
 distr:  one band on NCORES_PER_BAND=   2 cores,    4 groups


--------------------------------------------------------------------------------------------------------


 INCAR:
 POTCAR:    PAW_PBE P 17Jan2003                   
 POTCAR:   PAW_PBE Si 05Jan2001                   

 ----------------------------------------------------------------------------- 
|                                                                             |
|  ADVICE TO THIS USER RUNNING 'VASP/VAMP'   (HEAR YOUR MASTER'S VOICE ...):  |
|                                                                             |
|      You have switched on vdW-DFT.                                          |
|      This routine was written and supplied by Jiri Klimes.                  |
|      We recommed that you carefully read and cite the following             |
|      publication                                                            |
|      J. Klimes, D.R. Bowler, A. Michelides                                  |
|        J. Phys.: Cond Matt. 22 022201 (2010)                                |
|      J. Klimes, D.R. Bowler, A. Michelides                                  |
|        Phys. Rev. B. 83, 195131 (2011)                                      |
|      and references therein.                                                |
|                                                                             |
 ----------------------------------------------------------------------------- 

 POTCAR:    PAW_PBE P 17Jan2003                   
   VRHFIN =P : s2p3                                                             
   LEXCH  = PE                                                                  
   EATOM  =   176.0430 eV,   12.9388 Ry                                         
                                                                                
   TITEL  = PAW_PBE P 17Jan2003                                                 
   LULTRA =        F    use ultrasoft PP ?                                      
   IUNSCR =        1    unscreen: 0-lin 1-nonlin 2-no                           
   RPACOR =    1.500    partial core radius                                     
   POMASS =   30.974; ZVAL   =    5.000    mass and valenz                      
   RCORE  =    1.900    outmost cutoff radius                                   
   RWIGS  =    2.330; RWIGS  =    1.233    wigner-seitz radius (au A)           
   ENMAX  =  270.000; ENMIN  =  191.280 eV                                      
   ICORE  =        2    local potential                                         
   LCOR   =        T    correct aug charges                                     
   LPAW   =        T    paw PP                                                  
   EAUG   =  342.924                                                            
   DEXC   =    -.002                                                            
   RMAX   =    2.887    core radius for proj-oper                               
   RAUG   =    1.300    factor for augmentation sphere                          
   RDEP   =    1.931    radius for radial grids                                 
   QCUT   =   -4.330; QGAM   =    8.659    optimization parameters              
                                                                                
   Description                                                                  
     l     E      TYP  RCUT    TYP  RCUT                                        
     0   .000     23  1.900                                                     
     0   .000     23  1.900                                                     
     1   .000     23  1.900                                                     
     1   .000     23  1.900                                                     
     2   .000     23  1.900                                                     
  local pseudopotential read in
  partial core-charges read in
  atomic valenz-charges read in
  non local Contribution for L=           0  read in
    real space projection operators read in
  non local Contribution for L=           0  read in
    real space projection operators read in
  non local Contribution for L=           1  read in
    real space projection operators read in
  non local Contribution for L=           1  read in
    real space projection operators read in
    PAW grid and wavefunctions read in
 
   number of l-projection  operators is LMAX  =           4
   number of lm-projection operators is LMMAX =           8
 
 POTCAR:   PAW_PBE Si 05Jan2001                   
   VRHFIN =Si: s2p2                                                             
   LEXCH  = PE                                                                  
   EATOM  =   103.0669 eV,    7.5752 Ry                                         
                                                                                
   TITEL  = PAW_PBE Si 05Jan2001                                                
   LULTRA =        F    use ultrasoft PP ?                                      
   IUNSCR =        1    unscreen: 0-lin 1-nonlin 2-no                           
   RPACOR =    1.500    partial core radius                                     
   POMASS =   28.085; ZVAL   =    4.000    mass and valenz                      
   RCORE  =    1.900    outmost cutoff radius                                   
   RWIGS  =    2.480; RWIGS  =    1.312    wigner-seitz radius (au A)           
   ENMAX  =  245.345; ENMIN  =  184.009 eV                                      
   ICORE  =        2    local potential                                         
   LCOR   =        T    correct aug charges                                     
   LPAW   =        T    paw PP                                                  
   EAUG   =  322.069                                                            
   DEXC   =    -.007                                                            
   RMAX   =    2.944    core radius for proj-oper                               
   RAUG   =    1.300    factor for augmentation sphere                          
   RDEP   =    1.993    radius for radial grids                                 
   QCUT   =   -4.246; QGAM   =    8.493    optimization parameters              
                                                                                
   Description                                                                  
     l     E      TYP  RCUT    TYP  RCUT                                        
     0   .000     23  1.900                                                     
     0   .000     23  1.900                                                     
     1   .000     23  1.900                                                     
     1   .000     23  1.900                                                     
     2   .000      7  1.900                                                     
  local pseudopotential read in
  partial core-charges read in
  atomic valenz-charges read in
  non local Contribution for L=           0  read in
    real space projection operators read in
  non local Contribution for L=           0  read in
    real space projection operators read in
  non local Contribution for L=           1  read in
    real space projection operators read in
  non local Contribution for L=           1  read in
    real space projection operators read in
    PAW grid and wavefunctions read in
 
   number of l-projection  operators is LMAX  =           4
   number of lm-projection operators is LMMAX =           8
 
 Optimization of the real space projectors (new method)

 maximal supplied QI-value         = 19.84
 optimisation between [QCUT,QGAM] = [  8.73, 17.66] = [ 21.34, 87.33] Ry 
 Optimized for a Real-space Cutoff    1.50 Angstroem

   l    n(q)    QCUT    max X(q) W(low)/X(q) W(high)/X(q)  e(spline) 
   0      8     8.731     6.651    0.16E-04    0.15E-04    0.77E-08
   0      8     8.731    90.285    0.16E-03    0.90E-04    0.16E-06
   1      7     8.731     4.328    0.47E-04    0.36E-04    0.45E-07
   1      7     8.731    54.583    0.13E-03    0.39E-03    0.20E-06
 Optimization of the real space projectors (new method)

 maximal supplied QI-value         = 19.84
 optimisation between [QCUT,QGAM] = [  8.73, 17.66] = [ 21.34, 87.33] Ry 
 Optimized for a Real-space Cutoff    1.46 Angstroem

   l    n(q)    QCUT    max X(q) W(low)/X(q) W(high)/X(q)  e(spline) 
   0      8     8.731     8.708    0.16E-04    0.11E-04    0.68E-08
   0      8     8.731   106.241    0.24E-03    0.77E-04    0.13E-06
   1      7     8.731     5.901    0.34E-04    0.38E-04    0.36E-07
   1      7     8.731    73.241    0.12E-03    0.39E-03    0.15E-06

 ----------------------------------------------------------------------------- 
|                                                                             |
|  ADVICE TO THIS USER RUNNING 'VASP/VAMP'   (HEAR YOUR MASTER'S VOICE ...):  |
|                                                                             |
|      You enforced a specific xc-type in the INCAR file,                     |
|      a different type was found on the POTCAR file                          |
|          I HOPE YOU KNOW, WHAT YOU ARE  DOING                               |
|                                                                             |
 ----------------------------------------------------------------------------- 

  PAW_PBE P 17Jan2003                   :
 energy of atom  1       EATOM= -176.0430
 kinetic energy error for atom=    0.0040 (will be added to EATOM!!)
 PAW_PBE Si 05Jan2001                   :
 energy of atom  2       EATOM= -103.0669
 kinetic energy error for atom=    0.0021 (will be added to EATOM!!)
 
 
 POSCAR: Si12                                    
  positions in direct lattice
  No initial velocities read in
 exchange correlation table for  LEXCH =       42
   RHO(1)=    0.500       N(1)  =     2000
   RHO(2)=  100.500       N(2)  =     4000
 


--------------------------------------------------------------------------------------------------------


 ion  position               nearest neighbor table
   1  0.114  0.228  0.233-  15 2.28  21 2.29  21 2.29
   2  0.014  0.828  0.515-  16 2.28  22 2.29  22 2.29
   3  0.458  0.916  0.209-  21 2.28  13 2.30  13 2.30
   4  0.358  0.516  0.491-  22 2.28  14 2.30  14 2.30
   5  0.311  0.622  0.084-  17 2.28  23 2.30  23 2.30
   6  0.311  0.622  0.366-  18 2.28  14 2.87
   7  0.999  0.998  0.086-  19 2.29  19 2.29  13 2.32
   8  0.999  0.998  0.368-  20 2.29  20 2.29  16 2.76
   9  0.655  0.310  0.060-  19 2.28  17 2.29  17 2.29
  10  0.655  0.310  0.342-  24 2.17  20 2.28  18 2.29  18 2.29
  11  0.770  0.539  0.207-  15 2.29  15 2.29  23 2.32
  12  0.670  0.139  0.489-  16 2.29  16 2.29  24 2.32  20 2.76
  13  0.940  0.879  0.158-   3 2.30   3 2.30   7 2.32  23 2.35
  14  0.840  0.479  0.440-  18 2.27   4 2.30   4 2.30  24 2.35  18 2.77   6 2.87
  15  0.205  0.410  0.186-   1 2.28  11 2.29  11 2.29  17 2.37
  16  0.105  0.010  0.468-   2 2.28  12 2.29  12 2.29   8 2.76  20 2.84
  17  0.202  0.404  0.100-   5 2.28   9 2.29   9 2.29  15 2.37
  18  0.202  0.404  0.382-  14 2.27   6 2.28  24 2.29  10 2.29  10 2.29  14 2.77  24 2.78
  19  0.564  0.128  0.108-   9 2.28   7 2.29   7 2.29  21 2.37
  20  0.564  0.128  0.390-  24 1.59  10 2.28   8 2.29   8 2.29  12 2.76  16 2.84
  21  0.567  0.134  0.194-   3 2.28   1 2.29   1 2.29  19 2.37
  22  0.467  0.734  0.476-   4 2.28   2 2.29   2 2.29
  23  0.829  0.658  0.136-   5 2.30   5 2.30  11 2.32  13 2.35
  24  0.729  0.258  0.418-  20 1.59  10 2.17  18 2.29  12 2.32  14 2.35  18 2.78
 
  LATTYP: Found a base centered orthorhombic cell.
 ALAT       =     3.5404000000
 B/A-ratio  =     5.8153587165
 C/A-ratio  =     7.7678875268
  
  Lattice vectors:
  
 A1 = (   1.7702000000,  10.2943480000,   0.0000000000)
 A2 = (   1.7702000000, -10.2943480000,   0.0000000000)
 A3 = (   0.0000000000,   0.0000000000, -27.5014290000)


Analysis of symmetry for initial positions (statically):
=====================================================================
 Subroutine PRICEL returns:
 Original cell was already a primitive cell.
 

 Routine SETGRP: Setting up the symmetry group for a 
 base centered orthorhombic supercell.


 Subroutine GETGRP returns: Found  1 space group operations
 (whereof  1 operations were pure point group operations)
 out of a pool of  8 trial point group operations.


The static configuration has the point symmetry C_1 .


Analysis of symmetry for dynamics (positions and initial velocities):
=====================================================================
 Subroutine PRICEL returns:
 Original cell was already a primitive cell.
 

 Routine SETGRP: Setting up the symmetry group for a 
 base centered orthorhombic supercell.


 Subroutine GETGRP returns: Found  1 space group operations
 (whereof  1 operations were pure point group operations)
 out of a pool of  8 trial point group operations.


The dynamic configuration has the point symmetry C_1 .
 
 
 KPOINTS: pymatgen generated KPOINTS with grid den

Automatic generation of k-mesh.
Space group operators:
 irot       det(A)        alpha          n_x          n_y          n_z        tau_x        tau_y        tau_z
    1     1.000000     0.000000     1.000000     0.000000     0.000000     0.000000     0.000000     0.000000
 
 Subroutine IBZKPT returns following result:
 ===========================================
 
 Found     54 irreducible k-points:
 
 Following reciprocal coordinates:
            Coordinates               Weight
  0.000000  0.000000  0.000000      1.000000
  0.076923 -0.000000  0.000000      2.000000
  0.153846 -0.000000  0.000000      2.000000
  0.230769 -0.000000  0.000000      2.000000
  0.307692 -0.000000  0.000000      2.000000
  0.384615 -0.000000  0.000000      2.000000
  0.461538 -0.000000  0.000000      2.000000
  0.000000  0.250000  0.000000      2.000000
  0.076923  0.250000  0.000000      2.000000
  0.153846  0.250000  0.000000      2.000000
  0.230769  0.250000  0.000000      2.000000
  0.307692  0.250000  0.000000      2.000000
  0.384615  0.250000  0.000000      2.000000
  0.461538  0.250000  0.000000      2.000000
 -0.461538  0.250000  0.000000      2.000000
 -0.384615  0.250000  0.000000      2.000000
 -0.307692  0.250000  0.000000      2.000000
 -0.230769  0.250000  0.000000      2.000000
 -0.153846  0.250000  0.000000      2.000000
 -0.076923  0.250000  0.000000      2.000000
  0.000000  0.500000  0.000000      1.000000
  0.076923  0.500000  0.000000      2.000000
  0.153846  0.500000  0.000000      2.000000
  0.230769  0.500000  0.000000      2.000000
  0.307692  0.500000  0.000000      2.000000
  0.384615  0.500000  0.000000      2.000000
  0.461538  0.500000  0.000000      2.000000
  0.000000  0.000000  0.500000      1.000000
  0.076923 -0.000000  0.500000      2.000000
  0.153846 -0.000000  0.500000      2.000000
  0.230769 -0.000000  0.500000      2.000000
  0.307692 -0.000000  0.500000      2.000000
  0.384615 -0.000000  0.500000      2.000000
  0.461538 -0.000000  0.500000      2.000000
  0.000000  0.250000  0.500000      2.000000
  0.076923  0.250000  0.500000      2.000000
  0.153846  0.250000  0.500000      2.000000
  0.230769  0.250000  0.500000      2.000000
  0.307692  0.250000  0.500000      2.000000
  0.384615  0.250000  0.500000      2.000000
  0.461538  0.250000  0.500000      2.000000
 -0.461538  0.250000  0.500000      2.000000
 -0.384615  0.250000  0.500000      2.000000
 -0.307692  0.250000  0.500000      2.000000
 -0.230769  0.250000  0.500000      2.000000
 -0.153846  0.250000  0.500000      2.000000
 -0.076923  0.250000  0.500000      2.000000
  0.000000  0.500000  0.500000      1.000000
  0.076923  0.500000  0.500000      2.000000
  0.153846  0.500000  0.500000      2.000000
  0.230769  0.500000  0.500000      2.000000
  0.307692  0.500000  0.500000      2.000000
  0.384615  0.500000  0.500000      2.000000
  0.461538  0.500000  0.500000      2.000000
 
 Following cartesian coordinates:
            Coordinates               Weight
  0.000000  0.000000  0.000000      1.000000
  0.021727  0.003736  0.000000      2.000000
  0.043454  0.007472  0.000000      2.000000
  0.065182  0.011209  0.000000      2.000000
  0.086909  0.014945  0.000000      2.000000
  0.108636  0.018681  0.000000      2.000000
  0.130363  0.022417  0.000000      2.000000
  0.000000  0.024285  0.000000      2.000000
  0.021727  0.028021  0.000000      2.000000
  0.043454  0.031758  0.000000      2.000000
  0.065182  0.035494  0.000000      2.000000
  0.086909  0.039230  0.000000      2.000000
  0.108636  0.042966  0.000000      2.000000
  0.130363  0.046702  0.000000      2.000000
 -0.130363  0.001868  0.000000      2.000000
 -0.108636  0.005604  0.000000      2.000000
 -0.086909  0.009340  0.000000      2.000000
 -0.065182  0.013077  0.000000      2.000000
 -0.043454  0.016813  0.000000      2.000000
 -0.021727  0.020549  0.000000      2.000000
  0.000000  0.048570  0.000000      1.000000
  0.021727  0.052307  0.000000      2.000000
  0.043454  0.056043  0.000000      2.000000
  0.065182  0.059779  0.000000      2.000000
  0.086909  0.063515  0.000000      2.000000
  0.108636  0.067251  0.000000      2.000000
  0.130363  0.070987  0.000000      2.000000
  0.000000  0.000000  0.018181      1.000000
  0.021727  0.003736  0.018181      2.000000
  0.043454  0.007472  0.018181      2.000000
  0.065182  0.011209  0.018181      2.000000
  0.086909  0.014945  0.018181      2.000000
  0.108636  0.018681  0.018181      2.000000
  0.130363  0.022417  0.018181      2.000000
  0.000000  0.024285  0.018181      2.000000
  0.021727  0.028021  0.018181      2.000000
  0.043454  0.031758  0.018181      2.000000
  0.065182  0.035494  0.018181      2.000000
  0.086909  0.039230  0.018181      2.000000
  0.108636  0.042966  0.018181      2.000000
  0.130363  0.046702  0.018181      2.000000
 -0.130363  0.001868  0.018181      2.000000
 -0.108636  0.005604  0.018181      2.000000
 -0.086909  0.009340  0.018181      2.000000
 -0.065182  0.013077  0.018181      2.000000
 -0.043454  0.016813  0.018181      2.000000
 -0.021727  0.020549  0.018181      2.000000
  0.000000  0.048570  0.018181      1.000000
  0.021727  0.052307  0.018181      2.000000
  0.043454  0.056043  0.018181      2.000000
  0.065182  0.059779  0.018181      2.000000
  0.086909  0.063515  0.018181      2.000000
  0.108636  0.067251  0.018181      2.000000
  0.130363  0.070987  0.018181      2.000000
 


--------------------------------------------------------------------------------------------------------




 Dimension of arrays:
   k-points           NKPTS =     54   k-points in BZ     NKDIM =     54   number of bands    NBANDS=     68
   number of dos      NEDOS =    301   number of ions     NIONS =     24
   non local maximal  LDIM  =      4   non local SUM 2l+1 LMDIM =      8
   total plane-waves  NPLWV = 192000
   max r-space proj   IRMAX =   2772   max aug-charges    IRDMAX=   6603
   dimension x,y,z NGX =    20 NGY =   60 NGZ =  160
   dimension x,y,z NGXF=    40 NGYF=  120 NGZF=  320
   support grid    NGXF=    40 NGYF=  120 NGZF=  320
   ions per type =              12  12
 NGX,Y,Z   is equivalent  to a cutoff of   9.39,  9.55,  9.67 a.u.
 NGXF,Y,Z  is equivalent  to a cutoff of  18.78, 19.10, 19.34 a.u.


 I would recommend the setting:
   dimension x,y,z NGX =    20 NGY =   59 NGZ =  155
 SYSTEM =  unknown system                          
 POSCAR =  Si12                                    

 Startparameter for this run:
   NWRITE =      2    write-flag & timer
   PREC   = accura    normal or accurate (medium, high low for compatibility)
   ISTART =      0    job   : 0-new  1-cont  2-samecut
   ICHARG =      2    charge: 1-file 2-atom 10-const
   ISPIN  =      1    spin polarized calculation?
   LNONCOLLINEAR =      F non collinear calculations
   LSORBIT =      F    spin-orbit coupling
   INIWAV =      1    electr: 0-lowe 1-rand  2-diag
   LASPH  =      F    aspherical Exc in radial PAW
   METAGGA=      F    non-selfconsistent MetaGGA calc.

 Electronic Relaxation 1
   ENCUT  =  300.0 eV  22.05 Ry    4.70 a.u.   5.00 14.75 38.84*2*pi/ulx,y,z
   ENINI  =  300.0     initial cutoff
   ENAUG  =  342.9 eV  augmentation charge cutoff
   NELM   =     60;   NELMIN=  2; NELMDL= -5     # of ELM steps 
   EDIFF  = 0.1E-05   stopping-criterion for ELM
   LREAL  =      T    real-space projection
   NLSPLINE    = F    spline interpolate recip. space projectors
   LCOMPAT=      F    compatible to vasp.4.4
   GGA_COMPAT  = T    GGA compatible to vasp.4.4-vasp.4.6
   LMAXPAW     = -100 max onsite density
   LMAXMIX     =    2 max onsite mixed and CHGCAR
   VOSKOWN=      0    Vosko Wilk Nusair interpolation
   ROPT   =   -0.00025  -0.00025
 Ionic relaxation
   EDIFFG = 0.1E-04   stopping-criterion for IOM
   NSW    =      0    number of steps for IOM
   NBLOCK =      1;   KBLOCK =      1    inner block; outer block 
   IBRION =     -1    ionic relax: 0-MD 1-quasi-New 2-CG
   NFREE  =      1    steps in history (QN), initial steepest desc. (CG)
   ISIF   =      3    stress and relaxation
   IWAVPR =     10    prediction:  0-non 1-charg 2-wave 3-comb
   ISYM   =      2    0-nonsym 1-usesym 2-fastsym
   LCORR  =      T    Harris-Foulkes like correction to forces

   POTIM  = 0.5000    time-step for ionic-motion
   TEIN   =    0.0    initial temperature
   TEBEG  =    0.0;   TEEND  =   0.0 temperature during run
   SMASS  =  -3.00    Nose mass-parameter (am)
   estimated Nose-frequenzy (Omega)   =  0.10E-29 period in steps =****** mass=  -0.286E-27a.u.
   SCALEE = 1.0000    scale energy and forces
   NPACO  =    256;   APACO  = 16.0  distance and # of slots for P.C.
   PSTRESS=    0.0 pullay stress

  Mass of Ions in am
   POMASS =  30.97 28.09
  Ionic Valenz
   ZVAL   =   5.00  4.00
  Atomic Wigner-Seitz radii
   RWIGS  =  -1.00 -1.00
  virtual crystal weights 
   VCA    =   1.00  1.00
   NELECT =     108.0000    total number of electrons
   NUPDOWN=      -1.0000    fix difference up-down

 DOS related values:
   EMIN   =  10.00;   EMAX   =-10.00  energy-range for DOS
   EFERMI =   0.00
   ISMEAR =     0;   SIGMA  =   0.10  broadening in eV -4-tet -1-fermi 0-gaus

 Electronic relaxation 2 (details)
   IALGO  =     38    algorithm
   LDIAG  =      T    sub-space diagonalisation (order eigenvalues)
   LSUBROT=      F    optimize rotation matrix (better conditioning)
   TURBO    =      0    0=normal 1=particle mesh
   IRESTART =      0    0=no restart 2=restart with 2 vectors
   NREBOOT  =      0    no. of reboots
   NMIN     =      0    reboot dimension
   EREF     =   0.00    reference energy to select bands
   IMIX   =      4    mixing-type and parameters
     AMIX     =   0.40;   BMIX     =  1.00
     AMIX_MAG =   1.60;   BMIX_MAG =  1.00
     AMIN     =   0.10
     WC   =   100.;   INIMIX=   1;  MIXPRE=   1;  MAXMIX= -45

 Intra band minimization:
   WEIMIN = 0.0000     energy-eigenvalue tresh-hold
   EBREAK =  0.37E-08  absolut break condition
   DEPER  =   0.30     relativ break condition  

   TIME   =   0.40     timestep for ELM

  volume/ion in A,a.u.               =      41.76       281.83
  Fermi-wavevector in a.u.,A,eV,Ry     =   0.779018  1.472130  8.256946  0.606868
  Thomas-Fermi vector in A             =   1.882034
 
 Write flags
   LWAVE  =      F    write WAVECAR
   LCHARG =      F    write CHGCAR
   LVTOT  =      F    write LOCPOT, total local potential
   LVHAR  =      F    write LOCPOT, Hartree potential only
   LELF   =      F    write electronic localiz. function (ELF)
   LORBIT =      0    0 simple, 1 ext, 2 COOP (PROOUT)


 Dipole corrections
   LMONO  =      F    monopole corrections only (constant potential shift)
   LDIPOL =      F    correct potential (dipole corrections)
   IDIPOL =      0    1-x, 2-y, 3-z, 4-all directions 
   EPSILON=  1.0000000 bulk dielectric constant

 Exchange correlation treatment:
   GGA     =    BO    GGA type
   LEXCH   =    42    internal setting for exchange type
   VOSKOWN=      0    Vosko Wilk Nusair interpolation
   LHFCALC =     F    Hartree Fock is set to
   LHFONE  =     F    Hartree Fock one center treatment
   AEXX    =    0.0000 exact exchange contribution

 vdW DFT:
   LUSE_VDW   =     T    switch on vdW DFT
   Zab_VDW    =-.8491    correlation parameter
   PARAM1     =0.1833
   PARAM2     =0.2200
   PARAM3     =0.0000

 Linear response parameters
   LEPSILON=     F    determine dielectric tensor
   LRPA    =     F    only Hartree local field effects (RPA)
   LNABLA  =     F    use nabla operator in PAW spheres
   LVEL    =     F    velocity operator in full k-point grid
   LINTERFAST=   F  fast interpolation
   KINTER  =     0    interpolate to denser k-point grid
   CSHIFT  =0.1000    complex shift for real part using Kramers Kronig
   OMEGAMAX=  -1.0    maximum frequency
   DEG_THRESHOLD= 0.2000000E-02 threshold for treating states as degnerate
   RTIME   =    0.100 relaxation time in fs

 Orbital magnetization related:
   ORBITALMAG=     F  switch on orbital magnetization
   LCHIMAG   =     F  perturbation theory with respect to B field
   DQ        =  0.001000  dq finite difference perturbation B field



--------------------------------------------------------------------------------------------------------


 Static calculation
 charge density and potential will be updated during run
 non-spin polarized calculation
 Variant of blocked Davidson
 Davidson routine will perform the subspace rotation
 perform sub-space diagonalisation
    after iterative eigenvector-optimisation
 modified Broyden-mixing scheme, WC =      100.0
 initial mixing is a Kerker type mixing with AMIX =  0.4000 and BMIX =      1.0000
 Hartree-type preconditioning will be used
 using additional bands           14
 real space projection scheme for non local part
 use partial core corrections
 calculate Harris-corrections to forces 
   (improved forces if not selfconsistent)
 use gradient corrections 
 use of overlap-Matrix (Vanderbilt PP)
 Gauss-broadening in eV      SIGMA  =   0.10


--------------------------------------------------------------------------------------------------------


  energy-cutoff  :      300.00
  volume of cell :     1002.32
      direct lattice vectors                 reciprocal lattice vectors
     3.540400000  0.000000000  0.000000000     0.282453960  0.048570342  0.000000000
    -1.770200000 10.294348000  0.000000000     0.000000000  0.097140683  0.000000000
     0.000000000  0.000000000 27.501429000     0.000000000  0.000000000  0.036361747

  length of vectors
     3.540400000 10.445439617 27.501429000     0.286599577  0.097140683  0.036361747


 
 k-points in units of 2pi/SCALE and weight: pymatgen generated KPOINTS with grid den
   0.00000000  0.00000000  0.00000000       0.010
   0.02172723  0.00373618  0.00000000       0.019
   0.04345446  0.00747236  0.00000000       0.019
   0.06518168  0.01120854  0.00000000       0.019
   0.08690891  0.01494472  0.00000000       0.019
   0.10863614  0.01868090  0.00000000       0.019
   0.13036337  0.02241708  0.00000000       0.019
   0.00000000  0.02428517  0.00000000       0.019
   0.02172723  0.02802135  0.00000000       0.019
   0.04345446  0.03175753  0.00000000       0.019
   0.06518168  0.03549371  0.00000000       0.019
   0.08690891  0.03922989  0.00000000       0.019
   0.10863614  0.04296607  0.00000000       0.019
   0.13036337  0.04670225  0.00000000       0.019
  -0.13036337  0.00186809  0.00000000       0.019
  -0.10863614  0.00560427  0.00000000       0.019
  -0.08690891  0.00934045  0.00000000       0.019
  -0.06518168  0.01307663  0.00000000       0.019
  -0.04345446  0.01681281  0.00000000       0.019
  -0.02172723  0.02054899  0.00000000       0.019
   0.00000000  0.04857034  0.00000000       0.010
   0.02172723  0.05230652  0.00000000       0.019
   0.04345446  0.05604270  0.00000000       0.019
   0.06518168  0.05977888  0.00000000       0.019
   0.08690891  0.06351506  0.00000000       0.019
   0.10863614  0.06725124  0.00000000       0.019
   0.13036337  0.07098742  0.00000000       0.019
   0.00000000  0.00000000  0.01818087       0.010
   0.02172723  0.00373618  0.01818087       0.019
   0.04345446  0.00747236  0.01818087       0.019
   0.06518168  0.01120854  0.01818087       0.019
   0.08690891  0.01494472  0.01818087       0.019
   0.10863614  0.01868090  0.01818087       0.019
   0.13036337  0.02241708  0.01818087       0.019
   0.00000000  0.02428517  0.01818087       0.019
   0.02172723  0.02802135  0.01818087       0.019
   0.04345446  0.03175753  0.01818087       0.019
   0.06518168  0.03549371  0.01818087       0.019
   0.08690891  0.03922989  0.01818087       0.019
   0.10863614  0.04296607  0.01818087       0.019
   0.13036337  0.04670225  0.01818087       0.019
  -0.13036337  0.00186809  0.01818087       0.019
  -0.10863614  0.00560427  0.01818087       0.019
  -0.08690891  0.00934045  0.01818087       0.019
  -0.06518168  0.01307663  0.01818087       0.019
  -0.04345446  0.01681281  0.01818087       0.019
  -0.02172723  0.02054899  0.01818087       0.019
   0.00000000  0.04857034  0.01818087       0.010
   0.02172723  0.05230652  0.01818087       0.019
   0.04345446  0.05604270  0.01818087       0.019
   0.06518168  0.05977888  0.01818087       0.019
   0.08690891  0.06351506  0.01818087       0.019
   0.10863614  0.06725124  0.01818087       0.019
   0.13036337  0.07098742  0.01818087       0.019
 
 k-points in reciprocal lattice and weights: pymatgen generated KPOINTS with grid den
   0.00000000  0.00000000  0.00000000       0.010
   0.07692308 -0.00000000  0.00000000       0.019
   0.15384615 -0.00000000  0.00000000       0.019
   0.23076923 -0.00000000  0.00000000       0.019
   0.30769231 -0.00000000  0.00000000       0.019
   0.38461538 -0.00000000  0.00000000       0.019
   0.46153846 -0.00000000  0.00000000       0.019
   0.00000000  0.25000000  0.00000000       0.019
   0.07692308  0.25000000  0.00000000       0.019
   0.15384615  0.25000000  0.00000000       0.019
   0.23076923  0.25000000  0.00000000       0.019
   0.30769231  0.25000000  0.00000000       0.019
   0.38461538  0.25000000  0.00000000       0.019
   0.46153846  0.25000000  0.00000000       0.019
  -0.46153846  0.25000000  0.00000000       0.019
  -0.38461538  0.25000000  0.00000000       0.019
  -0.30769231  0.25000000  0.00000000       0.019
  -0.23076923  0.25000000  0.00000000       0.019
  -0.15384615  0.25000000  0.00000000       0.019
  -0.07692308  0.25000000  0.00000000       0.019
   0.00000000  0.50000000  0.00000000       0.010
   0.07692308  0.50000000  0.00000000       0.019
   0.15384615  0.50000000  0.00000000       0.019
   0.23076923  0.50000000  0.00000000       0.019
   0.30769231  0.50000000  0.00000000       0.019
   0.38461538  0.50000000  0.00000000       0.019
   0.46153846  0.50000000  0.00000000       0.019
   0.00000000  0.00000000  0.50000000       0.010
   0.07692308 -0.00000000  0.50000000       0.019
   0.15384615 -0.00000000  0.50000000       0.019
   0.23076923 -0.00000000  0.50000000       0.019
   0.30769231 -0.00000000  0.50000000       0.019
   0.38461538 -0.00000000  0.50000000       0.019
   0.46153846 -0.00000000  0.50000000       0.019
   0.00000000  0.25000000  0.50000000       0.019
   0.07692308  0.25000000  0.50000000       0.019
   0.15384615  0.25000000  0.50000000       0.019
   0.23076923  0.25000000  0.50000000       0.019
   0.30769231  0.25000000  0.50000000       0.019
   0.38461538  0.25000000  0.50000000       0.019
   0.46153846  0.25000000  0.50000000       0.019
  -0.46153846  0.25000000  0.50000000       0.019
  -0.38461538  0.25000000  0.50000000       0.019
  -0.30769231  0.25000000  0.50000000       0.019
  -0.23076923  0.25000000  0.50000000       0.019
  -0.15384615  0.25000000  0.50000000       0.019
  -0.07692308  0.25000000  0.50000000       0.019
   0.00000000  0.50000000  0.50000000       0.010
   0.07692308  0.50000000  0.50000000       0.019
   0.15384615  0.50000000  0.50000000       0.019
   0.23076923  0.50000000  0.50000000       0.019
   0.30769231  0.50000000  0.50000000       0.019
   0.38461538  0.50000000  0.50000000       0.019
   0.46153846  0.50000000  0.50000000       0.019
 
 position of ions in fractional coordinates (direct lattice) 
   0.11402300  0.22804500  0.23316207
   0.01402300  0.82804500  0.51499159
   0.45808900  0.91617900  0.20939482
   0.35808900  0.51617900  0.49122434
   0.31085400  0.62170900  0.08414979
   0.31085400  0.62170900  0.36597930
   0.99923000  0.99846000  0.08631254
   0.99923000  0.99846000  0.36814206
   0.65492700  0.30985400  0.06041748
   0.65492700  0.30985400  0.34224700
   0.76973800  0.53947500  0.20725292
   0.66973800  0.13947500  0.48908244
   0.93971600  0.87943300  0.15783749
   0.83971600  0.47943300  0.43966701
   0.20515200  0.41030300  0.18578822
   0.10515200  0.01030300  0.46761774
   0.20184900  0.40369900  0.09969156
   0.20184900  0.40369900  0.38152107
   0.56380500  0.12761000  0.10779021
   0.56380500  0.12761000  0.38961973
   0.56710600  0.13421200  0.19387616
   0.46710600  0.73421200  0.47570568
   0.82923400  0.65846800  0.13571444
   0.72923400  0.25846800  0.41754396
 
 position of ions in cartesian coordinates  (Angst):
   0.00000177  2.34757459  6.41229012
  -1.41615823  8.52418339 14.16300462
  -0.00000177  9.43146546  5.75865686
   0.35403823  5.31372626 13.50937136
  -0.00000177  6.40008880  2.31423934
  -0.00000177  6.40008880 10.06495384
   1.77020000 10.27849470  2.37371832
   1.77020000 10.27849470 10.12443282
   1.77020000  3.18974491  1.66156717
   1.77020000  3.18974491  9.41228167
   1.77020177  5.55354339  5.69975143
   2.12424177  1.43580419 13.45046593
   1.77019823  9.05318934  4.34075665
   2.12423823  4.93545014 12.09147115
   0.00000177  4.22380187  5.10944151
   0.35404177  0.10606267 12.86015601
  -0.00000177  4.15581799  2.74166024
  -0.00000177  4.15581799 10.49237474
   1.77020000  1.31366175  2.96438477
   1.77020000  1.31366175 10.71509927
   1.77020000  1.38162503  5.33187152
   0.35404000  7.55823383 13.08258602
   1.77020000  6.77849874  3.73234107
   2.12424000  2.66075954 11.48305557
 


--------------------------------------------------------------------------------------------------------


 k-point  1 :   0.0000 0.0000 0.0000  plane waves:   11717
 k-point  2 :   0.0769-0.0000 0.0000  plane waves:   11762
 k-point  3 :   0.1538-0.0000 0.0000  plane waves:   11805
 k-point  4 :   0.2308-0.0000 0.0000  plane waves:   11824
 k-point  5 :   0.3077-0.0000 0.0000  plane waves:   11875
 k-point  6 :   0.3846-0.0000 0.0000  plane waves:   11864
 k-point  7 :   0.4615-0.0000 0.0000  plane waves:   11883
 k-point  8 :   0.0000 0.2500 0.0000  plane waves:   11683
 k-point  9 :   0.0769 0.2500 0.0000  plane waves:   11756
 k-point 10 :   0.1538 0.2500 0.0000  plane waves:   11807
 k-point 11 :   0.2308 0.2500 0.0000  plane waves:   11853
 k-point 12 :   0.3077 0.2500 0.0000  plane waves:   11866
 k-point 13 :   0.3846 0.2500 0.0000  plane waves:   11889
 k-point 14 :   0.4615 0.2500 0.0000  plane waves:   11885
 k-point 15 :  -0.4615 0.2500 0.0000  plane waves:   11886
 k-point 16 :  -0.3846 0.2500 0.0000  plane waves:   11867
 k-point 17 :  -0.3077 0.2500 0.0000  plane waves:   11849
 k-point 18 :  -0.2308 0.2500 0.0000  plane waves:   11827
 k-point 19 :  -0.1538 0.2500 0.0000  plane waves:   11801
 k-point 20 :  -0.0769 0.2500 0.0000  plane waves:   11757
 k-point 21 :   0.0000 0.5000 0.0000  plane waves:   11710
 k-point 22 :   0.0769 0.5000 0.0000  plane waves:   11762
 k-point 23 :   0.1538 0.5000 0.0000  plane waves:   11782
 k-point 24 :   0.2308 0.5000 0.0000  plane waves:   11841
 k-point 25 :   0.3077 0.5000 0.0000  plane waves:   11876
 k-point 26 :   0.3846 0.5000 0.0000  plane waves:   11889
 k-point 27 :   0.4615 0.5000 0.0000  plane waves:   11881
 k-point 28 :   0.0000 0.0000 0.5000  plane waves:   11698
 k-point 29 :   0.0769-0.0000 0.5000  plane waves:   11752
 k-point 30 :   0.1538-0.0000 0.5000  plane waves:   11800
 k-point 31 :   0.2308-0.0000 0.5000  plane waves:   11834
 k-point 32 :   0.3077-0.0000 0.5000  plane waves:   11850
 k-point 33 :   0.3846-0.0000 0.5000  plane waves:   11888
 k-point 34 :   0.4615-0.0000 0.5000  plane waves:   11896
 k-point 35 :   0.0000 0.2500 0.5000  plane waves:   11714
 k-point 36 :   0.0769 0.2500 0.5000  plane waves:   11754
 k-point 37 :   0.1538 0.2500 0.5000  plane waves:   11802
 k-point 38 :   0.2308 0.2500 0.5000  plane waves:   11840
 k-point 39 :   0.3077 0.2500 0.5000  plane waves:   11858
 k-point 40 :   0.3846 0.2500 0.5000  plane waves:   11896
 k-point 41 :   0.4615 0.2500 0.5000  plane waves:   11886
 k-point 42 :  -0.4615 0.2500 0.5000  plane waves:   11852
 k-point 43 :  -0.3846 0.2500 0.5000  plane waves:   11838
 k-point 44 :  -0.3077 0.2500 0.5000  plane waves:   11842
 k-point 45 :  -0.2308 0.2500 0.5000  plane waves:   11840
 k-point 46 :  -0.1538 0.2500 0.5000  plane waves:   11804
 k-point 47 :  -0.0769 0.2500 0.5000  plane waves:   11748
 k-point 48 :   0.0000 0.5000 0.5000  plane waves:   11724
 k-point 49 :   0.0769 0.5000 0.5000  plane waves:   11748
 k-point 50 :   0.1538 0.5000 0.5000  plane waves:   11814
 k-point 51 :   0.2308 0.5000 0.5000  plane waves:   11832
 k-point 52 :   0.3077 0.5000 0.5000  plane waves:   11868
 k-point 53 :   0.3846 0.5000 0.5000  plane waves:   11892
 k-point 54 :   0.4615 0.5000 0.5000  plane waves:   11878

 maximum and minimum number of plane-waves per node :      5964     5832

 maximum number of plane-waves:     11896
 maximum index in each direction: 
   IXMAX=    5   IYMAX=   14   IZMAX=   38
   IXMIN=   -5   IYMIN=  -15   IZMIN=  -39

 WARNING: aliasing errors must be expected set NGX to  22 to avoid them
 NGY is ok and might be reduce to  60
 NGZ is ok and might be reduce to 156
 aliasing errors are usually negligible using standard VASP settings
 and one can safely disregard these warnings

 real space projection operators:
  total allocation   :       3793.25 KBytes
  max/ min on nodes  :       1899.38       1893.88


 parallel 3D FFT for wavefunctions:
    minimum data exchange during FFTs selected (reduces bandwidth)
 parallel 3D FFT for charge:
    minimum data exchange during FFTs selected (reduces bandwidth)


 total amount of memory used by VASP on root node   146493. kBytes
========================================================================

   base      :      30000. kBytes
   nonlr-proj:       3452. kBytes
   fftplans  :       9347. kBytes
   grid      :      14649. kBytes
   one-center:         36. kBytes
   wavefun   :      89009. kBytes
 
     INWAV:  cpu time    0.00: real time    0.00
 Broyden mixing: mesh for mixing (old mesh)
   NGX =  9   NGY = 29   NGZ = 77
  (NGX  = 40   NGY  =120   NGZ  =320)
  gives a total of  20097 points

 initial charge density was supplied:
 charge density of overlapping atoms calculated
 number of electron     108.0000000 magnetization 
 keeping initial charge density in first step


--------------------------------------------------------------------------------------------------------


 Maximum index for non-local projection operator         1333
 Maximum index for augmentation-charges          822 (set IRDMAX)


--------------------------------------------------------------------------------------------------------


 First call to EWALD:  gamma=   0.177
 Maximum number of real-space cells 7x 3x 1
 Maximum number of reciprocal cells 1x 3x 7

 FEWALD executed in parallel
    FEWALD:  cpu time    0.00: real time    0.00


----------------------------------------- Iteration    1(   1)  ---------------------------------------


vdW kernel read from vdw_kernel.bindat
  0.0000  0.2424  0.5071  0.7962  1.1119  1.4567  1.8333  2.2446  2.6937  3.1842
  3.7199  4.3049  4.9438  5.6415  6.4036  7.2358  8.1446  9.1372 10.2212 11.4050
 12.6979 14.1099 15.6519 17.3360 19.1751 21.1837 23.3773 25.7729 28.3892 31.2465
 34.3669 37.7748 41.4965 45.5611 50.0000
 
    POTLOK:  cpu time   16.44: real time   16.45
    SETDIJ:  cpu time    0.01: real time    0.01
     EDDAV:  cpu time   63.29: real time   63.36
       DOS:  cpu time    0.01: real time    0.01
    --------------------------------------------
      LOOP:  cpu time   79.75: real time   79.84

 eigenvalue-minimisations  :  7360
 total energy-change (2. order) : 0.5039050E+03  (-0.2872841E+04)
 number of electron     108.0000000 magnetization 
 augmentation part      108.0000000 magnetization 

 Free energy of the ion-electron system (eV)
  ---------------------------------------------------
  alpha Z        PSCENC =        36.80884744
  Ewald energy   TEWEN  =     12028.46985782
  -Hartree energ DENC   =    -15058.53679561
  -exchange      EXHF   =         0.00000000
  -V(xc)+E(xc)   XCENC  =       -87.01136608
  PAW double counting   =      1056.43050070     -732.41190547
  entropy T*S    EENTRO =        -0.04234563
  eigenvalues    EBANDS =       -93.84302247
  atomic energy  EATOM  =      3354.04126044
  ---------------------------------------------------
  free energy    TOTEN  =       503.90503115 eV

  energy without entropy =      503.94737677  energy(sigma->0) =      503.92620396


--------------------------------------------------------------------------------------------------------




----------------------------------------- Iteration    1(   2)  ---------------------------------------


     EDDAV:  cpu time   78.74: real time   78.81
       DOS:  cpu time    0.01: real time    0.01
    --------------------------------------------
      LOOP:  cpu time   78.76: real time   78.83

 eigenvalue-minimisations  :  9748
 total energy-change (2. order) :-0.5645358E+03  (-0.5495070E+03)
 number of electron     108.0000000 magnetization 
 augmentation part      108.0000000 magnetization 

 Free energy of the ion-electron system (eV)
  ---------------------------------------------------
  alpha Z        PSCENC =        36.80884744
  Ewald energy   TEWEN  =     12028.46985782
  -Hartree energ DENC   =    -15058.53679561
  -exchange      EXHF   =         0.00000000
  -V(xc)+E(xc)   XCENC  =       -87.01136608
  PAW double counting   =      1056.43050070     -732.41190547
  entropy T*S    EENTRO =        -0.02126266
  eigenvalues    EBANDS =      -658.39994256
  atomic energy  EATOM  =      3354.04126044
  ---------------------------------------------------
  free energy    TOTEN  =       -60.63080599 eV

  energy without entropy =      -60.60954332  energy(sigma->0) =      -60.62017465


--------------------------------------------------------------------------------------------------------




----------------------------------------- Iteration    1(   3)  ---------------------------------------


     EDDAV:  cpu time   72.27: real time   72.30
       DOS:  cpu time    0.01: real time    0.01
    --------------------------------------------
      LOOP:  cpu time   72.29: real time   72.31

 eigenvalue-minimisations  :  8756
 total energy-change (2. order) :-0.5722632E+02  (-0.5638889E+02)
 number of electron     108.0000000 magnetization 
 augmentation part      108.0000000 magnetization 

 Free energy of the ion-electron system (eV)
  ---------------------------------------------------
  alpha Z        PSCENC =        36.80884744
  Ewald energy   TEWEN  =     12028.46985782
  -Hartree energ DENC   =    -15058.53679561
  -exchange      EXHF   =         0.00000000
  -V(xc)+E(xc)   XCENC  =       -87.01136608
  PAW double counting   =      1056.43050070     -732.41190547
  entropy T*S    EENTRO =        -0.03028899
  eigenvalues    EBANDS =      -715.61724006
  atomic energy  EATOM  =      3354.04126044
  ---------------------------------------------------
  free energy    TOTEN  =      -117.85712981 eV

  energy without entropy =     -117.82684082  energy(sigma->0) =     -117.84198532


--------------------------------------------------------------------------------------------------------




----------------------------------------- Iteration    1(   4)  ---------------------------------------


     EDDAV:  cpu time   89.23: real time   89.40
       DOS:  cpu time    0.01: real time    0.01
    --------------------------------------------
      LOOP:  cpu time   89.25: real time   89.42

 eigenvalue-minimisations  : 11128
 total energy-change (2. order) :-0.2663840E+01  (-0.2643894E+01)
 number of electron     108.0000000 magnetization 
 augmentation part      108.0000000 magnetization 

 Free energy of the ion-electron system (eV)
  ---------------------------------------------------
  alpha Z        PSCENC =        36.80884744
  Ewald energy   TEWEN  =     12028.46985782
  -Hartree energ DENC   =    -15058.53679561
  -exchange      EXHF   =         0.00000000
  -V(xc)+E(xc)   XCENC  =       -87.01136608
  PAW double counting   =      1056.43050070     -732.41190547
  entropy T*S    EENTRO =        -0.03150537
  eigenvalues    EBANDS =      -718.27986397
  atomic energy  EATOM  =      3354.04126044
  ---------------------------------------------------
  free energy    TOTEN  =      -120.52097011 eV

  energy without entropy =     -120.48946473  energy(sigma->0) =     -120.50521742


--------------------------------------------------------------------------------------------------------




----------------------------------------- Iteration    1(   5)  ---------------------------------------


     EDDAV:  cpu time   81.38: real time   81.60
       DOS:  cpu time    0.01: real time    0.01
    CHARGE:  cpu time    4.18: real time    4.18
    MIXING:  cpu time    0.01: real time    0.01
    --------------------------------------------
      LOOP:  cpu time   85.58: real time   85.80

 eigenvalue-minimisations  : 10056
 total energy-change (2. order) :-0.5995727E-01  (-0.5986823E-01)
 number of electron     107.9999995 magnetization 
 augmentation part       -9.6274000 magnetization 

 Broyden mixing:
  rms(total) = 0.11608E+01    rms(broyden)= 0.11606E+01
  rms(prec ) = 0.12741E+01
  weight for this iteration     100.00

 Free energy of the ion-electron system (eV)
  ---------------------------------------------------
  alpha Z        PSCENC =        36.80884744
  Ewald energy   TEWEN  =     12028.46985782
  -Hartree energ DENC   =    -15058.53679561
  -exchange      EXHF   =         0.00000000
  -V(xc)+E(xc)   XCENC  =       -87.01136608
  PAW double counting   =      1056.43050070     -732.41190547
  entropy T*S    EENTRO =        -0.03136105
  eigenvalues    EBANDS =      -718.33996557
  atomic energy  EATOM  =      3354.04126044
  ---------------------------------------------------
  free energy    TOTEN  =      -120.58092738 eV

  energy without entropy =     -120.54956633  energy(sigma->0) =     -120.56524685


--------------------------------------------------------------------------------------------------------




----------------------------------------- Iteration    1(   6)  ---------------------------------------


    POTLOK:  cpu time   14.75: real time   14.78
    SETDIJ:  cpu time    0.01: real time    0.01
     EDDAV:  cpu time   74.26: real time   74.39
       DOS:  cpu time    0.01: real time    0.01
    CHARGE:  cpu time    4.18: real time    4.18
    MIXING:  cpu time    0.01: real time    0.01
    --------------------------------------------
      LOOP:  cpu time   93.22: real time   93.39

 eigenvalue-minimisations  :  8864
 total energy-change (2. order) : 0.3973623E+01  (-0.1603526E+01)
 number of electron     107.9999994 magnetization 
 augmentation part       -9.4769193 magnetization 

 Broyden mixing:
  rms(total) = 0.58911E+00    rms(broyden)= 0.58908E+00
  rms(prec ) = 0.63863E+00
  weight for this iteration     100.00

 eigenvalues of (default mixing * dielectric matrix)
  average eigenvalue GAMMA=   1.4272
  1.4272

 Free energy of the ion-electron system (eV)
  ---------------------------------------------------
  alpha Z        PSCENC =        36.80884744
  Ewald energy   TEWEN  =     12028.46985782
  -Hartree energ DENC   =    -15109.58752113
  -exchange      EXHF   =         0.00000000
  -V(xc)+E(xc)   XCENC  =       -83.93656570
  PAW double counting   =      1119.47734784     -797.32075964
  entropy T*S    EENTRO =        -0.03852187
  eigenvalues    EBANDS =      -664.52124995
  atomic energy  EATOM  =      3354.04126044
  ---------------------------------------------------
  free energy    TOTEN  =      -116.60730475 eV

  energy without entropy =     -116.56878288  energy(sigma->0) =     -116.58804382


--------------------------------------------------------------------------------------------------------




----------------------------------------- Iteration    1(   7)  ---------------------------------------


    POTLOK:  cpu time   15.15: real time   15.18
    SETDIJ:  cpu time    0.01: real time    0.01
     EDDAV:  cpu time   79.49: real time   79.65
       DOS:  cpu time    0.01: real time    0.01
    CHARGE:  cpu time    4.58: real time    4.58
    MIXING:  cpu time    0.02: real time    0.02
    --------------------------------------------
      LOOP:  cpu time   99.25: real time   99.46

 eigenvalue-minimisations  :  8796
 total energy-change (2. order) : 0.1043904E+00  (-0.8233589E+00)
 number of electron     107.9999995 magnetization 
 augmentation part       -9.4161203 magnetization 

 Broyden mixing:
  rms(total) = 0.31451E+00    rms(broyden)= 0.31449E+00
  rms(prec ) = 0.33838E+00
  weight for this iteration     100.00

 eigenvalues of (default mixing * dielectric matrix)
  average eigenvalue GAMMA=   1.3352
  0.7570  1.9134

 Free energy of the ion-electron system (eV)
  ---------------------------------------------------
  alpha Z        PSCENC =        36.80884744
  Ewald energy   TEWEN  =     12028.46985782
  -Hartree energ DENC   =    -15125.04197343
  -exchange      EXHF   =         0.00000000
  -V(xc)+E(xc)   XCENC  =       -81.83688909
  PAW double counting   =      1153.76793572     -832.60392027
  entropy T*S    EENTRO =        -0.01784963
  eigenvalues    EBANDS =      -650.09018340
  atomic energy  EATOM  =      3354.04126044
  ---------------------------------------------------
  free energy    TOTEN  =      -116.50291439 eV

  energy without entropy =     -116.48506476  energy(sigma->0) =     -116.49398958


--------------------------------------------------------------------------------------------------------




----------------------------------------- Iteration    1(   8)  ---------------------------------------


    POTLOK:  cpu time   16.06: real time   16.08
    SETDIJ:  cpu time    0.02: real time    0.02
     EDDAV:  cpu time   80.73: real time   80.77
       DOS:  cpu time    0.01: real time    0.01
    CHARGE:  cpu time    4.33: real time    4.33
    MIXING:  cpu time    0.02: real time    0.02
    --------------------------------------------
      LOOP:  cpu time  101.16: real time  101.23

 eigenvalue-minimisations  :  8704
 total energy-change (2. order) : 0.8581179E-02  (-0.1189088E+00)
 number of electron     107.9999995 magnetization 
 augmentation part       -9.3721912 magnetization 

 Broyden mixing:
  rms(total) = 0.12714E+00    rms(broyden)= 0.12714E+00
  rms(prec ) = 0.13764E+00
  weight for this iteration     100.00

 eigenvalues of (default mixing * dielectric matrix)
  average eigenvalue GAMMA=   1.4203
  2.2477  1.2651  0.7482

 Free energy of the ion-electron system (eV)
  ---------------------------------------------------
  alpha Z        PSCENC =        36.80884744
  Ewald energy   TEWEN  =     12028.46985782
  -Hartree energ DENC   =    -15141.20894362
  -exchange      EXHF   =         0.00000000
  -V(xc)+E(xc)   XCENC  =       -80.22411765
  PAW double counting   =      1175.23830647     -854.70440572
  entropy T*S    EENTRO =        -0.02064902
  eigenvalues    EBANDS =      -634.89448939
  atomic energy  EATOM  =      3354.04126044
  ---------------------------------------------------
  free energy    TOTEN  =      -116.49433321 eV

  energy without entropy =     -116.47368419  energy(sigma->0) =     -116.48400870


--------------------------------------------------------------------------------------------------------




----------------------------------------- Iteration    1(   9)  ---------------------------------------


    POTLOK:  cpu time   15.48: real time   15.50
    SETDIJ:  cpu time    0.01: real time    0.01
     EDDAV:  cpu time   88.88: real time   88.92
       DOS:  cpu time    0.01: real time    0.01
    CHARGE:  cpu time    4.38: real time    4.38
    MIXING:  cpu time    0.02: real time    0.02
    --------------------------------------------
      LOOP:  cpu time  108.79: real time  108.85

 eigenvalue-minimisations  :  9344
 total energy-change (2. order) : 0.8515554E-02  (-0.2557979E-01)
 number of electron     107.9999995 magnetization 
 augmentation part       -9.3745722 magnetization 

 Broyden mixing:
  rms(total) = 0.59744E-01    rms(broyden)= 0.59739E-01
  rms(prec ) = 0.70517E-01
  weight for this iteration     100.00

 eigenvalues of (default mixing * dielectric matrix)
  average eigenvalue GAMMA=   1.3601
  2.4155  1.5275  0.7488  0.7488

 Free energy of the ion-electron system (eV)
  ---------------------------------------------------
  alpha Z        PSCENC =        36.80884744
  Ewald energy   TEWEN  =     12028.46985782
  -Hartree energ DENC   =    -15150.49241747
  -exchange      EXHF   =         0.00000000
  -V(xc)+E(xc)   XCENC  =       -79.67986832
  PAW double counting   =      1176.59107715     -856.11386270
  entropy T*S    EENTRO =        -0.02371070
  eigenvalues    EBANDS =      -626.08700132
  atomic energy  EATOM  =      3354.04126044
  ---------------------------------------------------
  free energy    TOTEN  =      -116.48581766 eV

  energy without entropy =     -116.46210696  energy(sigma->0) =     -116.47396231


--------------------------------------------------------------------------------------------------------




----------------------------------------- Iteration    1(  10)  ---------------------------------------


    POTLOK:  cpu time   15.62: real time   15.62
    SETDIJ:  cpu time    0.01: real time    0.01
     EDDAV:  cpu time   81.79: real time   81.81
       DOS:  cpu time    0.01: real time    0.01
    CHARGE:  cpu time    4.35: real time    4.36
    MIXING:  cpu time    0.02: real time    0.02
    --------------------------------------------
      LOOP:  cpu time  101.80: real time  101.83

 eigenvalue-minimisations  :  9064
 total energy-change (2. order) : 0.1100621E-01  (-0.1078786E-01)
 number of electron     107.9999995 magnetization 
 augmentation part       -9.3767228 magnetization 

 Broyden mixing:
  rms(total) = 0.26561E-01    rms(broyden)= 0.26557E-01
  rms(prec ) = 0.29740E-01
  weight for this iteration     100.00

 eigenvalues of (default mixing * dielectric matrix)
  average eigenvalue GAMMA=   1.2949
  2.5532  1.5629  0.8660  0.8660  0.6266

 Free energy of the ion-electron system (eV)
  ---------------------------------------------------
  alpha Z        PSCENC =        36.80884744
  Ewald energy   TEWEN  =     12028.46985782
  -Hartree energ DENC   =    -15150.36106125
  -exchange      EXHF   =         0.00000000
  -V(xc)+E(xc)   XCENC  =       -79.52805363
  PAW double counting   =      1175.18824462     -854.68176436
  entropy T*S    EENTRO =        -0.02235091
  eigenvalues    EBANDS =      -626.38979164
  atomic energy  EATOM  =      3354.04126044
  ---------------------------------------------------
  free energy    TOTEN  =      -116.47481145 eV

  energy without entropy =     -116.45246055  energy(sigma->0) =     -116.46363600


--------------------------------------------------------------------------------------------------------




----------------------------------------- Iteration    1(  11)  ---------------------------------------


    POTLOK:  cpu time   15.94: real time   15.94
    SETDIJ:  cpu time    0.02: real time    0.02
     EDDAV:  cpu time   80.46: real time   80.48
       DOS:  cpu time    0.01: real time    0.01
    CHARGE:  cpu time    4.32: real time    4.32
    MIXING:  cpu time    0.01: real time    0.01
    --------------------------------------------
      LOOP:  cpu time  100.77: real time  100.79

 eigenvalue-minimisations  :  8928
 total energy-change (2. order) : 0.7270138E-02  (-0.1900447E-02)
 number of electron     107.9999995 magnetization 
 augmentation part       -9.3786327 magnetization 

 Broyden mixing:
  rms(total) = 0.12351E-01    rms(broyden)= 0.12350E-01
  rms(prec ) = 0.14061E-01
  weight for this iteration     100.00

 eigenvalues of (default mixing * dielectric matrix)
  average eigenvalue GAMMA=   1.3163
  2.6302  1.4790  1.4790  0.8536  0.8536  0.6022

 Free energy of the ion-electron system (eV)
  ---------------------------------------------------
  alpha Z        PSCENC =        36.80884744
  Ewald energy   TEWEN  =     12028.46985782
  -Hartree energ DENC   =    -15151.90427280
  -exchange      EXHF   =         0.00000000
  -V(xc)+E(xc)   XCENC  =       -79.45090382
  PAW double counting   =      1174.26191528     -853.73176750
  entropy T*S    EENTRO =        -0.02122270
  eigenvalues    EBANDS =      -624.94125548
  atomic energy  EATOM  =      3354.04126044
  ---------------------------------------------------
  free energy    TOTEN  =      -116.46754132 eV

  energy without entropy =     -116.44631861  energy(sigma->0) =     -116.45692996


--------------------------------------------------------------------------------------------------------




----------------------------------------- Iteration    1(  12)  ---------------------------------------


    POTLOK:  cpu time   15.60: real time   15.60
    SETDIJ:  cpu time    0.02: real time    0.02
     EDDAV:  cpu time   83.07: real time   83.27
       DOS:  cpu time    0.01: real time    0.01
    CHARGE:  cpu time    4.33: real time    4.33
    MIXING:  cpu time    0.02: real time    0.02
    --------------------------------------------
      LOOP:  cpu time  103.05: real time  103.25

 eigenvalue-minimisations  :  9056
 total energy-change (2. order) : 0.5080737E-02  (-0.3851721E-03)
 number of electron     107.9999995 magnetization 
 augmentation part       -9.3777204 magnetization 

 Broyden mixing:
  rms(total) = 0.56801E-02    rms(broyden)= 0.56795E-02
  rms(prec ) = 0.69474E-02
  weight for this iteration     100.00

 eigenvalues of (default mixing * dielectric matrix)
  average eigenvalue GAMMA=   1.3617
  2.6650  2.0292  1.2744  1.2744  0.8380  0.8380  0.6132

 Free energy of the ion-electron system (eV)
  ---------------------------------------------------
  alpha Z        PSCENC =        36.80884744
  Ewald energy   TEWEN  =     12028.46985782
  -Hartree energ DENC   =    -15153.29623808
  -exchange      EXHF   =         0.00000000
  -V(xc)+E(xc)   XCENC  =       -79.42205172
  PAW double counting   =      1173.63460131     -853.08849714
  entropy T*S    EENTRO =        -0.02155575
  eigenvalues    EBANDS =      -623.58868491
  atomic energy  EATOM  =      3354.04126044
  ---------------------------------------------------
  free energy    TOTEN  =      -116.46246058 eV

  energy without entropy =     -116.44090483  energy(sigma->0) =     -116.45168271


--------------------------------------------------------------------------------------------------------




----------------------------------------- Iteration    1(  13)  ---------------------------------------


    POTLOK:  cpu time   15.62: real time   15.62
    SETDIJ:  cpu time    0.01: real time    0.01
     EDDAV:  cpu time   82.22: real time   82.31
       DOS:  cpu time    0.01: real time    0.01
    CHARGE:  cpu time    4.27: real time    4.27
    MIXING:  cpu time    0.02: real time    0.02
    --------------------------------------------
      LOOP:  cpu time  102.15: real time  102.25

 eigenvalue-minimisations  :  8952
 total energy-change (2. order) : 0.5579913E-02  (-0.7580199E-04)
 number of electron     107.9999995 magnetization 
 augmentation part       -9.3783473 magnetization 

 Broyden mixing:
  rms(total) = 0.23948E-02    rms(broyden)= 0.23944E-02
  rms(prec ) = 0.36268E-02
  weight for this iteration     100.00

 eigenvalues of (default mixing * dielectric matrix)
  average eigenvalue GAMMA=   1.3620
  2.7376  2.2053  1.3373  1.3373  0.9848  0.8397  0.8397  0.6145

 Free energy of the ion-electron system (eV)
  ---------------------------------------------------
  alpha Z        PSCENC =        36.80884744
  Ewald energy   TEWEN  =     12028.46985782
  -Hartree energ DENC   =    -15154.23955124
  -exchange      EXHF   =         0.00000000
  -V(xc)+E(xc)   XCENC  =       -79.41980210
  PAW double counting   =      1172.72018131     -852.15006219
  entropy T*S    EENTRO =        -0.02145063
  eigenvalues    EBANDS =      -622.66616152
  atomic energy  EATOM  =      3354.04126044
  ---------------------------------------------------
  free energy    TOTEN  =      -116.45688066 eV

  energy without entropy =     -116.43543003  energy(sigma->0) =     -116.44615535


--------------------------------------------------------------------------------------------------------




----------------------------------------- Iteration    1(  14)  ---------------------------------------


    POTLOK:  cpu time   15.50: real time   15.52
    SETDIJ:  cpu time    0.01: real time    0.01
     EDDAV:  cpu time   86.73: real time   86.84
       DOS:  cpu time    0.01: real time    0.01
    CHARGE:  cpu time    4.09: real time    4.13
    MIXING:  cpu time    0.01: real time    0.02
    --------------------------------------------
      LOOP:  cpu time  106.36: real time  106.54

 eigenvalue-minimisations  :  9632
 total energy-change (2. order) : 0.1898599E-02  (-0.1526750E-04)
 number of electron     107.9999995 magnetization 
 augmentation part       -9.3781651 magnetization 

 Broyden mixing:
  rms(total) = 0.14524E-02    rms(broyden)= 0.14523E-02
  rms(prec ) = 0.24676E-02
  weight for this iteration     100.00

 eigenvalues of (default mixing * dielectric matrix)
  average eigenvalue GAMMA=   1.3937
  2.8134  2.3870  1.6242  1.2656  1.2656  0.6139  0.8238  0.8238  0.9262

 Free energy of the ion-electron system (eV)
  ---------------------------------------------------
  alpha Z        PSCENC =        36.80884744
  Ewald energy   TEWEN  =     12028.46985782
  -Hartree energ DENC   =    -15155.00873097
  -exchange      EXHF   =         0.00000000
  -V(xc)+E(xc)   XCENC  =       -79.41375968
  PAW double counting   =      1172.48247915     -851.90632455
  entropy T*S    EENTRO =        -0.02153478
  eigenvalues    EBANDS =      -621.90707694
  atomic energy  EATOM  =      3354.04126044
  ---------------------------------------------------
  free energy    TOTEN  =      -116.45498207 eV

  energy without entropy =     -116.43344728  energy(sigma->0) =     -116.44421468


--------------------------------------------------------------------------------------------------------




----------------------------------------- Iteration    1(  15)  ---------------------------------------


    POTLOK:  cpu time   15.42: real time   15.44
    SETDIJ:  cpu time    0.01: real time    0.02
     EDDAV:  cpu time   78.71: real time   78.88
       DOS:  cpu time    0.01: real time    0.01
    CHARGE:  cpu time    4.30: real time    4.30
    MIXING:  cpu time    0.02: real time    0.02
    --------------------------------------------
      LOOP:  cpu time   98.48: real time   98.68

 eigenvalue-minimisations  :  8808
 total energy-change (2. order) : 0.9311065E-03  (-0.6675137E-05)
 number of electron     107.9999995 magnetization 
 augmentation part       -9.3778846 magnetization 

 Broyden mixing:
  rms(total) = 0.88363E-03    rms(broyden)= 0.88359E-03
  rms(prec ) = 0.16132E-02
  weight for this iteration     100.00

 eigenvalues of (default mixing * dielectric matrix)
  average eigenvalue GAMMA=   1.4494
  3.1119  2.5994  1.7838  1.2600  1.2600  1.2273  0.6132  0.9820  0.8285  0.8285

 Free energy of the ion-electron system (eV)
  ---------------------------------------------------
  alpha Z        PSCENC =        36.80884744
  Ewald energy   TEWEN  =     12028.46985782
  -Hartree energ DENC   =    -15155.82465778
  -exchange      EXHF   =         0.00000000
  -V(xc)+E(xc)   XCENC  =       -79.40838987
  PAW double counting   =      1172.36422817     -851.78528869
  entropy T*S    EENTRO =        -0.02150479
  eigenvalues    EBANDS =      -621.09840371
  atomic energy  EATOM  =      3354.04126044
  ---------------------------------------------------
  free energy    TOTEN  =      -116.45405096 eV

  energy without entropy =     -116.43254617  energy(sigma->0) =     -116.44329857


--------------------------------------------------------------------------------------------------------




----------------------------------------- Iteration    1(  16)  ---------------------------------------


    POTLOK:  cpu time   16.12: real time   16.13
    SETDIJ:  cpu time    0.01: real time    0.01
     EDDAV:  cpu time   75.78: real time   75.93
       DOS:  cpu time    0.01: real time    0.01
    CHARGE:  cpu time    4.15: real time    4.16
    MIXING:  cpu time    0.02: real time    0.02
    --------------------------------------------
      LOOP:  cpu time   96.10: real time   96.27

 eigenvalue-minimisations  :  8184
 total energy-change (2. order) : 0.1186892E-03  (-0.5662458E-05)
 number of electron     107.9999995 magnetization 
 augmentation part       -9.3777695 magnetization 

 Broyden mixing:
  rms(total) = 0.54350E-03    rms(broyden)= 0.54348E-03
  rms(prec ) = 0.95297E-03
  weight for this iteration     100.00

 eigenvalues of (default mixing * dielectric matrix)
  average eigenvalue GAMMA=   1.5703
  3.9626  2.7235  2.1928  1.5727  1.2178  1.2178  1.1325  0.6132  0.9852  0.8277
  0.8277

 Free energy of the ion-electron system (eV)
  ---------------------------------------------------
  alpha Z        PSCENC =        36.80884744
  Ewald energy   TEWEN  =     12028.46985782
  -Hartree energ DENC   =    -15156.61393766
  -exchange      EXHF   =         0.00000000
  -V(xc)+E(xc)   XCENC  =       -79.40430307
  PAW double counting   =      1172.30887607     -851.72866431
  entropy T*S    EENTRO =        -0.02149994
  eigenvalues    EBANDS =      -620.31436908
  atomic energy  EATOM  =      3354.04126044
  ---------------------------------------------------
  free energy    TOTEN  =      -116.45393227 eV

  energy without entropy =     -116.43243233  energy(sigma->0) =     -116.44318230


--------------------------------------------------------------------------------------------------------




----------------------------------------- Iteration    1(  17)  ---------------------------------------


    POTLOK:  cpu time   15.37: real time   15.38
    SETDIJ:  cpu time    0.01: real time    0.02
     EDDAV:  cpu time   72.63: real time   72.65
       DOS:  cpu time    0.01: real time    0.01
    CHARGE:  cpu time    4.12: real time    4.12
    MIXING:  cpu time    0.02: real time    0.02
    --------------------------------------------
      LOOP:  cpu time   92.17: real time   92.19

 eigenvalue-minimisations  :  8376
 total energy-change (2. order) :-0.5136064E-03  (-0.1614215E-04)
 number of electron     107.9999995 magnetization 
 augmentation part       -9.3776993 magnetization 

 Broyden mixing:
  rms(total) = 0.30103E-03    rms(broyden)= 0.30101E-03
  rms(prec ) = 0.50244E-03
  weight for this iteration     100.00

 eigenvalues of (default mixing * dielectric matrix)
  average eigenvalue GAMMA=   1.6948
  5.2657  2.7839  2.3890  1.6733  1.4957  1.2286  1.2286  0.6131  0.8268  0.8268
  1.0031  1.0031

 Free energy of the ion-electron system (eV)
  ---------------------------------------------------
  alpha Z        PSCENC =        36.80884744
  Ewald energy   TEWEN  =     12028.46985782
  -Hartree energ DENC   =    -15157.23672251
  -exchange      EXHF   =         0.00000000
  -V(xc)+E(xc)   XCENC  =       -79.40097007
  PAW double counting   =      1172.33252465     -851.75291199
  entropy T*S    EENTRO =        -0.02150128
  eigenvalues    EBANDS =      -619.69483038
  atomic energy  EATOM  =      3354.04126044
  ---------------------------------------------------
  free energy    TOTEN  =      -116.45444588 eV

  energy without entropy =     -116.43294460  energy(sigma->0) =     -116.44369524


--------------------------------------------------------------------------------------------------------




----------------------------------------- Iteration    1(  18)  ---------------------------------------


    POTLOK:  cpu time   14.71: real time   14.71
    SETDIJ:  cpu time    0.01: real time    0.02
     EDDAV:  cpu time   66.88: real time   66.93
       DOS:  cpu time    0.01: real time    0.01
    CHARGE:  cpu time    4.08: real time    4.09
    MIXING:  cpu time    0.02: real time    0.02
    --------------------------------------------
      LOOP:  cpu time   85.71: real time   85.77

 eigenvalue-minimisations  :  7656
 total energy-change (2. order) :-0.2435719E-03  (-0.9214324E-05)
 number of electron     107.9999995 magnetization 
 augmentation part       -9.3776773 magnetization 

 Broyden mixing:
  rms(total) = 0.17106E-03    rms(broyden)= 0.17104E-03
  rms(prec ) = 0.30607E-03
  weight for this iteration     100.00

 eigenvalues of (default mixing * dielectric matrix)
  average eigenvalue GAMMA=   1.7585
  6.0061  2.8616  2.5415  2.0830  1.2343  1.2343  1.3494  1.3494  0.6131  0.8285
  0.8285  0.9655  0.9655

 Free energy of the ion-electron system (eV)
  ---------------------------------------------------
  alpha Z        PSCENC =        36.80884744
  Ewald energy   TEWEN  =     12028.46985782
  -Hartree energ DENC   =    -15157.51308033
  -exchange      EXHF   =         0.00000000
  -V(xc)+E(xc)   XCENC  =       -79.39982141
  PAW double counting   =      1172.34862374     -851.76932244
  entropy T*S    EENTRO =        -0.02151394
  eigenvalues    EBANDS =      -619.41954078
  atomic energy  EATOM  =      3354.04126044
  ---------------------------------------------------
  free energy    TOTEN  =      -116.45468945 eV

  energy without entropy =     -116.43317551  energy(sigma->0) =     -116.44393248


--------------------------------------------------------------------------------------------------------




----------------------------------------- Iteration    1(  19)  ---------------------------------------


    POTLOK:  cpu time   14.75: real time   14.77
    SETDIJ:  cpu time    0.01: real time    0.01
     EDDAV:  cpu time   62.56: real time   62.76
       DOS:  cpu time    0.01: real time    0.01
    CHARGE:  cpu time    4.09: real time    4.10
    MIXING:  cpu time    0.02: real time    0.02
    --------------------------------------------
      LOOP:  cpu time   81.45: real time   81.67

 eigenvalue-minimisations  :  7216
 total energy-change (2. order) :-0.6500109E-04  (-0.1679307E-05)
 number of electron     107.9999995 magnetization 
 augmentation part       -9.3776873 magnetization 

 Broyden mixing:
  rms(total) = 0.11016E-03    rms(broyden)= 0.11016E-03
  rms(prec ) = 0.19825E-03
  weight for this iteration     100.00

 eigenvalues of (default mixing * dielectric matrix)
  average eigenvalue GAMMA=   1.7854
  6.4294  3.0210  2.6071  1.9906  1.6702  1.4777  1.2481  1.2481  0.6131  0.8272
  0.8272  1.0500  1.0500  0.9358

 Free energy of the ion-electron system (eV)
  ---------------------------------------------------
  alpha Z        PSCENC =        36.80884744
  Ewald energy   TEWEN  =     12028.46985782
  -Hartree energ DENC   =    -15157.65706583
  -exchange      EXHF   =         0.00000000
  -V(xc)+E(xc)   XCENC  =       -79.39938561
  PAW double counting   =      1172.35162259     -851.77231902
  entropy T*S    EENTRO =        -0.02150563
  eigenvalues    EBANDS =      -619.27606666
  atomic energy  EATOM  =      3354.04126044
  ---------------------------------------------------
  free energy    TOTEN  =      -116.45475445 eV

  energy without entropy =     -116.43324882  energy(sigma->0) =     -116.44400164


--------------------------------------------------------------------------------------------------------




----------------------------------------- Iteration    1(  20)  ---------------------------------------


    POTLOK:  cpu time   14.93: real time   15.02
    SETDIJ:  cpu time    0.01: real time    0.01
     EDDAV:  cpu time   60.87: real time   61.13
       DOS:  cpu time    0.01: real time    0.01
    CHARGE:  cpu time    4.04: real time    4.08
    MIXING:  cpu time    0.02: real time    0.02
    --------------------------------------------
      LOOP:  cpu time   79.88: real time   80.27

 eigenvalue-minimisations  :  6936
 total energy-change (2. order) :-0.5361053E-04  (-0.1372345E-05)
 number of electron     107.9999995 magnetization 
 augmentation part       -9.3776813 magnetization 

 Broyden mixing:
  rms(total) = 0.73732E-04    rms(broyden)= 0.73728E-04
  rms(prec ) = 0.12958E-03
  weight for this iteration     100.00

 eigenvalues of (default mixing * dielectric matrix)
  average eigenvalue GAMMA=   1.8277
  6.8028  3.2537  2.7140  2.3519  1.6839  1.6670  1.2502  1.2502  0.6131  0.8277
  0.8277  1.0752  1.0752  1.0828  0.9405

 Free energy of the ion-electron system (eV)
  ---------------------------------------------------
  alpha Z        PSCENC =        36.80884744
  Ewald energy   TEWEN  =     12028.46985782
  -Hartree energ DENC   =    -15157.71793241
  -exchange      EXHF   =         0.00000000
  -V(xc)+E(xc)   XCENC  =       -79.39930884
  PAW double counting   =      1172.35402254     -851.77477642
  entropy T*S    EENTRO =        -0.02150725
  eigenvalues    EBANDS =      -619.21527139
  atomic energy  EATOM  =      3354.04126044
  ---------------------------------------------------
  free energy    TOTEN  =      -116.45480806 eV

  energy without entropy =     -116.43330081  energy(sigma->0) =     -116.44405444


--------------------------------------------------------------------------------------------------------




----------------------------------------- Iteration    1(  21)  ---------------------------------------


    POTLOK:  cpu time   14.66: real time   14.69
    SETDIJ:  cpu time    0.01: real time    0.01
     EDDAV:  cpu time   63.35: real time   63.45
       DOS:  cpu time    0.01: real time    0.01
    CHARGE:  cpu time    4.03: real time    4.04
    MIXING:  cpu time    0.02: real time    0.03
    --------------------------------------------
      LOOP:  cpu time   82.08: real time   82.24

 eigenvalue-minimisations  :  7312
 total energy-change (2. order) : 0.9109588E-05  (-0.3132134E-05)
 number of electron     107.9999995 magnetization 
 augmentation part       -9.3776822 magnetization 

 Broyden mixing:
  rms(total) = 0.51280E-04    rms(broyden)= 0.51278E-04
  rms(prec ) = 0.76576E-04
  weight for this iteration     100.00

 eigenvalues of (default mixing * dielectric matrix)
  average eigenvalue GAMMA=   1.9338
  7.1406  4.4659  2.8265  2.5239  1.7862  1.7862  1.5411  1.2470  1.2470  0.6131
  1.1084  1.1084  0.8280  0.8280  0.9453  0.9453

 Free energy of the ion-electron system (eV)
  ---------------------------------------------------
  alpha Z        PSCENC =        36.80884744
  Ewald energy   TEWEN  =     12028.46985782
  -Hartree energ DENC   =    -15157.76022376
  -exchange      EXHF   =         0.00000000
  -V(xc)+E(xc)   XCENC  =       -79.39938138
  PAW double counting   =      1172.34915057     -851.76978883
  entropy T*S    EENTRO =        -0.02150747
  eigenvalues    EBANDS =      -619.17301378
  atomic energy  EATOM  =      3354.04126044
  ---------------------------------------------------
  free energy    TOTEN  =      -116.45479895 eV

  energy without entropy =     -116.43329148  energy(sigma->0) =     -116.44404521


--------------------------------------------------------------------------------------------------------




----------------------------------------- Iteration    1(  22)  ---------------------------------------


    POTLOK:  cpu time   14.70: real time   14.79
    SETDIJ:  cpu time    0.01: real time    0.01
     EDDAV:  cpu time   58.22: real time   58.50
       DOS:  cpu time    0.01: real time    0.01
    CHARGE:  cpu time    4.08: real time    4.09
    MIXING:  cpu time    0.02: real time    0.02
    --------------------------------------------
      LOOP:  cpu time   77.05: real time   77.42

 eigenvalue-minimisations  :  6592
 total energy-change (2. order) : 0.5187970E-04  (-0.1653600E-05)
 number of electron     107.9999995 magnetization 
 augmentation part       -9.3776817 magnetization 

 Broyden mixing:
  rms(total) = 0.28233E-04    rms(broyden)= 0.28231E-04
  rms(prec ) = 0.37764E-04
  weight for this iteration     100.00

 eigenvalues of (default mixing * dielectric matrix)
  average eigenvalue GAMMA=   2.0704
  8.0082  5.9281  2.9680  2.6454  2.1813  1.5394  1.5394  1.5419  1.2501  1.2501
  0.6131  0.8277  0.8277  1.0770  1.0770  0.9608  0.9608

 Free energy of the ion-electron system (eV)
  ---------------------------------------------------
  alpha Z        PSCENC =        36.80884744
  Ewald energy   TEWEN  =     12028.46985782
  -Hartree energ DENC   =    -15157.77091605
  -exchange      EXHF   =         0.00000000
  -V(xc)+E(xc)   XCENC  =       -79.39946978
  PAW double counting   =      1172.34817743     -851.76880731
  entropy T*S    EENTRO =        -0.02150731
  eigenvalues    EBANDS =      -619.16218975
  atomic energy  EATOM  =      3354.04126044
  ---------------------------------------------------
  free energy    TOTEN  =      -116.45474707 eV

  energy without entropy =     -116.43323976  energy(sigma->0) =     -116.44399342


--------------------------------------------------------------------------------------------------------




----------------------------------------- Iteration    1(  23)  ---------------------------------------


    POTLOK:  cpu time   15.28: real time   15.32
    SETDIJ:  cpu time    0.01: real time    0.01
     EDDAV:  cpu time   59.21: real time   59.36
       DOS:  cpu time    0.01: real time    0.01
    CHARGE:  cpu time    4.02: real time    4.02
    MIXING:  cpu time    0.02: real time    0.02
    --------------------------------------------
      LOOP:  cpu time   78.56: real time   78.75

 eigenvalue-minimisations  :  6600
 total energy-change (2. order) : 0.7219751E-04  (-0.7606322E-06)
 number of electron     107.9999995 magnetization 
 augmentation part       -9.3776804 magnetization 

 Broyden mixing:
  rms(total) = 0.12638E-04    rms(broyden)= 0.12635E-04
  rms(prec ) = 0.15741E-04
  weight for this iteration     100.00

 eigenvalues of (default mixing * dielectric matrix)
  average eigenvalue GAMMA=   2.0992
  8.0934  6.6954  2.9994  2.6996  2.1485  1.9323  1.6651  1.6651  1.2432  1.2432
  0.6131  1.1123  1.1123  0.8278  0.8278  0.9861  0.9861  0.9357

 Free energy of the ion-electron system (eV)
  ---------------------------------------------------
  alpha Z        PSCENC =        36.80884744
  Ewald energy   TEWEN  =     12028.46985782
  -Hartree energ DENC   =    -15157.78275856
  -exchange      EXHF   =         0.00000000
  -V(xc)+E(xc)   XCENC  =       -79.39945143
  PAW double counting   =      1172.34717902     -851.76779138
  entropy T*S    EENTRO =        -0.02150775
  eigenvalues    EBANDS =      -619.15031048
  atomic energy  EATOM  =      3354.04126044
  ---------------------------------------------------
  free energy    TOTEN  =      -116.45467487 eV

  energy without entropy =     -116.43316712  energy(sigma->0) =     -116.44392100


[...]
     31      -4.1381      2.00000
     32      -3.9448      2.00000
     33      -3.7040      2.00000
     34      -3.6071      2.00000
     35      -3.5215      2.00000
     36      -3.2358      2.00000
     37      -3.1787      2.00000
     38      -3.0077      2.00000
     39      -2.9172      2.00000
     40      -2.7266      2.00000
     41      -2.6040      2.00000
     42      -2.5127      2.00000
     43      -2.4770      2.00000
     44      -2.0428      2.00000
     45      -1.9279      2.00000
     46      -1.8564      2.00000
     47      -1.7438      2.00000
     48      -1.7033      2.00000
     49      -1.3477      2.00000
     50      -1.3027      2.00000
     51      -1.0728      2.00000
     52      -0.8358      2.00000
     53      -0.7917      2.00000
     54      -0.2808      1.99961
     55       0.2023      0.00102
     56       0.5661      0.00000
     57       1.2495      0.00000
     58       1.4561      0.00000
     59       1.5890      0.00000
     60       1.7317      0.00000
     61       2.1087      0.00000
     62       2.2686      0.00000
     63       2.4865      0.00000
     64       2.6427      0.00000
     65       2.7419      0.00000
     66       2.8438      0.00000
     67       3.0881      0.00000
     68       3.1441      0.00000

 k-point    52 :       0.3077    0.5000    0.5000
  band No.  band energies     occupation 
      1     -14.2341      2.00000
      2     -12.4507      2.00000
      3     -12.3886      2.00000
      4     -12.1095      2.00000
      5     -11.8016      2.00000
      6     -11.5778      2.00000
      7     -11.3466      2.00000
      8     -10.9613      2.00000
      9     -10.7529      2.00000
     10     -10.6475      2.00000
     11     -10.3379      2.00000
     12     -10.1807      2.00000
     13      -8.8659      2.00000
     14      -8.7835      2.00000
     15      -8.6487      2.00000
     16      -7.7159      2.00000
     17      -7.6199      2.00000
     18      -7.1963      2.00000
     19      -7.0074      2.00000
     20      -6.9064      2.00000
     21      -6.4599      2.00000
     22      -6.1334      2.00000
     23      -5.8666      2.00000
     24      -5.8434      2.00000
     25      -5.4672      2.00000
     26      -5.3027      2.00000
     27      -4.8861      2.00000
     28      -4.8431      2.00000
     29      -4.6698      2.00000
     30      -4.4169      2.00000
     31      -4.2611      2.00000
     32      -4.1789      2.00000
     33      -4.0284      2.00000
     34      -3.8911      2.00000
     35      -3.6768      2.00000
     36      -3.3223      2.00000
     37      -3.1932      2.00000
     38      -3.0288      2.00000
     39      -2.9619      2.00000
     40      -2.8422      2.00000
     41      -2.6752      2.00000
     42      -2.5803      2.00000
     43      -2.4663      2.00000
     44      -2.3187      2.00000
     45      -2.1916      2.00000
     46      -1.9769      2.00000
     47      -1.8903      2.00000
     48      -1.8223      2.00000
     49      -1.7021      2.00000
     50      -1.6324      2.00000
     51      -1.3185      2.00000
     52      -1.0907      2.00000
     53      -0.7450      2.00000
     54      -0.3143      1.99994
     55       0.0875      0.09679
     56       0.3682      0.00000
     57       0.8415      0.00000
     58       1.3022      0.00000
     59       1.3901      0.00000
     60       1.5174      0.00000
     61       2.0350      0.00000
     62       2.1410      0.00000
     63       2.2206      0.00000
     64       2.3710      0.00000
     65       2.5149      0.00000
     66       2.5845      0.00000
     67       2.7155      0.00000
     68       2.9700      0.00000

 k-point    53 :       0.3846    0.5000    0.5000
  band No.  band energies     occupation 
      1     -13.9198      2.00000
      2     -11.9746      2.00000
      3     -11.9119      2.00000
      4     -11.6125      2.00000
      5     -11.5155      2.00000
      6     -11.1845      2.00000
      7     -11.0756      2.00000
      8     -10.7161      2.00000
      9     -10.5624      2.00000
     10     -10.5121      2.00000
     11     -10.4040      2.00000
     12     -10.2202      2.00000
     13      -8.9596      2.00000
     14      -8.8501      2.00000
     15      -8.5969      2.00000
     16      -8.1929      2.00000
     17      -8.1245      2.00000
     18      -7.5702      2.00000
     19      -7.5577      2.00000
     20      -7.3231      2.00000
     21      -7.0502      2.00000
     22      -6.6650      2.00000
     23      -6.6016      2.00000
     24      -6.3249      2.00000
     25      -5.5807      2.00000
     26      -5.2439      2.00000
     27      -4.7512      2.00000
     28      -4.6283      2.00000
     29      -4.5865      2.00000
     30      -4.4295      2.00000
     31      -4.2047      2.00000
     32      -4.1154      2.00000
     33      -4.0669      2.00000
     34      -3.9810      2.00000
     35      -3.6788      2.00000
     36      -3.4790      2.00000
     37      -3.4311      2.00000
     38      -3.1400      2.00000
     39      -3.1143      2.00000
     40      -3.0585      2.00000
     41      -2.8284      2.00000
     42      -2.6805      2.00000
     43      -2.5321      2.00000
     44      -2.3787      2.00000
     45      -2.2846      2.00000
     46      -2.1707      2.00000
     47      -2.0355      2.00000
     48      -1.9911      2.00000
     49      -1.8812      2.00000
     50      -1.7823      2.00000
     51      -1.4526      2.00000
     52      -1.2862      2.00000
     53      -0.6838      2.00000
     54      -0.2804      1.99960
     55      -0.0640      1.36991
     56       0.3136      0.00000
     57       0.5288      0.00000
     58       1.2259      0.00000
     59       1.3619      0.00000
     60       1.5769      0.00000
     61       1.8063      0.00000
     62       1.9493      0.00000
     63       2.0613      0.00000
     64       2.1596      0.00000
     65       2.2262      0.00000
     66       2.4047      0.00000
     67       2.4435      0.00000
     68       2.7144      0.00000

 k-point    54 :       0.4615    0.5000    0.5000
  band No.  band energies     occupation 
      1     -13.6991      2.00000
      2     -11.4393      2.00000
      3     -11.4281      2.00000
      4     -11.3469      2.00000
      5     -11.1147      2.00000
      6     -11.0766      2.00000
      7     -10.8851      2.00000
      8     -10.7923      2.00000
      9     -10.6670      2.00000
     10     -10.5627      2.00000
     11     -10.4672      2.00000
     12     -10.2501      2.00000
     13      -9.1576      2.00000
     14      -8.6115      2.00000
     15      -8.5550      2.00000
     16      -8.3823      2.00000
     17      -8.2397      2.00000
     18      -8.0611      2.00000
     19      -7.8199      2.00000
     20      -7.5862      2.00000
     21      -7.4994      2.00000
     22      -7.2308      2.00000
     23      -7.1174      2.00000
     24      -6.4992      2.00000
     25      -5.4878      2.00000
     26      -4.9013      2.00000
     27      -4.8676      2.00000
     28      -4.6222      2.00000
     29      -4.4227      2.00000
     30      -4.2737      2.00000
     31      -4.1202      2.00000
     32      -4.0467      2.00000
     33      -3.9870      2.00000
     34      -3.8748      2.00000
     35      -3.7142      2.00000
     36      -3.5674      2.00000
     37      -3.5048      2.00000
     38      -3.4584      2.00000
     39      -3.3317      2.00000
     40      -3.2029      2.00000
     41      -2.9820      2.00000
     42      -2.9500      2.00000
     43      -2.6460      2.00000
     44      -2.4378      2.00000
     45      -2.3236      2.00000
     46      -2.1790      2.00000
     47      -2.1069      2.00000
     48      -1.9971      2.00000
     49      -1.9341      2.00000
     50      -1.7017      2.00000
     51      -1.5385      2.00000
     52      -1.4001      2.00000
     53      -0.6625      2.00000
     54      -0.3509      1.99999
     55      -0.0221      0.91228
     56       0.1715      0.00439
     57       0.5047      0.00000
     58       1.1991      0.00000
     59       1.4052      0.00000
     60       1.5800      0.00000
     61       1.6674      0.00000
     62       1.7687      0.00000
     63       1.9194      0.00000
     64       2.0381      0.00000
     65       2.1476      0.00000
     66       2.4137      0.00000
     67       2.4954      0.00000
     68       2.5604      0.00000


--------------------------------------------------------------------------------------------------------


 soft charge-density along one line, spin component           1
         0         1         2         3         4         5         6         7         8         9
 total charge-density along one line
 
 pseudopotential strength for first ion, spin component:           1
 29.759   0.008  -0.001  -0.024  -0.000  -0.000  -0.001  -0.000
  0.008   0.009  -0.000  -0.000   0.000   0.000   0.000  -0.000
 -0.001  -0.000   6.545  -0.001  -0.000  -0.003   0.000   0.000
 -0.024  -0.000  -0.001   6.540  -0.000   0.000  -0.002   0.000
 -0.000   0.000  -0.000  -0.000   6.546   0.000   0.000  -0.003
 -0.000   0.000  -0.003   0.000   0.000   0.015  -0.000   0.000
 -0.001   0.000   0.000  -0.002   0.000  -0.000   0.015   0.000
 -0.000  -0.000   0.000   0.000  -0.003   0.000   0.000   0.015
 total augmentation occupancy for first ion, spin component:           1
  1.814  -0.358   0.007   0.258   0.000   0.004   0.112  -0.000
 -0.358   1.289   0.025   0.864   0.001   0.003  -0.436   0.000
  0.007   0.025   1.140   0.013   0.000  -0.505   0.014   0.000
  0.258   0.864   0.013   1.297   0.001   0.014  -0.420  -0.000
  0.000   0.001   0.000   0.001   1.143   0.000  -0.000  -0.528
  0.004   0.003  -0.505   0.014   0.000   0.293  -0.015  -0.000
  0.112  -0.436   0.014  -0.420  -0.000  -0.015   0.228   0.000
 -0.000   0.000   0.000  -0.000  -0.528  -0.000   0.000   0.327


------------------------ aborting loop because EDIFF is reached ----------------------------------------


    CHARGE:  cpu time    4.04: real time    4.06
    FORLOC:  cpu time    0.07: real time    0.07
    FORNL :  cpu time   21.24: real time   21.34
    STRESS:  cpu time   69.20: real time   69.43
    FORCOR:  cpu time   15.42: real time   15.50
    FORHAR:  cpu time    0.15: real time    0.15
    MIXING:  cpu time    0.02: real time    0.02
    OFIELD:  cpu time    0.00: real time    0.00

  FORCE on cell =-STRESS in cart. coord.  units (eV):
  Direction    XX          YY          ZZ          XY          YZ          ZX
  --------------------------------------------------------------------------------------
  Alpha Z    36.80885    36.80885    36.80885
  Ewald   14469.21946 13940.05197-16380.80908    28.18815    19.76363     5.87966
  Hartree 14989.78247 14557.31305-14389.31443     2.86889    -2.80311     2.65098
  E(xc)    -358.31145  -358.94839  -356.60109    -0.14831    -0.65897    -0.06231
  Local  -31016.86634-30050.60141 29180.75008   -25.29306   -12.48760    -7.43550
  n-local  1158.27696  1180.08226  1147.97598     6.23545    14.60542     0.67337
  augment  -202.56689  -203.81283  -205.56124     0.13167    -0.62595    -0.07748
  Kinetic   927.70118   935.52029   990.38006    -4.28611     2.48657     3.64286
  Fock        0.00000     0.00000     0.00000     0.00000     0.00000     0.00000
  -------------------------------------------------------------------------------------
  Total       4.04423    36.41378    23.62912     7.69668    20.27998     5.27158
  in kB       6.46457    58.20628    37.77041    12.30290    32.41691     8.42646
  external pressure =       34.15 kB  Pullay stress =        0.00 kB


 VOLUME and BASIS-vectors are now :
 -----------------------------------------------------------------------------
  energy-cutoff  :      300.00
  volume of cell :     1002.32
      direct lattice vectors                 reciprocal lattice vectors
     3.540400000  0.000000000  0.000000000     0.282453960  0.048570342  0.000000000
    -1.770200000 10.294348000  0.000000000     0.000000000  0.097140683  0.000000000
     0.000000000  0.000000000 27.501429000     0.000000000  0.000000000  0.036361747

  length of vectors
     3.540400000 10.445439617 27.501429000     0.286599577  0.097140683  0.036361747


 FORCES acting on ions
    electron-ion (+dipol)            ewald-force                    non-local-force                 convergence-correction
 -----------------------------------------------------------------------------------------------
   0.166E-01 0.101E+02 0.338E+02   0.185E-01 -.990E+01 -.291E+02   -.294E-01 -.215E+00 -.478E+01   0.100E-06 0.123E-05 -.374E-05
   -.262E-01 0.516E+01 -.546E+03   -.198E-01 -.529E+01 0.549E+03   0.848E-01 0.887E-01 -.386E+01   0.154E-07 0.309E-05 0.123E-04
   0.345E-02 0.661E+02 0.463E+02   -.591E-03 -.676E+02 -.421E+02   -.179E-02 0.150E+01 -.411E+01   -.103E-07 0.892E-06 -.524E-05
   -.351E+00 0.136E+02 -.539E+03   0.831E+00 -.152E+02 0.543E+03   -.423E+00 0.190E+01 -.287E+01   0.416E-07 0.143E-05 0.195E-05
   -.567E-03 -.576E+02 0.526E+03   0.918E-04 0.592E+02 -.530E+03   0.305E-03 -.154E+01 0.429E+01   0.267E-08 -.558E-05 0.388E-06
   -.177E+01 -.112E+03 -.726E+02   0.156E+01 0.113E+03 0.707E+02   -.382E+00 -.186E+01 0.288E+01   -.274E-06 -.183E-05 -.476E-05
   0.233E-02 0.543E+02 0.526E+03   0.199E-04 -.563E+02 -.530E+03   -.211E-03 0.191E+01 0.417E+01   -.302E-07 0.265E-05 0.416E-05
   0.553E+00 0.125E+03 -.732E+02   -.238E+00 -.128E+03 0.705E+02   -.268E-01 0.316E+01 0.392E+01   0.689E-06 0.220E-05 -.519E-06
   -.790E-04 0.172E+01 0.573E+03   -.879E-04 -.192E+01 -.577E+03   0.134E-02 0.202E+00 0.478E+01   -.213E-07 0.492E-05 -.426E-05
   0.557E+01 -.230E+02 0.304E+02   -.562E+01 0.230E+02 -.332E+02   -.453E+00 0.748E+00 -.133E+01   -.159E-06 0.110E-05 -.114E-04
   -.174E-02 -.678E+02 0.588E+02   -.244E-02 0.697E+02 -.547E+02   0.255E-02 -.193E+01 -.405E+01   -.449E-07 -.239E-05 -.530E-05
   -.882E+00 -.217E+02 -.555E+03   0.111E+01 0.240E+02 0.558E+03   0.276E+00 -.263E+01 -.140E+01   0.662E-06 -.627E-05 0.331E-06
   0.108E-03 0.316E+02 0.208E+03   0.239E-05 -.337E+02 -.208E+03   0.205E-02 0.214E+01 0.376E+00   -.392E-08 -.510E-06 -.339E-06
   0.979E+01 -.489E+02 -.285E+03   -.867E+01 0.456E+02 0.285E+03   -.172E+01 0.510E+01 0.182E+01   0.520E-07 -.230E-06 -.232E-05
   0.397E-02 -.138E+02 0.140E+03   0.121E-02 0.140E+02 -.143E+03   -.620E-02 -.247E+00 0.254E+01   0.157E-07 -.924E-06 -.389E-05
   0.376E+00 0.376E+02 -.320E+03   -.501E+00 -.367E+02 0.321E+03   -.432E+00 -.956E+00 -.133E+01   -.440E-06 0.302E-05 0.193E-05
   -.304E-02 -.553E+01 0.346E+03   0.887E-04 0.600E+01 -.344E+03   0.116E-02 -.465E+00 -.254E+01   -.291E-08 -.445E-06 -.293E-05
   -.143E+02 -.500E+02 -.115E+03   0.135E+02 0.501E+02 0.114E+03   0.232E+01 0.249E+00 -.170E+01   0.241E-06 0.120E-05 -.474E-05
   0.117E-02 0.102E+02 0.335E+03   -.257E-04 -.105E+02 -.333E+03   -.189E-02 0.223E+00 -.256E+01   0.151E-07 0.543E-05 0.353E-06
   0.149E+02 0.106E+03 -.111E+03   -.142E+02 -.102E+03 0.114E+03   -.771E+01 -.311E+02 -.203E+02   -.274E-06 -.504E-05 -.822E-06
   -.132E-01 0.131E+02 0.128E+03   -.140E-02 -.135E+02 -.131E+03   0.162E-01 0.355E+00 0.252E+01   -.228E-07 0.234E-05 -.187E-05
   -.461E+00 -.103E+02 -.294E+03   0.525E+00 0.103E+02 0.295E+03   -.123E+00 -.545E+00 -.741E+00   -.842E-07 0.320E-05 0.408E-05
   -.427E-03 -.320E+02 0.253E+03   -.119E-03 0.341E+02 -.253E+03   0.176E-02 -.211E+01 -.375E+00   0.346E-08 -.316E-05 -.209E-05
   -.121E+02 -.350E+02 -.290E+03   0.117E+02 0.311E+02 0.288E+03   0.727E+01 0.296E+02 0.201E+02   0.612E-06 -.358E-05 0.240E-05
 -----------------------------------------------------------------------------------------------
   0.134E+01 -.350E+01 0.458E+01   -.178E-13 0.568E-13 -.568E-13   -.133E+01 0.350E+01 -.457E+01   0.108E-05 0.274E-05 -.264E-04
 
 
 POSITION                                       TOTAL-FORCE (eV/Angst)
 -----------------------------------------------------------------------------------
      0.00000      2.34757      6.41229         0.005484     -0.044954      0.002255
     -1.41616      8.52418     14.16300         0.038534     -0.035738     -0.494530
     -0.00000      9.43147      5.75866         0.000858     -0.011286      0.074350
      0.35404      5.31373     13.50937         0.056820      0.255642      1.096493
     -0.00000      6.40009      2.31424        -0.000384     -0.000154      0.003012
     -0.00000      6.40009     10.06495        -0.588982     -0.631527      0.988685
      1.77020     10.27849      2.37372         0.001929     -0.006701     -0.001295
      1.77020     10.27849     10.12443         0.288258     -0.044500      1.252005
      1.77020      3.18974      1.66157         0.000958     -0.001139      0.003659
      1.77020      3.18974      9.41228        -0.507427      0.769542     -4.212151
      1.77020      5.55354      5.69975        -0.001852      0.010377      0.091801
      2.12424      1.43580     13.45047         0.503766     -0.347247      1.807312
      1.77020      9.05319      4.34076         0.001948     -0.004359      0.004397
      2.12424      4.93545     12.09147        -0.595615      1.762567      1.925278
      0.00000      4.22380      5.10944        -0.001234      0.006943      0.046763
      0.35404      0.10606     12.86016        -0.556807     -0.025708     -0.298167
     -0.00000      4.15582      2.74166        -0.002001      0.000145     -0.012418
     -0.00000      4.15582     10.49237         1.560888      0.317395     -2.671759
      1.77020      1.31366      2.96438        -0.000959     -0.011987     -0.001791
      1.77020      1.31366     10.71510        -7.019687    -27.141942    -17.044552
      1.77020      1.38163      5.33187         0.001384     -0.000281     -0.011843
      0.35404      7.55823     13.08259        -0.059083     -0.504865     -0.429966
      1.77020      6.77850      3.73234         0.000998      0.001094     -0.000776
      2.12424      2.66076     11.48306         6.872208     25.688685     17.883238
 -----------------------------------------------------------------------------------
    total drift:                                0.005148     -0.001139      0.003941


--------------------------------------------------------------------------------------------------------



  FREE ENERGIE OF THE ION-ELECTRON SYSTEM (eV)
  ---------------------------------------------------
  free  energy   TOTEN  =      -116.45465624 eV

  energy  without entropy=     -116.43314839  energy(sigma->0) =     -116.44390231
 


--------------------------------------------------------------------------------------------------------


    POTLOK:  cpu time   15.57: real time   15.59


--------------------------------------------------------------------------------------------------------


     LOOP+:  cpu time 2593.04: real time 2597.70
    4ORBIT:  cpu time    0.00: real time    0.00

 total amount of memory used by VASP on root node   146493. kBytes
========================================================================

   base      :      30000. kBytes
   nonlr-proj:       3452. kBytes
   fftplans  :       9347. kBytes
   grid      :      14649. kBytes
   one-center:         36. kBytes
   wavefun   :      89009. kBytes
 
  
  
 General timing and accounting informations for this job:
 ========================================================
  
                  Total CPU time used (sec):     2610.100
                            User time (sec):     2573.543
                          System time (sec):       36.557
                         Elapsed time (sec):     2615.731
  
                   Maximum memory used (kb):      335056.
                   Average memory used (kb):           0.
  
                          Minor page faults:      8193465
                          Major page faults:           12
                 Voluntary context switches:         1670
