<?xml version="1.0" encoding="ISO-8859-1"?>
<modeling>
 <generator>
  <i name="program" type="string">vasp </i>
  <i name="version" type="string">5.3.5  </i>
  <i name="subversion" type="string">31Mar14 (build Oct 29 2014 16:16:03) complex                          parallel </i>
  <i name="platform" type="string">Linux-UFHPC </i>
  <i name="date" type="string">2016 02 09 </i>
  <i name="time" type="string">18:53:31 </i>
 </generator>
 <incar>
  <i type="string" name="PREC">accurate</i>
  <i type="int" name="IBRION">     2</i>
  <i name="EDIFF">      0.00000100</i>
  <i type="int" name="NSW">     0</i>
  <i type="int" name="ISIF">     3</i>
  <i name="ENCUT">    300.00000000</i>
  <i type="string" name="LREAL"> Auto</i>
  <i type="int" name="ISMEAR">     0</i>
  <i name="SIGMA">      0.10000000</i>
  <i type="logical" name="LWAVE"> F  </i>
  <i type="logical" name="LCHARG"> F  </i>
  <i type="logical" name="LAECHG"> F  </i>
  <i type="string" name="GGA"> Bo</i>
  <i name="PARAM1">      0.18333333</i>
  <i name="PARAM2">      0.22000000</i>
  <i type="logical" name="LUSE_VDW"> T  </i>
  <i name="AGGAC">      0.00000000</i>
 </incar>
 <kpoints>
  <generation param="Gamma">
   <v type="int" name="divisions">      13        4        2 </v>
   <v name="usershift">      0.00000000       0.00000000       0.00000000 </v>
   <v name="genvec1">      0.07692308      -0.00000000       0.00000000 </v>
   <v name="genvec2">      0.00000000       0.25000000       0.00000000 </v>
   <v name="genvec3">      0.00000000       0.00000000       0.50000000 </v>
   <v name="shift">      0.00000000       0.00000000       0.00000000 </v>
  </generation>
  <varray name="kpointlist" >
   <v>       0.00000000       0.00000000       0.00000000 </v>
   <v>       0.07692308      -0.00000000       0.00000000 </v>
   <v>       0.15384615      -0.00000000       0.00000000 </v>
   <v>       0.23076923      -0.00000000       0.00000000 </v>
   <v>       0.30769231      -0.00000000       0.00000000 </v>
   <v>       0.38461538      -0.00000000       0.00000000 </v>
   <v>       0.46153846      -0.00000000       0.00000000 </v>
   <v>       0.00000000       0.25000000       0.00000000 </v>
   <v>       0.07692308       0.25000000       0.00000000 </v>
   <v>       0.15384615       0.25000000       0.00000000 </v>
   <v>       0.23076923       0.25000000       0.00000000 </v>
   <v>       0.30769231       0.25000000       0.00000000 </v>
   <v>       0.38461538       0.25000000       0.00000000 </v>
   <v>       0.46153846       0.25000000       0.00000000 </v>
   <v>      -0.46153846       0.25000000       0.00000000 </v>
   <v>      -0.38461538       0.25000000       0.00000000 </v>
   <v>      -0.30769231       0.25000000       0.00000000 </v>
   <v>      -0.23076923       0.25000000       0.00000000 </v>
   <v>      -0.15384615       0.25000000       0.00000000 </v>
   <v>      -0.07692308       0.25000000       0.00000000 </v>
   <v>       0.00000000       0.50000000       0.00000000 </v>
   <v>       0.07692308       0.50000000       0.00000000 </v>
   <v>       0.15384615       0.50000000       0.00000000 </v>
   <v>       0.23076923       0.50000000       0.00000000 </v>
   <v>       0.30769231       0.50000000       0.00000000 </v>
   <v>       0.38461538       0.50000000       0.00000000 </v>
   <v>       0.46153846       0.50000000       0.00000000 </v>
   <v>       0.00000000       0.00000000       0.50000000 </v>
   <v>       0.07692308      -0.00000000       0.50000000 </v>
   <v>       0.15384615      -0.00000000       0.50000000 </v>
   <v>       0.23076923      -0.00000000       0.50000000 </v>
   <v>       0.30769231      -0.00000000       0.50000000 </v>
   <v>       0.38461538      -0.00000000       0.50000000 </v>
   <v>       0.46153846      -0.00000000       0.50000000 </v>
   <v>       0.00000000       0.25000000       0.50000000 </v>
   <v>       0.07692308       0.25000000       0.50000000 </v>
   <v>       0.15384615       0.25000000       0.50000000 </v>
   <v>       0.23076923       0.25000000       0.50000000 </v>
   <v>       0.30769231       0.25000000       0.50000000 </v>
   <v>       0.38461538       0.25000000       0.50000000 </v>
   <v>       0.46153846       0.25000000       0.50000000 </v>
   <v>      -0.46153846       0.25000000       0.50000000 </v>
   <v>      -0.38461538       0.25000000       0.50000000 </v>
   <v>      -0.30769231       0.25000000       0.50000000 </v>
   <v>      -0.23076923       0.25000000       0.50000000 </v>
   <v>      -0.15384615       0.25000000       0.50000000 </v>
   <v>      -0.07692308       0.25000000       0.50000000 </v>
   <v>       0.00000000       0.50000000       0.50000000 </v>
   <v>       0.07692308       0.50000000       0.50000000 </v>
   <v>       0.15384615       0.50000000       0.50000000 </v>
   <v>       0.23076923       0.50000000       0.50000000 </v>
   <v>       0.30769231       0.50000000       0.50000000 </v>
   <v>       0.38461538       0.50000000       0.50000000 </v>
   <v>       0.46153846       0.50000000       0.50000000 </v>
  </varray>
  <varray name="weights" >
   <v>       0.00961538 </v>
   <v>       0.01923077 </v>
   <v>       0.01923077 </v>
   <v>       0.01923077 </v>
   <v>       0.01923077 </v>
   <v>       0.01923077 </v>
   <v>       0.01923077 </v>
   <v>       0.01923077 </v>
   <v>       0.01923077 </v>
   <v>       0.01923077 </v>
   <v>       0.01923077 </v>
   <v>       0.01923077 </v>
   <v>       0.01923077 </v>
   <v>       0.01923077 </v>
   <v>       0.01923077 </v>
   <v>       0.01923077 </v>
   <v>       0.01923077 </v>
   <v>       0.01923077 </v>
   <v>       0.01923077 </v>
   <v>       0.01923077 </v>
   <v>       0.00961538 </v>
   <v>       0.01923077 </v>
   <v>       0.01923077 </v>
   <v>       0.01923077 </v>
   <v>       0.01923077 </v>
   <v>       0.01923077 </v>
   <v>       0.01923077 </v>
   <v>       0.00961538 </v>
   <v>       0.01923077 </v>
   <v>       0.01923077 </v>
   <v>       0.01923077 </v>
   <v>       0.01923077 </v>
   <v>       0.01923077 </v>
   <v>       0.01923077 </v>
   <v>       0.01923077 </v>
   <v>       0.01923077 </v>
   <v>       0.01923077 </v>
   <v>       0.01923077 </v>
   <v>       0.01923077 </v>
   <v>       0.01923077 </v>
   <v>       0.01923077 </v>
   <v>       0.01923077 </v>
   <v>       0.01923077 </v>
   <v>       0.01923077 </v>
   <v>       0.01923077 </v>
   <v>       0.01923077 </v>
   <v>       0.01923077 </v>
   <v>       0.00961538 </v>
   <v>       0.01923077 </v>
   <v>       0.01923077 </v>
   <v>       0.01923077 </v>
   <v>       0.01923077 </v>
   <v>       0.01923077 </v>
   <v>       0.01923077 </v>
  </varray>
 </kpoints>
 <parameters>
  <separator name="general" >
   <i type="string" name="SYSTEM">unknown system</i>
   <i type="logical" name="LCOMPAT"> F  </i>
  </separator>
  <separator name="electronic" >
   <i type="string" name="PREC">accura</i>
   <i name="ENMAX">    300.00000000</i>
   <i name="ENAUG">    342.92400000</i>
   <i name="EDIFF">      0.00000100</i>
   <i type="int" name="IALGO">    38</i>
   <i type="int" name="IWAVPR">    10</i>
   <i type="int" name="NBANDS">    68</i>
   <i name="NELECT">    108.00000000</i>
   <i type="int" name="TURBO">     0</i>
   <i type="int" name="IRESTART">     0</i>
   <i type="int" name="NREBOOT">     0</i>
   <i type="int" name="NMIN">     0</i>
   <i name="EREF">      0.00000000</i>
   <separator name="electronic smearing" >
    <i type="int" name="ISMEAR">     0</i>
    <i name="SIGMA">      0.10000000</i>
    <i name="KSPACING">      0.50000000</i>
    <i type="logical" name="KGAMMA"> T  </i>
   </separator>
   <separator name="electronic projectors" >
    <i type="logical" name="LREAL"> T  </i>
    <v name="ROPT">     -0.00025000     -0.00025000</v>
    <i type="int" name="LMAXPAW">  -100</i>
    <i type="int" name="LMAXMIX">     2</i>
    <i type="logical" name="NLSPLINE"> F  </i>
   </separator>
   <separator name="electronic startup" >
    <i type="int" name="ISTART">     0</i>
    <i type="int" name="ICHARG">     2</i>
    <i type="int" name="INIWAV">     1</i>
   </separator>
   <separator name="electronic spin" >
    <i type="int" name="ISPIN">     1</i>
    <i type="logical" name="LNONCOLLINEAR"> F  </i>
    <v name="MAGMOM">      1.00000000      1.00000000      1.00000000      1.00000000      1.00000000      1.00000000      1.00000000      1.00000000      1.00000000      1.00000000      1.00000000      1.00000000      1.00000000      1.00000000      1.00000000      1.00000000      1.00000000      1.00000000      1.00000000      1.00000000
      1.00000000      1.00000000      1.00000000      1.00000000</v>
    <i name="NUPDOWN">     -1.00000000</i>
    <i type="logical" name="LSORBIT"> F  </i>
    <v name="SAXIS">      0.00000000      0.00000000      1.00000000</v>
    <i type="logical" name="LSPIRAL"> F  </i>
    <v name="QSPIRAL">      0.00000000      0.00000000      0.00000000</v>
    <i type="logical" name="LZEROZ"> F  </i>
   </separator>
   <separator name="electronic exchange-correlation" >
    <i type="logical" name="LASPH"> F  </i>
    <i type="logical" name="LMETAGGA"> F  </i>
   </separator>
   <separator name="electronic convergence" >
    <i type="int" name="NELM">    60</i>
    <i type="int" name="NELMDL">    -5</i>
    <i type="int" name="NELMIN">     2</i>
    <i name="ENINI">    300.00000000</i>
    <separator name="electronic convergence detail" >
     <i type="logical" name="LDIAG"> T  </i>
     <i type="logical" name="LSUBROT"> F  </i>
     <i name="WEIMIN">      0.00000000</i>
     <i name="EBREAK">      0.00000000</i>
     <i name="DEPER">      0.30000000</i>
     <i type="int" name="NRMM">     4</i>
     <i name="TIME">      0.40000000</i>
    </separator>
   </separator>
   <separator name="electronic mixer" >
    <i name="AMIX">      0.40000000</i>
    <i name="BMIX">      1.00000000</i>
    <i name="AMIN">      0.10000000</i>
    <i name="AMIX_MAG">      1.60000000</i>
    <i name="BMIX_MAG">      1.00000000</i>
    <separator name="electronic mixer details" >
     <i type="int" name="IMIX">     4</i>
     <i type="int" name="MAXMIX">   -45</i>
     <i name="WC">    100.00000000</i>
     <i type="int" name="INIMIX">     1</i>
     <i type="int" name="MIXPRE">     1</i>
     <i type="int" name="MREMOVE">     5</i>
    </separator>
   </separator>
   <separator name="electronic dipolcorrection" >
    <i type="logical" name="LDIPOL"> F  </i>
    <i type="logical" name="LMONO"> F  </i>
    <i type="int" name="IDIPOL">     0</i>
    <i name="EPSILON">      1.00000000</i>
    <v name="DIPOL">   -100.00000000   -100.00000000   -100.00000000</v>
    <i name="EFIELD">      0.00000000</i>
   </separator>
  </separator>
  <separator name="grids" >
   <i type="int" name="NGX">    20</i>
   <i type="int" name="NGY">    60</i>
   <i type="int" name="NGZ">   160</i>
   <i type="int" name="NGXF">    40</i>
   <i type="int" name="NGYF">   120</i>
   <i type="int" name="NGZF">   320</i>
   <i type="logical" name="ADDGRID"> F  </i>
  </separator>
  <separator name="ionic" >
   <i type="int" name="NSW">     0</i>
   <i type="int" name="IBRION">    -1</i>
   <i type="int" name="ISIF">     3</i>
   <i name="PSTRESS">      0.00000000</i>
   <i name="EDIFFG">      0.00001000</i>
   <i type="int" name="NFREE">     1</i>
   <i name="POTIM">      0.50000000</i>
   <i name="SMASS">     -3.00000000</i>
   <i name="SCALEE">      1.00000000</i>
  </separator>
  <separator name="ionic md" >
   <i name="TEBEG">      0.00010000</i>
   <i name="TEEND">      0.00010000</i>
   <i type="int" name="NBLOCK">     1</i>
   <i type="int" name="KBLOCK">     1</i>
   <i type="int" name="NPACO">   256</i>
   <i name="APACO">     16.00000000</i>
  </separator>
  <separator name="symmetry" >
   <i type="int" name="ISYM">     2</i>
   <i name="SYMPREC">      0.00001000</i>
  </separator>
  <separator name="dos" >
   <i type="logical" name="LORBIT"> F  </i>
   <v name="RWIGS">     -1.00000000     -1.00000000</v>
   <i type="int" name="NEDOS">   301</i>
   <i name="EMIN">     10.00000000</i>
   <i name="EMAX">    -10.00000000</i>
   <i name="EFERMI">      0.00000000</i>
  </separator>
  <separator name="writing" >
   <i type="int" name="NWRITE">     2</i>
   <i type="logical" name="LWAVE"> F  </i>
   <i type="logical" name="LCHARG"> F  </i>
   <i type="logical" name="LPARD"> F  </i>
   <i type="logical" name="LVTOT"> F  </i>
   <i type="logical" name="LVHAR"> F  </i>
   <i type="logical" name="LELF"> F  </i>
   <i type="logical" name="LOPTICS"> F  </i>
   <v name="STM">      0.00000000      0.00000000      0.00000000      0.00000000      0.00000000      0.00000000      0.00000000</v>
  </separator>
  <separator name="performance" >
   <i type="int" name="NPAR">     4</i>
   <i type="int" name="NSIM">     4</i>
   <i type="int" name="NBLK">    -1</i>
   <i type="logical" name="LPLANE"> T  </i>
   <i type="logical" name="LSCALAPACK"> T  </i>
   <i type="logical" name="LSCAAWARE"> F  </i>
   <i type="logical" name="LSCALU"> F  </i>
   <i type="logical" name="LASYNC"> F  </i>
   <i type="logical" name="LORBITALREAL"> F  </i>
  </separator>
  <separator name="miscellaneous" >
   <i type="int" name="IDIOT">     3</i>
   <i type="logical" name="LMUSIC"> F  </i>
   <v name="POMASS">     30.97400000     28.08500000</v>
   <v name="DARWINR">      0.00000000      0.00000000</v>
   <v name="DARWINV">      1.00000000      1.00000000</v>
   <i type="logical" name="LCORR"> T  </i>
  </separator>
  <i type="logical" name="GGA_COMPAT"> T  </i>
  <i type="logical" name="LBERRY"> F  </i>
  <i type="int" name="ICORELEVEL">     0</i>
  <i type="logical" name="LDAU"> F  </i>
  <i type="int" name="I_CONSTRAINED_M">     0</i>
  <separator name="electronic exchange-correlation" >
   <i type="string" name="GGA">BO</i>
   <i type="int" name="VOSKOWN">     0</i>
   <i type="logical" name="LHFCALC"> F  </i>
   <i type="string" name="PRECFOCK"></i>
   <i type="logical" name="LSYMGRAD"> F  </i>
   <i type="logical" name="LHFONE"> F  </i>
   <i type="logical" name="LRHFCALC"> F  </i>
   <i type="logical" name="LTHOMAS"> F  </i>
   <i type="logical" name="LMODELHF"> F  </i>
   <i name="ENCUT4O">     -1.00000000</i>
   <i type="int" name="EXXOEP">     0</i>
   <i type="int" name="FOURORBIT">     0</i>
   <i name="AEXX">      0.00000000</i>
   <i name="HFALPHA">      0.00000000</i>
   <i name="MCALPHA">      0.00000000</i>
   <i name="ALDAX">      1.00000000</i>
   <i name="AGGAX">      1.00000000</i>
   <i name="ALDAC">      1.00000000</i>
   <i name="AGGAC">      0.00000000</i>
   <i type="int" name="NKREDX">     1</i>
   <i type="int" name="NKREDY">     1</i>
   <i type="int" name="NKREDZ">     1</i>
   <i type="logical" name="SHIFTRED"> F  </i>
   <i type="logical" name="ODDONLY"> F  </i>
   <i type="logical" name="EVENONLY"> F  </i>
   <i type="int" name="LMAXFOCK">     0</i>
   <i type="int" name="NMAXFOCKAE">     0</i>
   <i type="logical" name="LFOCKAEDFT"> F  </i>
   <i name="HFSCREEN">      0.00000000</i>
   <i name="HFSCREENC">      0.00000000</i>
   <i type="int" name="NBANDSGWLOW">     0</i>
  </separator>
  <separator name="vdW DFT" >
   <i type="logical" name="LUSE_VDW"> T  </i>
   <i name="Zab_VDW">     -0.84910000</i>
   <i name="PARAM1">      0.18333333</i>
   <i name="PARAM2">      0.22000000</i>
   <i name="PARAM3">      0.00000000</i>
  </separator>
  <separator name="model GW" >
   <i type="int" name="MODEL_GW">     0</i>
   <i name="MODEL_EPS0">     25.05800243</i>
   <i name="MODEL_ALPHA">      1.00000000</i>
  </separator>
  <separator name="linear response parameters" >
   <i type="logical" name="LEPSILON"> F  </i>
   <i type="logical" name="LRPA"> F  </i>
   <i type="logical" name="LNABLA"> F  </i>
   <i type="logical" name="LVEL"> F  </i>
   <i type="int" name="KINTER">     0</i>
   <i name="CSHIFT">      0.10000000</i>
   <i name="OMEGAMAX">     -1.00000000</i>
   <i name="DEG_THRESHOLD">      0.00200000</i>
  </separator>
  <separator name="orbital magnetization" >
   <i type="logical" name="NUCIND"> F  </i>
   <v name="MAGPOS">      0.00000000      0.00000000      0.00000000</v>
   <i type="logical" name="LNICSALL"> T  </i>
   <i type="logical" name="ORBITALMAG"> F  </i>
   <i type="logical" name="LMAGBLOCH"> F  </i>
   <i type="logical" name="LCHIMAG"> F  </i>
   <i type="logical" name="LGAUGE"> T  </i>
   <i type="int" name="MAGATOM">     0</i>
   <v name="MAGDIPOL">      0.00000000      0.00000000      0.00000000</v>
   <v name="AVECCONST">      0.00000000      0.00000000      0.00000000</v>
  </separator>
  <separator name="response functions" >
   <i type="logical" name="LADDER"> F  </i>
   <i type="logical" name="LFXC"> F  </i>
   <i type="logical" name="LHARTREE"> T  </i>
   <i type="int" name="IBSE">     0</i>
   <i type="logical" name="LTCTE"> F  </i>
   <i type="logical" name="LTETE"> F  </i>
   <i type="logical" name="LTRIPLET"> F  </i>
   <i type="logical" name="LFXCEPS"> F  </i>
   <i type="logical" name="LFXHEG"> F  </i>
   <i type="logical" name="L2ORDER"> F  </i>
   <i type="logical" name="LUSEW"> F  </i>
   <i name="ENCUTGW">     -2.00000000</i>
   <i name="ENCUTGWSOFT">     -2.00000000</i>
   <i name="ENCUTLF">     -1.00000000</i>
   <i type="int" name="LMAXMP2">    -1</i>
   <i name="SCISSOR">      0.00000000</i>
   <i type="int" name="NOMEGA">     0</i>
   <i type="int" name="NOMEGAR">     0</i>
   <i type="int" name="NBANDSGW">    -1</i>
   <i type="int" name="NBANDSO">    -1</i>
   <i type="int" name="NBANDSV">    -1</i>
   <i type="int" name="NELM">     1</i>
   <i type="int" name="DIM">     3</i>
   <i type="int" name="ANTIRES">     0</i>
   <i name="OMEGAMAX">    -30.00000000</i>
   <i name="OMEGAMIN">    -30.00000000</i>
   <i name="OMEGATL">   -200.00000000</i>
   <i type="int" name="OMEGAGRID">     0</i>
   <i name="CSHIFT">     -0.10000000</i>
   <i type="logical" name="SELFENERGY"> F  </i>
   <i type="logical" name="LSPECTRAL"> F  </i>
   <i type="logical" name="ODDONLYGW"> F  </i>
   <i type="logical" name="EVENONLYGW"> F  </i>
   <i type="int" name="NKREDLFX">     1</i>
   <i type="int" name="NKREDLFY">     1</i>
   <i type="int" name="NKREDLFZ">     1</i>
   <i type="int" name="MAXMEM">  1800</i>
   <i type="int" name="TELESCOPE">     0</i>
   <i type="int" name="TAUPAR">     1</i>
  </separator>
  <separator name="External order field" >
   <i name="OFIELD_KAPPA">      0.00000000</i>
   <v name="OFIELD_K">      0.00000000      0.00000000      0.00000000</v>
   <i name="OFIELD_Q6_NEAR">      0.00000000</i>
   <i name="OFIELD_Q6_FAR">      0.00000000</i>
   <i name="OFIELD_A">      0.00000000</i>
  </separator>
 </parameters>
 <atominfo>
  <atoms>      24 </atoms>
  <types>       2 </types>
  <array name="atoms" >
   <dimension dim="1">ion</dimension>
   <field type="string">element</field>
   <field type="int">atomtype</field>
   <set>
    <rc><c>P </c><c>   1</c></rc>
    <rc><c>P </c><c>   1</c></rc>
    <rc><c>P </c><c>   1</c></rc>
    <rc><c>P </c><c>   1</c></rc>
    <rc><c>P </c><c>   1</c></rc>
    <rc><c>P </c><c>   1</c></rc>
    <rc><c>P </c><c>   1</c></rc>
    <rc><c>P </c><c>   1</c></rc>
    <rc><c>P </c><c>   1</c></rc>
    <rc><c>P </c><c>   1</c></rc>
    <rc><c>P </c><c>   1</c></rc>
    <rc><c>P </c><c>   1</c></rc>
    <rc><c>Si</c><c>   2</c></rc>
    <rc><c>Si</c><c>   2</c></rc>
    <rc><c>Si</c><c>   2</c></rc>
    <rc><c>Si</c><c>   2</c></rc>
    <rc><c>Si</c><c>   2</c></rc>
    <rc><c>Si</c><c>   2</c></rc>
    <rc><c>Si</c><c>   2</c></rc>
    <rc><c>Si</c><c>   2</c></rc>
    <rc><c>Si</c><c>   2</c></rc>
    <rc><c>Si</c><c>   2</c></rc>
    <rc><c>Si</c><c>   2</c></rc>
    <rc><c>Si</c><c>   2</c></rc>
   </set>
  </array>
  <array name="atomtypes" >
   <dimension dim="1">type</dimension>
   <field type="int">atomspertype</field>
   <field type="string">element</field>
   <field>mass</field>
   <field>valence</field>
   <field type="string">pseudopotential</field>
   <set>
    <rc><c>  12</c><c>P </c><c>     30.97400000</c><c>      5.00000000</c><c>  PAW_PBE P 17Jan2003                   </c></rc>
    <rc><c>  12</c><c>Si</c><c>     28.08500000</c><c>      4.00000000</c><c> PAW_PBE Si 05Jan2001                   </c></rc>
   </set>
  </array>
 </atominfo>
 <structure name="initialpos" >
  <crystal>
   <varray name="basis" >
    <v>       3.54040000       0.00000000       0.00000000 </v>
    <v>      -1.77020000      10.29434800       0.00000000 </v>
    <v>       0.00000000       0.00000000      27.50142900 </v>
   </varray>
   <i name="volume">   1002.32009712 </i>
   <varray name="rec_basis" >
    <v>       0.28245396       0.04857034       0.00000000 </v>
    <v>       0.00000000       0.09714068       0.00000000 </v>
    <v>       0.00000000       0.00000000       0.03636175 </v>
   </varray>
  </crystal>
  <varray name="positions" >
   <v>       0.11402300       0.22804500       0.23316207 </v>
   <v>       0.01402300       0.82804500       0.51499159 </v>
   <v>       0.45808900       0.91617900       0.20939482 </v>
   <v>       0.35808900       0.51617900       0.49122434 </v>
   <v>       0.31085400       0.62170900       0.08414979 </v>
   <v>       0.31085400       0.62170900       0.36597930 </v>
   <v>       0.99923000       0.99846000       0.08631254 </v>
   <v>       0.99923000       0.99846000       0.36814206 </v>
   <v>       0.65492700       0.30985400       0.06041748 </v>
   <v>       0.65492700       0.30985400       0.34224700 </v>
   <v>       0.76973800       0.53947500       0.20725292 </v>
   <v>       0.66973800       0.13947500       0.48908244 </v>
   <v>       0.93971600       0.87943300       0.15783749 </v>
   <v>       0.83971600       0.47943300       0.43966701 </v>
   <v>       0.20515200       0.41030300       0.18578822 </v>
   <v>       0.10515200       0.01030300       0.46761774 </v>
   <v>       0.20184900       0.40369900       0.09969156 </v>
   <v>       0.20184900       0.40369900       0.38152107 </v>
   <v>       0.56380500       0.12761000       0.10779021 </v>
   <v>       0.56380500       0.12761000       0.38961973 </v>
   <v>       0.56710600       0.13421200       0.19387616 </v>
   <v>       0.46710600       0.73421200       0.47570568 </v>
   <v>       0.82923400       0.65846800       0.13571444 </v>
   <v>       0.72923400       0.25846800       0.41754396 </v>
  </varray>
 </structure>
 <calculation>
  <scstep>
   <time name="dav">   63.29   63.36</time>
   <time name="total">   79.75   79.84</time>
   <energy>
    <i name="alphaZ">     36.80884744 </i>
    <i name="ewald">  12028.46985782 </i>
    <i name="hartreedc"> -15058.53679561 </i>
    <i name="XCdc">    -87.01136608 </i>
    <i name="pawpsdc">   1056.43050070 </i>
    <i name="pawaedc">   -732.41190547 </i>
    <i name="eentropy">     -0.04234563 </i>
    <i name="bandstr">    -93.84302247 </i>
    <i name="atom">   3354.04126044 </i>
    <i name="e_fr_energy">    503.90503115 </i>
    <i name="e_wo_entrp">    503.94737677 </i>
    <i name="e_0_energy">    503.92620396 </i>
   </energy>
  </scstep>
  <scstep>
   <time name="dav">   78.74   78.81</time>
   <time name="total">   78.76   78.83</time>
   <energy>
    <i name="e_fr_energy">    -60.63080599 </i>
    <i name="e_wo_entrp">    -60.60954332 </i>
    <i name="e_0_energy">    -60.62017465 </i>
   </energy>
  </scstep>
  <scstep>
   <time name="dav">   72.27   72.30</time>
   <time name="total">   72.29   72.31</time>
   <energy>
    <i name="e_fr_energy">   -117.85712981 </i>
    <i name="e_wo_entrp">   -117.82684082 </i>
    <i name="e_0_energy">   -117.84198532 </i>
   </energy>
  </scstep>
  <scstep>
   <time name="dav">   89.23   89.40</time>
   <time name="total">   89.25   89.42</time>
   <energy>
    <i name="e_fr_energy">   -120.52097011 </i>
    <i name="e_wo_entrp">   -120.48946473 </i>
    <i name="e_0_energy">   -120.50521742 </i>
   </energy>
  </scstep>
  <scstep>
   <time name="dav">   81.38   81.60</time>
   <time name="total">   85.58   85.80</time>
   <energy>
    <i name="e_fr_energy">   -120.58092738 </i>
    <i name="e_wo_entrp">   -120.54956633 </i>
    <i name="e_0_energy">   -120.56524685 </i>
   </energy>
  </scstep>
  <scstep>
   <time name="dav">   74.26   74.39</time>
   <time name="total">   93.22   93.39</time>
   <energy>
    <i name="e_fr_energy">   -116.60730475 </i>
    <i name="e_wo_entrp">   -116.56878288 </i>
    <i name="e_0_energy">   -116.58804382 </i>
   </energy>
  </scstep>
  <scstep>
   <time name="dav">   79.49   79.65</time>
   <time name="total">   99.25   99.46</time>
   <energy>
    <i name="e_fr_energy">   -116.50291439 </i>
    <i name="e_wo_entrp">   -116.48506476 </i>
    <i name="e_0_energy">   -116.49398958 </i>
   </energy>
  </scstep>
  <scstep>
   <time name="dav">   80.73   80.77</time>
   <time name="total">  101.16  101.23</time>
   <energy>
    <i name="e_fr_energy">   -116.49433321 </i>
    <i name="e_wo_entrp">   -116.47368419 </i>
    <i name="e_0_energy">   -116.48400870 </i>
   </energy>
  </scstep>
  <scstep>
   <time name="dav">   88.88   88.92</time>
   <time name="total">  108.79  108.85</time>
   <energy>
    <i name="e_fr_energy">   -116.48581766 </i>
    <i name="e_wo_entrp">   -116.46210696 </i>
    <i name="e_0_energy">   -116.47396231 </i>
   </energy>
  </scstep>
  <scstep>
   <time name="dav">   81.79   81.81</time>
   <time name="total">  101.80  101.83</time>
   <energy>
    <i name="e_fr_energy">   -116.47481145 </i>
    <i name="e_wo_entrp">   -116.45246055 </i>
    <i name="e_0_energy">   -116.46363600 </i>
   </energy>
  </scstep>
  <scstep>
   <time name="dav">   80.46   80.48</time>
   <time name="total">  100.77  100.79</time>
   <energy>
    <i name="e_fr_energy">   -116.46754132 </i>
    <i name="e_wo_entrp">   -116.44631861 </i>
    <i name="e_0_energy">   -116.45692996 </i>
   </energy>
  </scstep>
  <scstep>
   <time name="dav">   83.07   83.27</time>
   <time name="total">  103.05  103.25</time>
   <energy>
    <i name="e_fr_energy">   -116.46246058 </i>
    <i name="e_wo_entrp">   -116.44090483 </i>
    <i name="e_0_energy">   -116.45168271 </i>
   </energy>
  </scstep>
  <scstep>
   <time name="dav">   82.22   82.31</time>
   <time name="total">  102.15  102.25</time>
   <energy>
    <i name="e_fr_energy">   -116.45688066 </i>
    <i name="e_wo_entrp">   -116.43543003 </i>
    <i name="e_0_energy">   -116.44615535 </i>
   </energy>
  </scstep>
  <scstep>
   <time name="dav">   86.73   86.84</time>
   <time name="total">  106.36  106.54</time>
   <energy>
    <i name="e_fr_energy">   -116.45498207 </i>
    <i name="e_wo_entrp">   -116.43344728 </i>
    <i name="e_0_energy">   -116.44421468 </i>
   </energy>
  </scstep>
  <scstep>
   <time name="dav">   78.71   78.88</time>
   <time name="total">   98.48   98.68</time>
   <energy>
    <i name="e_fr_energy">   -116.45405096 </i>
    <i name="e_wo_entrp">   -116.43254617 </i>
    <i name="e_0_energy">   -116.44329857 </i>
   </energy>
  </scstep>
  <scstep>
   <time name="dav">   75.78   75.93</time>
   <time name="total">   96.10   96.27</time>
   <energy>
    <i name="e_fr_energy">   -116.45393227 </i>
    <i name="e_wo_entrp">   -116.43243233 </i>
    <i name="e_0_energy">   -116.44318230 </i>
   </energy>
  </scstep>
  <scstep>
   <time name="dav">   72.63   72.65</time>
   <time name="total">   92.17   92.19</time>
   <energy>
    <i name="e_fr_energy">   -116.45444588 </i>
    <i name="e_wo_entrp">   -116.43294460 </i>
    <i name="e_0_energy">   -116.44369524 </i>
   </energy>
  </scstep>
  <scstep>
   <time name="dav">   66.88   66.93</time>
   <time name="total">   85.71   85.77</time>
   <energy>
    <i name="e_fr_energy">   -116.45468945 </i>
    <i name="e_wo_entrp">   -116.43317551 </i>
    <i name="e_0_energy">   -116.44393248 </i>
   </energy>
  </scstep>
  <scstep>
   <time name="dav">   62.56   62.76</time>
   <time name="total">   81.45   81.67</time>
   <energy>
    <i name="e_fr_energy">   -116.45475445 </i>
    <i name="e_wo_entrp">   -116.43324882 </i>
    <i name="e_0_energy">   -116.44400164 </i>
   </energy>
  </scstep>
  <scstep>
   <time name="dav">   60.87   61.13</time>
   <time name="total">   79.88   80.27</time>
   <energy>
    <i name="e_fr_energy">   -116.45480806 </i>
    <i name="e_wo_entrp">   -116.43330081 </i>
    <i name="e_0_energy">   -116.44405444 </i>
   </energy>
  </scstep>
  <scstep>
   <time name="dav">   63.35   63.45</time>
   <time name="total">   82.08   82.24</time>
   <energy>
    <i name="e_fr_energy">   -116.45479895 </i>
    <i name="e_wo_entrp">   -116.43329148 </i>
    <i name="e_0_energy">   -116.44404521 </i>
   </energy>
  </scstep>
  <scstep>
   <time name="dav">   58.22   58.50</time>
   <time name="total">   77.05   77.42</time>
   <energy>
    <i name="e_fr_energy">   -116.45474707 </i>
    <i name="e_wo_entrp">   -116.43323976 </i>
    <i name="e_0_energy">   -116.44399342 </i>
   </energy>
  </scstep>
  <scstep>
   <time name="dav">   59.21   59.36</time>
   <time name="total">   78.56   78.75</time>
   <energy>
    <i name="e_fr_energy">   -116.45467487 </i>
    <i name="e_wo_entrp">   -116.43316712 </i>
    <i name="e_0_energy">   -116.44392100 </i>
   </energy>
  </scstep>
  <scstep>
   <time name="dav">   57.77   57.79</time>
   <time name="total">   76.47   76.49</time>
   <energy>
    <i name="e_fr_energy">   -116.45466908 </i>
    <i name="e_wo_entrp">   -116.43316116 </i>
    <i name="e_0_energy">   -116.44391512 </i>
   </energy>
  </scstep>
  <scstep>
   <time name="dav">   61.32   61.34</time>
   <time name="total">   80.03   80.07</time>
   <energy>
    <i name="e_fr_energy">   -116.45465560 </i>
    <i name="e_wo_entrp">   -116.43314754 </i>
    <i name="e_0_energy">   -116.44390157 </i>
   </energy>
  </scstep>
  <scstep>
   <time name="dav">   54.68   54.81</time>
   <time name="total">   74.25   74.44</time>
   <energy>
    <i name="e_fr_energy">   -116.45465931 </i>
    <i name="e_wo_entrp">   -116.43315134 </i>
    <i name="e_0_energy">   -116.44390532 </i>
   </energy>
  </scstep>
  <scstep>
   <time name="dav">   52.28   52.49</time>
   <time name="total">   71.76   71.99</time>
   <energy>
    <i name="e_fr_energy">   -116.45465587 </i>
    <i name="e_wo_entrp">   -116.43314804 </i>
    <i name="e_0_energy">   -116.44390195 </i>
   </energy>
  </scstep>
  <scstep>
   <time name="dav">   55.70   56.01</time>
   <time name="total">   71.10   71.46</time>
   <energy>
    <i name="alphaZ">     36.80884744 </i>
    <i name="ewald">  12028.46985782 </i>
    <i name="hartreedc"> -15157.78100033 </i>
    <i name="XCdc">    -79.39947888 </i>
    <i name="pawpsdc">   1172.34735947 </i>
    <i name="pawaedc">   -851.76797476 </i>
    <i name="eentropy">     -0.02150785 </i>
    <i name="bandstr">   -619.15201960 </i>
    <i name="atom">   3354.04126044 </i>
    <i name="e_fr_energy">   -116.45465624 </i>
    <i name="e_wo_entrp">   -116.43314839 </i>
    <i name="e_0_energy">   -116.44390231 </i>
   </energy>
  </scstep>
  <structure>
   <crystal>
    <varray name="basis" >
     <v>       3.54040000       0.00000000       0.00000000 </v>
     <v>      -1.77020000      10.29434800       0.00000000 </v>
     <v>       0.00000000       0.00000000      27.50142900 </v>
    </varray>
    <i name="volume">   1002.32009712 </i>
    <varray name="rec_basis" >
     <v>       0.28245396       0.04857034       0.00000000 </v>
     <v>       0.00000000       0.09714068       0.00000000 </v>
     <v>       0.00000000       0.00000000       0.03636175 </v>
    </varray>
   </crystal>
   <varray name="positions" >
    <v>       0.11402300       0.22804500       0.23316207 </v>
    <v>       0.01402300       0.82804500       0.51499159 </v>
    <v>       0.45808900       0.91617900       0.20939482 </v>
    <v>       0.35808900       0.51617900       0.49122434 </v>
    <v>       0.31085400       0.62170900       0.08414979 </v>
    <v>       0.31085400       0.62170900       0.36597930 </v>
    <v>       0.99923000       0.99846000       0.08631254 </v>
    <v>       0.99923000       0.99846000       0.36814206 </v>
    <v>       0.65492700       0.30985400       0.06041748 </v>
    <v>       0.65492700       0.30985400       0.34224700 </v>
    <v>       0.76973800       0.53947500       0.20725292 </v>
    <v>       0.66973800       0.13947500       0.48908244 </v>
    <v>       0.93971600       0.87943300       0.15783749 </v>
    <v>       0.83971600       0.47943300       0.43966701 </v>
    <v>       0.20515200       0.41030300       0.18578822 </v>
    <v>       0.10515200       0.01030300       0.46761774 </v>
    <v>       0.20184900       0.40369900       0.09969156 </v>
    <v>       0.20184900       0.40369900       0.38152107 </v>
    <v>       0.56380500       0.12761000       0.10779021 </v>
    <v>       0.56380500       0.12761000       0.38961973 </v>
    <v>       0.56710600       0.13421200       0.19387616 </v>
    <v>       0.46710600       0.73421200       0.47570568 </v>
    <v>       0.82923400       0.65846800       0.13571444 </v>
    <v>       0.72923400       0.25846800       0.41754396 </v>
   </varray>
  </structure>
  <varray name="forces" >
   <v>       0.00548377      -0.04495427       0.00225487 </v>
   <v>       0.03853422      -0.03573765      -0.49452990 </v>
   <v>       0.00085756      -0.01128631       0.07435031 </v>
   <v>       0.05682027       0.25564222       1.09649284 </v>
   <v>      -0.00038424      -0.00015366       0.00301202 </v>
   <v>      -0.58898225      -0.63152684       0.98868455 </v>
   <v>       0.00192896      -0.00670146      -0.00129521 </v>
   <v>       0.28825793      -0.04449974       1.25200516 </v>
   <v>       0.00095849      -0.00113883       0.00365944 </v>
   <v>      -0.50742708       0.76954236      -4.21215099 </v>
   <v>      -0.00185219       0.01037652       0.09180130 </v>
   <v>       0.50376575      -0.34724677       1.80731151 </v>
   <v>       0.00194792      -0.00435903       0.00439709 </v>
   <v>      -0.59561508       1.76256711       1.92527848 </v>
   <v>      -0.00123393       0.00694291       0.04676310 </v>
   <v>      -0.55680731      -0.02570841      -0.29816722 </v>
   <v>      -0.00200085       0.00014478      -0.01241820 </v>
   <v>       1.56088776       0.31739468      -2.67175861 </v>
   <v>      -0.00095881      -0.01198742      -0.00179135 </v>
   <v>      -7.01968730     -27.14194245     -17.04455190 </v>
   <v>       0.00138372      -0.00028085      -0.01184347 </v>
   <v>      -0.05908293      -0.50486517      -0.42996648 </v>
   <v>       0.00099772       0.00109359      -0.00077559 </v>
   <v>       6.87220792      25.68868466      17.88323825 </v>
  </varray>
  <varray name="stress" >
   <v>       6.46457408      12.30290323       8.42646172 </v>
   <v>      12.30290286      58.20628356      32.41691204 </v>
   <v>       8.42646175      32.41691214      37.77040783 </v>
  </varray>
  <energy>
   <i name="e_fr_energy">   -116.45465624 </i>
   <i name="e_wo_entrp">   -116.44390231 </i>
   <i name="e_0_energy">     -0.02150785 </i>
  </energy>
  <time name="totalsc"> 2593.04 2597.70</time>
  <eigenvalues>
   <array>
    <dimension dim="1">band</dimension>
    <dimension dim="2">kpoint</dimension>
    <dimension dim="3">spin</dimension>
    <field>eigene</field>
    <field>occ</field>
    <set>
     <set comment="spin 1">
      <set comment="kpoint 1">
       <r>  -14.9866    1.0000 </r>
       <r>  -13.4826    1.0000 </r>
       <r>  -13.1271    1.0000 </r>
       <r>  -12.9255    1.0000 </r>
       <r>  -12.7456    1.0000 </r>
       <r>  -12.4204    1.0000 </r>
       <r>  -12.0302    1.0000 </r>
       <r>  -11.7590    1.0000 </r>
       <r>  -11.4131    1.0000 </r>
       <r>  -11.3737    1.0000 </r>
       <r>  -10.9359    1.0000 </r>
       <r>  -10.5606    1.0000 </r>
       <r>   -8.8790    1.0000 </r>
       <r>   -8.6342    1.0000 </r>
       <r>   -7.9716    1.0000 </r>
       <r>   -7.7691    1.0000 </r>
       <r>   -6.7826    1.0000 </r>
       <r>   -6.7269    1.0000 </r>
       <r>   -6.4352    1.0000 </r>
       <r>   -6.0437    1.0000 </r>
       <r>   -5.7694    1.0000 </r>
       <r>   -5.4298    1.0000 </r>
       <r>   -4.9507    1.0000 </r>
       <r>   -4.7695    1.0000 </r>
       <r>   -4.6025    1.0000 </r>
       <r>   -4.1086    1.0000 </r>
       <r>   -3.6577    1.0000 </r>
       <r>   -3.5526    1.0000 </r>
       <r>   -3.2560    1.0000 </r>
       <r>   -3.0870    1.0000 </r>
       <r>   -3.0156    1.0000 </r>
       <r>   -2.9961    1.0000 </r>
       <r>   -2.9374    1.0000 </r>
       <r>   -2.7903    1.0000 </r>
       <r>   -2.4251    1.0000 </r>
       <r>   -2.3958    1.0000 </r>
       <r>   -2.3292    1.0000 </r>
       <r>   -2.3225    1.0000 </r>
       <r>   -2.2287    1.0000 </r>
       <r>   -2.1662    1.0000 </r>
       <r>   -1.9362    1.0000 </r>
       <r>   -1.8166    1.0000 </r>
       <r>   -1.6765    1.0000 </r>
       <r>   -1.6398    1.0000 </r>
       <r>   -1.5834    1.0000 </r>
       <r>   -1.5298    1.0000 </r>
       <r>   -1.4896    1.0000 </r>
       <r>   -1.3754    1.0000 </r>
       <r>   -1.2133    1.0000 </r>
       <r>   -1.1058    1.0000 </r>
       <r>   -0.9465    1.0000 </r>
       <r>   -0.8710    1.0000 </r>
       <r>   -0.3995    1.0000 </r>
       <r>    0.1543    0.0046 </r>
       <r>    0.4820    0.0000 </r>
       <r>    0.6412    0.0000 </r>
       <r>    1.1001    0.0000 </r>
       <r>    1.2003    0.0000 </r>
       <r>    1.3730    0.0000 </r>
       <r>    1.4262    0.0000 </r>
       <r>    1.7642    0.0000 </r>
       <r>    1.8284    0.0000 </r>
       <r>    1.9097    0.0000 </r>
       <r>    2.0084    0.0000 </r>
       <r>    2.0672    0.0000 </r>
       <r>    2.1874    0.0000 </r>
       <r>    2.3575    0.0000 </r>
       <r>    2.4815    0.0000 </r>
      </set>
      <set comment="kpoint 2">
       <r>  -14.9348    1.0000 </r>
       <r>  -13.4212    1.0000 </r>
       <r>  -13.0762    1.0000 </r>
       <r>  -12.8599    1.0000 </r>
       <r>  -12.6935    1.0000 </r>
       <r>  -12.3648    1.0000 </r>
       <r>  -11.9680    1.0000 </r>
       <r>  -11.7176    1.0000 </r>
       <r>  -11.3548    1.0000 </r>
       <r>  -11.3242    1.0000 </r>
       <r>  -10.8875    1.0000 </r>
       <r>  -10.5293    1.0000 </r>
       <r>   -8.8535    1.0000 </r>
       <r>   -8.6156    1.0000 </r>
       <r>   -8.0094    1.0000 </r>
       <r>   -7.7313    1.0000 </r>
       <r>   -6.7591    1.0000 </r>
       <r>   -6.7195    1.0000 </r>
       <r>   -6.4294    1.0000 </r>
       <r>   -6.0233    1.0000 </r>
       <r>   -5.7360    1.0000 </r>
       <r>   -5.4395    1.0000 </r>
       <r>   -4.9652    1.0000 </r>
       <r>   -4.8396    1.0000 </r>
       <r>   -4.6843    1.0000 </r>
       <r>   -4.3703    1.0000 </r>
       <r>   -3.6978    1.0000 </r>
       <r>   -3.6158    1.0000 </r>
       <r>   -3.5725    1.0000 </r>
       <r>   -3.3715    1.0000 </r>
       <r>   -3.2126    1.0000 </r>
       <r>   -3.1452    1.0000 </r>
       <r>   -3.0697    1.0000 </r>
       <r>   -2.9814    1.0000 </r>
       <r>   -2.7873    1.0000 </r>
       <r>   -2.6739    1.0000 </r>
       <r>   -2.5626    1.0000 </r>
       <r>   -2.4335    1.0000 </r>
       <r>   -2.3607    1.0000 </r>
       <r>   -2.1688    1.0000 </r>
       <r>   -2.1147    1.0000 </r>
       <r>   -1.9396    1.0000 </r>
       <r>   -1.9105    1.0000 </r>
       <r>   -1.8427    1.0000 </r>
       <r>   -1.7648    1.0000 </r>
       <r>   -1.7111    1.0000 </r>
       <r>   -1.5218    1.0000 </r>
       <r>   -1.4540    1.0000 </r>
       <r>   -1.1927    1.0000 </r>
       <r>   -1.0670    1.0000 </r>
       <r>   -0.9074    1.0000 </r>
       <r>   -0.5981    1.0000 </r>
       <r>   -0.3469    1.0000 </r>
       <r>    0.0463    0.1405 </r>
       <r>    0.4783    0.0000 </r>
       <r>    0.7680    0.0000 </r>
       <r>    1.0816    0.0000 </r>
       <r>    1.5080    0.0000 </r>
       <r>    1.6554    0.0000 </r>
       <r>    1.8069    0.0000 </r>
       <r>    1.8941    0.0000 </r>
       <r>    2.0409    0.0000 </r>
       <r>    2.1723    0.0000 </r>
       <r>    2.2380    0.0000 </r>
       <r>    2.2736    0.0000 </r>
       <r>    2.3403    0.0000 </r>
       <r>    2.5386    0.0000 </r>
       <r>    2.6655    0.0000 </r>
      </set>
      <set comment="kpoint 3">
       <r>  -14.7825    1.0000 </r>
       <r>  -13.2382    1.0000 </r>
       <r>  -12.9222    1.0000 </r>
       <r>  -12.6688    1.0000 </r>
       <r>  -12.5377    1.0000 </r>
       <r>  -12.2000    1.0000 </r>
       <r>  -11.7855    1.0000 </r>
       <r>  -11.5953    1.0000 </r>
       <r>  -11.1925    1.0000 </r>
       <r>  -11.1754    1.0000 </r>
       <r>  -10.7485    1.0000 </r>
       <r>  -10.4451    1.0000 </r>
       <r>   -8.7948    1.0000 </r>
       <r>   -8.5705    1.0000 </r>
       <r>   -8.1071    1.0000 </r>
       <r>   -7.6887    1.0000 </r>
       <r>   -6.7833    1.0000 </r>
       <r>   -6.6629    1.0000 </r>
       <r>   -6.4412    1.0000 </r>
       <r>   -6.0905    1.0000 </r>
       <r>   -5.7821    1.0000 </r>
       <r>   -5.6610    1.0000 </r>
       <r>   -5.1549    1.0000 </r>
       <r>   -4.9716    1.0000 </r>
       <r>   -4.8162    1.0000 </r>
       <r>   -4.5494    1.0000 </r>
       <r>   -4.2354    1.0000 </r>
       <r>   -4.1378    1.0000 </r>
       <r>   -4.0237    1.0000 </r>
       <r>   -3.9124    1.0000 </r>
       <r>   -3.6628    1.0000 </r>
       <r>   -3.5631    1.0000 </r>
       <r>   -3.4820    1.0000 </r>
       <r>   -3.2650    1.0000 </r>
       <r>   -3.1293    1.0000 </r>
       <r>   -3.0538    1.0000 </r>
       <r>   -2.9542    1.0000 </r>
       <r>   -2.9066    1.0000 </r>
       <r>   -2.8402    1.0000 </r>
       <r>   -2.6621    1.0000 </r>
       <r>   -2.3346    1.0000 </r>
       <r>   -2.2159    1.0000 </r>
       <r>   -2.1087    1.0000 </r>
       <r>   -2.0133    1.0000 </r>
       <r>   -1.8319    1.0000 </r>
       <r>   -1.7550    1.0000 </r>
       <r>   -1.6153    1.0000 </r>
       <r>   -1.5648    1.0000 </r>
       <r>   -1.2312    1.0000 </r>
       <r>   -1.1073    1.0000 </r>
       <r>   -0.9398    1.0000 </r>
       <r>   -0.5751    1.0000 </r>
       <r>   -0.4115    1.0000 </r>
       <r>   -0.2304    0.9977 </r>
       <r>    0.4384    0.0000 </r>
       <r>    1.0145    0.0000 </r>
       <r>    1.1319    0.0000 </r>
       <r>    1.6905    0.0000 </r>
       <r>    1.9237    0.0000 </r>
       <r>    2.0436    0.0000 </r>
       <r>    2.2712    0.0000 </r>
       <r>    2.3220    0.0000 </r>
       <r>    2.4863    0.0000 </r>
       <r>    2.6764    0.0000 </r>
       <r>    2.7145    0.0000 </r>
       <r>    2.8666    0.0000 </r>
       <r>    2.9841    0.0000 </r>
       <r>    3.0762    0.0000 </r>
      </set>
      <set comment="kpoint 4">
       <r>  -14.5411    1.0000 </r>
       <r>  -12.9371    1.0000 </r>
       <r>  -12.6653    1.0000 </r>
       <r>  -12.3658    1.0000 </r>
       <r>  -12.2816    1.0000 </r>
       <r>  -11.9333    1.0000 </r>
       <r>  -11.4982    1.0000 </r>
       <r>  -11.4025    1.0000 </r>
       <r>  -10.9702    1.0000 </r>
       <r>  -10.9265    1.0000 </r>
       <r>  -10.5452    1.0000 </r>
       <r>  -10.3414    1.0000 </r>
       <r>   -8.7744    1.0000 </r>
       <r>   -8.5188    1.0000 </r>
       <r>   -8.2990    1.0000 </r>
       <r>   -7.7633    1.0000 </r>
       <r>   -7.0359    1.0000 </r>
       <r>   -6.7163    1.0000 </r>
       <r>   -6.6292    1.0000 </r>
       <r>   -6.5742    1.0000 </r>
       <r>   -6.0496    1.0000 </r>
       <r>   -5.6832    1.0000 </r>
       <r>   -5.3744    1.0000 </r>
       <r>   -5.2804    1.0000 </r>
       <r>   -5.0968    1.0000 </r>
       <r>   -4.9969    1.0000 </r>
       <r>   -4.7520    1.0000 </r>
       <r>   -4.5485    1.0000 </r>
       <r>   -4.4552    1.0000 </r>
       <r>   -4.3097    1.0000 </r>
       <r>   -4.1430    1.0000 </r>
       <r>   -3.9587    1.0000 </r>
       <r>   -3.8834    1.0000 </r>
       <r>   -3.7187    1.0000 </r>
       <r>   -3.6802    1.0000 </r>
       <r>   -3.4119    1.0000 </r>
       <r>   -3.1914    1.0000 </r>
       <r>   -2.9832    1.0000 </r>
       <r>   -2.9364    1.0000 </r>
       <r>   -2.7640    1.0000 </r>
       <r>   -2.5519    1.0000 </r>
       <r>   -2.5165    1.0000 </r>
       <r>   -2.3804    1.0000 </r>
       <r>   -1.9607    1.0000 </r>
       <r>   -1.8638    1.0000 </r>
       <r>   -1.8145    1.0000 </r>
       <r>   -1.7508    1.0000 </r>
       <r>   -1.6418    1.0000 </r>
       <r>   -1.4248    1.0000 </r>
       <r>   -1.3442    1.0000 </r>
       <r>   -1.0806    1.0000 </r>
       <r>   -0.8538    1.0000 </r>
       <r>   -0.7685    1.0000 </r>
       <r>   -0.2793    0.9998 </r>
       <r>    0.3201    0.0000 </r>
       <r>    0.7911    0.0000 </r>
       <r>    1.1436    0.0000 </r>
       <r>    1.6396    0.0000 </r>
       <r>    1.9238    0.0000 </r>
       <r>    2.0467    0.0000 </r>
       <r>    2.2201    0.0000 </r>
       <r>    2.3112    0.0000 </r>
       <r>    2.4252    0.0000 </r>
       <r>    2.6954    0.0000 </r>
       <r>    2.7286    0.0000 </r>
       <r>    2.8765    0.0000 </r>
       <r>    2.9390    0.0000 </r>
       <r>    3.0106    0.0000 </r>
      </set>
      <set comment="kpoint 5">
       <r>  -14.2357    1.0000 </r>
       <r>  -12.5253    1.0000 </r>
       <r>  -12.3138    1.0000 </r>
       <r>  -11.9764    1.0000 </r>
       <r>  -11.9334    1.0000 </r>
       <r>  -11.5815    1.0000 </r>
       <r>  -11.1831    1.0000 </r>
       <r>  -11.1338    1.0000 </r>
       <r>  -10.7258    1.0000 </r>
       <r>  -10.6562    1.0000 </r>
       <r>  -10.3587    1.0000 </r>
       <r>  -10.2713    1.0000 </r>
       <r>   -8.8627    1.0000 </r>
       <r>   -8.5982    1.0000 </r>
       <r>   -8.5101    1.0000 </r>
       <r>   -8.0249    1.0000 </r>
       <r>   -7.6018    1.0000 </r>
       <r>   -7.1975    1.0000 </r>
       <r>   -6.9353    1.0000 </r>
       <r>   -6.8426    1.0000 </r>
       <r>   -6.5274    1.0000 </r>
       <r>   -6.1097    1.0000 </r>
       <r>   -5.9037    1.0000 </r>
       <r>   -5.7384    1.0000 </r>
       <r>   -5.5939    1.0000 </r>
       <r>   -5.1546    1.0000 </r>
       <r>   -4.8869    1.0000 </r>
       <r>   -4.7264    1.0000 </r>
       <r>   -4.6422    1.0000 </r>
       <r>   -4.4171    1.0000 </r>
       <r>   -4.2534    1.0000 </r>
       <r>   -4.1976    1.0000 </r>
       <r>   -4.1456    1.0000 </r>
       <r>   -3.8826    1.0000 </r>
       <r>   -3.7125    1.0000 </r>
       <r>   -3.5283    1.0000 </r>
       <r>   -3.3302    1.0000 </r>
       <r>   -3.1479    1.0000 </r>
       <r>   -3.0260    1.0000 </r>
       <r>   -2.8897    1.0000 </r>
       <r>   -2.7049    1.0000 </r>
       <r>   -2.5758    1.0000 </r>
       <r>   -2.5183    1.0000 </r>
       <r>   -2.2457    1.0000 </r>
       <r>   -2.0129    1.0000 </r>
       <r>   -1.8900    1.0000 </r>
       <r>   -1.8264    1.0000 </r>
       <r>   -1.8109    1.0000 </r>
       <r>   -1.6708    1.0000 </r>
       <r>   -1.6201    1.0000 </r>
       <r>   -1.3375    1.0000 </r>
       <r>   -1.1034    1.0000 </r>
       <r>   -0.7398    1.0000 </r>
       <r>   -0.2508    0.9991 </r>
       <r>    0.0862    0.0503 </r>
       <r>    0.5552    0.0000 </r>
       <r>    0.8915    0.0000 </r>
       <r>    1.4329    0.0000 </r>
       <r>    1.6543    0.0000 </r>
       <r>    1.8318    0.0000 </r>
       <r>    1.9513    0.0000 </r>
       <r>    2.0613    0.0000 </r>
       <r>    2.2783    0.0000 </r>
       <r>    2.4160    0.0000 </r>
       <r>    2.4964    0.0000 </r>
       <r>    2.7162    0.0000 </r>
       <r>    2.8263    0.0000 </r>
       <r>    2.8761    0.0000 </r>
      </set>
      <set comment="kpoint 6">
       <r>  -13.9201    1.0000 </r>
       <r>  -12.0168    1.0000 </r>
       <r>  -11.8936    1.0000 </r>
       <r>  -11.5630    1.0000 </r>
       <r>  -11.5145    1.0000 </r>
       <r>  -11.1835    1.0000 </r>
       <r>  -11.0179    1.0000 </r>
       <r>  -10.7927    1.0000 </r>
       <r>  -10.5724    1.0000 </r>
       <r>  -10.5529    1.0000 </r>
       <r>  -10.3977    1.0000 </r>
       <r>  -10.2024    1.0000 </r>
       <r>   -8.9998    1.0000 </r>
       <r>   -8.7736    1.0000 </r>
       <r>   -8.6121    1.0000 </r>
       <r>   -8.3176    1.0000 </r>
       <r>   -8.0110    1.0000 </r>
       <r>   -7.6583    1.0000 </r>
       <r>   -7.4017    1.0000 </r>
       <r>   -7.3545    1.0000 </r>
       <r>   -7.0477    1.0000 </r>
       <r>   -6.7065    1.0000 </r>
       <r>   -6.6020    1.0000 </r>
       <r>   -6.2115    1.0000 </r>
       <r>   -5.7203    1.0000 </r>
       <r>   -5.1546    1.0000 </r>
       <r>   -4.7608    1.0000 </r>
       <r>   -4.5793    1.0000 </r>
       <r>   -4.4765    1.0000 </r>
       <r>   -4.3695    1.0000 </r>
       <r>   -4.2420    1.0000 </r>
       <r>   -4.1765    1.0000 </r>
       <r>   -4.1033    1.0000 </r>
       <r>   -4.0132    1.0000 </r>
       <r>   -3.6285    1.0000 </r>
       <r>   -3.5926    1.0000 </r>
       <r>   -3.5064    1.0000 </r>
       <r>   -3.2175    1.0000 </r>
       <r>   -3.2062    1.0000 </r>
       <r>   -3.0940    1.0000 </r>
       <r>   -2.8161    1.0000 </r>
       <r>   -2.7222    1.0000 </r>
       <r>   -2.5047    1.0000 </r>
       <r>   -2.4557    1.0000 </r>
       <r>   -2.2536    1.0000 </r>
       <r>   -2.1490    1.0000 </r>
       <r>   -2.0116    1.0000 </r>
       <r>   -1.9699    1.0000 </r>
       <r>   -1.7991    1.0000 </r>
       <r>   -1.7700    1.0000 </r>
       <r>   -1.4323    1.0000 </r>
       <r>   -1.2329    1.0000 </r>
       <r>   -0.6580    1.0000 </r>
       <r>   -0.2047    0.9933 </r>
       <r>   -0.1483    0.9529 </r>
       <r>    0.4369    0.0000 </r>
       <r>    0.5948    0.0000 </r>
       <r>    1.2235    0.0000 </r>
       <r>    1.4746    0.0000 </r>
       <r>    1.6850    0.0000 </r>
       <r>    1.7571    0.0000 </r>
       <r>    1.8186    0.0000 </r>
       <r>    2.1226    0.0000 </r>
       <r>    2.2747    0.0000 </r>
       <r>    2.3233    0.0000 </r>
       <r>    2.3699    0.0000 </r>
       <r>    2.5819    0.0000 </r>
       <r>    2.7549    0.0000 </r>
      </set>
      <set comment="kpoint 7">
       <r>  -13.6990    1.0000 </r>
       <r>  -11.4864    1.0000 </r>
       <r>  -11.4429    1.0000 </r>
       <r>  -11.2858    1.0000 </r>
       <r>  -11.0927    1.0000 </r>
       <r>  -11.0710    1.0000 </r>
       <r>  -10.8821    1.0000 </r>
       <r>  -10.7868    1.0000 </r>
       <r>  -10.6738    1.0000 </r>
       <r>  -10.5764    1.0000 </r>
       <r>  -10.5117    1.0000 </r>
       <r>  -10.2204    1.0000 </r>
       <r>   -9.1377    1.0000 </r>
       <r>   -8.6333    1.0000 </r>
       <r>   -8.5593    1.0000 </r>
       <r>   -8.3800    1.0000 </r>
       <r>   -8.2733    1.0000 </r>
       <r>   -8.0212    1.0000 </r>
       <r>   -7.8805    1.0000 </r>
       <r>   -7.5309    1.0000 </r>
       <r>   -7.5044    1.0000 </r>
       <r>   -7.2265    1.0000 </r>
       <r>   -7.1268    1.0000 </r>
       <r>   -6.4308    1.0000 </r>
       <r>   -5.5867    1.0000 </r>
       <r>   -4.9111    1.0000 </r>
       <r>   -4.8549    1.0000 </r>
       <r>   -4.5894    1.0000 </r>
       <r>   -4.4491    1.0000 </r>
       <r>   -4.2510    1.0000 </r>
       <r>   -4.1065    1.0000 </r>
       <r>   -4.0097    1.0000 </r>
       <r>   -3.9513    1.0000 </r>
       <r>   -3.8668    1.0000 </r>
       <r>   -3.7766    1.0000 </r>
       <r>   -3.5690    1.0000 </r>
       <r>   -3.5098    1.0000 </r>
       <r>   -3.4048    1.0000 </r>
       <r>   -3.2612    1.0000 </r>
       <r>   -3.2017    1.0000 </r>
       <r>   -2.9571    1.0000 </r>
       <r>   -2.9092    1.0000 </r>
       <r>   -2.7381    1.0000 </r>
       <r>   -2.6262    1.0000 </r>
       <r>   -2.3581    1.0000 </r>
       <r>   -2.2794    1.0000 </r>
       <r>   -2.1143    1.0000 </r>
       <r>   -2.0497    1.0000 </r>
       <r>   -1.8326    1.0000 </r>
       <r>   -1.6758    1.0000 </r>
       <r>   -1.5014    1.0000 </r>
       <r>   -1.3193    1.0000 </r>
       <r>   -0.6732    1.0000 </r>
       <r>   -0.2738    0.9997 </r>
       <r>   -0.1148    0.8849 </r>
       <r>    0.2386    0.0001 </r>
       <r>    0.6031    0.0000 </r>
       <r>    1.1072    0.0000 </r>
       <r>    1.4178    0.0000 </r>
       <r>    1.5131    0.0000 </r>
       <r>    1.6355    0.0000 </r>
       <r>    1.7423    0.0000 </r>
       <r>    1.9219    0.0000 </r>
       <r>    2.0523    0.0000 </r>
       <r>    2.1614    0.0000 </r>
       <r>    2.4294    0.0000 </r>
       <r>    2.5272    0.0000 </r>
       <r>    2.6161    0.0000 </r>
      </set>
      <set comment="kpoint 8">
       <r>  -14.9838    1.0000 </r>
       <r>  -13.4269    1.0000 </r>
       <r>  -13.2542    1.0000 </r>
       <r>  -12.9195    1.0000 </r>
       <r>  -12.7126    1.0000 </r>
       <r>  -12.4185    1.0000 </r>
       <r>  -11.9793    1.0000 </r>
       <r>  -11.8156    1.0000 </r>
       <r>  -11.4214    1.0000 </r>
       <r>  -11.2776    1.0000 </r>
       <r>  -10.9442    1.0000 </r>
       <r>  -10.5025    1.0000 </r>
       <r>   -9.0679    1.0000 </r>
       <r>   -8.5466    1.0000 </r>
       <r>   -8.4561    1.0000 </r>
       <r>   -7.3211    1.0000 </r>
       <r>   -6.7719    1.0000 </r>
       <r>   -6.6135    1.0000 </r>
       <r>   -6.5442    1.0000 </r>
       <r>   -5.9480    1.0000 </r>
       <r>   -5.6937    1.0000 </r>
       <r>   -5.4312    1.0000 </r>
       <r>   -4.9607    1.0000 </r>
       <r>   -4.6123    1.0000 </r>
       <r>   -4.4187    1.0000 </r>
       <r>   -4.1104    1.0000 </r>
       <r>   -3.9567    1.0000 </r>
       <r>   -3.5903    1.0000 </r>
       <r>   -3.3824    1.0000 </r>
       <r>   -3.2108    1.0000 </r>
       <r>   -3.0694    1.0000 </r>
       <r>   -3.0625    1.0000 </r>
       <r>   -2.9523    1.0000 </r>
       <r>   -2.6542    1.0000 </r>
       <r>   -2.6043    1.0000 </r>
       <r>   -2.4132    1.0000 </r>
       <r>   -2.3293    1.0000 </r>
       <r>   -2.3035    1.0000 </r>
       <r>   -2.1461    1.0000 </r>
       <r>   -2.0861    1.0000 </r>
       <r>   -2.0048    1.0000 </r>
       <r>   -1.8520    1.0000 </r>
       <r>   -1.8279    1.0000 </r>
       <r>   -1.6957    1.0000 </r>
       <r>   -1.5694    1.0000 </r>
       <r>   -1.5432    1.0000 </r>
       <r>   -1.3607    1.0000 </r>
       <r>   -1.3071    1.0000 </r>
       <r>   -1.2309    1.0000 </r>
       <r>   -1.0681    1.0000 </r>
       <r>   -0.9261    1.0000 </r>
       <r>   -0.8615    1.0000 </r>
       <r>   -0.3224    1.0000 </r>
       <r>    0.1243    0.0146 </r>
       <r>    0.4967    0.0000 </r>
       <r>    0.7521    0.0000 </r>
       <r>    1.1120    0.0000 </r>
       <r>    1.2364    0.0000 </r>
       <r>    1.3854    0.0000 </r>
       <r>    1.4524    0.0000 </r>
       <r>    1.6998    0.0000 </r>
       <r>    1.7847    0.0000 </r>
       <r>    1.8639    0.0000 </r>
       <r>    1.9145    0.0000 </r>
       <r>    2.2415    0.0000 </r>
       <r>    2.3113    0.0000 </r>
       <r>    2.3889    0.0000 </r>
       <r>    2.5950    0.0000 </r>
      </set>
      <set comment="kpoint 9">
       <r>  -14.9315    1.0000 </r>
       <r>  -13.3498    1.0000 </r>
       <r>  -13.2154    1.0000 </r>
       <r>  -12.9005    1.0000 </r>
       <r>  -12.6099    1.0000 </r>
       <r>  -12.3611    1.0000 </r>
       <r>  -11.9766    1.0000 </r>
       <r>  -11.7162    1.0000 </r>
       <r>  -11.3799    1.0000 </r>
       <r>  -11.2050    1.0000 </r>
       <r>  -10.8998    1.0000 </r>
       <r>  -10.4600    1.0000 </r>
       <r>   -9.0689    1.0000 </r>
       <r>   -8.5286    1.0000 </r>
       <r>   -8.5069    1.0000 </r>
       <r>   -7.2723    1.0000 </r>
       <r>   -6.7721    1.0000 </r>
       <r>   -6.6217    1.0000 </r>
       <r>   -6.4740    1.0000 </r>
       <r>   -5.9191    1.0000 </r>
       <r>   -5.6459    1.0000 </r>
       <r>   -5.4158    1.0000 </r>
       <r>   -4.9733    1.0000 </r>
       <r>   -4.7309    1.0000 </r>
       <r>   -4.6348    1.0000 </r>
       <r>   -4.2528    1.0000 </r>
       <r>   -4.0127    1.0000 </r>
       <r>   -3.6376    1.0000 </r>
       <r>   -3.5650    1.0000 </r>
       <r>   -3.4753    1.0000 </r>
       <r>   -3.3372    1.0000 </r>
       <r>   -3.2022    1.0000 </r>
       <r>   -3.0854    1.0000 </r>
       <r>   -2.9617    1.0000 </r>
       <r>   -2.8797    1.0000 </r>
       <r>   -2.6411    1.0000 </r>
       <r>   -2.5105    1.0000 </r>
       <r>   -2.4470    1.0000 </r>
       <r>   -2.3895    1.0000 </r>
       <r>   -2.2424    1.0000 </r>
       <r>   -2.1236    1.0000 </r>
       <r>   -1.9953    1.0000 </r>
       <r>   -1.9637    1.0000 </r>
       <r>   -1.8385    1.0000 </r>
       <r>   -1.7522    1.0000 </r>
       <r>   -1.6936    1.0000 </r>
       <r>   -1.5627    1.0000 </r>
       <r>   -1.3006    1.0000 </r>
       <r>   -1.2089    1.0000 </r>
       <r>   -1.0025    1.0000 </r>
       <r>   -0.8434    1.0000 </r>
       <r>   -0.6286    1.0000 </r>
       <r>   -0.2785    0.9998 </r>
       <r>    0.0717    0.0754 </r>
       <r>    0.3650    0.0000 </r>
       <r>    0.9009    0.0000 </r>
       <r>    1.1087    0.0000 </r>
       <r>    1.5237    0.0000 </r>
       <r>    1.6617    0.0000 </r>
       <r>    1.7843    0.0000 </r>
       <r>    1.8727    0.0000 </r>
       <r>    1.9983    0.0000 </r>
       <r>    2.0235    0.0000 </r>
       <r>    2.1979    0.0000 </r>
       <r>    2.2707    0.0000 </r>
       <r>    2.5735    0.0000 </r>
       <r>    2.7035    0.0000 </r>
       <r>    2.7737    0.0000 </r>
      </set>
      <set comment="kpoint 10">
       <r>  -14.7791    1.0000 </r>
       <r>  -13.1531    1.0000 </r>
       <r>  -13.0578    1.0000 </r>
       <r>  -12.7642    1.0000 </r>
       <r>  -12.3999    1.0000 </r>
       <r>  -12.1944    1.0000 </r>
       <r>  -11.8721    1.0000 </r>
       <r>  -11.5183    1.0000 </r>
       <r>  -11.2404    1.0000 </r>
       <r>  -11.0458    1.0000 </r>
       <r>  -10.7584    1.0000 </r>
       <r>  -10.3671    1.0000 </r>
       <r>   -9.0028    1.0000 </r>
       <r>   -8.5834    1.0000 </r>
       <r>   -8.4866    1.0000 </r>
       <r>   -7.2430    1.0000 </r>
       <r>   -6.8009    1.0000 </r>
       <r>   -6.5990    1.0000 </r>
       <r>   -6.4428    1.0000 </r>
       <r>   -6.0308    1.0000 </r>
       <r>   -5.7033    1.0000 </r>
       <r>   -5.5986    1.0000 </r>
       <r>   -5.1902    1.0000 </r>
       <r>   -4.9453    1.0000 </r>
       <r>   -4.7899    1.0000 </r>
       <r>   -4.5484    1.0000 </r>
       <r>   -4.3221    1.0000 </r>
       <r>   -4.2337    1.0000 </r>
       <r>   -4.0454    1.0000 </r>
       <r>   -3.8975    1.0000 </r>
       <r>   -3.7439    1.0000 </r>
       <r>   -3.5462    1.0000 </r>
       <r>   -3.5138    1.0000 </r>
       <r>   -3.2513    1.0000 </r>
       <r>   -3.1127    1.0000 </r>
       <r>   -3.0212    1.0000 </r>
       <r>   -2.9071    1.0000 </r>
       <r>   -2.8406    1.0000 </r>
       <r>   -2.7461    1.0000 </r>
       <r>   -2.6798    1.0000 </r>
       <r>   -2.5423    1.0000 </r>
       <r>   -2.3640    1.0000 </r>
       <r>   -2.2602    1.0000 </r>
       <r>   -1.9750    1.0000 </r>
       <r>   -1.8575    1.0000 </r>
       <r>   -1.7364    1.0000 </r>
       <r>   -1.6023    1.0000 </r>
       <r>   -1.4262    1.0000 </r>
       <r>   -1.1822    1.0000 </r>
       <r>   -1.0476    1.0000 </r>
       <r>   -0.8783    1.0000 </r>
       <r>   -0.6276    1.0000 </r>
       <r>   -0.4171    1.0000 </r>
       <r>   -0.1847    0.9857 </r>
       <r>    0.2781    0.0000 </r>
       <r>    0.9592    0.0000 </r>
       <r>    1.1718    0.0000 </r>
       <r>    1.6239    0.0000 </r>
       <r>    1.8350    0.0000 </r>
       <r>    2.0306    0.0000 </r>
       <r>    2.1714    0.0000 </r>
       <r>    2.2874    0.0000 </r>
       <r>    2.4294    0.0000 </r>
       <r>    2.7063    0.0000 </r>
       <r>    2.8003    0.0000 </r>
       <r>    2.9225    0.0000 </r>
       <r>    3.0556    0.0000 </r>
       <r>    3.1254    0.0000 </r>
      </set>
      <set comment="kpoint 11">
       <r>  -14.5380    1.0000 </r>
       <r>  -12.8415    1.0000 </r>
       <r>  -12.7857    1.0000 </r>
       <r>  -12.5130    1.0000 </r>
       <r>  -12.0954    1.0000 </r>
       <r>  -11.9263    1.0000 </r>
       <r>  -11.6757    1.0000 </r>
       <r>  -11.2416    1.0000 </r>
       <r>  -11.0185    1.0000 </r>
       <r>  -10.8295    1.0000 </r>
       <r>  -10.5409    1.0000 </r>
       <r>  -10.2558    1.0000 </r>
       <r>   -8.9071    1.0000 </r>
       <r>   -8.7140    1.0000 </r>
       <r>   -8.4925    1.0000 </r>
       <r>   -7.3328    1.0000 </r>
       <r>   -7.0576    1.0000 </r>
       <r>   -6.6851    1.0000 </r>
       <r>   -6.6364    1.0000 </r>
       <r>   -6.5822    1.0000 </r>
       <r>   -5.9954    1.0000 </r>
       <r>   -5.7685    1.0000 </r>
       <r>   -5.3274    1.0000 </r>
       <r>   -5.1879    1.0000 </r>
       <r>   -5.1386    1.0000 </r>
       <r>   -4.9953    1.0000 </r>
       <r>   -4.9110    1.0000 </r>
       <r>   -4.6091    1.0000 </r>
       <r>   -4.4974    1.0000 </r>
       <r>   -4.4565    1.0000 </r>
       <r>   -4.0887    1.0000 </r>
       <r>   -3.9597    1.0000 </r>
       <r>   -3.7010    1.0000 </r>
       <r>   -3.5870    1.0000 </r>
       <r>   -3.5130    1.0000 </r>
       <r>   -3.3592    1.0000 </r>
       <r>   -3.1566    1.0000 </r>
       <r>   -3.0363    1.0000 </r>
       <r>   -2.9111    1.0000 </r>
       <r>   -2.7331    1.0000 </r>
       <r>   -2.6646    1.0000 </r>
       <r>   -2.5242    1.0000 </r>
       <r>   -2.4681    1.0000 </r>
       <r>   -1.9807    1.0000 </r>
       <r>   -1.9235    1.0000 </r>
       <r>   -1.8090    1.0000 </r>
       <r>   -1.7384    1.0000 </r>
       <r>   -1.6714    1.0000 </r>
       <r>   -1.3508    1.0000 </r>
       <r>   -1.2684    1.0000 </r>
       <r>   -1.1096    1.0000 </r>
       <r>   -0.9028    1.0000 </r>
       <r>   -0.7880    1.0000 </r>
       <r>   -0.2586    0.9994 </r>
       <r>    0.1853    0.0012 </r>
       <r>    0.5899    0.0000 </r>
       <r>    1.2084    0.0000 </r>
       <r>    1.4769    0.0000 </r>
       <r>    1.6138    0.0000 </r>
       <r>    1.7888    0.0000 </r>
       <r>    2.1100    0.0000 </r>
       <r>    2.2837    0.0000 </r>
       <r>    2.4549    0.0000 </r>
       <r>    2.6332    0.0000 </r>
       <r>    2.7527    0.0000 </r>
       <r>    2.8955    0.0000 </r>
       <r>    3.0808    0.0000 </r>
       <r>    3.2286    0.0000 </r>
      </set>
      <set comment="kpoint 12">
       <r>  -14.2335    1.0000 </r>
       <r>  -12.4251    1.0000 </r>
       <r>  -12.4090    1.0000 </r>
       <r>  -12.1543    1.0000 </r>
       <r>  -11.7283    1.0000 </r>
       <r>  -11.5749    1.0000 </r>
       <r>  -11.4153    1.0000 </r>
       <r>  -10.9278    1.0000 </r>
       <r>  -10.7549    1.0000 </r>
       <r>  -10.6303    1.0000 </r>
       <r>  -10.3350    1.0000 </r>
       <r>  -10.1783    1.0000 </r>
       <r>   -8.9136    1.0000 </r>
       <r>   -8.8609    1.0000 </r>
       <r>   -8.5587    1.0000 </r>
       <r>   -7.6612    1.0000 </r>
       <r>   -7.6379    1.0000 </r>
       <r>   -7.1683    1.0000 </r>
       <r>   -7.0541    1.0000 </r>
       <r>   -6.9009    1.0000 </r>
       <r>   -6.5176    1.0000 </r>
       <r>   -6.1377    1.0000 </r>
       <r>   -5.8588    1.0000 </r>
       <r>   -5.7432    1.0000 </r>
       <r>   -5.5565    1.0000 </r>
       <r>   -5.3252    1.0000 </r>
       <r>   -4.8864    1.0000 </r>
       <r>   -4.8466    1.0000 </r>
       <r>   -4.7033    1.0000 </r>
       <r>   -4.3634    1.0000 </r>
       <r>   -4.2663    1.0000 </r>
       <r>   -4.1418    1.0000 </r>
       <r>   -3.9586    1.0000 </r>
       <r>   -3.8513    1.0000 </r>
       <r>   -3.6483    1.0000 </r>
       <r>   -3.3908    1.0000 </r>
       <r>   -3.2790    1.0000 </r>
       <r>   -2.9525    1.0000 </r>
       <r>   -2.9088    1.0000 </r>
       <r>   -2.8036    1.0000 </r>
       <r>   -2.7418    1.0000 </r>
       <r>   -2.6781    1.0000 </r>
       <r>   -2.4389    1.0000 </r>
       <r>   -2.2837    1.0000 </r>
       <r>   -2.2033    1.0000 </r>
       <r>   -1.9343    1.0000 </r>
       <r>   -1.8655    1.0000 </r>
       <r>   -1.8310    1.0000 </r>
       <r>   -1.7099    1.0000 </r>
       <r>   -1.6518    1.0000 </r>
       <r>   -1.3390    1.0000 </r>
       <r>   -1.1428    1.0000 </r>
       <r>   -0.7411    1.0000 </r>
       <r>   -0.2715    0.9997 </r>
       <r>    0.0423    0.1534 </r>
       <r>    0.3456    0.0000 </r>
       <r>    0.8196    0.0000 </r>
       <r>    1.2563    0.0000 </r>
       <r>    1.3208    0.0000 </r>
       <r>    1.5372    0.0000 </r>
       <r>    1.9536    0.0000 </r>
       <r>    2.1717    0.0000 </r>
       <r>    2.2373    0.0000 </r>
       <r>    2.3645    0.0000 </r>
       <r>    2.5165    0.0000 </r>
       <r>    2.6759    0.0000 </r>
       <r>    2.7399    0.0000 </r>
       <r>    3.0270    0.0000 </r>
      </set>
      <set comment="kpoint 13">
       <r>  -13.9190    1.0000 </r>
       <r>  -11.9533    1.0000 </r>
       <r>  -11.9199    1.0000 </r>
       <r>  -11.7046    1.0000 </r>
       <r>  -11.3939    1.0000 </r>
       <r>  -11.1848    1.0000 </r>
       <r>  -11.1650    1.0000 </r>
       <r>  -10.6700    1.0000 </r>
       <r>  -10.5507    1.0000 </r>
       <r>  -10.5334    1.0000 </r>
       <r>  -10.4106    1.0000 </r>
       <r>  -10.1740    1.0000 </r>
       <r>   -8.9622    1.0000 </r>
       <r>   -8.9038    1.0000 </r>
       <r>   -8.6100    1.0000 </r>
       <r>   -8.0937    1.0000 </r>
       <r>   -8.0495    1.0000 </r>
       <r>   -7.7246    1.0000 </r>
       <r>   -7.5754    1.0000 </r>
       <r>   -7.2955    1.0000 </r>
       <r>   -7.1148    1.0000 </r>
       <r>   -6.6370    1.0000 </r>
       <r>   -6.6063    1.0000 </r>
       <r>   -6.2681    1.0000 </r>
       <r>   -5.6240    1.0000 </r>
       <r>   -5.2883    1.0000 </r>
       <r>   -4.7598    1.0000 </r>
       <r>   -4.7199    1.0000 </r>
       <r>   -4.5883    1.0000 </r>
       <r>   -4.3972    1.0000 </r>
       <r>   -4.2784    1.0000 </r>
       <r>   -4.0612    1.0000 </r>
       <r>   -4.0328    1.0000 </r>
       <r>   -3.8021    1.0000 </r>
       <r>   -3.6228    1.0000 </r>
       <r>   -3.3581    1.0000 </r>
       <r>   -3.2938    1.0000 </r>
       <r>   -3.2254    1.0000 </r>
       <r>   -3.0699    1.0000 </r>
       <r>   -3.0186    1.0000 </r>
       <r>   -2.8974    1.0000 </r>
       <r>   -2.7841    1.0000 </r>
       <r>   -2.5922    1.0000 </r>
       <r>   -2.4288    1.0000 </r>
       <r>   -2.2733    1.0000 </r>
       <r>   -2.1635    1.0000 </r>
       <r>   -2.0234    1.0000 </r>
       <r>   -2.0100    1.0000 </r>
       <r>   -1.9035    1.0000 </r>
       <r>   -1.7856    1.0000 </r>
       <r>   -1.4724    1.0000 </r>
       <r>   -1.3143    1.0000 </r>
       <r>   -0.6634    1.0000 </r>
       <r>   -0.3242    1.0000 </r>
       <r>   -0.0500    0.6118 </r>
       <r>    0.2922    0.0000 </r>
       <r>    0.4939    0.0000 </r>
       <r>    1.1832    0.0000 </r>
       <r>    1.3046    0.0000 </r>
       <r>    1.3994    0.0000 </r>
       <r>    1.7905    0.0000 </r>
       <r>    1.8804    0.0000 </r>
       <r>    2.0070    0.0000 </r>
       <r>    2.1246    0.0000 </r>
       <r>    2.2521    0.0000 </r>
       <r>    2.4749    0.0000 </r>
       <r>    2.6606    0.0000 </r>
       <r>    2.7228    0.0000 </r>
      </set>
      <set comment="kpoint 14">
       <r>  -13.6988    1.0000 </r>
       <r>  -11.4817    1.0000 </r>
       <r>  -11.3708    1.0000 </r>
       <r>  -11.2836    1.0000 </r>
       <r>  -11.2099    1.0000 </r>
       <r>  -11.0985    1.0000 </r>
       <r>  -10.8956    1.0000 </r>
       <r>  -10.8063    1.0000 </r>
       <r>  -10.6450    1.0000 </r>
       <r>  -10.5217    1.0000 </r>
       <r>  -10.4434    1.0000 </r>
       <r>  -10.2694    1.0000 </r>
       <r>   -9.1568    1.0000 </r>
       <r>   -8.5648    1.0000 </r>
       <r>   -8.4978    1.0000 </r>
       <r>   -8.3435    1.0000 </r>
       <r>   -8.2709    1.0000 </r>
       <r>   -8.1859    1.0000 </r>
       <r>   -7.8625    1.0000 </r>
       <r>   -7.6088    1.0000 </r>
       <r>   -7.4563    1.0000 </r>
       <r>   -7.2549    1.0000 </r>
       <r>   -7.0875    1.0000 </r>
       <r>   -6.4723    1.0000 </r>
       <r>   -5.5143    1.0000 </r>
       <r>   -4.9659    1.0000 </r>
       <r>   -4.8813    1.0000 </r>
       <r>   -4.6494    1.0000 </r>
       <r>   -4.4215    1.0000 </r>
       <r>   -4.2555    1.0000 </r>
       <r>   -4.1004    1.0000 </r>
       <r>   -4.0479    1.0000 </r>
       <r>   -3.9851    1.0000 </r>
       <r>   -3.8726    1.0000 </r>
       <r>   -3.6086    1.0000 </r>
       <r>   -3.5189    1.0000 </r>
       <r>   -3.4443    1.0000 </r>
       <r>   -3.3873    1.0000 </r>
       <r>   -3.2760    1.0000 </r>
       <r>   -3.2036    1.0000 </r>
       <r>   -2.9580    1.0000 </r>
       <r>   -2.9330    1.0000 </r>
       <r>   -2.6282    1.0000 </r>
       <r>   -2.5583    1.0000 </r>
       <r>   -2.5040    1.0000 </r>
       <r>   -2.2248    1.0000 </r>
       <r>   -2.0901    1.0000 </r>
       <r>   -2.0519    1.0000 </r>
       <r>   -1.9078    1.0000 </r>
       <r>   -1.6798    1.0000 </r>
       <r>   -1.5336    1.0000 </r>
       <r>   -1.3803    1.0000 </r>
       <r>   -0.6819    1.0000 </r>
       <r>   -0.3184    1.0000 </r>
       <r>   -0.0762    0.7434 </r>
       <r>    0.1611    0.0035 </r>
       <r>    0.5615    0.0000 </r>
       <r>    1.1560    0.0000 </r>
       <r>    1.4709    0.0000 </r>
       <r>    1.5494    0.0000 </r>
       <r>    1.5843    0.0000 </r>
       <r>    1.6216    0.0000 </r>
       <r>    1.8400    0.0000 </r>
       <r>    2.0666    0.0000 </r>
       <r>    2.1955    0.0000 </r>
       <r>    2.3740    0.0000 </r>
       <r>    2.4926    0.0000 </r>
       <r>    2.5424    0.0000 </r>
      </set>
      <set comment="kpoint 15">
       <r>  -13.6993    1.0000 </r>
       <r>  -11.4774    1.0000 </r>
       <r>  -11.4443    1.0000 </r>
       <r>  -11.3424    1.0000 </r>
       <r>  -11.0510    1.0000 </r>
       <r>  -11.0164    1.0000 </r>
       <r>  -10.8685    1.0000 </r>
       <r>  -10.7524    1.0000 </r>
       <r>  -10.6981    1.0000 </r>
       <r>  -10.6460    1.0000 </r>
       <r>  -10.5297    1.0000 </r>
       <r>  -10.2079    1.0000 </r>
       <r>   -9.1392    1.0000 </r>
       <r>   -8.7019    1.0000 </r>
       <r>   -8.5430    1.0000 </r>
       <r>   -8.3753    1.0000 </r>
       <r>   -8.3259    1.0000 </r>
       <r>   -7.8873    1.0000 </r>
       <r>   -7.8392    1.0000 </r>
       <r>   -7.5493    1.0000 </r>
       <r>   -7.4991    1.0000 </r>
       <r>   -7.2242    1.0000 </r>
       <r>   -7.1634    1.0000 </r>
       <r>   -6.4624    1.0000 </r>
       <r>   -5.5522    1.0000 </r>
       <r>   -4.8985    1.0000 </r>
       <r>   -4.6769    1.0000 </r>
       <r>   -4.5742    1.0000 </r>
       <r>   -4.5166    1.0000 </r>
       <r>   -4.3228    1.0000 </r>
       <r>   -4.1623    1.0000 </r>
       <r>   -3.9967    1.0000 </r>
       <r>   -3.9389    1.0000 </r>
       <r>   -3.8729    1.0000 </r>
       <r>   -3.8274    1.0000 </r>
       <r>   -3.6256    1.0000 </r>
       <r>   -3.5847    1.0000 </r>
       <r>   -3.4793    1.0000 </r>
       <r>   -3.3017    1.0000 </r>
       <r>   -3.2696    1.0000 </r>
       <r>   -2.9765    1.0000 </r>
       <r>   -2.7747    1.0000 </r>
       <r>   -2.6588    1.0000 </r>
       <r>   -2.5994    1.0000 </r>
       <r>   -2.3539    1.0000 </r>
       <r>   -2.2061    1.0000 </r>
       <r>   -2.1049    1.0000 </r>
       <r>   -2.0364    1.0000 </r>
       <r>   -1.8471    1.0000 </r>
       <r>   -1.6601    1.0000 </r>
       <r>   -1.4889    1.0000 </r>
       <r>   -1.3312    1.0000 </r>
       <r>   -0.6815    1.0000 </r>
       <r>   -0.3012    0.9999 </r>
       <r>   -0.0451    0.5848 </r>
       <r>    0.2001    0.0006 </r>
       <r>    0.5976    0.0000 </r>
       <r>    1.1523    0.0000 </r>
       <r>    1.4093    0.0000 </r>
       <r>    1.5454    0.0000 </r>
       <r>    1.7217    0.0000 </r>
       <r>    1.8137    0.0000 </r>
       <r>    1.8535    0.0000 </r>
       <r>    2.2716    0.0000 </r>
       <r>    2.3047    0.0000 </r>
       <r>    2.4277    0.0000 </r>
       <r>    2.4605    0.0000 </r>
       <r>    2.6084    0.0000 </r>
      </set>
      <set comment="kpoint 16">
       <r>  -13.9208    1.0000 </r>
       <r>  -12.0436    1.0000 </r>
       <r>  -11.8074    1.0000 </r>
       <r>  -11.6908    1.0000 </r>
       <r>  -11.4303    1.0000 </r>
       <r>  -11.1815    1.0000 </r>
       <r>  -10.9664    1.0000 </r>
       <r>  -10.8718    1.0000 </r>
       <r>  -10.5748    1.0000 </r>
       <r>  -10.5198    1.0000 </r>
       <r>  -10.3931    1.0000 </r>
       <r>  -10.2547    1.0000 </r>
       <r>   -8.9971    1.0000 </r>
       <r>   -8.6861    1.0000 </r>
       <r>   -8.6002    1.0000 </r>
       <r>   -8.4314    1.0000 </r>
       <r>   -8.0517    1.0000 </r>
       <r>   -7.6392    1.0000 </r>
       <r>   -7.3804    1.0000 </r>
       <r>   -7.2708    1.0000 </r>
       <r>   -6.9852    1.0000 </r>
       <r>   -6.7570    1.0000 </r>
       <r>   -6.6053    1.0000 </r>
       <r>   -6.2774    1.0000 </r>
       <r>   -5.6757    1.0000 </r>
       <r>   -4.9961    1.0000 </r>
       <r>   -4.8003    1.0000 </r>
       <r>   -4.7285    1.0000 </r>
       <r>   -4.4050    1.0000 </r>
       <r>   -4.3445    1.0000 </r>
       <r>   -4.2329    1.0000 </r>
       <r>   -4.2036    1.0000 </r>
       <r>   -4.0600    1.0000 </r>
       <r>   -3.9545    1.0000 </r>
       <r>   -3.8210    1.0000 </r>
       <r>   -3.6634    1.0000 </r>
       <r>   -3.5381    1.0000 </r>
       <r>   -3.3489    1.0000 </r>
       <r>   -3.2747    1.0000 </r>
       <r>   -3.1061    1.0000 </r>
       <r>   -2.7358    1.0000 </r>
       <r>   -2.6840    1.0000 </r>
       <r>   -2.4915    1.0000 </r>
       <r>   -2.4634    1.0000 </r>
       <r>   -2.2147    1.0000 </r>
       <r>   -2.1377    1.0000 </r>
       <r>   -1.9834    1.0000 </r>
       <r>   -1.8894    1.0000 </r>
       <r>   -1.8234    1.0000 </r>
       <r>   -1.7477    1.0000 </r>
       <r>   -1.4018    1.0000 </r>
       <r>   -1.2016    1.0000 </r>
       <r>   -0.6844    1.0000 </r>
       <r>   -0.2182    0.9961 </r>
       <r>   -0.0771    0.7477 </r>
       <r>    0.4393    0.0000 </r>
       <r>    0.6168    0.0000 </r>
       <r>    1.2287    0.0000 </r>
       <r>    1.4289    0.0000 </r>
       <r>    1.7655    0.0000 </r>
       <r>    1.8372    0.0000 </r>
       <r>    1.9544    0.0000 </r>
       <r>    2.1736    0.0000 </r>
       <r>    2.3138    0.0000 </r>
       <r>    2.3881    0.0000 </r>
       <r>    2.4822    0.0000 </r>
       <r>    2.6523    0.0000 </r>
       <r>    2.7398    0.0000 </r>
      </set>
      <set comment="kpoint 17">
       <r>  -14.2363    1.0000 </r>
       <r>  -12.5376    1.0000 </r>
       <r>  -12.2675    1.0000 </r>
       <r>  -12.0453    1.0000 </r>
       <r>  -11.8920    1.0000 </r>
       <r>  -11.5811    1.0000 </r>
       <r>  -11.1868    1.0000 </r>
       <r>  -11.1312    1.0000 </r>
       <r>  -10.7184    1.0000 </r>
       <r>  -10.6803    1.0000 </r>
       <r>  -10.3648    1.0000 </r>
       <r>  -10.2735    1.0000 </r>
       <r>   -8.8026    1.0000 </r>
       <r>   -8.5888    1.0000 </r>
       <r>   -8.4945    1.0000 </r>
       <r>   -8.1281    1.0000 </r>
       <r>   -7.5586    1.0000 </r>
       <r>   -7.2380    1.0000 </r>
       <r>   -6.9403    1.0000 </r>
       <r>   -6.8130    1.0000 </r>
       <r>   -6.4673    1.0000 </r>
       <r>   -6.1033    1.0000 </r>
       <r>   -5.9125    1.0000 </r>
       <r>   -5.8527    1.0000 </r>
       <r>   -5.4932    1.0000 </r>
       <r>   -5.0936    1.0000 </r>
       <r>   -4.9049    1.0000 </r>
       <r>   -4.8134    1.0000 </r>
       <r>   -4.5877    1.0000 </r>
       <r>   -4.4013    1.0000 </r>
       <r>   -4.2602    1.0000 </r>
       <r>   -4.2132    1.0000 </r>
       <r>   -4.1679    1.0000 </r>
       <r>   -3.8857    1.0000 </r>
       <r>   -3.8345    1.0000 </r>
       <r>   -3.4486    1.0000 </r>
       <r>   -3.3961    1.0000 </r>
       <r>   -3.1454    1.0000 </r>
       <r>   -3.0258    1.0000 </r>
       <r>   -2.8732    1.0000 </r>
       <r>   -2.7012    1.0000 </r>
       <r>   -2.5329    1.0000 </r>
       <r>   -2.4855    1.0000 </r>
       <r>   -2.2857    1.0000 </r>
       <r>   -1.9874    1.0000 </r>
       <r>   -1.9219    1.0000 </r>
       <r>   -1.8275    1.0000 </r>
       <r>   -1.7840    1.0000 </r>
       <r>   -1.7082    1.0000 </r>
       <r>   -1.6494    1.0000 </r>
       <r>   -1.3060    1.0000 </r>
       <r>   -1.0379    1.0000 </r>
       <r>   -0.7509    1.0000 </r>
       <r>   -0.2555    0.9993 </r>
       <r>    0.1180    0.0182 </r>
       <r>    0.5678    0.0000 </r>
       <r>    0.9160    0.0000 </r>
       <r>    1.4142    0.0000 </r>
       <r>    1.6749    0.0000 </r>
       <r>    1.9148    0.0000 </r>
       <r>    2.0210    0.0000 </r>
       <r>    2.0707    0.0000 </r>
       <r>    2.2972    0.0000 </r>
       <r>    2.4217    0.0000 </r>
       <r>    2.4613    0.0000 </r>
       <r>    2.7053    0.0000 </r>
       <r>    2.8002    0.0000 </r>
       <r>    2.8460    0.0000 </r>
      </set>
      <set comment="kpoint 18">
       <r>  -14.5411    1.0000 </r>
       <r>  -12.9329    1.0000 </r>
       <r>  -12.6690    1.0000 </r>
       <r>  -12.3578    1.0000 </r>
       <r>  -12.2961    1.0000 </r>
       <r>  -11.9334    1.0000 </r>
       <r>  -11.4820    1.0000 </r>
       <r>  -11.4123    1.0000 </r>
       <r>  -10.9740    1.0000 </r>
       <r>  -10.9308    1.0000 </r>
       <r>  -10.5437    1.0000 </r>
       <r>  -10.3242    1.0000 </r>
       <r>   -8.6980    1.0000 </r>
       <r>   -8.6173    1.0000 </r>
       <r>   -8.3398    1.0000 </r>
       <r>   -7.7220    1.0000 </r>
       <r>   -6.9989    1.0000 </r>
       <r>   -6.7429    1.0000 </r>
       <r>   -6.6326    1.0000 </r>
       <r>   -6.5770    1.0000 </r>
       <r>   -6.0260    1.0000 </r>
       <r>   -5.6849    1.0000 </r>
       <r>   -5.4080    1.0000 </r>
       <r>   -5.2756    1.0000 </r>
       <r>   -5.0638    1.0000 </r>
       <r>   -4.9726    1.0000 </r>
       <r>   -4.7704    1.0000 </r>
       <r>   -4.5419    1.0000 </r>
       <r>   -4.4586    1.0000 </r>
       <r>   -4.3809    1.0000 </r>
       <r>   -4.1348    1.0000 </r>
       <r>   -4.0077    1.0000 </r>
       <r>   -3.8763    1.0000 </r>
       <r>   -3.7291    1.0000 </r>
       <r>   -3.6545    1.0000 </r>
       <r>   -3.3915    1.0000 </r>
       <r>   -3.0972    1.0000 </r>
       <r>   -2.9889    1.0000 </r>
       <r>   -2.9313    1.0000 </r>
       <r>   -2.7319    1.0000 </r>
       <r>   -2.5554    1.0000 </r>
       <r>   -2.4872    1.0000 </r>
       <r>   -2.3886    1.0000 </r>
       <r>   -2.0548    1.0000 </r>
       <r>   -1.8741    1.0000 </r>
       <r>   -1.8193    1.0000 </r>
       <r>   -1.7496    1.0000 </r>
       <r>   -1.6588    1.0000 </r>
       <r>   -1.4233    1.0000 </r>
       <r>   -1.3918    1.0000 </r>
       <r>   -1.0637    1.0000 </r>
       <r>   -0.8094    1.0000 </r>
       <r>   -0.7408    1.0000 </r>
       <r>   -0.2855    0.9998 </r>
       <r>    0.3292    0.0000 </r>
       <r>    0.7418    0.0000 </r>
       <r>    1.2082    0.0000 </r>
       <r>    1.6114    0.0000 </r>
       <r>    1.8733    0.0000 </r>
[...]
       <r>    2.7144    0.0000 </r>
      </set>
      <set comment="kpoint 54">
       <r>  -13.6991    1.0000 </r>
       <r>  -11.4393    1.0000 </r>
       <r>  -11.4281    1.0000 </r>
       <r>  -11.3469    1.0000 </r>
       <r>  -11.1147    1.0000 </r>
       <r>  -11.0766    1.0000 </r>
       <r>  -10.8851    1.0000 </r>
       <r>  -10.7923    1.0000 </r>
       <r>  -10.6670    1.0000 </r>
       <r>  -10.5627    1.0000 </r>
       <r>  -10.4672    1.0000 </r>
       <r>  -10.2501    1.0000 </r>
       <r>   -9.1576    1.0000 </r>
       <r>   -8.6115    1.0000 </r>
       <r>   -8.5550    1.0000 </r>
       <r>   -8.3823    1.0000 </r>
       <r>   -8.2397    1.0000 </r>
       <r>   -8.0611    1.0000 </r>
       <r>   -7.8199    1.0000 </r>
       <r>   -7.5862    1.0000 </r>
       <r>   -7.4994    1.0000 </r>
       <r>   -7.2308    1.0000 </r>
       <r>   -7.1174    1.0000 </r>
       <r>   -6.4992    1.0000 </r>
       <r>   -5.4878    1.0000 </r>
       <r>   -4.9013    1.0000 </r>
       <r>   -4.8676    1.0000 </r>
       <r>   -4.6222    1.0000 </r>
       <r>   -4.4227    1.0000 </r>
       <r>   -4.2737    1.0000 </r>
       <r>   -4.1202    1.0000 </r>
       <r>   -4.0467    1.0000 </r>
       <r>   -3.9870    1.0000 </r>
       <r>   -3.8748    1.0000 </r>
       <r>   -3.7142    1.0000 </r>
       <r>   -3.5674    1.0000 </r>
       <r>   -3.5048    1.0000 </r>
       <r>   -3.4584    1.0000 </r>
       <r>   -3.3317    1.0000 </r>
       <r>   -3.2029    1.0000 </r>
       <r>   -2.9820    1.0000 </r>
       <r>   -2.9500    1.0000 </r>
       <r>   -2.6460    1.0000 </r>
       <r>   -2.4378    1.0000 </r>
       <r>   -2.3236    1.0000 </r>
       <r>   -2.1790    1.0000 </r>
       <r>   -2.1069    1.0000 </r>
       <r>   -1.9971    1.0000 </r>
       <r>   -1.9341    1.0000 </r>
       <r>   -1.7017    1.0000 </r>
       <r>   -1.5385    1.0000 </r>
       <r>   -1.4001    1.0000 </r>
       <r>   -0.6625    1.0000 </r>
       <r>   -0.3509    1.0000 </r>
       <r>   -0.0221    0.4561 </r>
       <r>    0.1715    0.0022 </r>
       <r>    0.5047    0.0000 </r>
       <r>    1.1991    0.0000 </r>
       <r>    1.4052    0.0000 </r>
       <r>    1.5800    0.0000 </r>
       <r>    1.6674    0.0000 </r>
       <r>    1.7687    0.0000 </r>
       <r>    1.9194    0.0000 </r>
       <r>    2.0381    0.0000 </r>
       <r>    2.1476    0.0000 </r>
       <r>    2.4137    0.0000 </r>
       <r>    2.4954    0.0000 </r>
       <r>    2.5604    0.0000 </r>
      </set>
     </set>
    </set>
   </array>
  </eigenvalues>
  <separator name="orbital magnetization" >
   <v name="MAGDIPOLOUT">      0.00000000      0.00000000      0.00000000</v>
  </separator>
  <dos>
   <i name="efermi">     -0.02993454 </i>
   <total>
    <array>
     <dimension dim="1">gridpoints</dimension>
     <dimension dim="2">spin</dimension>
     <field>energy</field>
     <field>total</field>
     <field>integrated</field>
     <set>
      <set comment="spin 1">
       <r>   -15.9866     0.0000     0.0000 </r>
       <r>   -15.9192     0.0000     0.0000 </r>
       <r>   -15.8518     0.0000     0.0000 </r>
       <r>   -15.7844     0.0000     0.0000 </r>
       <r>   -15.7170     0.0000     0.0000 </r>
       <r>   -15.6496     0.0000     0.0000 </r>
       <r>   -15.5822     0.0000     0.0000 </r>
       <r>   -15.5148     0.0000     0.0000 </r>
       <r>   -15.4474     0.0000     0.0000 </r>
       <r>   -15.3800     0.0000     0.0000 </r>
       <r>   -15.3126     0.0000     0.0000 </r>
       <r>   -15.2452     0.0003     0.0000 </r>
       <r>   -15.1778     0.0079     0.0005 </r>
       <r>   -15.1104     0.1025     0.0075 </r>
       <r>   -15.0430     0.6163     0.0490 </r>
       <r>   -14.9756     1.7623     0.1678 </r>
       <r>   -14.9082     2.5156     0.3373 </r>
       <r>   -14.8408     2.2401     0.4883 </r>
       <r>   -14.7734     2.0048     0.6234 </r>
       <r>   -14.7060     1.5324     0.7267 </r>
       <r>   -14.6386     0.8959     0.7871 </r>
       <r>   -14.5712     1.2212     0.8694 </r>
       <r>   -14.5038     1.6787     0.9825 </r>
       <r>   -14.4364     1.0799     1.0553 </r>
       <r>   -14.3690     0.4166     1.0834 </r>
       <r>   -14.3016     0.6910     1.1300 </r>
       <r>   -14.2342     1.5133     1.2320 </r>
       <r>   -14.1668     1.4999     1.3330 </r>
       <r>   -14.0994     0.6642     1.3778 </r>
       <r>   -14.0320     0.3493     1.4013 </r>
       <r>   -13.9646     0.9553     1.4657 </r>
       <r>   -13.8972     1.6652     1.5780 </r>
       <r>   -13.8298     1.3808     1.6710 </r>
       <r>   -13.7624     1.1010     1.7452 </r>
       <r>   -13.6950     1.5980     1.8529 </r>
       <r>   -13.6276     1.4848     1.9530 </r>
       <r>   -13.5602     0.7325     2.0024 </r>
       <r>   -13.4928     0.6918     2.0490 </r>
       <r>   -13.4254     1.4585     2.1473 </r>
       <r>   -13.3581     2.2855     2.3013 </r>
       <r>   -13.2907     2.9460     2.4999 </r>
       <r>   -13.2233     3.5324     2.7380 </r>
       <r>   -13.1559     3.6693     2.9853 </r>
       <r>   -13.0885     3.5538     3.2248 </r>
       <r>   -13.0211     3.3699     3.4519 </r>
       <r>   -12.9537     3.5262     3.6896 </r>
       <r>   -12.8863     4.2696     3.9774 </r>
       <r>   -12.8189     4.6690     4.2921 </r>
       <r>   -12.7515     4.5080     4.5959 </r>
       <r>   -12.6841     4.3319     4.8878 </r>
       <r>   -12.6167     4.2042     5.1712 </r>
       <r>   -12.5493     4.1954     5.4540 </r>
       <r>   -12.4819     4.7220     5.7722 </r>
       <r>   -12.4145     5.9609     6.1740 </r>
       <r>   -12.3471     6.8402     6.6350 </r>
       <r>   -12.2797     6.0538     7.0430 </r>
       <r>   -12.2123     4.8730     7.3715 </r>
       <r>   -12.1449     4.3398     7.6640 </r>
       <r>   -12.0775     4.3804     7.9592 </r>
       <r>   -12.0101     5.6628     8.3409 </r>
       <r>   -11.9427     7.5799     8.8517 </r>
       <r>   -11.8753     7.6641     9.3683 </r>
       <r>   -11.8079     6.1360     9.7819 </r>
       <r>   -11.7405     5.5152    10.1536 </r>
       <r>   -11.6731     5.8340    10.5468 </r>
       <r>   -11.6057     6.1912    10.9641 </r>
       <r>   -11.5383     7.0939    11.4422 </r>
       <r>   -11.4709     8.7798    12.0339 </r>
       <r>   -11.4035    10.2048    12.7217 </r>
       <r>   -11.3361     9.7138    13.3764 </r>
       <r>   -11.2687     8.7888    13.9688 </r>
       <r>   -11.2013     9.6544    14.6195 </r>
       <r>   -11.1339    10.2323    15.3091 </r>
       <r>   -11.0665     9.2509    15.9326 </r>
       <r>   -10.9991     8.6817    16.5178 </r>
       <r>   -10.9317     8.9769    17.1228 </r>
       <r>   -10.8643     8.9537    17.7263 </r>
       <r>   -10.7969     8.6007    18.3059 </r>
       <r>   -10.7295     8.8229    18.9006 </r>
       <r>   -10.6621     8.9515    19.5039 </r>
       <r>   -10.5947     9.4083    20.1380 </r>
       <r>   -10.5273    10.6885    20.8584 </r>
       <r>   -10.4599    10.4952    21.5658 </r>
       <r>   -10.3925     9.0785    22.1777 </r>
       <r>   -10.3251     8.1218    22.7251 </r>
       <r>   -10.2577     7.4599    23.2279 </r>
       <r>   -10.1903     6.2774    23.6509 </r>
       <r>   -10.1229     3.7141    23.9013 </r>
       <r>   -10.0555     1.2400    23.9848 </r>
       <r>    -9.9881     0.2079    23.9989 </r>
       <r>    -9.9207     0.0164    24.0000 </r>
       <r>    -9.8533     0.0006    24.0000 </r>
       <r>    -9.7859     0.0000    24.0000 </r>
       <r>    -9.7185     0.0000    24.0000 </r>
       <r>    -9.6511     0.0000    24.0000 </r>
       <r>    -9.5837     0.0000    24.0000 </r>
       <r>    -9.5163     0.0000    24.0000 </r>
       <r>    -9.4489     0.0002    24.0000 </r>
       <r>    -9.3815     0.0064    24.0004 </r>
       <r>    -9.3141     0.0881    24.0064 </r>
       <r>    -9.2467     0.5755    24.0452 </r>
       <r>    -9.1793     1.8255    24.1682 </r>
       <r>    -9.1119     3.1204    24.3785 </r>
       <r>    -9.0445     3.8203    24.6360 </r>
       <r>    -8.9771     4.5743    24.9443 </r>
       <r>    -8.9097     5.5442    25.3180 </r>
       <r>    -8.8423     6.2817    25.7414 </r>
       <r>    -8.7749     6.2068    26.1597 </r>
       <r>    -8.7075     6.5222    26.5993 </r>
       <r>    -8.6401     8.7580    27.1896 </r>
       <r>    -8.5727    11.7858    27.9839 </r>
       <r>    -8.5053    12.1396    28.8021 </r>
       <r>    -8.4379     9.0002    29.4087 </r>
       <r>    -8.3705     6.2720    29.8314 </r>
       <r>    -8.3031     5.3896    30.1947 </r>
       <r>    -8.2357     4.3899    30.4906 </r>
       <r>    -8.1683     3.5129    30.7273 </r>
       <r>    -8.1009     3.7825    30.9823 </r>
       <r>    -8.0335     4.3053    31.2724 </r>
       <r>    -7.9661     3.6988    31.5217 </r>
       <r>    -7.8987     2.7890    31.7097 </r>
       <r>    -7.8313     2.8526    31.9020 </r>
       <r>    -7.7639     3.4979    32.1377 </r>
       <r>    -7.6965     4.5742    32.4460 </r>
       <r>    -7.6291     5.7823    32.8358 </r>
       <r>    -7.5617     6.4282    33.2690 </r>
       <r>    -7.4943     5.8000    33.6599 </r>
       <r>    -7.4269     4.5716    33.9680 </r>
       <r>    -7.3595     4.5489    34.2746 </r>
       <r>    -7.2921     5.8762    34.6707 </r>
       <r>    -7.2247     7.1086    35.1498 </r>
       <r>    -7.1574     7.0943    35.6279 </r>
       <r>    -7.0900     6.2839    36.0515 </r>
       <r>    -7.0226     5.7123    36.4365 </r>
       <r>    -6.9552     4.8459    36.7631 </r>
       <r>    -6.8878     4.1547    37.0431 </r>
       <r>    -6.8204     5.4147    37.4080 </r>
       <r>    -6.7530     8.3335    37.9697 </r>
       <r>    -6.6856    10.4421    38.6735 </r>
       <r>    -6.6182    11.5684    39.4532 </r>
       <r>    -6.5508    11.1555    40.2050 </r>
       <r>    -6.4834     9.0195    40.8130 </r>
       <r>    -6.4160     6.5692    41.2557 </r>
       <r>    -6.3486     4.0957    41.5318 </r>
       <r>    -6.2812     2.8697    41.7252 </r>
       <r>    -6.2138     2.7727    41.9120 </r>
       <r>    -6.1464     3.0805    42.1197 </r>
       <r>    -6.0790     4.0163    42.3904 </r>
       <r>    -6.0116     5.1485    42.7374 </r>
       <r>    -5.9442     5.8236    43.1299 </r>
       <r>    -5.8768     6.0807    43.5397 </r>
       <r>    -5.8094     6.1921    43.9570 </r>
       <r>    -5.7420     6.6774    44.4071 </r>
       <r>    -5.6746     7.3623    44.9033 </r>
       <r>    -5.6072     7.3147    45.3963 </r>
       <r>    -5.5398     6.7801    45.8533 </r>
       <r>    -5.4724     6.2996    46.2779 </r>
       <r>    -5.4050     5.8031    46.6690 </r>
       <r>    -5.3376     5.2455    47.0225 </r>
       <r>    -5.2702     4.9091    47.3534 </r>
       <r>    -5.2028     5.0103    47.6911 </r>
       <r>    -5.1354     5.6158    48.0696 </r>
       <r>    -5.0680     6.1684    48.4853 </r>
       <r>    -5.0006     7.9410    49.0205 </r>
       <r>    -4.9332    10.8446    49.7514 </r>
       <r>    -4.8658    11.9599    50.5575 </r>
       <r>    -4.7984    11.1448    51.3087 </r>
       <r>    -4.7310    10.1624    51.9936 </r>
       <r>    -4.6636    10.2273    52.6829 </r>
       <r>    -4.5962    11.2956    53.4442 </r>
       <r>    -4.5288    11.3469    54.2090 </r>
       <r>    -4.4614    10.3773    54.9084 </r>
       <r>    -4.3940    10.2394    55.5985 </r>
       <r>    -4.3266    10.5518    56.3097 </r>
       <r>    -4.2592    11.7996    57.1050 </r>
       <r>    -4.1918    13.3787    58.0067 </r>
       <r>    -4.1244    13.8443    58.9398 </r>
       <r>    -4.0570    13.8501    59.8733 </r>
       <r>    -3.9896    14.0267    60.8187 </r>
       <r>    -3.9222    13.7999    61.7488 </r>
       <r>    -3.8548    12.1637    62.5686 </r>
       <r>    -3.7874     9.8271    63.2309 </r>
       <r>    -3.7200     9.6814    63.8834 </r>
       <r>    -3.6526    12.2812    64.7112 </r>
       <r>    -3.5852    14.6005    65.6952 </r>
       <r>    -3.5178    14.9507    66.7029 </r>
       <r>    -3.4504    13.6264    67.6213 </r>
       <r>    -3.3830    12.5950    68.4702 </r>
       <r>    -3.3156    13.0990    69.3531 </r>
       <r>    -3.2482    14.0946    70.3030 </r>
       <r>    -3.1808    14.5496    71.2836 </r>
       <r>    -3.1134    14.7832    72.2800 </r>
       <r>    -3.0460    15.8979    73.3515 </r>
       <r>    -2.9786    17.5678    74.5356 </r>
       <r>    -2.9112    17.5575    75.7189 </r>
       <r>    -2.8438    14.7082    76.7102 </r>
       <r>    -2.7764    12.4049    77.5463 </r>
       <r>    -2.7090    13.0190    78.4238 </r>
       <r>    -2.6416    14.4820    79.3999 </r>
       <r>    -2.5742    15.3393    80.4337 </r>
       <r>    -2.5068    16.3313    81.5344 </r>
       <r>    -2.4394    16.1660    82.6240 </r>
       <r>    -2.3720    14.7298    83.6168 </r>
       <r>    -2.3046    13.7472    84.5433 </r>
       <r>    -2.2372    13.1364    85.4287 </r>
       <r>    -2.1698    13.1461    86.3147 </r>
       <r>    -2.1024    13.9458    87.2547 </r>
       <r>    -2.0350    15.4274    88.2944 </r>
       <r>    -1.9676    17.3427    89.4633 </r>
       <r>    -1.9002    18.8553    90.7341 </r>
       <r>    -1.8328    20.0853    92.0879 </r>
       <r>    -1.7654    19.9991    93.4358 </r>
       <r>    -1.6980    18.0833    94.6546 </r>
       <r>    -1.6306    15.0706    95.6703 </r>
       <r>    -1.5632    12.2153    96.4936 </r>
       <r>    -1.4958    10.5130    97.2022 </r>
       <r>    -1.4284     9.8913    97.8689 </r>
       <r>    -1.3610    10.7204    98.5914 </r>
       <r>    -1.2936    11.4882    99.3657 </r>
       <r>    -1.2262    10.6710   100.0849 </r>
       <r>    -1.1588     9.1610   100.7023 </r>
       <r>    -1.0914     8.2445   101.2580 </r>
       <r>    -1.0240     7.4151   101.7578 </r>
       <r>    -0.9567     6.3571   102.1862 </r>
       <r>    -0.8893     6.8854   102.6503 </r>
       <r>    -0.8219     7.9231   103.1843 </r>
       <r>    -0.7545     8.0532   103.7271 </r>
       <r>    -0.6871     8.2287   104.2817 </r>
       <r>    -0.6197     7.5240   104.7888 </r>
       <r>    -0.5523     4.7442   105.1086 </r>
       <r>    -0.4849     2.4611   105.2744 </r>
       <r>    -0.4175     3.0329   105.4789 </r>
       <r>    -0.3501     5.7898   105.8691 </r>
       <r>    -0.2827     8.6529   106.4523 </r>
       <r>    -0.2153     8.5839   107.0308 </r>
       <r>    -0.1479     6.2025   107.4489 </r>
       <r>    -0.0805     4.8499   107.7757 </r>
       <r>    -0.0131     4.3976   108.0721 </r>
       <r>     0.0543     4.4404   108.3714 </r>
       <r>     0.1217     5.2688   108.7265 </r>
       <r>     0.1891     5.5591   109.1012 </r>
       <r>     0.2565     5.1802   109.4503 </r>
       <r>     0.3239     5.2122   109.8016 </r>
       <r>     0.3913     5.4635   110.1699 </r>
       <r>     0.4587     5.6706   110.5521 </r>
       <r>     0.5261     6.0204   110.9578 </r>
       <r>     0.5935     5.8016   111.3488 </r>
       <r>     0.6609     4.2379   111.6345 </r>
       <r>     0.7283     2.7797   111.8218 </r>
       <r>     0.7957     2.8706   112.0153 </r>
       <r>     0.8631     3.6173   112.2591 </r>
       <r>     0.9305     4.1040   112.5357 </r>
       <r>     0.9979     3.9887   112.8045 </r>
       <r>     1.0653     4.5531   113.1114 </r>
       <r>     1.1327     6.5171   113.5507 </r>
       <r>     1.2001     8.2590   114.1073 </r>
       <r>     1.2675     8.1572   114.6571 </r>
       <r>     1.3349     6.9003   115.1222 </r>
       <r>     1.4023     7.1920   115.6069 </r>
       <r>     1.4697     8.5557   116.1835 </r>
       <r>     1.5371     9.4023   116.8172 </r>
       <r>     1.6045    10.3648   117.5158 </r>
       <r>     1.6719    11.2824   118.2762 </r>
       <r>     1.7393    11.8029   119.0717 </r>
       <r>     1.8067    13.0056   119.9483 </r>
       <r>     1.8741    14.0567   120.8957 </r>
       <r>     1.9415    13.6168   121.8135 </r>
       <r>     2.0089    13.1541   122.7000 </r>
       <r>     2.0763    12.9696   123.5742 </r>
       <r>     2.1437    12.9154   124.4447 </r>
       <r>     2.2111    14.3722   125.4133 </r>
       <r>     2.2785    16.1888   126.5044 </r>
       <r>     2.3459    15.7713   127.5674 </r>
       <r>     2.4133    14.3014   128.5313 </r>
       <r>     2.4807    13.7654   129.4591 </r>
       <r>     2.5481    12.6559   130.3121 </r>
       <r>     2.6155    11.3551   131.0774 </r>
       <r>     2.6829    12.0536   131.8898 </r>
       <r>     2.7503    13.3217   132.7877 </r>
       <r>     2.8177    12.2505   133.6133 </r>
       <r>     2.8851     9.5821   134.2591 </r>
       <r>     2.9525     7.3233   134.7527 </r>
       <r>     3.0199     6.2130   135.1715 </r>
       <r>     3.0873     5.3240   135.5303 </r>
       <r>     3.1547     3.7935   135.7860 </r>
       <r>     3.2221     2.0385   135.9234 </r>
       <r>     3.2895     0.8399   135.9800 </r>
       <r>     3.3569     0.2502   135.9969 </r>
       <r>     3.4243     0.0430   135.9998 </r>
       <r>     3.4917     0.0036   136.0000 </r>
       <r>     3.5591     0.0001   136.0000 </r>
       <r>     3.6265     0.0000   136.0000 </r>
       <r>     3.6939     0.0000   136.0000 </r>
       <r>     3.7613     0.0000   136.0000 </r>
       <r>     3.8287     0.0000   136.0000 </r>
       <r>     3.8961     0.0000   136.0000 </r>
       <r>     3.9635     0.0000   136.0000 </r>
       <r>     4.0309     0.0000   136.0000 </r>
       <r>     4.0983     0.0000   136.0000 </r>
       <r>     4.1657     0.0000   136.0000 </r>
       <r>     4.2331     0.0000   136.0000 </r>
      </set>
     </set>
    </array>
   </total>
  </dos>
 </calculation>
 <structure name="finalpos" >
  <crystal>
   <varray name="basis" >
    <v>       3.54040000       0.00000000       0.00000000 </v>
    <v>      -1.77020000      10.29434800       0.00000000 </v>
    <v>       0.00000000       0.00000000      27.50142900 </v>
   </varray>
   <i name="volume">   1002.32009712 </i>
   <varray name="rec_basis" >
    <v>       0.28245396       0.04857034       0.00000000 </v>
    <v>       0.00000000       0.09714068       0.00000000 </v>
    <v>       0.00000000       0.00000000       0.03636175 </v>
   </varray>
  </crystal>
  <varray name="positions" >
   <v>       0.11402300       0.22804500       0.23316207 </v>
   <v>       0.01402300       0.82804500       0.51499159 </v>
   <v>       0.45808900       0.91617900       0.20939482 </v>
   <v>       0.35808900       0.51617900       0.49122434 </v>
   <v>       0.31085400       0.62170900       0.08414979 </v>
   <v>       0.31085400       0.62170900       0.36597930 </v>
   <v>       0.99923000       0.99846000       0.08631254 </v>
   <v>       0.99923000       0.99846000       0.36814206 </v>
   <v>       0.65492700       0.30985400       0.06041748 </v>
   <v>       0.65492700       0.30985400       0.34224700 </v>
   <v>       0.76973800       0.53947500       0.20725292 </v>
   <v>       0.66973800       0.13947500       0.48908244 </v>
   <v>       0.93971600       0.87943300       0.15783749 </v>
   <v>       0.83971600       0.47943300       0.43966701 </v>
   <v>       0.20515200       0.41030300       0.18578822 </v>
   <v>       0.10515200       0.01030300       0.46761774 </v>
   <v>       0.20184900       0.40369900       0.09969156 </v>
   <v>       0.20184900       0.40369900       0.38152107 </v>
   <v>       0.56380500       0.12761000       0.10779021 </v>
   <v>       0.56380500       0.12761000       0.38961973 </v>
   <v>       0.56710600       0.13421200       0.19387616 </v>
   <v>       0.46710600       0.73421200       0.47570568 </v>
   <v>       0.82923400       0.65846800       0.13571444 </v>
   <v>       0.72923400       0.25846800       0.41754396 </v>
  </varray>
 </structure>
</modeling>
