  24  24   0   0
  0.4176334E+02  0.3540400E-09  0.1044544E-08  0.2750143E-08  0.5000000E-15
  1.000000000000000E-004
  CAR 
 unknown system                          
      4.23110866    -14.95826609  301      0.19746135      1.00000000
    -14.958  0.0000E+00  0.0000E+00
    -14.894  0.0000E+00  0.0000E+00
    -14.830  0.0000E+00  0.0000E+00
    -14.766  0.0000E+00  0.0000E+00
    -14.702  0.0000E+00  0.0000E+00
    -14.638  0.0000E+00  0.0000E+00
    -14.574  0.0000E+00  0.0000E+00
    -14.511  0.2737E-14  0.1751E-15
    -14.447  0.2561E-11  0.1640E-12
    -14.383  0.1085E-08  0.6957E-10
    -14.319  0.2094E-06  0.1346E-07
    -14.255  0.1859E-04  0.1203E-05
    -14.191  0.7703E-03  0.5047E-04
    -14.127  0.1521E-01  0.1023E-02
    -14.063  0.1471E+00  0.1043E-01
    -13.999  0.7177E+00  0.5634E-01
    -13.935  0.1815E+01  0.1724E+00
    -13.871  0.2471E+01  0.3305E+00
    -13.807  0.2172E+01  0.4694E+00
    -13.743  0.1956E+01  0.5946E+00
    -13.679  0.1736E+01  0.7056E+00
    -13.615  0.1250E+01  0.7856E+00
    -13.551  0.1739E+01  0.8968E+00
    -13.487  0.3159E+01  0.1099E+01
    -13.423  0.3593E+01  0.1329E+01
    -13.359  0.2754E+01  0.1505E+01
    -13.295  0.2156E+01  0.1643E+01
    -13.231  0.2338E+01  0.1792E+01
    -13.167  0.2975E+01  0.1983E+01
    -13.103  0.3082E+01  0.2180E+01
    -13.039  0.2738E+01  0.2355E+01
    -12.975  0.3014E+01  0.2548E+01
    -12.911  0.3794E+01  0.2790E+01
    -12.847  0.4724E+01  0.3092E+01
    -12.783  0.5210E+01  0.3426E+01
    -12.720  0.4771E+01  0.3731E+01
    -12.656  0.4862E+01  0.4042E+01
    -12.592  0.6157E+01  0.4436E+01
    -12.528  0.6918E+01  0.4878E+01
    -12.464  0.6082E+01  0.5267E+01
    -12.400  0.4705E+01  0.5568E+01
    -12.336  0.4295E+01  0.5843E+01
    -12.272  0.4854E+01  0.6153E+01
    -12.208  0.5444E+01  0.6502E+01
    -12.144  0.5725E+01  0.6868E+01
    -12.080  0.6418E+01  0.7278E+01
    -12.016  0.8007E+01  0.7790E+01
    -11.952  0.8551E+01  0.8337E+01
    -11.888  0.7260E+01  0.8802E+01
    -11.824  0.6111E+01  0.9193E+01
    -11.760  0.6101E+01  0.9583E+01
    -11.696  0.6785E+01  0.1002E+02
    -11.632  0.7122E+01  0.1047E+02
    -11.568  0.7608E+01  0.1096E+02
    -11.504  0.8744E+01  0.1152E+02
    -11.440  0.8763E+01  0.1208E+02
    -11.376  0.7750E+01  0.1257E+02
    -11.312  0.8250E+01  0.1310E+02
    -11.248  0.9596E+01  0.1372E+02
    -11.184  0.9478E+01  0.1432E+02
    -11.120  0.9395E+01  0.1492E+02
    -11.056  0.1056E+02  0.1560E+02
    -10.992  0.1134E+02  0.1632E+02
    -10.928  0.1161E+02  0.1707E+02
    -10.865  0.1311E+02  0.1791E+02
    -10.801  0.1415E+02  0.1881E+02
    -10.737  0.1260E+02  0.1962E+02
    -10.673  0.1158E+02  0.2036E+02
    -10.609  0.1133E+02  0.2108E+02
    -10.545  0.9572E+01  0.2169E+02
    -10.481  0.8107E+01  0.2221E+02
    -10.417  0.7110E+01  0.2267E+02
    -10.353  0.4489E+01  0.2295E+02
    -10.289  0.1641E+01  0.2306E+02
    -10.225  0.5993E+00  0.2310E+02
    -10.161  0.1068E+01  0.2317E+02
    -10.097  0.1660E+01  0.2327E+02
    -10.033  0.1253E+01  0.2335E+02
     -9.969  0.5525E+00  0.2339E+02
     -9.905  0.6613E+00  0.2343E+02
     -9.841  0.1448E+01  0.2352E+02
     -9.777  0.1865E+01  0.2364E+02
     -9.713  0.1830E+01  0.2376E+02
     -9.649  0.1865E+01  0.2388E+02
     -9.585  0.1330E+01  0.2396E+02
     -9.521  0.4839E+00  0.2399E+02
     -9.457  0.8320E-01  0.2400E+02
     -9.393  0.6642E-02  0.2400E+02
     -9.329  0.2465E-03  0.2400E+02
     -9.265  0.1493E-03  0.2400E+02
     -9.201  0.4034E-02  0.2400E+02
     -9.137  0.5337E-01  0.2400E+02
     -9.074  0.3489E+00  0.2403E+02
     -9.010  0.1193E+01  0.2410E+02
     -8.946  0.2336E+01  0.2425E+02
     -8.882  0.3201E+01  0.2446E+02
     -8.818  0.4227E+01  0.2473E+02
     -8.754  0.5472E+01  0.2508E+02
     -8.690  0.5582E+01  0.2543E+02
     -8.626  0.4692E+01  0.2573E+02
     -8.562  0.4079E+01  0.2599E+02
     -8.498  0.4238E+01  0.2627E+02
     -8.434  0.4857E+01  0.2658E+02
     -8.370  0.4801E+01  0.2688E+02
     -8.306  0.4111E+01  0.2715E+02
     -8.242  0.4095E+01  0.2741E+02
     -8.178  0.4843E+01  0.2772E+02
     -8.114  0.5484E+01  0.2807E+02
     -8.050  0.5222E+01  0.2840E+02
     -7.986  0.4680E+01  0.2870E+02
     -7.922  0.5247E+01  0.2904E+02
     -7.858  0.6939E+01  0.2948E+02
     -7.794  0.7788E+01  0.2998E+02
     -7.730  0.6455E+01  0.3039E+02
     -7.666  0.4853E+01  0.3070E+02
     -7.602  0.4778E+01  0.3101E+02
     -7.538  0.5618E+01  0.3137E+02
     -7.474  0.7114E+01  0.3182E+02
     -7.410  0.9352E+01  0.3242E+02
     -7.346  0.1066E+02  0.3310E+02
     -7.283  0.1053E+02  0.3378E+02
     -7.219  0.9848E+01  0.3441E+02
     -7.155  0.8517E+01  0.3495E+02
     -7.091  0.7074E+01  0.3540E+02
     -7.027  0.6422E+01  0.3582E+02
     -6.963  0.5714E+01  0.3618E+02
     -6.899  0.5054E+01  0.3650E+02
     -6.835  0.6409E+01  0.3691E+02
     -6.771  0.1090E+02  0.3761E+02
     -6.707  0.1606E+02  0.3864E+02
     -6.643  0.1620E+02  0.3967E+02
     -6.579  0.1116E+02  0.4039E+02
     -6.515  0.6996E+01  0.4084E+02
     -6.451  0.5261E+01  0.4117E+02
     -6.387  0.4588E+01  0.4147E+02
     -6.323  0.5078E+01  0.4179E+02
     -6.259  0.5851E+01  0.4216E+02
     -6.195  0.5587E+01  0.4252E+02
     -6.131  0.4112E+01  0.4279E+02
     -6.067  0.2772E+01  0.4296E+02
     -6.003  0.2647E+01  0.4313E+02
     -5.939  0.3018E+01  0.4332E+02
     -5.875  0.3406E+01  0.4354E+02
     -5.811  0.4661E+01  0.4384E+02
     -5.747  0.6452E+01  0.4425E+02
     -5.683  0.7053E+01  0.4470E+02
     -5.619  0.6308E+01  0.4511E+02
     -5.555  0.5031E+01  0.4543E+02
     -5.492  0.3472E+01  0.4565E+02
     -5.428  0.2760E+01  0.4583E+02
     -5.364  0.3755E+01  0.4607E+02
     -5.300  0.5423E+01  0.4642E+02
     -5.236  0.6815E+01  0.4685E+02
     -5.172  0.7133E+01  0.4731E+02
     -5.108  0.6345E+01  0.4771E+02
     -5.044  0.5925E+01  0.4809E+02
     -4.980  0.6325E+01  0.4850E+02
     -4.916  0.7298E+01  0.4896E+02
     -4.852  0.8665E+01  0.4952E+02
     -4.788  0.9958E+01  0.5016E+02
     -4.724  0.1086E+02  0.5085E+02
     -4.660  0.1064E+02  0.5153E+02
     -4.596  0.9433E+01  0.5213E+02
     -4.532  0.8897E+01  0.5270E+02
     -4.468  0.9494E+01  0.5331E+02
     -4.404  0.1086E+02  0.5400E+02
     -4.340  0.1228E+02  0.5479E+02
     -4.276  0.1272E+02  0.5560E+02
     -4.212  0.1251E+02  0.5640E+02
     -4.148  0.1349E+02  0.5727E+02
     -4.084  0.1519E+02  0.5824E+02
     -4.020  0.1513E+02  0.5921E+02
     -3.956  0.1326E+02  0.6005E+02
     -3.892  0.1164E+02  0.6080E+02
     -3.828  0.1153E+02  0.6154E+02
     -3.764  0.1268E+02  0.6235E+02
     -3.700  0.1383E+02  0.6323E+02
     -3.637  0.1337E+02  0.6409E+02
     -3.573  0.1235E+02  0.6488E+02
     -3.509  0.1299E+02  0.6571E+02
     -3.445  0.1445E+02  0.6663E+02
     -3.381  0.1486E+02  0.6758E+02
     -3.317  0.1412E+02  0.6849E+02
     -3.253  0.1398E+02  0.6938E+02
     -3.189  0.1521E+02  0.7035E+02
     -3.125  0.1637E+02  0.7140E+02
     -3.061  0.1668E+02  0.7247E+02
     -2.997  0.1691E+02  0.7355E+02
     -2.933  0.1686E+02  0.7463E+02
     -2.869  0.1614E+02  0.7566E+02
     -2.805  0.1532E+02  0.7664E+02
     -2.741  0.1487E+02  0.7759E+02
     -2.677  0.1548E+02  0.7858E+02
     -2.613  0.1696E+02  0.7967E+02
     -2.549  0.1760E+02  0.8079E+02
     -2.485  0.1710E+02  0.8189E+02
     -2.421  0.1684E+02  0.8296E+02
     -2.357  0.1581E+02  0.8397E+02
     -2.293  0.1402E+02  0.8487E+02
     -2.229  0.1462E+02  0.8581E+02
     -2.165  0.1676E+02  0.8688E+02
     -2.101  0.1744E+02  0.8799E+02
     -2.037  0.1796E+02  0.8914E+02
     -1.973  0.1910E+02  0.9036E+02
     -1.909  0.1930E+02  0.9160E+02
     -1.846  0.1861E+02  0.9279E+02
     -1.782  0.1786E+02  0.9393E+02
     -1.718  0.1641E+02  0.9498E+02
     -1.654  0.1360E+02  0.9585E+02
     -1.590  0.1124E+02  0.9657E+02
     -1.526  0.1125E+02  0.9729E+02
     -1.462  0.1261E+02  0.9810E+02
     -1.398  0.1330E+02  0.9895E+02
     -1.334  0.1277E+02  0.9976E+02
     -1.270  0.1131E+02  0.1005E+03
     -1.206  0.9928E+01  0.1011E+03
     -1.142  0.9114E+01  0.1017E+03
     -1.078  0.8044E+01  0.1022E+03
     -1.014  0.7318E+01  0.1027E+03
     -0.950  0.8452E+01  0.1032E+03
     -0.886  0.9551E+01  0.1038E+03
     -0.822  0.7791E+01  0.1043E+03
     -0.758  0.4817E+01  0.1046E+03
     -0.694  0.3479E+01  0.1049E+03
     -0.630  0.4635E+01  0.1052E+03
     -0.566  0.6095E+01  0.1056E+03
     -0.502  0.5198E+01  0.1059E+03
     -0.438  0.3162E+01  0.1061E+03
     -0.374  0.1944E+01  0.1062E+03
     -0.310  0.1744E+01  0.1063E+03
     -0.246  0.2881E+01  0.1065E+03
     -0.182  0.4588E+01  0.1068E+03
     -0.118  0.4196E+01  0.1071E+03
     -0.055  0.2037E+01  0.1072E+03
      0.009  0.9517E+00  0.1073E+03
      0.073  0.1964E+01  0.1074E+03
      0.137  0.4204E+01  0.1077E+03
      0.201  0.5724E+01  0.1080E+03
      0.265  0.5988E+01  0.1084E+03
      0.329  0.6130E+01  0.1088E+03
      0.393  0.6193E+01  0.1092E+03
      0.457  0.5515E+01  0.1095E+03
      0.521  0.4626E+01  0.1098E+03
      0.585  0.4776E+01  0.1101E+03
      0.649  0.5523E+01  0.1105E+03
      0.713  0.5661E+01  0.1109E+03
      0.777  0.4957E+01  0.1112E+03
      0.841  0.3880E+01  0.1114E+03
      0.905  0.3718E+01  0.1117E+03
      0.969  0.4966E+01  0.1120E+03
      1.033  0.6396E+01  0.1124E+03
      1.097  0.6388E+01  0.1128E+03
      1.161  0.5678E+01  0.1132E+03
      1.225  0.6105E+01  0.1136E+03
      1.289  0.7153E+01  0.1140E+03
      1.353  0.7701E+01  0.1145E+03
      1.417  0.7838E+01  0.1150E+03
      1.481  0.8489E+01  0.1156E+03
      1.545  0.1020E+02  0.1162E+03
      1.609  0.1209E+02  0.1170E+03
      1.673  0.1303E+02  0.1178E+03
      1.736  0.1295E+02  0.1186E+03
      1.800  0.1236E+02  0.1194E+03
      1.864  0.1126E+02  0.1201E+03
      1.928  0.9942E+01  0.1208E+03
      1.992  0.9623E+01  0.1214E+03
      2.056  0.9997E+01  0.1220E+03
      2.120  0.1053E+02  0.1227E+03
      2.184  0.1227E+02  0.1235E+03
      2.248  0.1449E+02  0.1244E+03
      2.312  0.1452E+02  0.1254E+03
      2.376  0.1340E+02  0.1262E+03
      2.440  0.1318E+02  0.1271E+03
      2.504  0.1354E+02  0.1279E+03
      2.568  0.1451E+02  0.1288E+03
      2.632  0.1579E+02  0.1299E+03
      2.696  0.1580E+02  0.1309E+03
      2.760  0.1422E+02  0.1318E+03
      2.824  0.1247E+02  0.1326E+03
      2.888  0.1159E+02  0.1333E+03
      2.952  0.1100E+02  0.1340E+03
      3.016  0.9627E+01  0.1346E+03
      3.080  0.7694E+01  0.1351E+03
      3.144  0.5799E+01  0.1355E+03
      3.208  0.4097E+01  0.1358E+03
      3.272  0.2458E+01  0.1359E+03
      3.336  0.1006E+01  0.1360E+03
      3.400  0.2290E+00  0.1360E+03
      3.464  0.2600E-01  0.1360E+03
      3.527  0.1404E-02  0.1360E+03
      3.591  0.3525E-04  0.1360E+03
      3.655  0.4064E-06  0.1360E+03
      3.719  0.2134E-08  0.1360E+03
      3.783  0.5074E-11  0.1360E+03
      3.847  0.5541E-14  0.1360E+03
      3.911  0.0000E+00  0.1360E+03
      3.975  0.0000E+00  0.1360E+03
      4.039  0.0000E+00  0.1360E+03
      4.103  0.0000E+00  0.1360E+03
      4.167  0.0000E+00  0.1360E+03
      4.231  0.0000E+00  0.1360E+03
