   24   24    1    1
  0.4176334E+02  0.3540400E-09  0.1044544E-08  0.2750143E-08  0.5000000E-15
  1.000000000000000E-004
  CAR 
 unknown system                          
    108     54     68
 
  0.0000000E+00  0.0000000E+00  0.0000000E+00  0.9615385E-02
    1      -13.958266
    2      -13.567184
    3      -12.827011
    4      -12.716580
    5      -12.515863
    6      -12.226584
    7      -12.142174
    8      -12.082381
    9      -11.461739
   10      -11.221981
   11      -11.018949
   12      -10.867566
   13       -8.065681
   14       -7.860696
   15       -7.776967
   16       -7.167911
   17       -6.916582
   18       -6.767289
   19       -6.521917
   20       -6.465559
   21       -5.856461
   22       -5.681969
   23       -4.773328
   24       -4.495816
   25       -4.079089
   26       -3.740316
   27       -3.720516
   28       -3.481691
   29       -3.133100
   30       -3.084190
   31       -2.870959
   32       -2.865025
   33       -2.821686
   34       -2.532202
   35       -2.481895
   36       -2.419614
   37       -2.395480
   38       -2.231998
   39       -2.158928
   40       -2.052320
   41       -1.868064
   42       -1.754021
   43       -1.702787
   44       -1.670319
   45       -1.603996
   46       -1.518849
   47       -1.459263
   48       -1.436373
   49       -1.242163
   50       -1.035480
   51       -0.936844
   52       -0.461691
   53       -0.363606
   54        0.112982
   55        0.297147
   56        0.492865
   57        0.653349
   58        1.169334
   59        1.286334
   60        1.594556
   61        1.680835
   62        1.898982
   63        1.965117
   64        2.075086
   65        2.176475
   66        2.404552
   67        2.625233
   68        2.733449
 
  0.7692308E-01 -0.1387779E-16  0.0000000E+00  0.1923077E-01
    1      -13.903958
    2      -13.505841
    3      -12.774876
    4      -12.663480
    5      -12.460280
    6      -12.172585
    7      -12.080839
    8      -12.021778
    9      -11.412814
   10      -11.176381
   11      -10.970424
   12      -10.815265
   13       -8.100265
   14       -7.828158
   15       -7.747408
   16       -7.183902
   17       -6.880619
   18       -6.743624
   19       -6.517523
   20       -6.469343
   21       -5.822756
   22       -5.653899
   23       -4.776051
   24       -4.463484
   25       -4.109146
   26       -3.829637
   27       -3.741585
   28       -3.603645
   29       -3.445549
   30       -3.323704
   31       -3.268420
   32       -3.168256
   33       -2.981696
   34       -2.849795
   35       -2.759390
   36       -2.614405
   37       -2.503202
   38       -2.358177
   39       -2.222432
   40       -2.144784
   41       -2.043651
   42       -1.991978
   43       -1.920807
   44       -1.865216
   45       -1.832763
   46       -1.736006
   47       -1.647772
   48       -1.528034
   49       -1.246961
   50       -1.141012
   51       -0.940065
   52       -0.453868
   53       -0.176235
   54        0.147671
   55        0.440007
   56        0.572477
   57        0.960940
   58        1.546588
   59        1.674097
   60        1.761205
   61        2.100410
   62        2.178968
   63        2.243698
   64        2.325326
   65        2.505519
   66        2.581188
   67        2.740009
   68        2.924495
 
  0.1538462E+00 -0.2775558E-16  0.0000000E+00  0.1923077E-01
    1      -13.743918
    2      -13.322880
    3      -12.619177
    4      -12.505445
    5      -12.295551
    6      -12.012844
    7      -11.901853
    8      -11.843571
    9      -11.270869
   10      -11.044505
   11      -10.831197
   12      -10.662432
   13       -8.194649
   14       -7.785486
   15       -7.695949
   16       -7.246990
   17       -6.820318
   18       -6.723134
   19       -6.532851
   20       -6.485315
   21       -5.747803
   22       -5.599158
   23       -4.892835
   24       -4.592346
   25       -4.410688
   26       -4.252870
   27       -4.122489
   28       -4.064048
   29       -3.972365
   30       -3.768123
   31       -3.700647
   32       -3.570305
   33       -3.416072
   34       -3.291257
   35       -3.178802
   36       -3.006092
   37       -2.994427
   38       -2.907216
   39       -2.744551
   40       -2.519072
   41       -2.401879
   42       -2.242374
   43       -2.178156
   44       -2.080982
   45       -1.995111
   46       -1.902255
   47       -1.753128
   48       -1.664440
   49       -1.315727
   50       -1.226601
   51       -0.939303
   52       -0.533646
   53       -0.206911
   54        0.087298
   55        0.564544
   56        0.731503
   57        1.433120
   58        1.778636
   59        1.954751
   60        2.240200
   61        2.391104
   62        2.567716
   63        2.624978
   64        2.752457
   65        2.914771
   66        2.950255
   67        3.040060
   68        3.078666
 
  0.2307692E+00 -0.4163336E-16  0.0000000E+00  0.1923077E-01
    1      -13.488330
    2      -13.021875
    3      -12.362972
    4      -12.247361
    5      -12.028852
    6      -11.756342
    7      -11.620901
    8      -11.560905
    9      -11.054092
   10      -10.845588
   11      -10.627493
   12      -10.423384
   13       -8.385467
   14       -7.853165
   15       -7.765566
   16       -7.389543
   17       -6.983233
   18       -6.730068
   19       -6.662035
   20       -6.508615
   21       -5.765854
   22       -5.654870
   23       -5.365251
   24       -5.264861
   25       -4.843678
   26       -4.701775
   27       -4.632990
   28       -4.539271
   29       -4.459000
   30       -4.218037
   31       -4.149688
   32       -3.928401
   33       -3.809288
   34       -3.703733
   35       -3.498754
   36       -3.489825
   37       -3.232215
   38       -3.067232
   39       -2.985070
   40       -2.754552
   41       -2.611389
   42       -2.470165
   43       -2.329320
   44       -2.197710
   45       -1.948228
   46       -1.898976
   47       -1.807758
   48       -1.735934
   49       -1.498435
   50       -1.329340
   51       -1.085836
   52       -0.771718
   53       -0.563296
   54       -0.173018
   55        0.594829
   56        0.754506
   57        1.272719
   58        1.827965
   59        1.886136
   60        2.006623
   61        2.257434
   62        2.357184
   63        2.619040
   64        2.689387
   65        2.847063
   66        2.871071
   67        2.989078
   68        3.142322
 
  0.3076923E+00 -0.5551115E-16  0.0000000E+00  0.1923077E-01
    1      -13.160610
    2      -12.610119
    3      -12.014710
    4      -11.901891
    5      -11.676883
    6      -11.425578
    7      -11.269492
    8      -11.207111
    9      -10.809921
   10      -10.630805
   11      -10.441178
   12      -10.129708
   13       -8.680432
   14       -8.132630
   15       -8.109907
   16       -7.726883
   17       -7.203813
   18       -7.022283
   19       -6.929416
   20       -6.686982
   21       -6.188651
   22       -6.125746
   23       -5.990247
   24       -5.789863
   25       -5.237762
   26       -5.020757
   27       -4.880131
   28       -4.805286
   29       -4.724048
   30       -4.384573
   31       -4.316821
   32       -4.234003
   33       -4.165173
   34       -3.888797
   35       -3.442391
   36       -3.395549
   37       -3.152041
   38       -3.108843
   39       -3.017857
   40       -2.904458
   41       -2.801181
   42       -2.628469
   43       -2.451312
   44       -2.274809
   45       -2.090686
   46       -1.957426
   47       -1.910142
   48       -1.854063
   49       -1.739289
   50       -1.392956
   51       -1.291068
   52       -1.126785
   53       -0.942579
   54       -0.596301
   55        0.624586
   56        0.746471
   57        1.065699
   58        1.569230
   59        1.716364
   60        1.818269
   61        1.988068
   62        2.188504
   63        2.287106
   64        2.335615
   65        2.636744
   66        2.659541
   67        2.800791
   68        2.955058
 
  0.3846154E+00 -0.8326673E-16  0.0000000E+00  0.1923077E-01
    1      -12.813471
    2      -12.101766
    3      -11.595565
    4      -11.500963
    5      -11.277791
    6      -11.074827
    7      -10.912118
    8      -10.867722
    9      -10.655643
   10      -10.513550
   11      -10.481547
   12       -9.842753
   13       -8.857106
   14       -8.590949
   15       -8.403023
   16       -8.136817
   17       -7.488428
   18       -7.459327
   19       -7.435426
   20       -7.079220
   21       -6.786116
   22       -6.688586
   23       -6.670771
   24       -6.351599
   25       -5.252855
   26       -5.229677
   27       -4.830862
   28       -4.658160
   29       -4.554704
   30       -4.313908
   31       -4.223833
   32       -4.114422
   33       -4.015380
   34       -3.688350
   35       -3.679381
   36       -3.439797
   37       -3.294725
   38       -3.223273
   39       -3.164912
   40       -2.927002
   41       -2.817614
   42       -2.627991
   43       -2.607811
   44       -2.483956
   45       -2.325806
   46       -2.186894
   47       -2.057045
   48       -1.980730
   49       -1.827961
   50       -1.618611
   51       -1.411925
   52       -1.300644
   53       -1.144940
   54       -0.950090
   55        0.541325
   56        0.737439
   57        0.998357
   58        1.380095
   59        1.591301
   60        1.663596
   61        1.754326
   62        2.019439
   63        2.043843
   64        2.208628
   65        2.267227
   66        2.453824
   67        2.663181
   68        2.775958
 
  0.4615385E+00 -0.8326673E-16  0.0000000E+00  0.1923077E-01
    1      -12.561375
    2      -11.527960
    3      -11.172484
    4      -11.138985
    5      -10.971762
    6      -10.873949
    7      -10.824758
    8      -10.752586
    9      -10.680125
   10      -10.663733
   11      -10.571692
   12       -9.660022
   13       -8.916269
   14       -8.714517
   15       -8.466471
   16       -8.259451
   17       -8.105131
   18       -7.807136
   19       -7.598532
   20       -7.314438
   21       -7.269149
   22       -7.202684
   23       -7.046516
   24       -6.844110
   25       -5.188909
   26       -4.942093
   27       -4.661123
   28       -4.525471
   29       -4.301909
   30       -4.105809
   31       -4.026128
   32       -3.971319
   33       -3.863728
   34       -3.814846
   35       -3.695358
   36       -3.606077
   37       -3.406894
   38       -3.335965
   39       -3.279094
   40       -3.045953
   41       -2.982501
   42       -2.850117
   43       -2.716354
   44       -2.646737
   45       -2.387546
   46       -2.241584
   47       -2.152206
   48       -2.030705
   49       -1.829306
   50       -1.684816
   51       -1.542299
   52       -1.484875
   53       -1.191495
   54       -1.023751
   55        0.457558
   56        0.645717
   57        0.991482
   58        1.340477
   59        1.514085
   60        1.580286
   61        1.676740
   62        1.833792
   63        1.972313
   64        2.021553
   65        2.263313
   66        2.417921
   67        2.461738
   68        2.598236
 
  0.0000000E+00  0.2500000E+00  0.0000000E+00  0.1923077E-01
    1      -13.946446
    2      -13.511879
    3      -13.000943
    4      -12.814117
    5      -12.513872
    6      -12.216068
    7      -11.986464
    8      -11.890270
    9      -11.506619
   10      -11.275806
   11      -11.027451
   12      -10.855550
   13       -8.542775
   14       -7.868236
   15       -7.447470
   16       -7.362682
   17       -6.737228
   18       -6.696343
   19       -6.606481
   20       -6.249364
   21       -5.777260
   22       -5.583472
   23       -4.671251
   24       -4.313291
   25       -4.132588
   26       -4.037700
   27       -3.689582
   28       -3.656214
   29       -3.364359
   30       -3.155292
   31       -2.908421
   32       -2.859796
   33       -2.734918
   34       -2.545601
   35       -2.426604
   36       -2.401214
   37       -2.354487
   38       -2.234927
   39       -2.184905
   40       -2.110583
   41       -1.988608
   42       -1.907731
   43       -1.713160
   44       -1.657031
   45       -1.531856
   46       -1.461914
   47       -1.418876
   48       -1.389148
   49       -1.174701
   50       -1.019410
   51       -0.938641
   52       -0.699762
   53       -0.373271
   54        0.135316
   55        0.382990
   56        0.523224
   57        1.022031
   58        1.188104
   59        1.364145
   60        1.625523
   61        1.698339
   62        1.835190
   63        1.955420
   64        2.122677
   65        2.232981
   66        2.528633
   67        2.626686
   68        2.779611
 
  0.7692308E-01  0.2500000E+00  0.0000000E+00  0.1923077E-01
    1      -13.889943
    2      -13.435055
    3      -12.981828
    4      -12.775201
    5      -12.456792
    6      -12.160276
    7      -11.903762
    8      -11.791499
    9      -11.465244
   10      -11.236797
   11      -10.983052
   12      -10.805142
   13       -8.601140
   14       -7.847267
   15       -7.459705
   16       -7.340350
   17       -6.714407
   18       -6.680682
   19       -6.544473
   20       -6.224503
   21       -5.728732
   22       -5.544600
   23       -4.716300
   24       -4.329195
   25       -4.140654
   26       -4.112140
   27       -3.872130
   28       -3.680417
   29       -3.562963
   30       -3.418756
   31       -3.220204
   32       -3.054519
   33       -2.958443
   34       -2.830977
   35       -2.707861
   36       -2.620719
   37       -2.510209
   38       -2.425699
   39       -2.319644
   40       -2.190481
   41       -2.137487
   42       -2.078237
   43       -2.022811
   44       -1.862031
   45       -1.774422
   46       -1.725294
   47       -1.611290
   48       -1.389665
   49       -1.256948
   50       -1.109853
   51       -0.926917
   52       -0.629109
   53       -0.199899
   54        0.177518
   55        0.457423
   56        0.719410
   57        1.226982
   58        1.580850
   59        1.707117
   60        1.834510
   61        1.934364
   62        2.191097
   63        2.366924
   64        2.464120
   65        2.502224
   66        2.630534
   67        2.889314
   68        2.993577
 
  0.1538462E+00  0.2500000E+00  0.0000000E+00  0.1923077E-01
    1      -13.729169
    2      -13.238544
    3      -12.845282
    4      -12.620298
    5      -12.290464
    6      -11.997104
    7      -11.727738
    8      -11.594183
    9      -11.325804
   10      -11.098745
   11      -10.841656
   12      -10.656646
   13       -8.666662
   14       -7.843675
   15       -7.437612
   16       -7.316450
   17       -6.687602
   18       -6.628134
   19       -6.514536
   20       -6.304839
   21       -5.681419
   22       -5.539369
   23       -4.870743
   24       -4.688426
   25       -4.415709
   26       -4.345338
   27       -4.318870
   28       -4.116324
   29       -3.997421
   30       -3.743630
   31       -3.643076
   32       -3.484413
   33       -3.367803
   34       -3.214831
   35       -3.105704
   36       -2.993203
   37       -2.943536
   38       -2.854157
   39       -2.729810
   40       -2.625895
   41       -2.481923
   42       -2.382443
   43       -2.306631
   44       -2.141637
   45       -1.998662
   46       -1.939856
   47       -1.846119
   48       -1.515093
   49       -1.350802
   50       -1.169382
   51       -0.916207
   52       -0.589067
   53       -0.239885
   54        0.100199
   55        0.389081
   56        1.043153
   57        1.462178
   58        1.643906
   59        1.918251
   60        2.099373
   61        2.322094
   62        2.643560
   63        2.755219
   64        2.835356
   65        2.954141
   66        3.036147
   67        3.103858
   68        3.231109
 
  0.2307692E+00  0.2500000E+00  0.0000000E+00  0.1923077E-01
    1      -13.474683
    2      -12.927205
    3      -12.593842
    4      -12.353569
    5      -12.022731
    6      -11.735702
    7      -11.477176
    8      -11.317902
    9      -11.104136
   10      -10.877293
   11      -10.624065
   12      -10.422753
   13       -8.797861
   14       -7.990261
   15       -7.426942
   16       -7.350611
   17       -6.751422
   18       -6.723067
   19       -6.675464
   20       -6.522113
   21       -5.850963
   22       -5.768184
   23       -5.241427
   24       -5.212724
   25       -5.058350
   26       -4.790532
   27       -4.693082
   28       -4.581536
   29       -4.427936
   30       -4.237300
   31       -4.047906
   32       -3.817786
   33       -3.753555
   34       -3.535827
   35       -3.406796
   36       -3.245176
   37       -3.186380
   38       -3.117704
   39       -2.955659
   40       -2.817018
   41       -2.670676
   42       -2.553243
   43       -2.397364
   44       -2.263750
   45       -2.023388
   46       -1.953894
   47       -1.868459
   48       -1.780999
   49       -1.422988
   50       -1.372695
   51       -1.058240
   52       -0.757068
   53       -0.583817
   54       -0.174507
   55        0.265007
   56        0.905686
   57        1.249575
   58        1.444292
   59        1.599148
   60        1.880478
   61        2.220607
   62        2.521713
   63        2.636037
   64        2.681805
   65        2.849258
   66        3.002961
   67        3.108295
   68        3.223065
 
  0.3076923E+00  0.2500000E+00  0.0000000E+00  0.1923077E-01
    1      -13.150064
    2      -12.510556
    3      -12.234701
    4      -11.986526
    5      -11.671191
    6      -11.397299
    7      -11.189255
    8      -11.004570
    9      -10.840831
   10      -10.623248
   11      -10.418073
   12      -10.130471
   13       -8.997201
   14       -8.331124
   15       -7.734050
   16       -7.455402
   17       -7.227403
   18       -7.139077
   19       -6.988178
   20       -6.765527
   21       -6.266290
   22       -6.198176
   23       -5.945186
   24       -5.681037
   25       -5.407424
   26       -5.185256
   27       -4.969795
   28       -4.857055
   29       -4.495203
   30       -4.412882
   31       -4.337716
   32       -4.061290
   33       -4.025554
   34       -3.591289
   35       -3.420285
   36       -3.352637
   37       -3.058300
   38       -3.020331
   39       -2.957991
   40       -2.879661
   41       -2.781975
   42       -2.587139
   43       -2.542256
   44       -2.383206
   45       -2.220363
   46       -2.012056
   47       -1.942218
   48       -1.896123
   49       -1.771871
   50       -1.485052
   51       -1.293418
   52       -1.161634
   53       -0.936575
   54       -0.597902
   55        0.282033
   56        0.717304
   57        0.973129
   58        1.212256
   59        1.293977
   60        1.660153
   61        2.129101
   62        2.228924
   63        2.392642
   64        2.455937
   65        2.589796
   66        2.717746
   67        2.877605
   68        3.005138
 
  0.3846154E+00  0.2500000E+00  0.0000000E+00  0.1923077E-01
    1      -12.807671
    2      -12.007079
    3      -11.784568
    4      -11.547628
    5      -11.275340
    6      -11.040242
    7      -10.926259
    8      -10.747342
    9      -10.631197
   10      -10.494023
   11      -10.467134
   12       -9.837895
   13       -8.987622
   14       -8.659497
   15       -8.137926
   16       -7.957037
   17       -7.805890
   18       -7.638029
   19       -7.385410
   20       -7.092902
   21       -6.723853
   22       -6.689629
   23       -6.645567
   24       -6.328082
   25       -5.370326
   26       -5.238164
   27       -4.977379
   28       -4.813966
   29       -4.523091
   30       -4.287237
   31       -4.153432
   32       -3.931923
   33       -3.886836
   34       -3.526900
   35       -3.383326
   36       -3.367032
   37       -3.297462
   38       -3.202503
   39       -3.145321
   40       -2.944567
   41       -2.757336
   42       -2.680662
   43       -2.582125
   44       -2.533205
   45       -2.352179
   46       -2.222719
   47       -2.107860
   48       -2.018745
   49       -1.893616
   50       -1.694980
   51       -1.475500
   52       -1.431274
   53       -1.197044
   54       -0.895927
   55        0.329896
   56        0.631494
   57        0.864755
   58        1.177911
   59        1.298209
   60        1.502849
   61        1.795755
   62        1.997294
   63        2.080250
   64        2.290910
   65        2.544771
   66        2.577977
   67        2.648658
   68        2.720150
 
  0.4615385E+00  0.2500000E+00  0.0000000E+00  0.1923077E-01
    1      -12.560042
    2      -11.457340
    3      -11.289017
    4      -11.131475
    5      -10.984735
    6      -10.893704
    7      -10.851511
    8      -10.723843
    9      -10.700029
   10      -10.609815
   11      -10.541411
   12       -9.670333
   13       -8.796920
   14       -8.581552
   15       -8.426547
   16       -8.353893
   17       -8.243963
   18       -8.014784
   19       -7.544606
   20       -7.344309
   21       -7.246738
   22       -7.164178
   23       -7.045513
   24       -6.769261
   25       -5.138687
   26       -5.043698
   27       -4.768571
   28       -4.500523
   29       -4.256477
   30       -4.173120
   31       -4.082378
   32       -3.964491
   33       -3.851645
   34       -3.685369
   35       -3.657429
   36       -3.529218
   37       -3.430142
   38       -3.291761
   39       -3.220488
   40       -3.019747
   41       -2.952962
   42       -2.701345
   43       -2.630807
   44       -2.616122
   45       -2.530301
   46       -2.237824
   47       -2.160839
   48       -2.114044
   49       -1.839596
   50       -1.708249
   51       -1.633066
   52       -1.559000
   53       -1.354652
   54       -0.896653
   55        0.329064
   56        0.606672
   57        0.955610
   58        1.376198
   59        1.451706
   60        1.509765
   61        1.543330
   62        1.758642
   63        2.044461
   64        2.192667
   65        2.371402
   66        2.433806
   67        2.541724
   68        2.561257
 
 -0.4615385E+00  0.2500000E+00  0.0000000E+00  0.1923077E-01
    1      -12.562520
    2      -11.561645
    3      -11.120669
    4      -11.095203
    5      -10.957542
    6      -10.837928
    7      -10.827975
    8      -10.780718
    9      -10.732783
   10      -10.713015
   11      -10.555234
   12       -9.667943
   13       -8.903256
   14       -8.783078
   15       -8.460509
   16       -8.211028
   17       -7.970401
   18       -7.853344
   19       -7.631613
   20       -7.379949
   21       -7.304876
   22       -7.244792
   23       -7.065403
   24       -6.696862
   25       -5.154705
   26       -4.759398
   27       -4.610387
   28       -4.581515
   29       -4.388494
   30       -4.223200
   31       -4.042688
   32       -4.028921
   33       -3.911607
   34       -3.870635
   35       -3.681248
   36       -3.638676
   37       -3.545064
   38       -3.378407
   39       -3.279453
   40       -3.001950
   41       -2.832573
   42       -2.720324
   43       -2.656923
   44       -2.612242
   45       -2.412554
   46       -2.203973
   47       -2.196529
   48       -2.046118
   49       -1.794255
   50       -1.699632
   51       -1.604357
   52       -1.502311
   53       -1.298171
   54       -0.876495
   55        0.352465
   56        0.635171
   57        1.075868
   58        1.336527
   59        1.536653
   60        1.661524
   61        1.720552
   62        1.773364
   63        2.103856
   64        2.215144
   65        2.316681
   66        2.409950
   67        2.538977
   68        2.590814
 
 -0.3846154E+00  0.2500000E+00  0.0000000E+00  0.1923077E-01
    1      -12.815719
    2      -12.128311
    3      -11.510792
    4      -11.470941
    5      -11.276001
    6      -11.080489
    7      -10.974138
    8      -10.940070
    9      -10.658149
   10      -10.482285
   11      -10.476629
   12       -9.823807
   13       -8.768542
   14       -8.706680
   15       -8.517528
   16       -8.025774
   17       -7.469872
   18       -7.380433
   19       -7.354032
   20       -7.176171
   21       -6.834409
   22       -6.736746
   23       -6.692276
   24       -6.242034
   25       -5.238200
   26       -5.076615
   27       -4.878441
   28       -4.739910
   29       -4.441675
   30       -4.397319
   31       -4.278897
   32       -4.118549
   33       -4.000239
   34       -3.763588
   35       -3.747552
   36       -3.502152
   37       -3.430633
   38       -3.205530
   39       -3.167833
   40       -3.032408
   41       -2.769633
   42       -2.594860
   43       -2.529636
   44       -2.423516
   45       -2.284288
   46       -2.183619
   47       -1.979030
   48       -1.961004
   49       -1.806687
   50       -1.652601
   51       -1.450062
   52       -1.377253
   53       -1.080062
   54       -0.841679
   55        0.399194
   56        0.760003
   57        1.125544
   58        1.348112
   59        1.634896
   60        1.747594
   61        1.870153
   62        2.082058
   63        2.217541
   64        2.290784
   65        2.374566
   66        2.456358
   67        2.568209
   68        2.647859
 
 -0.3076923E+00  0.2500000E+00  0.0000000E+00  0.1923077E-01
    1      -13.161953
    2      -12.622411
    3      -11.973067
    4      -11.887000
    5      -11.676246
    6      -11.407312
    7      -11.322881
    8      -11.252994
    9      -10.801653
   10      -10.611921
   11      -10.447211
   12      -10.113518
   13       -8.581263
   14       -8.285891
   15       -8.213346
   16       -7.568249
   17       -7.146048
   18       -7.025782
   19       -6.900861
   20       -6.692944
   21       -6.222382
   22       -6.180854
   23       -5.999566
   24       -5.758851
   25       -5.178334
   26       -5.074050
   27       -4.916250
   28       -4.769600
   29       -4.667086
   30       -4.399322
   31       -4.318764
   32       -4.265433
   33       -4.148948
   34       -3.922358
   35       -3.503735
   36       -3.462746
   37       -3.162562
   38       -3.112954
   39       -3.073417
   40       -2.877963
   41       -2.801463
   42       -2.630659
   43       -2.369678
   44       -2.209741
   45       -2.047850
   46       -1.947223
   47       -1.889832
   48       -1.845110
   49       -1.729492
   50       -1.493168
   51       -1.318168
   52       -1.185496
   53       -0.806677
   54       -0.579980
   55        0.381380
   56        0.940947
   57        1.208635
   58        1.561169
   59        1.681876
   60        1.907224
   61        1.966880
   62        2.221246
   63        2.291895
   64        2.416623
   65        2.630579
   66        2.719593
   67        2.763614
   68        2.915597
 
 -0.2307692E+00  0.2500000E+00  0.0000000E+00  0.1923077E-01
    1      -13.487016
    2      -13.017644
    3      -12.377628
    4      -12.259748
    5      -12.028492
    6      -11.737933
    7      -11.625369
    8      -11.548063
    9      -11.057810
   10      -10.843319
   11      -10.626105
   12      -10.412966
   13       -8.425583
   14       -7.938033
   15       -7.808402
   16       -7.215140
   17       -6.973909
   18       -6.719382
   19       -6.665127
   20       -6.445938
   21       -5.767936
   22       -5.729558
   23       -5.363780
   24       -5.327584
   25       -4.862817
   26       -4.747407
   27       -4.628665
   28       -4.541788
   29       -4.386953
   30       -4.202023
   31       -4.079567
   32       -3.934073
   33       -3.819161
   34       -3.771034
   35       -3.489484
   36       -3.473395
   37       -3.230408
   38       -3.087085
   39       -2.997224
   40       -2.729242
   41       -2.593908
   42       -2.479270
   43       -2.422066
   44       -2.096196
   45       -1.942487
   46       -1.874049
   47       -1.811381
   48       -1.718754
   49       -1.494193
   50       -1.369392
   51       -1.086342
   52       -0.838367
   53       -0.488800
   54       -0.148983
   55        0.288131
   56        1.065613
   57        1.370196
   58        1.722822
   59        1.828151
   60        1.984923
   61        2.223152
   62        2.336053
   63        2.594065
   64        2.706620
   65        2.857433
   66        2.901377
   67        2.950956
   68        3.077101
 
 -0.1538462E+00  0.2500000E+00  0.0000000E+00  0.1923077E-01
    1      -13.739028
    2      -13.301414
    3      -12.692876
    4      -12.549440
    5      -12.295065
    6      -11.999006
    7      -11.845011
    8      -11.765455
    9      -11.290172
   10      -11.062512
   11      -10.829181
   12      -10.652552
   13       -8.405750
   14       -7.834505
   15       -7.563545
   16       -7.236510
   17       -6.778125
   18       -6.666279
   19       -6.578316
   20       -6.365799
   21       -5.722012
   22       -5.589208
   23       -4.868630
   24       -4.730538
   25       -4.336239
   26       -4.285708
   27       -4.188354
   28       -4.043750
   29       -3.939399
   30       -3.840122
   31       -3.713422
   32       -3.500538
   33       -3.458175
   34       -3.299396
   35       -3.182583
   36       -3.021367
   37       -2.937903
   38       -2.864972
   39       -2.691511
   40       -2.557397
   41       -2.504591
   42       -2.389328
   43       -2.203733
   44       -2.016898
   45       -1.984802
   46       -1.816126
   47       -1.751444
   48       -1.619446
   49       -1.308320
   50       -1.214650
   51       -0.931720
   52       -0.619494
   53       -0.207067
   54        0.154497
   55        0.305286
   56        1.071097
   57        1.486257
   58        1.719909
   59        1.804403
   60        2.180669
   61        2.429176
   62        2.619315
   63        2.749302
   64        2.782156
   65        2.881893
   66        2.905735
   67        3.038407
   68        3.125555
 
 -0.7692308E-01  0.2500000E+00  0.0000000E+00  0.1923077E-01
    1      -13.895356
    2      -13.467174
    3      -12.903352
    4      -12.737416
    5      -12.459301