 vasp.5.3.5 31Mar14 (build Oct 29 2014 16:16:03) complex                        
  
 executed on          Linux-UFHPC date 2016.02.09  17:26:45
 running on    8 total cores
 distrk:  each k-point on    8 cores,    1 groups
 distr:  one band on NCORES_PER_BAND=   2 cores,    4 groups


--------------------------------------------------------------------------------------------------------


 INCAR:
 POTCAR:    PAW_PBE P 17Jan2003                   
 POTCAR:   PAW_PBE Si 05Jan2001                   

 ----------------------------------------------------------------------------- 
|                                                                             |
|  ADVICE TO THIS USER RUNNING 'VASP/VAMP'   (HEAR YOUR MASTER'S VOICE ...):  |
|                                                                             |
|      You have switched on vdW-DFT.                                          |
|      This routine was written and supplied by Jiri Klimes.                  |
|      We recommed that you carefully read and cite the following             |
|      publication                                                            |
|      J. Klimes, D.R. Bowler, A. Michelides                                  |
|        J. Phys.: Cond Matt. 22 022201 (2010)                                |
|      J. Klimes, D.R. Bowler, A. Michelides                                  |
|        Phys. Rev. B. 83, 195131 (2011)                                      |
|      and references therein.                                                |
|                                                                             |
 ----------------------------------------------------------------------------- 

 POTCAR:    PAW_PBE P 17Jan2003                   
   VRHFIN =P : s2p3                                                             
   LEXCH  = PE                                                                  
   EATOM  =   176.0430 eV,   12.9388 Ry                                         
                                                                                
   TITEL  = PAW_PBE P 17Jan2003                                                 
   LULTRA =        F    use ultrasoft PP ?                                      
   IUNSCR =        1    unscreen: 0-lin 1-nonlin 2-no                           
   RPACOR =    1.500    partial core radius                                     
   POMASS =   30.974; ZVAL   =    5.000    mass and valenz                      
   RCORE  =    1.900    outmost cutoff radius                                   
   RWIGS  =    2.330; RWIGS  =    1.233    wigner-seitz radius (au A)           
   ENMAX  =  270.000; ENMIN  =  191.280 eV                                      
   ICORE  =        2    local potential                                         
   LCOR   =        T    correct aug charges                                     
   LPAW   =        T    paw PP                                                  
   EAUG   =  342.924                                                            
   DEXC   =    -.002                                                            
   RMAX   =    2.887    core radius for proj-oper                               
   RAUG   =    1.300    factor for augmentation sphere                          
   RDEP   =    1.931    radius for radial grids                                 
   QCUT   =   -4.330; QGAM   =    8.659    optimization parameters              
                                                                                
   Description                                                                  
     l     E      TYP  RCUT    TYP  RCUT                                        
     0   .000     23  1.900                                                     
     0   .000     23  1.900                                                     
     1   .000     23  1.900                                                     
     1   .000     23  1.900                                                     
     2   .000     23  1.900                                                     
  local pseudopotential read in
  partial core-charges read in
  atomic valenz-charges read in
  non local Contribution for L=           0  read in
    real space projection operators read in
  non local Contribution for L=           0  read in
    real space projection operators read in
  non local Contribution for L=           1  read in
    real space projection operators read in
  non local Contribution for L=           1  read in
    real space projection operators read in
    PAW grid and wavefunctions read in
 
   number of l-projection  operators is LMAX  =           4
   number of lm-projection operators is LMMAX =           8
 
 POTCAR:   PAW_PBE Si 05Jan2001                   
   VRHFIN =Si: s2p2                                                             
   LEXCH  = PE                                                                  
   EATOM  =   103.0669 eV,    7.5752 Ry                                         
                                                                                
   TITEL  = PAW_PBE Si 05Jan2001                                                
   LULTRA =        F    use ultrasoft PP ?                                      
   IUNSCR =        1    unscreen: 0-lin 1-nonlin 2-no                           
   RPACOR =    1.500    partial core radius                                     
   POMASS =   28.085; ZVAL   =    4.000    mass and valenz                      
   RCORE  =    1.900    outmost cutoff radius                                   
   RWIGS  =    2.480; RWIGS  =    1.312    wigner-seitz radius (au A)           
   ENMAX  =  245.345; ENMIN  =  184.009 eV                                      
   ICORE  =        2    local potential                                         
   LCOR   =        T    correct aug charges                                     
   LPAW   =        T    paw PP                                                  
   EAUG   =  322.069                                                            
   DEXC   =    -.007                                                            
   RMAX   =    2.944    core radius for proj-oper                               
   RAUG   =    1.300    factor for augmentation sphere                          
   RDEP   =    1.993    radius for radial grids                                 
   QCUT   =   -4.246; QGAM   =    8.493    optimization parameters              
                                                                                
   Description                                                                  
     l     E      TYP  RCUT    TYP  RCUT                                        
     0   .000     23  1.900                                                     
     0   .000     23  1.900                                                     
     1   .000     23  1.900                                                     
     1   .000     23  1.900                                                     
     2   .000      7  1.900                                                     
  local pseudopotential read in
  partial core-charges read in
  atomic valenz-charges read in
  non local Contribution for L=           0  read in
    real space projection operators read in
  non local Contribution for L=           0  read in
    real space projection operators read in
  non local Contribution for L=           1  read in
    real space projection operators read in
  non local Contribution for L=           1  read in
    real space projection operators read in
    PAW grid and wavefunctions read in
 
   number of l-projection  operators is LMAX  =           4
   number of lm-projection operators is LMMAX =           8
 
 Optimization of the real space projectors (new method)

 maximal supplied QI-value         = 19.84
 optimisation between [QCUT,QGAM] = [  8.73, 17.66] = [ 21.34, 87.33] Ry 
 Optimized for a Real-space Cutoff    1.50 Angstroem

   l    n(q)    QCUT    max X(q) W(low)/X(q) W(high)/X(q)  e(spline) 
   0      8     8.731     6.651    0.16E-04    0.15E-04    0.77E-08
   0      8     8.731    90.285    0.16E-03    0.90E-04    0.16E-06
   1      7     8.731     4.328    0.47E-04    0.36E-04    0.45E-07
   1      7     8.731    54.583    0.13E-03    0.39E-03    0.20E-06
 Optimization of the real space projectors (new method)

 maximal supplied QI-value         = 19.84
 optimisation between [QCUT,QGAM] = [  8.73, 17.66] = [ 21.34, 87.33] Ry 
 Optimized for a Real-space Cutoff    1.46 Angstroem

   l    n(q)    QCUT    max X(q) W(low)/X(q) W(high)/X(q)  e(spline) 
   0      8     8.731     8.708    0.16E-04    0.11E-04    0.68E-08
   0      8     8.731   106.241    0.24E-03    0.77E-04    0.13E-06
   1      7     8.731     5.901    0.34E-04    0.38E-04    0.36E-07
   1      7     8.731    73.241    0.12E-03    0.39E-03    0.15E-06

 ----------------------------------------------------------------------------- 
|                                                                             |
|  ADVICE TO THIS USER RUNNING 'VASP/VAMP'   (HEAR YOUR MASTER'S VOICE ...):  |
|                                                                             |
|      You enforced a specific xc-type in the INCAR file,                     |
|      a different type was found on the POTCAR file                          |
|          I HOPE YOU KNOW, WHAT YOU ARE  DOING                               |
|                                                                             |
 ----------------------------------------------------------------------------- 

  PAW_PBE P 17Jan2003                   :
 energy of atom  1       EATOM= -176.0430
 kinetic energy error for atom=    0.0040 (will be added to EATOM!!)
 PAW_PBE Si 05Jan2001                   :
 energy of atom  2       EATOM= -103.0669
 kinetic energy error for atom=    0.0021 (will be added to EATOM!!)
 
 
 POSCAR: Si12                                    
  positions in direct lattice
  No initial velocities read in
 exchange correlation table for  LEXCH =       42
   RHO(1)=    0.500       N(1)  =     2000
   RHO(2)=  100.500       N(2)  =     4000
 


--------------------------------------------------------------------------------------------------------


 ion  position               nearest neighbor table
   1  0.114  0.228  0.233-  15 2.28  21 2.29  21 2.29
   2  0.214  0.128  0.515-  16 2.28  22 2.29  22 2.29
   3  0.458  0.916  0.209-  21 2.28  13 2.30  13 2.30
   4  0.558  0.816  0.491-  22 2.28  14 2.30  14 2.30
   5  0.311  0.622  0.084-  17 2.28  23 2.30  23 2.30
   6  0.311  0.622  0.366-  24 1.99  18 2.28  24 2.78  14 2.88
   7  0.999  0.998  0.086-  19 2.29  19 2.29  13 2.32
   8  0.999  0.998  0.368-  20 2.29  20 2.29  14 3.04
   9  0.655  0.310  0.060-  19 2.28  17 2.29  17 2.29
  10  0.655  0.310  0.342-  20 2.28  18 2.29  18 2.29
  11  0.770  0.539  0.207-  15 2.29  15 2.29  23 2.32
  12  0.870  0.439  0.489-  16 2.29  16 2.29  24 2.32
  13  0.940  0.879  0.158-   3 2.30   3 2.30   7 2.32  23 2.35
  14  0.040  0.779  0.440-   4 2.30   4 2.30  24 2.35   6 2.88   8 3.04
  15  0.205  0.410  0.186-   1 2.28  11 2.29  11 2.29  17 2.37
  16  0.305  0.310  0.468-   2 2.28  12 2.29  12 2.29  18 2.61  20 3.11
  17  0.202  0.404  0.100-   5 2.28   9 2.29   9 2.29  15 2.37
  18  0.202  0.404  0.382-  24 2.25   6 2.28  10 2.29  10 2.29  16 2.61  24 2.97
  19  0.564  0.128  0.108-   9 2.28   7 2.29   7 2.29  21 2.37
  20  0.564  0.128  0.390-  10 2.28   8 2.29   8 2.29  22 2.61  16 3.11
  21  0.567  0.134  0.194-   3 2.28   1 2.29   1 2.29  19 2.37
  22  0.667  0.034  0.476-   4 2.28   2 2.29   2 2.29  20 2.61
  23  0.829  0.658  0.136-   5 2.30   5 2.30  11 2.32  13 2.35
  24  0.929  0.558  0.418-   6 1.99  18 2.25  12 2.32  14 2.35   6 2.78  18 2.97
 
  LATTYP: Found a base centered orthorhombic cell.
 ALAT       =     3.5404000000
 B/A-ratio  =     5.8153587165
 C/A-ratio  =     7.7678875268
  
  Lattice vectors:
  
 A1 = (   1.7702000000,  10.2943480000,   0.0000000000)
 A2 = (   1.7702000000, -10.2943480000,   0.0000000000)
 A3 = (   0.0000000000,   0.0000000000, -27.5014290000)


Analysis of symmetry for initial positions (statically):
=====================================================================
 Subroutine PRICEL returns:
 Original cell was already a primitive cell.
 

 Routine SETGRP: Setting up the symmetry group for a 
 base centered orthorhombic supercell.


 Subroutine GETGRP returns: Found  1 space group operations
 (whereof  1 operations were pure point group operations)
 out of a pool of  8 trial point group operations.


The static configuration has the point symmetry C_1 .


Analysis of symmetry for dynamics (positions and initial velocities):
=====================================================================
 Subroutine PRICEL returns:
 Original cell was already a primitive cell.
 

 Routine SETGRP: Setting up the symmetry group for a 
 base centered orthorhombic supercell.


 Subroutine GETGRP returns: Found  1 space group operations
 (whereof  1 operations were pure point group operations)
 out of a pool of  8 trial point group operations.


The dynamic configuration has the point symmetry C_1 .
 
 
 KPOINTS: pymatgen generated KPOINTS with grid den

Automatic generation of k-mesh.
Space group operators:
 irot       det(A)        alpha          n_x          n_y          n_z        tau_x        tau_y        tau_z
    1     1.000000     0.000000     1.000000     0.000000     0.000000     0.000000     0.000000     0.000000
 
 Subroutine IBZKPT returns following result:
 ===========================================
 
 Found     54 irreducible k-points:
 
 Following reciprocal coordinates:
            Coordinates               Weight
  0.000000  0.000000  0.000000      1.000000
  0.076923 -0.000000  0.000000      2.000000
  0.153846 -0.000000  0.000000      2.000000
  0.230769 -0.000000  0.000000      2.000000
  0.307692 -0.000000  0.000000      2.000000
  0.384615 -0.000000  0.000000      2.000000
  0.461538 -0.000000  0.000000      2.000000
  0.000000  0.250000  0.000000      2.000000
  0.076923  0.250000  0.000000      2.000000
  0.153846  0.250000  0.000000      2.000000
  0.230769  0.250000  0.000000      2.000000
  0.307692  0.250000  0.000000      2.000000
  0.384615  0.250000  0.000000      2.000000
  0.461538  0.250000  0.000000      2.000000
 -0.461538  0.250000  0.000000      2.000000
 -0.384615  0.250000  0.000000      2.000000
 -0.307692  0.250000  0.000000      2.000000
 -0.230769  0.250000  0.000000      2.000000
 -0.153846  0.250000  0.000000      2.000000
 -0.076923  0.250000  0.000000      2.000000
  0.000000  0.500000  0.000000      1.000000
  0.076923  0.500000  0.000000      2.000000
  0.153846  0.500000  0.000000      2.000000
  0.230769  0.500000  0.000000      2.000000
  0.307692  0.500000  0.000000      2.000000
  0.384615  0.500000  0.000000      2.000000
  0.461538  0.500000  0.000000      2.000000
  0.000000  0.000000  0.500000      1.000000
  0.076923 -0.000000  0.500000      2.000000
  0.153846 -0.000000  0.500000      2.000000
  0.230769 -0.000000  0.500000      2.000000
  0.307692 -0.000000  0.500000      2.000000
  0.384615 -0.000000  0.500000      2.000000
  0.461538 -0.000000  0.500000      2.000000
  0.000000  0.250000  0.500000      2.000000
  0.076923  0.250000  0.500000      2.000000
  0.153846  0.250000  0.500000      2.000000
  0.230769  0.250000  0.500000      2.000000
  0.307692  0.250000  0.500000      2.000000
  0.384615  0.250000  0.500000      2.000000
  0.461538  0.250000  0.500000      2.000000
 -0.461538  0.250000  0.500000      2.000000
 -0.384615  0.250000  0.500000      2.000000
 -0.307692  0.250000  0.500000      2.000000
 -0.230769  0.250000  0.500000      2.000000
 -0.153846  0.250000  0.500000      2.000000
 -0.076923  0.250000  0.500000      2.000000
  0.000000  0.500000  0.500000      1.000000
  0.076923  0.500000  0.500000      2.000000
  0.153846  0.500000  0.500000      2.000000
  0.230769  0.500000  0.500000      2.000000
  0.307692  0.500000  0.500000      2.000000
  0.384615  0.500000  0.500000      2.000000
  0.461538  0.500000  0.500000      2.000000
 
 Following cartesian coordinates:
            Coordinates               Weight
  0.000000  0.000000  0.000000      1.000000
  0.021727  0.003736  0.000000      2.000000
  0.043454  0.007472  0.000000      2.000000
  0.065182  0.011209  0.000000      2.000000
  0.086909  0.014945  0.000000      2.000000
  0.108636  0.018681  0.000000      2.000000
  0.130363  0.022417  0.000000      2.000000
  0.000000  0.024285  0.000000      2.000000
  0.021727  0.028021  0.000000      2.000000
  0.043454  0.031758  0.000000      2.000000
  0.065182  0.035494  0.000000      2.000000
  0.086909  0.039230  0.000000      2.000000
  0.108636  0.042966  0.000000      2.000000
  0.130363  0.046702  0.000000      2.000000
 -0.130363  0.001868  0.000000      2.000000
 -0.108636  0.005604  0.000000      2.000000
 -0.086909  0.009340  0.000000      2.000000
 -0.065182  0.013077  0.000000      2.000000
 -0.043454  0.016813  0.000000      2.000000
 -0.021727  0.020549  0.000000      2.000000
  0.000000  0.048570  0.000000      1.000000
  0.021727  0.052307  0.000000      2.000000
  0.043454  0.056043  0.000000      2.000000
  0.065182  0.059779  0.000000      2.000000
  0.086909  0.063515  0.000000      2.000000
  0.108636  0.067251  0.000000      2.000000
  0.130363  0.070987  0.000000      2.000000
  0.000000  0.000000  0.018181      1.000000
  0.021727  0.003736  0.018181      2.000000
  0.043454  0.007472  0.018181      2.000000
  0.065182  0.011209  0.018181      2.000000
  0.086909  0.014945  0.018181      2.000000
  0.108636  0.018681  0.018181      2.000000
  0.130363  0.022417  0.018181      2.000000
  0.000000  0.024285  0.018181      2.000000
  0.021727  0.028021  0.018181      2.000000
  0.043454  0.031758  0.018181      2.000000
  0.065182  0.035494  0.018181      2.000000
  0.086909  0.039230  0.018181      2.000000
  0.108636  0.042966  0.018181      2.000000
  0.130363  0.046702  0.018181      2.000000
 -0.130363  0.001868  0.018181      2.000000
 -0.108636  0.005604  0.018181      2.000000
 -0.086909  0.009340  0.018181      2.000000
 -0.065182  0.013077  0.018181      2.000000
 -0.043454  0.016813  0.018181      2.000000
 -0.021727  0.020549  0.018181      2.000000
  0.000000  0.048570  0.018181      1.000000
  0.021727  0.052307  0.018181      2.000000
  0.043454  0.056043  0.018181      2.000000
  0.065182  0.059779  0.018181      2.000000
  0.086909  0.063515  0.018181      2.000000
  0.108636  0.067251  0.018181      2.000000
  0.130363  0.070987  0.018181      2.000000
 


--------------------------------------------------------------------------------------------------------




 Dimension of arrays:
   k-points           NKPTS =     54   k-points in BZ     NKDIM =     54   number of bands    NBANDS=     68
   number of dos      NEDOS =    301   number of ions     NIONS =     24
   non local maximal  LDIM  =      4   non local SUM 2l+1 LMDIM =      8
   total plane-waves  NPLWV = 192000
   max r-space proj   IRMAX =   2772   max aug-charges    IRDMAX=   6603
   dimension x,y,z NGX =    20 NGY =   60 NGZ =  160
   dimension x,y,z NGXF=    40 NGYF=  120 NGZF=  320
   support grid    NGXF=    40 NGYF=  120 NGZF=  320
   ions per type =              12  12
 NGX,Y,Z   is equivalent  to a cutoff of   9.39,  9.55,  9.67 a.u.
 NGXF,Y,Z  is equivalent  to a cutoff of  18.78, 19.10, 19.34 a.u.


 I would recommend the setting:
   dimension x,y,z NGX =    20 NGY =   59 NGZ =  155
 SYSTEM =  unknown system                          
 POSCAR =  Si12                                    

 Startparameter for this run:
   NWRITE =      2    write-flag & timer
   PREC   = accura    normal or accurate (medium, high low for compatibility)
   ISTART =      0    job   : 0-new  1-cont  2-samecut
   ICHARG =      2    charge: 1-file 2-atom 10-const
   ISPIN  =      1    spin polarized calculation?
   LNONCOLLINEAR =      F non collinear calculations
   LSORBIT =      F    spin-orbit coupling
   INIWAV =      1    electr: 0-lowe 1-rand  2-diag
   LASPH  =      F    aspherical Exc in radial PAW
   METAGGA=      F    non-selfconsistent MetaGGA calc.

 Electronic Relaxation 1
   ENCUT  =  300.0 eV  22.05 Ry    4.70 a.u.   5.00 14.75 38.84*2*pi/ulx,y,z
   ENINI  =  300.0     initial cutoff
   ENAUG  =  342.9 eV  augmentation charge cutoff
   NELM   =     60;   NELMIN=  2; NELMDL= -5     # of ELM steps 
   EDIFF  = 0.1E-05   stopping-criterion for ELM
   LREAL  =      T    real-space projection
   NLSPLINE    = F    spline interpolate recip. space projectors
   LCOMPAT=      F    compatible to vasp.4.4
   GGA_COMPAT  = T    GGA compatible to vasp.4.4-vasp.4.6
   LMAXPAW     = -100 max onsite density
   LMAXMIX     =    2 max onsite mixed and CHGCAR
   VOSKOWN=      0    Vosko Wilk Nusair interpolation
   ROPT   =   -0.00025  -0.00025
 Ionic relaxation
   EDIFFG = 0.1E-04   stopping-criterion for IOM
   NSW    =      0    number of steps for IOM
   NBLOCK =      1;   KBLOCK =      1    inner block; outer block 
   IBRION =     -1    ionic relax: 0-MD 1-quasi-New 2-CG
   NFREE  =      1    steps in history (QN), initial steepest desc. (CG)
   ISIF   =      3    stress and relaxation
   IWAVPR =     10    prediction:  0-non 1-charg 2-wave 3-comb
   ISYM   =      2    0-nonsym 1-usesym 2-fastsym
   LCORR  =      T    Harris-Foulkes like correction to forces

   POTIM  = 0.5000    time-step for ionic-motion
   TEIN   =    0.0    initial temperature
   TEBEG  =    0.0;   TEEND  =   0.0 temperature during run
   SMASS  =  -3.00    Nose mass-parameter (am)
   estimated Nose-frequenzy (Omega)   =  0.10E-29 period in steps =****** mass=  -0.286E-27a.u.
   SCALEE = 1.0000    scale energy and forces
   NPACO  =    256;   APACO  = 16.0  distance and # of slots for P.C.
   PSTRESS=    0.0 pullay stress

  Mass of Ions in am
   POMASS =  30.97 28.09
  Ionic Valenz
   ZVAL   =   5.00  4.00
  Atomic Wigner-Seitz radii
   RWIGS  =  -1.00 -1.00
  virtual crystal weights 
   VCA    =   1.00  1.00
   NELECT =     108.0000    total number of electrons
   NUPDOWN=      -1.0000    fix difference up-down

 DOS related values:
   EMIN   =  10.00;   EMAX   =-10.00  energy-range for DOS
   EFERMI =   0.00
   ISMEAR =     0;   SIGMA  =   0.10  broadening in eV -4-tet -1-fermi 0-gaus

 Electronic relaxation 2 (details)
   IALGO  =     38    algorithm
   LDIAG  =      T    sub-space diagonalisation (order eigenvalues)
   LSUBROT=      F    optimize rotation matrix (better conditioning)
   TURBO    =      0    0=normal 1=particle mesh
   IRESTART =      0    0=no restart 2=restart with 2 vectors
   NREBOOT  =      0    no. of reboots
   NMIN     =      0    reboot dimension
   EREF     =   0.00    reference energy to select bands
   IMIX   =      4    mixing-type and parameters
     AMIX     =   0.40;   BMIX     =  1.00
     AMIX_MAG =   1.60;   BMIX_MAG =  1.00
     AMIN     =   0.10
     WC   =   100.;   INIMIX=   1;  MIXPRE=   1;  MAXMIX= -45

 Intra band minimization:
   WEIMIN = 0.0000     energy-eigenvalue tresh-hold
   EBREAK =  0.37E-08  absolut break condition
   DEPER  =   0.30     relativ break condition  

   TIME   =   0.40     timestep for ELM

  volume/ion in A,a.u.               =      41.76       281.83
  Fermi-wavevector in a.u.,A,eV,Ry     =   0.779018  1.472130  8.256946  0.606868
  Thomas-Fermi vector in A             =   1.882034
 
 Write flags
   LWAVE  =      F    write WAVECAR
   LCHARG =      F    write CHGCAR
   LVTOT  =      F    write LOCPOT, total local potential
   LVHAR  =      F    write LOCPOT, Hartree potential only
   LELF   =      F    write electronic localiz. function (ELF)
   LORBIT =      0    0 simple, 1 ext, 2 COOP (PROOUT)


 Dipole corrections
   LMONO  =      F    monopole corrections only (constant potential shift)
   LDIPOL =      F    correct potential (dipole corrections)
   IDIPOL =      0    1-x, 2-y, 3-z, 4-all directions 
   EPSILON=  1.0000000 bulk dielectric constant

 Exchange correlation treatment:
   GGA     =    BO    GGA type
   LEXCH   =    42    internal setting for exchange type
   VOSKOWN=      0    Vosko Wilk Nusair interpolation
   LHFCALC =     F    Hartree Fock is set to
   LHFONE  =     F    Hartree Fock one center treatment
   AEXX    =    0.0000 exact exchange contribution

 vdW DFT:
   LUSE_VDW   =     T    switch on vdW DFT
   Zab_VDW    =-.8491    correlation parameter
   PARAM1     =0.1833
   PARAM2     =0.2200
   PARAM3     =0.0000

 Linear response parameters
   LEPSILON=     F    determine dielectric tensor
   LRPA    =     F    only Hartree local field effects (RPA)
   LNABLA  =     F    use nabla operator in PAW spheres
   LVEL    =     F    velocity operator in full k-point grid
   LINTERFAST=   F  fast interpolation
   KINTER  =     0    interpolate to denser k-point grid
   CSHIFT  =0.1000    complex shift for real part using Kramers Kronig
   OMEGAMAX=  -1.0    maximum frequency
   DEG_THRESHOLD= 0.2000000E-02 threshold for treating states as degnerate
   RTIME   =    0.100 relaxation time in fs

 Orbital magnetization related:
   ORBITALMAG=     F  switch on orbital magnetization
   LCHIMAG   =     F  perturbation theory with respect to B field
   DQ        =  0.001000  dq finite difference perturbation B field



--------------------------------------------------------------------------------------------------------


 Static calculation
 charge density and potential will be updated during run
 non-spin polarized calculation
 Variant of blocked Davidson
 Davidson routine will perform the subspace rotation
 perform sub-space diagonalisation
    after iterative eigenvector-optimisation
 modified Broyden-mixing scheme, WC =      100.0
 initial mixing is a Kerker type mixing with AMIX =  0.4000 and BMIX =      1.0000
 Hartree-type preconditioning will be used
 using additional bands           14
 real space projection scheme for non local part
 use partial core corrections
 calculate Harris-corrections to forces 
   (improved forces if not selfconsistent)
 use gradient corrections 
 use of overlap-Matrix (Vanderbilt PP)
 Gauss-broadening in eV      SIGMA  =   0.10


--------------------------------------------------------------------------------------------------------


  energy-cutoff  :      300.00
  volume of cell :     1002.32
      direct lattice vectors                 reciprocal lattice vectors
     3.540400000  0.000000000  0.000000000     0.282453960  0.048570342  0.000000000
    -1.770200000 10.294348000  0.000000000     0.000000000  0.097140683  0.000000000
     0.000000000  0.000000000 27.501429000     0.000000000  0.000000000  0.036361747

  length of vectors
     3.540400000 10.445439617 27.501429000     0.286599577  0.097140683  0.036361747


 
 k-points in units of 2pi/SCALE and weight: pymatgen generated KPOINTS with grid den
   0.00000000  0.00000000  0.00000000       0.010
   0.02172723  0.00373618  0.00000000       0.019
   0.04345446  0.00747236  0.00000000       0.019
   0.06518168  0.01120854  0.00000000       0.019
   0.08690891  0.01494472  0.00000000       0.019
   0.10863614  0.01868090  0.00000000       0.019
   0.13036337  0.02241708  0.00000000       0.019
   0.00000000  0.02428517  0.00000000       0.019
   0.02172723  0.02802135  0.00000000       0.019
   0.04345446  0.03175753  0.00000000       0.019
   0.06518168  0.03549371  0.00000000       0.019
   0.08690891  0.03922989  0.00000000       0.019
   0.10863614  0.04296607  0.00000000       0.019
   0.13036337  0.04670225  0.00000000       0.019
  -0.13036337  0.00186809  0.00000000       0.019
  -0.10863614  0.00560427  0.00000000       0.019
  -0.08690891  0.00934045  0.00000000       0.019
  -0.06518168  0.01307663  0.00000000       0.019
  -0.04345446  0.01681281  0.00000000       0.019
  -0.02172723  0.02054899  0.00000000       0.019
   0.00000000  0.04857034  0.00000000       0.010
   0.02172723  0.05230652  0.00000000       0.019
   0.04345446  0.05604270  0.00000000       0.019
   0.06518168  0.05977888  0.00000000       0.019
   0.08690891  0.06351506  0.00000000       0.019
   0.10863614  0.06725124  0.00000000       0.019
   0.13036337  0.07098742  0.00000000       0.019
   0.00000000  0.00000000  0.01818087       0.010
   0.02172723  0.00373618  0.01818087       0.019
   0.04345446  0.00747236  0.01818087       0.019
   0.06518168  0.01120854  0.01818087       0.019
   0.08690891  0.01494472  0.01818087       0.019
   0.10863614  0.01868090  0.01818087       0.019
   0.13036337  0.02241708  0.01818087       0.019
   0.00000000  0.02428517  0.01818087       0.019
   0.02172723  0.02802135  0.01818087       0.019
   0.04345446  0.03175753  0.01818087       0.019
   0.06518168  0.03549371  0.01818087       0.019
   0.08690891  0.03922989  0.01818087       0.019
   0.10863614  0.04296607  0.01818087       0.019
   0.13036337  0.04670225  0.01818087       0.019
  -0.13036337  0.00186809  0.01818087       0.019
  -0.10863614  0.00560427  0.01818087       0.019
  -0.08690891  0.00934045  0.01818087       0.019
  -0.06518168  0.01307663  0.01818087       0.019
  -0.04345446  0.01681281  0.01818087       0.019
  -0.02172723  0.02054899  0.01818087       0.019
   0.00000000  0.04857034  0.01818087       0.010
   0.02172723  0.05230652  0.01818087       0.019
   0.04345446  0.05604270  0.01818087       0.019
   0.06518168  0.05977888  0.01818087       0.019
   0.08690891  0.06351506  0.01818087       0.019
   0.10863614  0.06725124  0.01818087       0.019
   0.13036337  0.07098742  0.01818087       0.019
 
 k-points in reciprocal lattice and weights: pymatgen generated KPOINTS with grid den
   0.00000000  0.00000000  0.00000000       0.010
   0.07692308 -0.00000000  0.00000000       0.019
   0.15384615 -0.00000000  0.00000000       0.019
   0.23076923 -0.00000000  0.00000000       0.019
   0.30769231 -0.00000000  0.00000000       0.019
   0.38461538 -0.00000000  0.00000000       0.019
   0.46153846 -0.00000000  0.00000000       0.019
   0.00000000  0.25000000  0.00000000       0.019
   0.07692308  0.25000000  0.00000000       0.019
   0.15384615  0.25000000  0.00000000       0.019
   0.23076923  0.25000000  0.00000000       0.019
   0.30769231  0.25000000  0.00000000       0.019
   0.38461538  0.25000000  0.00000000       0.019
   0.46153846  0.25000000  0.00000000       0.019
  -0.46153846  0.25000000  0.00000000       0.019
  -0.38461538  0.25000000  0.00000000       0.019
  -0.30769231  0.25000000  0.00000000       0.019
  -0.23076923  0.25000000  0.00000000       0.019
  -0.15384615  0.25000000  0.00000000       0.019
  -0.07692308  0.25000000  0.00000000       0.019
   0.00000000  0.50000000  0.00000000       0.010
   0.07692308  0.50000000  0.00000000       0.019
   0.15384615  0.50000000  0.00000000       0.019
   0.23076923  0.50000000  0.00000000       0.019
   0.30769231  0.50000000  0.00000000       0.019
   0.38461538  0.50000000  0.00000000       0.019
   0.46153846  0.50000000  0.00000000       0.019
   0.00000000  0.00000000  0.50000000       0.010
   0.07692308 -0.00000000  0.50000000       0.019
   0.15384615 -0.00000000  0.50000000       0.019
   0.23076923 -0.00000000  0.50000000       0.019
   0.30769231 -0.00000000  0.50000000       0.019
   0.38461538 -0.00000000  0.50000000       0.019
   0.46153846 -0.00000000  0.50000000       0.019
   0.00000000  0.25000000  0.50000000       0.019
   0.07692308  0.25000000  0.50000000       0.019
   0.15384615  0.25000000  0.50000000       0.019
   0.23076923  0.25000000  0.50000000       0.019
   0.30769231  0.25000000  0.50000000       0.019
   0.38461538  0.25000000  0.50000000       0.019
   0.46153846  0.25000000  0.50000000       0.019
  -0.46153846  0.25000000  0.50000000       0.019
  -0.38461538  0.25000000  0.50000000       0.019
  -0.30769231  0.25000000  0.50000000       0.019
  -0.23076923  0.25000000  0.50000000       0.019
  -0.15384615  0.25000000  0.50000000       0.019
  -0.07692308  0.25000000  0.50000000       0.019
   0.00000000  0.50000000  0.50000000       0.010
   0.07692308  0.50000000  0.50000000       0.019
   0.15384615  0.50000000  0.50000000       0.019
   0.23076923  0.50000000  0.50000000       0.019
   0.30769231  0.50000000  0.50000000       0.019
   0.38461538  0.50000000  0.50000000       0.019
   0.46153846  0.50000000  0.50000000       0.019
 
 position of ions in fractional coordinates (direct lattice) 
   0.11402300  0.22804500  0.23316207
   0.21402300  0.12804500  0.51499159
   0.45808900  0.91617900  0.20939482
   0.55808900  0.81617900  0.49122434
   0.31085400  0.62170900  0.08414979
   0.31085400  0.62170900  0.36597930
   0.99923000  0.99846000  0.08631254
   0.99923000  0.99846000  0.36814206
   0.65492700  0.30985400  0.06041748
   0.65492700  0.30985400  0.34224700
   0.76973800  0.53947500  0.20725292
   0.86973800  0.43947500  0.48908244
   0.93971600  0.87943300  0.15783749
   0.03971600  0.77943300  0.43966701
   0.20515200  0.41030300  0.18578822
   0.30515200  0.31030300  0.46761774
   0.20184900  0.40369900  0.09969156
   0.20184900  0.40369900  0.38152107
   0.56380500  0.12761000  0.10779021
   0.56380500  0.12761000  0.38961973
   0.56710600  0.13421200  0.19387616
   0.66710600  0.03421200  0.47570568
   0.82923400  0.65846800  0.13571444
   0.92923400  0.55846800  0.41754396
 
 position of ions in cartesian coordinates  (Angst):
   0.00000177  2.34757459  6.41229012
   0.53106177  1.31813979 14.16300462
  -0.00000177  9.43146546  5.75865686
   0.53105823  8.40203066 13.50937136
  -0.00000177  6.40008880  2.31423934
  -0.00000177  6.40008880 10.06495384
   1.77020000 10.27849470  2.37371832
   1.77020000 10.27849470 10.12443282
   1.77020000  3.18974491  1.66156717
   1.77020000  3.18974491  9.41228167
   1.77020177  5.55354339  5.69975143
   2.30126177  4.52410859 13.45046593
   1.77019823  9.05318934  4.34075665
  -1.23914177  8.02375454 12.09147115
   0.00000177  4.22380187  5.10944151
   0.53106177  3.19436707 12.86015601
  -0.00000177  4.15581799  2.74166024
  -0.00000177  4.15581799 10.49237474
   1.77020000  1.31366175  2.96438477
   1.77020000  1.31366175 10.71509927
   1.77020000  1.38162503  5.33187152
   2.30126000  0.35219023 13.08258602
   1.77020000  6.77849874  3.73234107
   2.30126000  5.74906394 11.48305557
 


--------------------------------------------------------------------------------------------------------


 k-point  1 :   0.0000 0.0000 0.0000  plane waves:   11717
 k-point  2 :   0.0769-0.0000 0.0000  plane waves:   11762
 k-point  3 :   0.1538-0.0000 0.0000  plane waves:   11805
 k-point  4 :   0.2308-0.0000 0.0000  plane waves:   11824
 k-point  5 :   0.3077-0.0000 0.0000  plane waves:   11875
 k-point  6 :   0.3846-0.0000 0.0000  plane waves:   11864
 k-point  7 :   0.4615-0.0000 0.0000  plane waves:   11883
 k-point  8 :   0.0000 0.2500 0.0000  plane waves:   11683
 k-point  9 :   0.0769 0.2500 0.0000  plane waves:   11756
 k-point 10 :   0.1538 0.2500 0.0000  plane waves:   11807
 k-point 11 :   0.2308 0.2500 0.0000  plane waves:   11853
 k-point 12 :   0.3077 0.2500 0.0000  plane waves:   11866
 k-point 13 :   0.3846 0.2500 0.0000  plane waves:   11889
 k-point 14 :   0.4615 0.2500 0.0000  plane waves:   11885
 k-point 15 :  -0.4615 0.2500 0.0000  plane waves:   11886
 k-point 16 :  -0.3846 0.2500 0.0000  plane waves:   11867
 k-point 17 :  -0.3077 0.2500 0.0000  plane waves:   11849
 k-point 18 :  -0.2308 0.2500 0.0000  plane waves:   11827
 k-point 19 :  -0.1538 0.2500 0.0000  plane waves:   11801
 k-point 20 :  -0.0769 0.2500 0.0000  plane waves:   11757
 k-point 21 :   0.0000 0.5000 0.0000  plane waves:   11710
 k-point 22 :   0.0769 0.5000 0.0000  plane waves:   11762
 k-point 23 :   0.1538 0.5000 0.0000  plane waves:   11782
 k-point 24 :   0.2308 0.5000 0.0000  plane waves:   11841
 k-point 25 :   0.3077 0.5000 0.0000  plane waves:   11876
 k-point 26 :   0.3846 0.5000 0.0000  plane waves:   11889
 k-point 27 :   0.4615 0.5000 0.0000  plane waves:   11881
 k-point 28 :   0.0000 0.0000 0.5000  plane waves:   11698
 k-point 29 :   0.0769-0.0000 0.5000  plane waves:   11752
 k-point 30 :   0.1538-0.0000 0.5000  plane waves:   11800
 k-point 31 :   0.2308-0.0000 0.5000  plane waves:   11834
 k-point 32 :   0.3077-0.0000 0.5000  plane waves:   11850
 k-point 33 :   0.3846-0.0000 0.5000  plane waves:   11888
 k-point 34 :   0.4615-0.0000 0.5000  plane waves:   11896
 k-point 35 :   0.0000 0.2500 0.5000  plane waves:   11714
 k-point 36 :   0.0769 0.2500 0.5000  plane waves:   11754
 k-point 37 :   0.1538 0.2500 0.5000  plane waves:   11802
 k-point 38 :   0.2308 0.2500 0.5000  plane waves:   11840
 k-point 39 :   0.3077 0.2500 0.5000  plane waves:   11858
 k-point 40 :   0.3846 0.2500 0.5000  plane waves:   11896
 k-point 41 :   0.4615 0.2500 0.5000  plane waves:   11886
 k-point 42 :  -0.4615 0.2500 0.5000  plane waves:   11852
 k-point 43 :  -0.3846 0.2500 0.5000  plane waves:   11838
 k-point 44 :  -0.3077 0.2500 0.5000  plane waves:   11842
 k-point 45 :  -0.2308 0.2500 0.5000  plane waves:   11840
 k-point 46 :  -0.1538 0.2500 0.5000  plane waves:   11804
 k-point 47 :  -0.0769 0.2500 0.5000  plane waves:   11748
 k-point 48 :   0.0000 0.5000 0.5000  plane waves:   11724
 k-point 49 :   0.0769 0.5000 0.5000  plane waves:   11748
 k-point 50 :   0.1538 0.5000 0.5000  plane waves:   11814
 k-point 51 :   0.2308 0.5000 0.5000  plane waves:   11832
 k-point 52 :   0.3077 0.5000 0.5000  plane waves:   11868
 k-point 53 :   0.3846 0.5000 0.5000  plane waves:   11892
 k-point 54 :   0.4615 0.5000 0.5000  plane waves:   11878

 maximum and minimum number of plane-waves per node :      5964     5832

 maximum number of plane-waves:     11896
 maximum index in each direction: 
   IXMAX=    5   IYMAX=   14   IZMAX=   38
   IXMIN=   -5   IYMIN=  -15   IZMIN=  -39

 WARNING: aliasing errors must be expected set NGX to  22 to avoid them
 NGY is ok and might be reduce to  60
 NGZ is ok and might be reduce to 156
 aliasing errors are usually negligible using standard VASP settings
 and one can safely disregard these warnings

 real space projection operators:
  total allocation   :       3793.25 KBytes
  max/ min on nodes  :       1899.38       1893.88


 parallel 3D FFT for wavefunctions:
    minimum data exchange during FFTs selected (reduces bandwidth)
 parallel 3D FFT for charge:
    minimum data exchange during FFTs selected (reduces bandwidth)


 total amount of memory used by VASP on root node   146493. kBytes
========================================================================

   base      :      30000. kBytes
   nonlr-proj:       3452. kBytes
   fftplans  :       9347. kBytes
   grid      :      14649. kBytes
   one-center:         36. kBytes
   wavefun   :      89009. kBytes
 
     INWAV:  cpu time    0.00: real time    0.00
 Broyden mixing: mesh for mixing (old mesh)
   NGX =  9   NGY = 29   NGZ = 77
  (NGX  = 40   NGY  =120   NGZ  =320)
  gives a total of  20097 points

 initial charge density was supplied:
 charge density of overlapping atoms calculated
 number of electron     108.0000000 magnetization 
 keeping initial charge density in first step


--------------------------------------------------------------------------------------------------------


 Maximum index for non-local projection operator         1333
 Maximum index for augmentation-charges          822 (set IRDMAX)


--------------------------------------------------------------------------------------------------------


 First call to EWALD:  gamma=   0.177
 Maximum number of real-space cells 7x 3x 1
 Maximum number of reciprocal cells 1x 3x 7

 FEWALD executed in parallel
    FEWALD:  cpu time    0.00: real time    0.00


----------------------------------------- Iteration    1(   1)  ---------------------------------------


vdW kernel read from vdw_kernel.bindat
  0.0000  0.2424  0.5071  0.7962  1.1119  1.4567  1.8333  2.2446  2.6937  3.1842
  3.7199  4.3049  4.9438  5.6415  6.4036  7.2358  8.1446  9.1372 10.2212 11.4050
 12.6979 14.1099 15.6519 17.3360 19.1751 21.1837 23.3773 25.7729 28.3892 31.2465
 34.3669 37.7748 41.4965 45.5611 50.0000
 
    POTLOK:  cpu time   16.19: real time   16.20
    SETDIJ:  cpu time    0.01: real time    0.01
     EDDAV:  cpu time   62.68: real time   62.71
       DOS:  cpu time    0.01: real time    0.01
    --------------------------------------------
      LOOP:  cpu time   78.90: real time   78.93

 eigenvalue-minimisations  :  7344
 total energy-change (2. order) : 0.4856462E+03  (-0.2861091E+04)
 number of electron     108.0000000 magnetization 
 augmentation part      108.0000000 magnetization 

 Free energy of the ion-electron system (eV)
  ---------------------------------------------------
  alpha Z        PSCENC =        36.80884744
  Ewald energy   TEWEN  =     11905.58860914
  -Hartree energ DENC   =    -14961.68381508
  -exchange      EXHF   =         0.00000000
  -V(xc)+E(xc)   XCENC  =       -88.18582286
  PAW double counting   =      1056.43050070     -732.41190547
  entropy T*S    EENTRO =        -0.04939687
  eigenvalues    EBANDS =       -84.89210679
  atomic energy  EATOM  =      3354.04126044
  ---------------------------------------------------
  free energy    TOTEN  =       485.64617066 eV

  energy without entropy =      485.69556753  energy(sigma->0) =      485.67086910


--------------------------------------------------------------------------------------------------------




----------------------------------------- Iteration    1(   2)  ---------------------------------------


     EDDAV:  cpu time   78.49: real time   78.51
       DOS:  cpu time    0.01: real time    0.01
    --------------------------------------------
      LOOP:  cpu time   78.50: real time   78.53

 eigenvalue-minimisations  :  9736
 total energy-change (2. order) :-0.5558080E+03  (-0.5410996E+03)
 number of electron     108.0000000 magnetization 
 augmentation part      108.0000000 magnetization 

 Free energy of the ion-electron system (eV)
  ---------------------------------------------------
  alpha Z        PSCENC =        36.80884744
  Ewald energy   TEWEN  =     11905.58860914
  -Hartree energ DENC   =    -14961.68381508
  -exchange      EXHF   =         0.00000000
  -V(xc)+E(xc)   XCENC  =       -88.18582286
  PAW double counting   =      1056.43050070     -732.41190547
  entropy T*S    EENTRO =        -0.02375807
  eigenvalues    EBANDS =      -640.72575817
  atomic energy  EATOM  =      3354.04126044
  ---------------------------------------------------
  free energy    TOTEN  =       -70.16184193 eV

  energy without entropy =      -70.13808385  energy(sigma->0) =      -70.14996289


--------------------------------------------------------------------------------------------------------




----------------------------------------- Iteration    1(   3)  ---------------------------------------


     EDDAV:  cpu time   72.86: real time   72.94
       DOS:  cpu time    0.01: real time    0.01
    --------------------------------------------
      LOOP:  cpu time   72.87: real time   72.95

 eigenvalue-minimisations  :  8860
 total energy-change (2. order) :-0.5557971E+02  (-0.5480946E+02)
 number of electron     108.0000000 magnetization 
 augmentation part      108.0000000 magnetization 

 Free energy of the ion-electron system (eV)
  ---------------------------------------------------
  alpha Z        PSCENC =        36.80884744
  Ewald energy   TEWEN  =     11905.58860914
  -Hartree energ DENC   =    -14961.68381508
  -exchange      EXHF   =         0.00000000
  -V(xc)+E(xc)   XCENC  =       -88.18582286
  PAW double counting   =      1056.43050070     -732.41190547
  entropy T*S    EENTRO =        -0.02793431
  eigenvalues    EBANDS =      -696.30129263
  atomic energy  EATOM  =      3354.04126044
  ---------------------------------------------------
  free energy    TOTEN  =      -125.74155262 eV

  energy without entropy =     -125.71361831  energy(sigma->0) =     -125.72758546


--------------------------------------------------------------------------------------------------------




----------------------------------------- Iteration    1(   4)  ---------------------------------------


     EDDAV:  cpu time   85.09: real time   85.12
       DOS:  cpu time    0.01: real time    0.01
    --------------------------------------------
      LOOP:  cpu time   85.10: real time   85.14

 eigenvalue-minimisations  : 10816
 total energy-change (2. order) :-0.2425847E+01  (-0.2410115E+01)
 number of electron     108.0000000 magnetization 
 augmentation part      108.0000000 magnetization 

 Free energy of the ion-electron system (eV)
  ---------------------------------------------------
  alpha Z        PSCENC =        36.80884744
  Ewald energy   TEWEN  =     11905.58860914
  -Hartree energ DENC   =    -14961.68381508
  -exchange      EXHF   =         0.00000000
  -V(xc)+E(xc)   XCENC  =       -88.18582286
  PAW double counting   =      1056.43050070     -732.41190547
  entropy T*S    EENTRO =        -0.03106011
  eigenvalues    EBANDS =      -698.72401352
  atomic energy  EATOM  =      3354.04126044
  ---------------------------------------------------
  free energy    TOTEN  =      -128.16739931 eV

  energy without entropy =     -128.13633921  energy(sigma->0) =     -128.15186926


--------------------------------------------------------------------------------------------------------




----------------------------------------- Iteration    1(   5)  ---------------------------------------


     EDDAV:  cpu time   80.66: real time   80.69
       DOS:  cpu time    0.01: real time    0.01
    CHARGE:  cpu time    4.41: real time    4.41
    MIXING:  cpu time    0.01: real time    0.01
    --------------------------------------------
      LOOP:  cpu time   85.09: real time   85.11

 eigenvalue-minimisations  : 10152
 total energy-change (2. order) :-0.6122545E-01  (-0.6115920E-01)
 number of electron     107.9999995 magnetization 
 augmentation part       -9.5367500 magnetization 

 Broyden mixing:
  rms(total) = 0.97758E+00    rms(broyden)= 0.97737E+00
  rms(prec ) = 0.10361E+01
  weight for this iteration     100.00

 Free energy of the ion-electron system (eV)
  ---------------------------------------------------
  alpha Z        PSCENC =        36.80884744
  Ewald energy   TEWEN  =     11905.58860914
  -Hartree energ DENC   =    -14961.68381508
  -exchange      EXHF   =         0.00000000
  -V(xc)+E(xc)   XCENC  =       -88.18582286
  PAW double counting   =      1056.43050070     -732.41190547
  entropy T*S    EENTRO =        -0.03113793
  eigenvalues    EBANDS =      -698.78516115
  atomic energy  EATOM  =      3354.04126044
  ---------------------------------------------------
  free energy    TOTEN  =      -128.22862476 eV

  energy without entropy =     -128.19748683  energy(sigma->0) =     -128.21305580


--------------------------------------------------------------------------------------------------------




----------------------------------------- Iteration    1(   6)  ---------------------------------------


    POTLOK:  cpu time   14.60: real time   14.60
    SETDIJ:  cpu time    0.01: real time    0.01
     EDDAV:  cpu time   71.34: real time   71.36
       DOS:  cpu time    0.01: real time    0.01
    CHARGE:  cpu time    4.38: real time    4.38
    MIXING:  cpu time    0.01: real time    0.01
    --------------------------------------------
      LOOP:  cpu time   90.35: real time   90.38

 eigenvalue-minimisations  :  8712
 total energy-change (2. order) : 0.1850397E+01  (-0.3657483E+00)
 number of electron     107.9999995 magnetization 
 augmentation part       -9.3990667 magnetization 

 Broyden mixing:
  rms(total) = 0.55071E+00    rms(broyden)= 0.55069E+00
  rms(prec ) = 0.57895E+00
  weight for this iteration     100.00

 eigenvalues of (default mixing * dielectric matrix)
  average eigenvalue GAMMA=   2.0434
  2.0434

 Free energy of the ion-electron system (eV)
  ---------------------------------------------------
  alpha Z        PSCENC =        36.80884744
  Ewald energy   TEWEN  =     11905.58860914
  -Hartree energ DENC   =    -14999.30581329
  -exchange      EXHF   =         0.00000000
  -V(xc)+E(xc)   XCENC  =       -85.16892731
  PAW double counting   =      1112.86966084     -790.37400537
  entropy T*S    EENTRO =        -0.02664925
  eigenvalues    EBANDS =      -660.81121057
  atomic energy  EATOM  =      3354.04126044
  ---------------------------------------------------
  free energy    TOTEN  =      -126.37822792 eV

  energy without entropy =     -126.35157867  energy(sigma->0) =     -126.36490330


--------------------------------------------------------------------------------------------------------




----------------------------------------- Iteration    1(   7)  ---------------------------------------


    POTLOK:  cpu time   14.60: real time   14.60
    SETDIJ:  cpu time    0.01: real time    0.01
     EDDAV:  cpu time   72.59: real time   72.61
       DOS:  cpu time    0.01: real time    0.01
    CHARGE:  cpu time    4.37: real time    4.37
    MIXING:  cpu time    0.01: real time    0.01
    --------------------------------------------
      LOOP:  cpu time   91.59: real time   91.62

 eigenvalue-minimisations  :  8920
 total energy-change (2. order) : 0.2603893E+00  (-0.2992996E+00)
 number of electron     107.9999995 magnetization 
 augmentation part       -9.2728135 magnetization 

 Broyden mixing:
  rms(total) = 0.15043E+00    rms(broyden)= 0.15040E+00
  rms(prec ) = 0.15936E+00
  weight for this iteration     100.00

 eigenvalues of (default mixing * dielectric matrix)
  average eigenvalue GAMMA=   1.7769
  1.3006  2.2532

 Free energy of the ion-electron system (eV)
  ---------------------------------------------------
  alpha Z        PSCENC =        36.80884744
  Ewald energy   TEWEN  =     11905.58860914
  -Hartree energ DENC   =    -15034.23615554
  -exchange      EXHF   =         0.00000000
  -V(xc)+E(xc)   XCENC  =       -81.65927254
  PAW double counting   =      1162.19156116     -841.06360021
  entropy T*S    EENTRO =        -0.03244801
  eigenvalues    EBANDS =      -627.75664055
  atomic energy  EATOM  =      3354.04126044
  ---------------------------------------------------
  free energy    TOTEN  =      -126.11783866 eV

  energy without entropy =     -126.08539065  energy(sigma->0) =     -126.10161466


--------------------------------------------------------------------------------------------------------




----------------------------------------- Iteration    1(   8)  ---------------------------------------


    POTLOK:  cpu time   14.68: real time   14.69
    SETDIJ:  cpu time    0.01: real time    0.01
     EDDAV:  cpu time   73.39: real time   73.41
       DOS:  cpu time    0.01: real time    0.01
    CHARGE:  cpu time    4.39: real time    4.39
    MIXING:  cpu time    0.01: real time    0.01
    --------------------------------------------
      LOOP:  cpu time   92.49: real time   92.52

 eigenvalue-minimisations  :  9032
 total energy-change (2. order) : 0.7559818E-02  (-0.3613248E-01)
 number of electron     107.9999995 magnetization 
 augmentation part       -9.2855357 magnetization 

 Broyden mixing:
  rms(total) = 0.69355E-01    rms(broyden)= 0.69349E-01
  rms(prec ) = 0.73172E-01
  weight for this iteration     100.00

 eigenvalues of (default mixing * dielectric matrix)
  average eigenvalue GAMMA=   1.6926
  2.5394  0.9098  1.6287

 Free energy of the ion-electron system (eV)
  ---------------------------------------------------
  alpha Z        PSCENC =        36.80884744
  Ewald energy   TEWEN  =     11905.58860914
  -Hartree energ DENC   =    -15042.70149962
  -exchange      EXHF   =         0.00000000
  -V(xc)+E(xc)   XCENC  =       -81.10665878
  PAW double counting   =      1160.26991602     -839.11266594
  entropy T*S    EENTRO =        -0.02902258
  eigenvalues    EBANDS =      -619.86906497
  atomic energy  EATOM  =      3354.04126044
  ---------------------------------------------------
  free energy    TOTEN  =      -126.11027884 eV

  energy without entropy =     -126.08125627  energy(sigma->0) =     -126.09576755


--------------------------------------------------------------------------------------------------------




----------------------------------------- Iteration    1(   9)  ---------------------------------------


    POTLOK:  cpu time   14.85: real time   14.85
    SETDIJ:  cpu time    0.01: real time    0.01
     EDDAV:  cpu time   75.78: real time   75.95
       DOS:  cpu time    0.01: real time    0.01
    CHARGE:  cpu time    4.36: real time    4.36
    MIXING:  cpu time    0.01: real time    0.01
    --------------------------------------------
      LOOP:  cpu time   95.02: real time   95.20

 eigenvalue-minimisations  :  9128
 total energy-change (2. order) : 0.2271382E-01  (-0.5927947E-02)
 number of electron     107.9999995 magnetization 
 augmentation part       -9.2927413 magnetization 

 Broyden mixing:
  rms(total) = 0.20855E-01    rms(broyden)= 0.20852E-01
  rms(prec ) = 0.22917E-01
  weight for this iteration     100.00

 eigenvalues of (default mixing * dielectric matrix)
  average eigenvalue GAMMA=   1.6016
  2.6334  1.6096  1.3201  0.8431

 Free energy of the ion-electron system (eV)
  ---------------------------------------------------
  alpha Z        PSCENC =        36.80884744
  Ewald energy   TEWEN  =     11905.58860914
  -Hartree energ DENC   =    -15045.09748188
  -exchange      EXHF   =         0.00000000
  -V(xc)+E(xc)   XCENC  =       -80.81605833
  PAW double counting   =      1157.14469880     -835.90569815
  entropy T*S    EENTRO =        -0.03008075
  eigenvalues    EBANDS =      -617.82166175
  atomic energy  EATOM  =      3354.04126044
  ---------------------------------------------------
  free energy    TOTEN  =      -126.08756503 eV

  energy without entropy =     -126.05748428  energy(sigma->0) =     -126.07252465


--------------------------------------------------------------------------------------------------------




----------------------------------------- Iteration    1(  10)  ---------------------------------------


    POTLOK:  cpu time   14.86: real time   15.03
    SETDIJ:  cpu time    0.01: real time    0.01
     EDDAV:  cpu time   74.65: real time   74.91
       DOS:  cpu time    0.01: real time    0.01
    CHARGE:  cpu time    4.37: real time    4.37
    MIXING:  cpu time    0.01: real time    0.01
    --------------------------------------------
      LOOP:  cpu time   93.91: real time   94.35

 eigenvalue-minimisations  :  9136
 total energy-change (2. order) : 0.1035237E-01  (-0.9495227E-03)
 number of electron     107.9999995 magnetization 
 augmentation part       -9.2924613 magnetization 

 Broyden mixing:
  rms(total) = 0.88177E-02    rms(broyden)= 0.88163E-02
  rms(prec ) = 0.10662E-01
  weight for this iteration     100.00

 eigenvalues of (default mixing * dielectric matrix)
  average eigenvalue GAMMA=   1.5566
  2.6377  1.7287  1.5669  0.9249  0.9249

 Free energy of the ion-electron system (eV)
  ---------------------------------------------------
  alpha Z        PSCENC =        36.80884744
  Ewald energy   TEWEN  =     11905.58860914
  -Hartree energ DENC   =    -15046.42491844
  -exchange      EXHF   =         0.00000000
  -V(xc)+E(xc)   XCENC  =       -80.74363209
  PAW double counting   =      1156.07605066     -834.80212291
  entropy T*S    EENTRO =        -0.02990779
  eigenvalues    EBANDS =      -616.59139913
  atomic energy  EATOM  =      3354.04126044
  ---------------------------------------------------
  free energy    TOTEN  =      -126.07721266 eV

  energy without entropy =     -126.04730487  energy(sigma->0) =     -126.06225877


--------------------------------------------------------------------------------------------------------




----------------------------------------- Iteration    1(  11)  ---------------------------------------


    POTLOK:  cpu time   14.92: real time   14.93
    SETDIJ:  cpu time    0.01: real time    0.01
     EDDAV:  cpu time   76.50: real time   76.79
       DOS:  cpu time    0.01: real time    0.01
    CHARGE:  cpu time    4.60: real time    4.60
    MIXING:  cpu time    0.01: real time    0.01
    --------------------------------------------
      LOOP:  cpu time   96.06: real time   96.36

 eigenvalue-minimisations  :  9072
 total energy-change (2. order) : 0.5640457E-02  (-0.2385477E-03)
 number of electron     107.9999995 magnetization 
 augmentation part       -9.2918263 magnetization 

 Broyden mixing:
  rms(total) = 0.46540E-02    rms(broyden)= 0.46534E-02
  rms(prec ) = 0.60800E-02
  weight for this iteration     100.00

 eigenvalues of (default mixing * dielectric matrix)
  average eigenvalue GAMMA=   1.5251
  2.6596  2.0666  1.3371  1.3371  0.8752  0.8752

 Free energy of the ion-electron system (eV)
  ---------------------------------------------------
  alpha Z        PSCENC =        36.80884744
  Ewald energy   TEWEN  =     11905.58860914
  -Hartree energ DENC   =    -15047.78855722
  -exchange      EXHF   =         0.00000000
  -V(xc)+E(xc)   XCENC  =       -80.73148286
  PAW double counting   =      1155.26215531     -833.96525072
  entropy T*S    EENTRO =        -0.02995302
  eigenvalues    EBANDS =      -615.25720072
  atomic energy  EATOM  =      3354.04126044
  ---------------------------------------------------
  free energy    TOTEN  =      -126.07157220 eV

  energy without entropy =     -126.04161918  energy(sigma->0) =     -126.05659569


--------------------------------------------------------------------------------------------------------




----------------------------------------- Iteration    1(  12)  ---------------------------------------


    POTLOK:  cpu time   14.88: real time   14.89
    SETDIJ:  cpu time    0.01: real time    0.01
     EDDAV:  cpu time   77.11: real time   77.14
       DOS:  cpu time    0.01: real time    0.01
    CHARGE:  cpu time    4.40: real time    4.40
    MIXING:  cpu time    0.01: real time    0.01
    --------------------------------------------
      LOOP:  cpu time   96.43: real time   96.48

 eigenvalue-minimisations  :  9232
 total energy-change (2. order) : 0.3790856E-02  (-0.4928363E-04)
 number of electron     107.9999995 magnetization 
 augmentation part       -9.2915154 magnetization 

 Broyden mixing:
  rms(total) = 0.24805E-02    rms(broyden)= 0.24804E-02
  rms(prec ) = 0.37607E-02
  weight for this iteration     100.00

 eigenvalues of (default mixing * dielectric matrix)
  average eigenvalue GAMMA=   1.4974
  2.7300  2.2212  1.4003  1.4003  0.8593  0.8593  1.0112

 Free energy of the ion-electron system (eV)
  ---------------------------------------------------
  alpha Z        PSCENC =        36.80884744
  Ewald energy   TEWEN  =     11905.58860914
  -Hartree energ DENC   =    -15048.74131954
  -exchange      EXHF   =         0.00000000
  -V(xc)+E(xc)   XCENC  =       -80.72635579
  PAW double counting   =      1154.65301808     -833.34025331
  entropy T*S    EENTRO =        -0.02978420
  eigenvalues    EBANDS =      -614.32180361
  atomic energy  EATOM  =      3354.04126044
  ---------------------------------------------------
  free energy    TOTEN  =      -126.06778135 eV

  energy without entropy =     -126.03799715  energy(sigma->0) =     -126.05288925


--------------------------------------------------------------------------------------------------------




----------------------------------------- Iteration    1(  13)  ---------------------------------------


    POTLOK:  cpu time   15.03: real time   15.04
    SETDIJ:  cpu time    0.01: real time    0.01
     EDDAV:  cpu time   78.22: real time   78.48
       DOS:  cpu time    0.01: real time    0.01
    CHARGE:  cpu time    4.39: real time    4.43
    MIXING:  cpu time    0.01: real time    0.01
    --------------------------------------------
      LOOP:  cpu time   97.68: real time   97.99

 eigenvalue-minimisations  :  9448
 total energy-change (2. order) : 0.2078907E-02  (-0.1242296E-04)
 number of electron     107.9999995 magnetization 
 augmentation part       -9.2914695 magnetization 

 Broyden mixing:
  rms(total) = 0.14172E-02    rms(broyden)= 0.14172E-02
  rms(prec ) = 0.24898E-02
  weight for this iteration     100.00

 eigenvalues of (default mixing * dielectric matrix)
  average eigenvalue GAMMA=   1.5416
  2.8717  2.4699  1.7147  1.3600  1.3600  0.9041  0.9041  0.7483

 Free energy of the ion-electron system (eV)
  ---------------------------------------------------
  alpha Z        PSCENC =        36.80884744
  Ewald energy   TEWEN  =     11905.58860914
  -Hartree energ DENC   =    -15049.51942968
  -exchange      EXHF   =         0.00000000
  -V(xc)+E(xc)   XCENC  =       -80.71955578
  PAW double counting   =      1154.37585351     -833.05604377
  entropy T*S    EENTRO =        -0.02988163
  eigenvalues    EBANDS =      -613.55536212
  atomic energy  EATOM  =      3354.04126044
  ---------------------------------------------------
  free energy    TOTEN  =      -126.06570244 eV

  energy without entropy =     -126.03582081  energy(sigma->0) =     -126.05076163


--------------------------------------------------------------------------------------------------------




----------------------------------------- Iteration    1(  14)  ---------------------------------------


    POTLOK:  cpu time   14.89: real time   14.90
    SETDIJ:  cpu time    0.01: real time    0.01
     EDDAV:  cpu time   73.91: real time   74.05
       DOS:  cpu time    0.01: real time    0.01
    CHARGE:  cpu time    4.43: real time    4.43
    MIXING:  cpu time    0.01: real time    0.01
    --------------------------------------------
      LOOP:  cpu time   93.26: real time   93.41

 eigenvalue-minimisations  :  9000
 total energy-change (2. order) : 0.1053151E-02  (-0.9202472E-05)
 number of electron     107.9999995 magnetization 
 augmentation part       -9.2912499 magnetization 

 Broyden mixing:
  rms(total) = 0.85929E-03    rms(broyden)= 0.85924E-03
  rms(prec ) = 0.15489E-02
  weight for this iteration     100.00

 eigenvalues of (default mixing * dielectric matrix)
  average eigenvalue GAMMA=   1.5978
  3.2741  2.6727  1.8588  1.6031  1.1964  1.1964  0.9147  0.9147  0.7496

 Free energy of the ion-electron system (eV)
  ---------------------------------------------------
  alpha Z        PSCENC =        36.80884744
  Ewald energy   TEWEN  =     11905.58860914
  -Hartree energ DENC   =    -15050.48571272
  -exchange      EXHF   =         0.00000000
  -V(xc)+E(xc)   XCENC  =       -80.71250876
  PAW double counting   =      1154.23051251     -832.90717413
  entropy T*S    EENTRO =        -0.02982834
  eigenvalues    EBANDS =      -612.59865488
  atomic energy  EATOM  =      3354.04126044
  ---------------------------------------------------
  free energy    TOTEN  =      -126.06464929 eV

  energy without entropy =     -126.03482095  energy(sigma->0) =     -126.04973512


--------------------------------------------------------------------------------------------------------




----------------------------------------- Iteration    1(  15)  ---------------------------------------


    POTLOK:  cpu time   14.88: real time   14.89
    SETDIJ:  cpu time    0.01: real time    0.01
     EDDAV:  cpu time   68.61: real time   68.71
       DOS:  cpu time    0.01: real time    0.01
    CHARGE:  cpu time    4.46: real time    4.47
    MIXING:  cpu time    0.02: real time    0.02
    --------------------------------------------
      LOOP:  cpu time   88.00: real time   88.12

 eigenvalue-minimisations  :  8208
 total energy-change (2. order) :-0.1743890E-04  (-0.5780137E-05)
 number of electron     107.9999995 magnetization 
 augmentation part       -9.2911569 magnetization 

 Broyden mixing:
  rms(total) = 0.50999E-03    rms(broyden)= 0.50997E-03
  rms(prec ) = 0.89030E-03
  weight for this iteration     100.00

 eigenvalues of (default mixing * dielectric matrix)
  average eigenvalue GAMMA=   1.6889
  3.9635  2.7006  2.2786  1.5401  1.5401  1.1518  1.1518  0.9067  0.9067  0.7489

 Free energy of the ion-electron system (eV)
  ---------------------------------------------------
  alpha Z        PSCENC =        36.80884744
  Ewald energy   TEWEN  =     11905.58860914
  -Hartree energ DENC   =    -15051.27996701
  -exchange      EXHF   =         0.00000000
  -V(xc)+E(xc)   XCENC  =       -80.70843445
  PAW double counting   =      1154.19377720     -832.86967614
  entropy T*S    EENTRO =        -0.02982589
  eigenvalues    EBANDS =      -611.80925747
  atomic energy  EATOM  =      3354.04126044
  ---------------------------------------------------
  free energy    TOTEN  =      -126.06466673 eV

  energy without entropy =     -126.03484084  energy(sigma->0) =     -126.04975379


--------------------------------------------------------------------------------------------------------




----------------------------------------- Iteration    1(  16)  ---------------------------------------


    POTLOK:  cpu time   14.88: real time   14.95
    SETDIJ:  cpu time    0.01: real time    0.01
     EDDAV:  cpu time   68.88: real time   69.00
       DOS:  cpu time    0.01: real time    0.01
    CHARGE:  cpu time    4.52: real time    4.53
    MIXING:  cpu time    0.01: real time    0.01
    --------------------------------------------
      LOOP:  cpu time   88.32: real time   88.53

 eigenvalue-minimisations  :  8288
 total energy-change (2. order) :-0.5488231E-03  (-0.1130683E-04)
 number of electron     107.9999995 magnetization 
 augmentation part       -9.2910591 magnetization 

 Broyden mixing:
  rms(total) = 0.29287E-03    rms(broyden)= 0.29285E-03
  rms(prec ) = 0.51017E-03
  weight for this iteration     100.00

 eigenvalues of (default mixing * dielectric matrix)
  average eigenvalue GAMMA=   1.7970
  5.2507  2.7945  2.3640  1.6338  1.6338  1.2445  1.2445  1.0551  0.8986  0.8986
  0.7492

 Free energy of the ion-electron system (eV)
  ---------------------------------------------------
  alpha Z        PSCENC =        36.80884744
  Ewald energy   TEWEN  =     11905.58860914
  -Hartree energ DENC   =    -15051.80103272
  -exchange      EXHF   =         0.00000000
  -V(xc)+E(xc)   XCENC  =       -80.70516198
  PAW double counting   =      1154.23397962     -832.91094577
  entropy T*S    EENTRO =        -0.02982670
  eigenvalues    EBANDS =      -611.29094504
  atomic energy  EATOM  =      3354.04126044
  ---------------------------------------------------
  free energy    TOTEN  =      -126.06521555 eV

  energy without entropy =     -126.03538886  energy(sigma->0) =     -126.05030220


--------------------------------------------------------------------------------------------------------




----------------------------------------- Iteration    1(  17)  ---------------------------------------


    POTLOK:  cpu time   15.02: real time   15.12
    SETDIJ:  cpu time    0.01: real time    0.01
     EDDAV:  cpu time   65.29: real time   65.46
       DOS:  cpu time    0.01: real time    0.01
    CHARGE:  cpu time    4.37: real time    4.37
    MIXING:  cpu time    0.02: real time    0.02
    --------------------------------------------
      LOOP:  cpu time   84.72: real time   85.00

 eigenvalue-minimisations  :  7696
 total energy-change (2. order) :-0.2437432E-03  (-0.9945219E-05)
 number of electron     107.9999995 magnetization 
 augmentation part       -9.2910363 magnetization 

 Broyden mixing:
  rms(total) = 0.16904E-03    rms(broyden)= 0.16903E-03
  rms(prec ) = 0.31054E-03
  weight for this iteration     100.00

 eigenvalues of (default mixing * dielectric matrix)
  average eigenvalue GAMMA=   1.8612
  5.9309  2.8830  2.6094  1.9992  1.5216  1.3389  1.2560  1.2560  0.9833  0.9032
  0.9032  0.7501

 Free energy of the ion-electron system (eV)
  ---------------------------------------------------
  alpha Z        PSCENC =        36.80884744
  Ewald energy   TEWEN  =     11905.58860914
  -Hartree energ DENC   =    -15052.08565182
  -exchange      EXHF   =         0.00000000
  -V(xc)+E(xc)   XCENC  =       -80.70427025
  PAW double counting   =      1154.24627938     -832.92346303
  entropy T*S    EENTRO =        -0.02981788
  eigenvalues    EBANDS =      -611.00725272
  atomic energy  EATOM  =      3354.04126044
  ---------------------------------------------------
  free energy    TOTEN  =      -126.06545930 eV

  energy without entropy =     -126.03564141  energy(sigma->0) =     -126.05055035


--------------------------------------------------------------------------------------------------------




----------------------------------------- Iteration    1(  18)  ---------------------------------------


    POTLOK:  cpu time   15.27: real time   15.45
    SETDIJ:  cpu time    0.01: real time    0.01
     EDDAV:  cpu time   62.69: real time   62.83
       DOS:  cpu time    0.01: real time    0.01
    CHARGE:  cpu time    4.34: real time    4.35
    MIXING:  cpu time    0.01: real time    0.01
    --------------------------------------------
      LOOP:  cpu time   82.34: real time   82.67

 eigenvalue-minimisations  :  7256
 total energy-change (2. order) :-0.8898183E-04  (-0.2290504E-05)
 number of electron     107.9999995 magnetization 
 augmentation part       -9.2910353 magnetization 

 Broyden mixing:
  rms(total) = 0.10999E-03    rms(broyden)= 0.10999E-03
  rms(prec ) = 0.20151E-03
  weight for this iteration     100.00

 eigenvalues of (default mixing * dielectric matrix)
  average eigenvalue GAMMA=   1.9020
  6.5595  3.0281  2.6390  1.8944  1.8944  1.4000  1.4000  1.2107  1.2107  0.8983
  0.8983  0.9427  0.7502

 Free energy of the ion-electron system (eV)
  ---------------------------------------------------
  alpha Z        PSCENC =        36.80884744
  Ewald energy   TEWEN  =     11905.58860914
  -Hartree energ DENC   =    -15052.24214710
  -exchange      EXHF   =         0.00000000
  -V(xc)+E(xc)   XCENC  =       -80.70372542
  PAW double counting   =      1154.25266723     -832.92993359
  entropy T*S    EENTRO =        -0.02981889
  eigenvalues    EBANDS =      -610.85130754
  atomic energy  EATOM  =      3354.04126044
  ---------------------------------------------------
  free energy    TOTEN  =      -126.06554828 eV

  energy without entropy =     -126.03572939  energy(sigma->0) =     -126.05063883


--------------------------------------------------------------------------------------------------------




----------------------------------------- Iteration    1(  19)  ---------------------------------------


    POTLOK:  cpu time   15.35: real time   15.37
    SETDIJ:  cpu time    0.01: real time    0.01
     EDDAV:  cpu time   60.70: real time   60.97
       DOS:  cpu time    0.01: real time    0.01
    CHARGE:  cpu time    4.35: real time    4.35
    MIXING:  cpu time    0.01: real time    0.01
    --------------------------------------------
      LOOP:  cpu time   80.43: real time   80.73

 eigenvalue-minimisations  :  6784
 total energy-change (2. order) :-0.3992114E-04  (-0.1286223E-05)
 number of electron     107.9999995 magnetization 
 augmentation part       -9.2910320 magnetization 

 Broyden mixing:
  rms(total) = 0.72259E-04    rms(broyden)= 0.72255E-04
  rms(prec ) = 0.13068E-03
  weight for this iteration     100.00

 eigenvalues of (default mixing * dielectric matrix)
  average eigenvalue GAMMA=   1.9716
  6.8114  3.6546  2.7851  2.4521  1.6792  1.6792  1.2992  1.2992  1.2045  1.2045
  0.9011  0.9011  0.9807  0.7503

 Free energy of the ion-electron system (eV)
  ---------------------------------------------------
  alpha Z        PSCENC =        36.80884744
  Ewald energy   TEWEN  =     11905.58860914
  -Hartree energ DENC   =    -15052.30938067
  -exchange      EXHF   =         0.00000000
  -V(xc)+E(xc)   XCENC  =       -80.70365954
  PAW double counting   =      1154.25336642     -832.93062941
  entropy T*S    EENTRO =        -0.02982019
  eigenvalues    EBANDS =      -610.78418183
  atomic energy  EATOM  =      3354.04126044
  ---------------------------------------------------
  free energy    TOTEN  =      -126.06558820 eV

  energy without entropy =     -126.03576801  energy(sigma->0) =     -126.05067810


--------------------------------------------------------------------------------------------------------




----------------------------------------- Iteration    1(  20)  ---------------------------------------


    POTLOK:  cpu time   14.98: real time   15.00
    SETDIJ:  cpu time    0.01: real time    0.01
     EDDAV:  cpu time   65.29: real time   65.43
       DOS:  cpu time    0.01: real time    0.01
    CHARGE:  cpu time    4.67: real time    4.67
    MIXING:  cpu time    0.01: real time    0.01
    --------------------------------------------
      LOOP:  cpu time   84.98: real time   85.14

 eigenvalue-minimisations  :  7344
 total energy-change (2. order) : 0.6781881E-04  (-0.2369040E-05)
 number of electron     107.9999995 magnetization 
 augmentation part       -9.2910339 magnetization 

 Broyden mixing:
  rms(total) = 0.49234E-04    rms(broyden)= 0.49231E-04
  rms(prec ) = 0.72344E-04
  weight for this iteration     100.00

 eigenvalues of (default mixing * dielectric matrix)
  average eigenvalue GAMMA=   1.9920
  6.9370  4.2777  2.8124  2.5095  1.8307  1.8307  1.3806  1.3806  1.2093  1.2093
  0.7504  0.8999  0.8999  1.0231  0.9286

 Free energy of the ion-electron system (eV)
  ---------------------------------------------------
  alpha Z        PSCENC =        36.80884744
  Ewald energy   TEWEN  =     11905.58860914
  -Hartree energ DENC   =    -15052.36059786
  -exchange      EXHF   =         0.00000000
  -V(xc)+E(xc)   XCENC  =       -80.70368009
  PAW double counting   =      1154.24622803     -832.92329941
  entropy T*S    EENTRO =        -0.02981868
  eigenvalues    EBANDS =      -610.73306940
  atomic energy  EATOM  =      3354.04126044
  ---------------------------------------------------
  free energy    TOTEN  =      -126.06552038 eV

  energy without entropy =     -126.03570169  energy(sigma->0) =     -126.05061104


--------------------------------------------------------------------------------------------------------




----------------------------------------- Iteration    1(  21)  ---------------------------------------


    POTLOK:  cpu time   14.94: real time   14.95
    SETDIJ:  cpu time    0.01: real time    0.01
     EDDAV:  cpu time   60.15: real time   60.24
       DOS:  cpu time    0.01: real time    0.01
    CHARGE:  cpu time    4.58: real time    4.58
    MIXING:  cpu time    0.01: real time    0.01
    --------------------------------------------
      LOOP:  cpu time   79.70: real time   79.81

 eigenvalue-minimisations  :  6504
 total energy-change (2. order) : 0.9237645E-05  (-0.1431734E-05)
 number of electron     107.9999995 magnetization 
 augmentation part       -9.2910360 magnetization 

 Broyden mixing:
  rms(total) = 0.28144E-04    rms(broyden)= 0.28142E-04
  rms(prec ) = 0.40135E-04
  weight for this iteration     100.00

 eigenvalues of (default mixing * dielectric matrix)
  average eigenvalue GAMMA=   2.1261
  7.7375  5.6743  2.9815  2.5996  2.2532  1.5737  1.5737  1.2783  1.2783  1.2660
  1.2660  0.7503  0.9016  0.9016  0.9907  0.9907

 Free energy of the ion-electron system (eV)
  ---------------------------------------------------
  alpha Z        PSCENC =        36.80884744
  Ewald energy   TEWEN  =     11905.58860914
  -Hartree energ DENC   =    -15052.35676392
  -exchange      EXHF   =         0.00000000
  -V(xc)+E(xc)   XCENC  =       -80.70383965
  PAW double counting   =      1154.24565139     -832.92273629
  entropy T*S    EENTRO =        -0.02981862
  eigenvalues    EBANDS =      -610.73672108
  atomic energy  EATOM  =      3354.04126044
  ---------------------------------------------------
  free energy    TOTEN  =      -126.06551114 eV

  energy without entropy =     -126.03569252  energy(sigma->0) =     -126.05060183


--------------------------------------------------------------------------------------------------------




----------------------------------------- Iteration    1(  22)  ---------------------------------------


    POTLOK:  cpu time   15.24: real time   15.25
    SETDIJ:  cpu time    0.01: real time    0.01
     EDDAV:  cpu time   61.70: real time   61.81
       DOS:  cpu time    0.01: real time    0.01
    CHARGE:  cpu time    5.02: real time    5.04
    MIXING:  cpu time    0.02: real time    0.02
    --------------------------------------------
      LOOP:  cpu time   82.00: real time   82.14

 eigenvalue-minimisations  :  6288
 total energy-change (2. order) : 0.6584887E-04  (-0.6094042E-06)
 number of electron     107.9999995 magnetization 
 augmentation part       -9.2910346 magnetization 

 Broyden mixing:
  rms(total) = 0.14302E-04    rms(broyden)= 0.14300E-04
  rms(prec ) = 0.18094E-04
  weight for this iteration     100.00

 eigenvalues of (default mixing * dielectric matrix)
  average eigenvalue GAMMA=   2.1926
  8.0530  6.6063  3.0868  2.7385  2.0988  2.0576  1.3712  1.3712  1.4752  1.4752
  1.2384  1.2384  0.7503  0.9003  0.9003  0.9567  0.9567

 Free energy of the ion-electron system (eV)
  ---------------------------------------------------
  alpha Z        PSCENC =        36.80884744
  Ewald energy   TEWEN  =     11905.58860914
  -Hartree energ DENC   =    -15052.37177138
  -exchange      EXHF   =         0.00000000
  -V(xc)+E(xc)   XCENC  =       -80.70380023
  PAW double counting   =      1154.24519656     -832.92228522
  entropy T*S    EENTRO =        -0.02981862
  eigenvalues    EBANDS =      -610.72168342
  atomic energy  EATOM  =      3354.04126044
  ---------------------------------------------------
  free energy    TOTEN  =      -126.06544529 eV

  energy without entropy =     -126.03562667  energy(sigma->0) =     -126.05053598


--------------------------------------------------------------------------------------------------------




----------------------------------------- Iteration    1(  23)  ---------------------------------------


    POTLOK:  cpu time   15.31: real time   15.33
    SETDIJ:  cpu time    0.01: real time    0.01
     EDDAV:  cpu time   74.64: real time   74.84
       DOS:  cpu time    0.01: real time    0.01
    CHARGE:  cpu time    4.37: real time    4.38
    MIXING:  cpu time    0.01: real time    0.01
    --------------------------------------------
      LOOP:  cpu time   94.36: real time   94.60

 eigenvalue-minimisations  :  6576
 total energy-change (2. order) : 0.1730509E-04  (-0.6579844E-06)
 number of electron     107.9999995 magnetization 
 augmentation part       -9.2910349 magnetization 

 Broyden mixing:
  rms(total) = 0.67515E-05    rms(broyden)= 0.67493E-05
  rms(prec ) = 0.83117E-05
  weight for this iteration     100.00

 eigenvalues of (default mixing * dielectric matrix)
  average eigenvalue GAMMA=   2.2344
  8.9238  6.6871  3.3393  2.7021  2.4549  2.0198  1.7077  1.7077  1.3327  1.3327
  1.1867  1.1867  0.7503  0.9006  0.9006  1.1199  0.9831  0.9831

 Free energy of the ion-electron system (eV)
  ---------------------------------------------------
  alpha Z        PSCENC =        36.80884744
  Ewald energy   TEWEN  =     11905.58860914
  -Hartree energ DENC   =    -15052.36994838
  -exchange      EXHF   =         0.00000000
  -V(xc)+E(xc)   XCENC  =       -80.70382159
  PAW double counting   =      1154.24561445     -832.92271105
  entropy T*S    EENTRO =        -0.02981874
  eigenvalues    EBANDS =      -610.72345970
  atomic energy  EATOM  =      3354.04126044
  ---------------------------------------------------
  free energy    TOTEN  =      -126.06542799 eV

  energy without entropy =     -126.03560925  energy(sigma->0) =     -126.05051862


[...]
     31      -4.0302      2.00000
     32      -3.8523      2.00000
     33      -3.7510      2.00000
     34      -3.5634      2.00000
     35      -3.3189      2.00000
     36      -3.2486      2.00000
     37      -3.1393      2.00000
     38      -3.0876      2.00000
     39      -3.0545      2.00000
     40      -2.8467      2.00000
     41      -2.6758      2.00000
     42      -2.5640      2.00000
     43      -2.4838      2.00000
     44      -2.1327      2.00000
     45      -2.0386      2.00000
     46      -1.9442      2.00000
     47      -1.8333      2.00000
     48      -1.7733      2.00000
     49      -1.4208      2.00000
     50      -1.3789      2.00000
     51      -1.0570      2.00000
     52      -0.8481      2.00000
     53      -0.5412      2.00000
     54      -0.1502      2.00000
     55       0.1529      1.47141
     56       1.0810      0.00000
     57       1.2628      0.00000
     58       1.4333      0.00000
     59       1.5665      0.00000
     60       1.7662      0.00000
     61       2.2054      0.00000
     62       2.5042      0.00000
     63       2.6333      0.00000
     64       2.6962      0.00000
     65       2.8479      0.00000
     66       3.0187      0.00000
     67       3.1535      0.00000
     68       3.2168      0.00000

 k-point    52 :       0.3077    0.5000    0.5000
  band No.  band energies     occupation 
      1     -13.1515      2.00000
      2     -12.5362      2.00000
      3     -12.1904      2.00000
      4     -11.9753      2.00000
      5     -11.6723      2.00000
      6     -11.3832      2.00000
      7     -11.2356      2.00000
      8     -11.0387      2.00000
      9     -10.8383      2.00000
     10     -10.6038      2.00000
     11     -10.4210      2.00000
     12     -10.1123      2.00000
     13      -8.9491      2.00000
     14      -8.4267      2.00000
     15      -7.8019      2.00000
     16      -7.3890      2.00000
     17      -7.1002      2.00000
     18      -7.0646      2.00000
     19      -6.9913      2.00000
     20      -6.8460      2.00000
     21      -6.3228      2.00000
     22      -6.2028      2.00000
     23      -5.9530      2.00000
     24      -5.6989      2.00000
     25      -5.3850      2.00000
     26      -5.1370      2.00000
     27      -4.9328      2.00000
     28      -4.8527      2.00000
     29      -4.5255      2.00000
     30      -4.4106      2.00000
     31      -4.3156      2.00000
     32      -4.1198      2.00000
     33      -4.0861      2.00000
     34      -3.7797      2.00000
     35      -3.2878      2.00000
     36      -3.1736      2.00000
     37      -3.1268      2.00000
     38      -3.0948      2.00000
     39      -2.9899      2.00000
     40      -2.9228      2.00000
     41      -2.8215      2.00000
     42      -2.5714      2.00000
     43      -2.5230      2.00000
     44      -2.3398      2.00000
     45      -2.1620      2.00000
     46      -1.9752      2.00000
     47      -1.9286      2.00000
     48      -1.8688      2.00000
     49      -1.7660      2.00000
     50      -1.5270      2.00000
     51      -1.3141      2.00000
     52      -1.2216      2.00000
     53      -0.9008      2.00000
     54      -0.5651      2.00000
     55       0.2081      0.88014
     56       0.8485      0.00000
     57       1.0213      0.00000
     58       1.2662      0.00000
     59       1.3465      0.00000
     60       1.5964      0.00000
     61       2.1215      0.00000
     62       2.2167      0.00000
     63       2.3990      0.00000
     64       2.4493      0.00000
     65       2.5401      0.00000
     66       2.7470      0.00000
     67       2.9135      0.00000
     68       2.9750      0.00000

 k-point    53 :       0.3846    0.5000    0.5000
  band No.  band energies     occupation 
      1     -12.8100      2.00000
      2     -12.0598      2.00000
      3     -11.6935      2.00000
      4     -11.5230      2.00000
      5     -11.2763      2.00000
      6     -11.0129      2.00000
      7     -11.0031      2.00000
      8     -10.7950      2.00000
      9     -10.6478      2.00000
     10     -10.4878      2.00000
     11     -10.4407      2.00000
     12      -9.8175      2.00000
     13      -8.9336      2.00000
     14      -8.7561      2.00000
     15      -8.2766      2.00000
     16      -7.8589      2.00000
     17      -7.6430      2.00000
     18      -7.5756      2.00000
     19      -7.4120      2.00000
     20      -7.1984      2.00000
     21      -6.7483      2.00000
     22      -6.6973      2.00000
     23      -6.6803      2.00000
     24      -6.2332      2.00000
     25      -5.3268      2.00000
     26      -5.1793      2.00000
     27      -4.9920      2.00000
     28      -4.7023      2.00000
     29      -4.5657      2.00000
     30      -4.2932      2.00000
     31      -4.1627      2.00000
     32      -4.0687      2.00000
     33      -3.9686      2.00000
     34      -3.7289      2.00000
     35      -3.5573      2.00000
     36      -3.3942      2.00000
     37      -3.2172      2.00000
     38      -3.1527      2.00000
     39      -3.0981      2.00000
     40      -2.8991      2.00000
     41      -2.8454      2.00000
     42      -2.6067      2.00000
     43      -2.4961      2.00000
     44      -2.3857      2.00000
     45      -2.3310      2.00000
     46      -2.2161      2.00000
     47      -2.1101      2.00000
     48      -2.0427      2.00000
     49      -1.9080      2.00000
     50      -1.7389      2.00000
     51      -1.5271      2.00000
     52      -1.4224      2.00000
     53      -1.1629      2.00000
     54      -0.8370      2.00000
     55       0.2562      0.40617
     56       0.6686      0.00000
     57       0.9880      0.00000
     58       1.2472      0.00000
     59       1.4375      0.00000
     60       1.5693      0.00000
     61       1.8119      0.00000
     62       2.0398      0.00000
     63       2.1093      0.00000
     64       2.2679      0.00000
     65       2.3787      0.00000
     66       2.5174      0.00000
     67       2.6444      0.00000
     68       2.7870      0.00000

 k-point    54 :       0.4615    0.5000    0.5000
  band No.  band energies     occupation 
      1     -12.5612      2.00000
      2     -11.5166      2.00000
      3     -11.1944      2.00000
      4     -11.1106      2.00000
      5     -10.9746      2.00000
      6     -10.8803      2.00000
      7     -10.8587      2.00000
      8     -10.7467      2.00000
      9     -10.7223      2.00000
     10     -10.6505      2.00000
     11     -10.5328      2.00000
     12      -9.6777      2.00000
     13      -8.7789      2.00000
     14      -8.6918      2.00000
     15      -8.4671      2.00000
     16      -8.1783      2.00000
     17      -8.1449      2.00000
     18      -8.0759      2.00000
     19      -7.5883      2.00000
     20      -7.3838      2.00000
     21      -7.3139      2.00000
     22      -7.1954      2.00000
     23      -7.0213      2.00000
     24      -6.6489      2.00000
     25      -5.0840      2.00000
     26      -4.9701      2.00000
     27      -4.7606      2.00000
     28      -4.5064      2.00000
     29      -4.3302      2.00000
     30      -4.2156      2.00000
     31      -4.1007      2.00000
     32      -3.9821      2.00000
     33      -3.8652      2.00000
     34      -3.7942      2.00000
     35      -3.6732      2.00000
     36      -3.5873      2.00000
     37      -3.4849      2.00000
     38      -3.2825      2.00000
     39      -3.1822      2.00000
     40      -3.0407      2.00000
     41      -2.9583      2.00000
     42      -2.7279      2.00000
     43      -2.5793      2.00000
     44      -2.4694      2.00000
     45      -2.4073      2.00000
     46      -2.2421      2.00000
     47      -2.1889      2.00000
     48      -2.0491      2.00000
     49      -1.9202      2.00000
     50      -1.7493      2.00000
     51      -1.6525      2.00000
     52      -1.5443      2.00000
     53      -1.3739      2.00000
     54      -0.8407      2.00000
     55       0.1792      1.20344
     56       0.6336      0.00000
     57       1.0422      0.00000
     58       1.3193      0.00000
     59       1.4925      0.00000
     60       1.6011      0.00000
     61       1.6747      0.00000
     62       1.8520      0.00000
     63       2.0172      0.00000
     64       2.2174      0.00000
     65       2.3278      0.00000
     66       2.3752      0.00000
     67       2.4687      0.00000
     68       2.6562      0.00000


--------------------------------------------------------------------------------------------------------


 soft charge-density along one line, spin component           1
         0         1         2         3         4         5         6         7         8         9
 total charge-density along one line
 
 pseudopotential strength for first ion, spin component:           1
 29.781   0.008  -0.001  -0.023  -0.000  -0.000  -0.001   0.000
  0.008   0.009  -0.000  -0.000   0.000   0.000   0.000  -0.000
 -0.001  -0.000   6.549  -0.001   0.000  -0.003   0.000  -0.000
 -0.023  -0.000  -0.001   6.544  -0.000   0.000  -0.002  -0.000
 -0.000   0.000   0.000  -0.000   6.550  -0.000  -0.000  -0.003
 -0.000   0.000  -0.003   0.000  -0.000   0.015  -0.000   0.000
 -0.001   0.000   0.000  -0.002  -0.000  -0.000   0.015   0.000
  0.000  -0.000  -0.000  -0.000  -0.003   0.000   0.000   0.015
 total augmentation occupancy for first ion, spin component:           1
  1.816  -0.352   0.006   0.256   0.000   0.003   0.114  -0.001
 -0.352   1.296   0.022   0.862  -0.000   0.004  -0.434  -0.000
  0.006   0.022   1.141   0.013   0.000  -0.503   0.014  -0.000
  0.256   0.862   0.013   1.290   0.001   0.014  -0.418  -0.001
  0.000  -0.000   0.000   0.001   1.144  -0.000  -0.000  -0.527
  0.003   0.004  -0.503   0.014  -0.000   0.291  -0.015   0.000
  0.114  -0.434   0.014  -0.418  -0.000  -0.015   0.227   0.000
 -0.001  -0.000  -0.000  -0.001  -0.527   0.000   0.000   0.325


------------------------ aborting loop because EDIFF is reached ----------------------------------------


    CHARGE:  cpu time    4.38: real time    4.39
    FORLOC:  cpu time    0.05: real time    0.05
    FORNL :  cpu time   23.12: real time   23.15
    STRESS:  cpu time   68.58: real time   68.63
    FORCOR:  cpu time   15.07: real time   15.10
    FORHAR:  cpu time    0.14: real time    0.14
    MIXING:  cpu time    0.02: real time    0.02
    OFIELD:  cpu time    0.00: real time    0.00

  FORCE on cell =-STRESS in cart. coord.  units (eV):
  Direction    XX          YY          ZZ          XY          YZ          ZX
  --------------------------------------------------------------------------------------
  Alpha Z    36.80885    36.80885    36.80885
  Ewald   14395.87789 13969.46531-16459.76207   -11.65829    -2.45786   -38.03927
  Hartree 14898.35095 14593.17433-14439.15404    -2.77626     6.72731    -7.06419
  E(xc)    -356.36853  -356.11681  -354.74465    -0.20797    -0.28030     0.12366
  Local  -30841.03113-30115.61302 29314.31265    13.83181   -10.86686    46.72096
  n-local  1150.22478  1150.13619  1136.93731     1.01381     0.56299    -6.78404
  augment  -201.33404  -201.56740  -203.63462     0.00102    -1.07199     0.98984
  Kinetic   924.02991   922.02749   973.20635    -0.21980    15.06501    -8.67519
  Fock        0.00000     0.00000     0.00000     0.00000     0.00000     0.00000
  -------------------------------------------------------------------------------------
  Total       6.55867    -1.68506     3.96978    -0.01567     7.67831   -12.72823
  in kB      10.48383    -2.69352     6.34557    -0.02505    12.27353   -20.34568
  external pressure =        4.71 kB  Pullay stress =        0.00 kB


 VOLUME and BASIS-vectors are now :
 -----------------------------------------------------------------------------
  energy-cutoff  :      300.00
  volume of cell :     1002.32
      direct lattice vectors                 reciprocal lattice vectors
     3.540400000  0.000000000  0.000000000     0.282453960  0.048570342  0.000000000
    -1.770200000 10.294348000  0.000000000     0.000000000  0.097140683  0.000000000
     0.000000000  0.000000000 27.501429000     0.000000000  0.000000000  0.036361747

  length of vectors
     3.540400000 10.445439617 27.501429000     0.286599577  0.097140683  0.036361747


 FORCES acting on ions
    electron-ion (+dipol)            ewald-force                    non-local-force                 convergence-correction
 -----------------------------------------------------------------------------------------------
   0.481E-01 0.104E+02 0.274E+02   0.242E-02 -.102E+02 -.228E+02   -.264E-01 -.224E+00 -.463E+01   0.424E-07 0.414E-05 -.263E-05
   0.176E+00 0.638E+01 -.571E+03   -.345E+00 -.628E+01 0.575E+03   -.220E+00 -.911E-01 -.392E+01   -.314E-06 -.335E-05 -.465E-05
   0.171E-02 0.622E+02 0.476E+02   0.224E-02 -.637E+02 -.434E+02   -.266E-02 0.157E+01 -.416E+01   -.233E-07 -.265E-05 -.103E-04
   0.231E-01 0.443E+02 -.517E+03   0.737E-01 -.453E+02 0.520E+03   -.389E+00 0.153E+01 -.310E+01   0.354E-06 -.104E-04 -.479E-05
   -.166E-02 -.573E+02 0.526E+03   0.101E-03 0.589E+02 -.531E+03   0.156E-03 -.154E+01 0.428E+01   -.182E-07 -.185E-05 -.115E-04
   -.229E+02 -.964E+02 -.344E+02   0.216E+02 0.965E+02 0.343E+02   0.515E+01 0.449E-01 -.274E+01   -.186E-05 -.631E-05 0.200E-04
   0.329E-02 0.538E+02 0.526E+03   0.114E-04 -.557E+02 -.530E+03   0.115E-03 0.192E+01 0.417E+01   -.313E-07 -.701E-06 -.530E-05
   0.398E+00 0.795E+02 -.816E+02   0.330E-02 -.810E+02 0.758E+02   0.310E+00 0.101E+01 0.563E+01   0.534E-06 -.656E-06 0.127E-04
   0.280E-03 0.189E+01 0.572E+03   -.887E-04 -.210E+01 -.577E+03   0.143E-02 0.212E+00 0.478E+01   0.210E-07 0.482E-05 -.183E-04
   0.436E+00 0.275E+01 -.172E+02   -.354E+00 -.286E+01 0.140E+02   0.454E+00 0.953E-01 0.306E+01   -.340E-07 0.711E-05 0.135E-04
   0.296E-02 -.642E+02 0.606E+02   -.698E-02 0.661E+02 -.565E+02   0.446E-02 -.190E+01 -.401E+01   0.104E-06 0.137E-05 -.477E-05
   0.106E+01 -.516E+02 -.538E+03   -.128E+01 0.534E+02 0.543E+03   -.232E+00 -.154E+01 -.414E+01   0.527E-06 0.800E-05 -.128E-04
   -.521E-02 0.305E+02 0.208E+03   -.226E-03 -.326E+02 -.209E+03   0.833E-02 0.210E+01 0.319E+00   -.351E-08 0.409E-06 -.758E-05
   0.871E+00 -.977E+01 -.235E+03   -.166E+01 0.657E+01 0.236E+03   0.156E+00 0.422E+01 -.986E+00   0.604E-07 -.698E-05 0.490E-05
   -.362E-02 -.117E+02 0.139E+03   0.125E-02 0.119E+02 -.142E+03   0.814E-03 -.220E+00 0.253E+01   -.170E-07 0.173E-05 -.582E-05
   -.104E+01 0.325E+00 -.335E+03   0.789E+00 -.210E+00 0.333E+03   0.104E-01 0.795E-01 0.725E+00   -.297E-06 0.123E-04 -.941E-05
   0.301E-03 -.504E+01 0.346E+03   0.893E-04 0.552E+01 -.343E+03   -.950E-04 -.472E+00 -.251E+01   -.160E-07 0.186E-05 -.949E-05
   -.789E+01 -.610E+00 -.123E+03   0.734E+01 0.271E-01 0.123E+03   0.208E+01 -.173E+01 -.186E+01   -.154E-06 0.152E-05 0.869E-05
   0.341E-02 0.988E+01 0.335E+03   -.669E-05 -.101E+02 -.332E+03   -.197E-02 0.239E+00 -.253E+01   0.129E-07 -.459E-06 -.552E-05
   0.310E+00 0.237E+02 -.149E+03   -.647E+00 -.257E+02 0.148E+03   0.398E+00 0.860E+00 0.836E+00   -.460E-06 0.920E-05 0.380E-05
   -.470E-01 0.117E+02 0.126E+03   0.741E-04 -.121E+02 -.128E+03   0.422E-01 0.382E+00 0.255E+01   -.114E-07 0.688E-06 -.871E-05
   -.157E+01 0.211E+02 -.329E+03   0.112E+01 -.203E+02 0.329E+03   0.279E+00 -.193E+00 -.352E+00   0.550E-06 -.918E-05 -.281E-05
   0.284E-02 -.315E+02 0.254E+03   -.239E-03 0.337E+02 -.254E+03   -.638E-04 -.216E+01 -.357E+00   0.152E-07 -.169E-05 -.686E-05
   0.302E+02 -.324E+02 -.238E+03   -.266E+02 0.357E+02 0.237E+03   -.810E+01 -.200E+01 0.480E+01   0.660E-06 -.764E-06 0.681E-05
 -----------------------------------------------------------------------------------------------
   0.815E-01 -.218E+01 0.160E+01   -.213E-13 0.711E-13 -.369E-12   -.759E-01 0.218E+01 -.159E+01   -.360E-06 0.815E-05 -.608E-04
 
 
 POSITION                                       TOTAL-FORCE (eV/Angst)
 -----------------------------------------------------------------------------------
      0.00000      2.34757      6.41229         0.023881     -0.052822      0.007452
      0.53106      1.31814     14.16300        -0.388966      0.016128      0.458850
     -0.00000      9.43147      5.75866         0.001056     -0.018024      0.085003
      0.53106      8.40203     13.50937        -0.292357      0.540143     -0.201985
     -0.00000      6.40009      2.31424        -0.001636     -0.009184      0.012433
     -0.00000      6.40009     10.06495         3.820243      0.130739     -2.860165
      1.77020     10.27849      2.37372         0.003180      0.002786     -0.005698
      1.77020     10.27849     10.12443         0.711983     -0.514499     -0.129063
      1.77020      3.18974      1.66157         0.001386      0.002326      0.016781
      1.77020      3.18974      9.41228         0.536458     -0.014802     -0.190727
      1.77020      5.55354      5.69975         0.000208      0.009780      0.087596
      2.30126      4.52411     13.45047        -0.452336      0.283308      0.497280
      1.77020      9.05319      4.34076         0.002666      0.007345      0.006350
     -1.23914      8.02375     12.09147        -0.628733      1.031665      0.342301
      0.00000      4.22380      5.10944        -0.001787     -0.000454      0.059072
      0.53106      3.19437     12.86016        -0.242589      0.194607     -0.705167
     -0.00000      4.15582      2.74166         0.000062      0.003076     -0.030364
     -0.00000      4.15582     10.49237         1.535006     -2.316225     -1.408999
      1.77020      1.31366      2.96438         0.001198     -0.020922     -0.013409
      1.77020      1.31366     10.71510         0.059806     -1.139015      0.473829
      1.77020      1.38163      5.33187        -0.005050     -0.027995      0.013320
      2.30126      0.35219     13.08259        -0.163964      0.593382     -0.246596
      1.77020      6.77850      3.73234         0.002303      0.026512     -0.005141
      2.30126      5.74906     11.48306        -4.522015      1.272145      3.737047
 -----------------------------------------------------------------------------------
    total drift:                                0.005594     -0.000015      0.003117


--------------------------------------------------------------------------------------------------------



  FREE ENERGIE OF THE ION-ELECTRON SYSTEM (eV)
  ---------------------------------------------------
  free  energy   TOTEN  =      -126.06541614 eV

  energy  without entropy=     -126.03559745  energy(sigma->0) =     -126.05050680
 


--------------------------------------------------------------------------------------------------------


    POTLOK:  cpu time   14.84: real time   14.85


--------------------------------------------------------------------------------------------------------


     LOOP+:  cpu time 2364.67: real time 2369.01
    4ORBIT:  cpu time    0.00: real time    0.00

 total amount of memory used by VASP on root node   146493. kBytes
========================================================================

   base      :      30000. kBytes
   nonlr-proj:       3452. kBytes
   fftplans  :       9347. kBytes
   grid      :      14649. kBytes
   one-center:         36. kBytes
   wavefun   :      89009. kBytes
 
  
  
 General timing and accounting informations for this job:
 ========================================================
  
                  Total CPU time used (sec):     2380.829
                            User time (sec):     2338.923
                          System time (sec):       41.906
                         Elapsed time (sec):     2386.300
  
                   Maximum memory used (kb):      335000.
                   Average memory used (kb):           0.
  
                          Minor page faults:      7712769
                          Major page faults:           16
                 Voluntary context switches:         1917
