 running on    8 total cores
 distrk:  each k-point on    8 cores,    1 groups
 distr:  one band on    2 cores,    4 groups
 using from now: INCAR     
 vasp.5.3.5 31Mar14 (build Oct 29 2014 16:16:03) complex                        
  
 POSCAR found type information on POSCAR  P  Si
 POSCAR found :  2 types and      24 ions
 scaLAPACK will be used

 ----------------------------------------------------------------------------- 
|                                                                             |
|  ADVICE TO THIS USER RUNNING 'VASP/VAMP'   (HEAR YOUR MASTER'S VOICE ...):  |
|                                                                             |
|      You have switched on vdW-DFT.                                          |
|      This routine was written and supplied by Jiri Klimes.                  |
|      We recommed that you carefully read and cite the following             |
|      publication                                                            |
|      J. Klimes, D.R. Bowler, A. Michelides                                  |
|        J. Phys.: Cond Matt. 22 022201 (2010)                                |
|      J. Klimes, D.R. Bowler, A. Michelides                                  |
|        Phys. Rev. B. 83, 195131 (2011)                                      |
|      and references therein.                                                |
|                                                                             |
 ----------------------------------------------------------------------------- 


 ----------------------------------------------------------------------------- 
|                                                                             |
|  ADVICE TO THIS USER RUNNING 'VASP/VAMP'   (HEAR YOUR MASTER'S VOICE ...):  |
|                                                                             |
|      You enforced a specific xc-type in the INCAR file,                     |
|      a different type was found on the POTCAR file                          |
|          I HOPE YOU KNOW, WHAT YOU ARE  DOING                               |
|                                                                             |
 ----------------------------------------------------------------------------- 

 LDA part: xc-table for Pade appr. of Perdew


 VERY BAD NEWS! internal error in subroutine IBZKPT:
 Reciprocal lattice and k-lattice belong to different class of lattices. Often results are still useful...      96


 VERY BAD NEWS! internal error in subroutine IBZKPT:
 Reciprocal lattice and k-lattice belong to different class of lattices. Often results are still useful...      96


 VERY BAD NEWS! internal error in subroutine IBZKPT:
 Reciprocal lattice and k-lattice belong to different class of lattices. Often results are still useful...      96


 VERY BAD NEWS! internal error in subroutine IBZKPT:
 Reciprocal lattice and k-lattice belong to different class of lattices. Often results are still useful...      96
 POSCAR, INCAR and KPOINTS ok, starting setup


 VERY BAD NEWS! internal error in subroutine IBZKPT:
 Reciprocal lattice and k-lattice belong to different class of lattices. Often results are still useful...      96


 VERY BAD NEWS! internal error in subroutine IBZKPT:
 Reciprocal lattice and k-lattice belong to different class of lattices. Often results are still useful...      96


 VERY BAD NEWS! internal error in subroutine IBZKPT:
 Reciprocal lattice and k-lattice belong to different class of lattices. Often results are still useful...      96


 VERY BAD NEWS! internal error in subroutine IBZKPT:
 Reciprocal lattice and k-lattice belong to different class of lattices. Often results are still useful...      96
 WARNING: small aliasing (wrap around) errors must be expected
 FFT: planning ...
 WAVECAR not read
 entering main loop
       N       E                     dE             d eps       ncg     rms          rms(c)
Total vdW correction in eV:     15.8972211
DAV:   1     0.484901494913E+03    0.48490E+03   -0.28621E+04  7360   0.790E+02
DAV:   2    -0.698861614321E+02   -0.55479E+03   -0.54082E+03  9776   0.188E+02
DAV:   3    -0.125075345978E+03   -0.55189E+02   -0.54446E+02  8812   0.616E+01
DAV:   4    -0.127488764114E+03   -0.24134E+01   -0.23990E+01 10848   0.139E+01
DAV:   5    -0.127549173500E+03   -0.60409E-01   -0.60356E-01  9928   0.214E+00    0.982E+00
Total vdW correction in eV:     16.3163570
DAV:   6    -0.125802051535E+03    0.17471E+01   -0.65876E+00  8856   0.549E+00    0.557E+00
Total vdW correction in eV:     16.7085562
DAV:   7    -0.125595345556E+03    0.20671E+00   -0.38203E+00  8960   0.495E+00    0.248E+00
Total vdW correction in eV:     16.9222259
DAV:   8    -0.125546618687E+03    0.48727E-01   -0.12886E+00  8712   0.284E+00    0.920E-01
Total vdW correction in eV:     16.9917742
DAV:   9    -0.125524876797E+03    0.21742E-01   -0.18144E-01  9352   0.118E+00    0.427E-01
Total vdW correction in eV:     17.0150184
DAV:  10    -0.125505620147E+03    0.19257E-01   -0.43268E-02  9024   0.590E-01    0.190E-01
Total vdW correction in eV:     17.0243078
DAV:  11    -0.125497290802E+03    0.83293E-02   -0.14846E-02  8952   0.313E-01    0.911E-02
Total vdW correction in eV:     17.0314680
DAV:  12    -0.125492309992E+03    0.49808E-02   -0.26209E-03  8800   0.149E-01    0.412E-02
Total vdW correction in eV:     17.0359527
DAV:  13    -0.125489551358E+03    0.27586E-02   -0.51611E-04  9272   0.662E-02    0.226E-02
Total vdW correction in eV:     17.0400034
DAV:  14    -0.125487760507E+03    0.17909E-02   -0.13415E-04  9232   0.324E-02    0.117E-02
Total vdW correction in eV:     17.0431053
DAV:  15    -0.125487131849E+03    0.62866E-03   -0.49339E-05  8344   0.206E-02    0.689E-03
Total vdW correction in eV:     17.0456837
DAV:  16    -0.125487543284E+03   -0.41143E-03   -0.89296E-05  8152   0.208E-02    0.404E-03
Total vdW correction in eV:     17.0464128
DAV:  17    -0.125487962569E+03   -0.41929E-03   -0.15722E-04  7616   0.219E-02    0.237E-03
Total vdW correction in eV:     17.0462857
DAV:  18    -0.125488045682E+03   -0.83113E-04   -0.61809E-05  7440   0.142E-02    0.129E-03
Total vdW correction in eV:     17.0460476
DAV:  19    -0.125488061259E+03   -0.15576E-04   -0.18226E-05  6568   0.917E-03    0.839E-04
Total vdW correction in eV:     17.0458921
DAV:  20    -0.125488076310E+03   -0.15051E-04   -0.19921E-05  6864   0.931E-03    0.591E-04
Total vdW correction in eV:     17.0457644
DAV:  21    -0.125488050848E+03    0.25462E-04   -0.19550E-05  6816   0.102E-02    0.337E-04
Total vdW correction in eV:     17.0457380
DAV:  22    -0.125487996706E+03    0.54142E-04   -0.13570E-05  6520   0.837E-03    0.177E-04
Total vdW correction in eV:     17.0457305
DAV:  23    -0.125487968285E+03    0.28421E-04   -0.89135E-06  6600   0.781E-03    0.952E-05
Total vdW correction in eV:     17.0457260
DAV:  24    -0.125487950279E+03    0.18006E-04   -0.56723E-06  6592   0.720E-03    0.437E-05
Total vdW correction in eV:     17.0457262
DAV:  25    -0.125487946456E+03    0.38225E-05   -0.26113E-06  5720   0.564E-03    0.264E-05
Total vdW correction in eV:     17.0457254
DAV:  26    -0.125487945742E+03    0.71480E-06   -0.13716E-06  5328   0.462E-03
Total vdW correction in eV:     17.0457243
Total vdW correction in eV:     17.0457252
   1 F= -.12548795E+03 E0= -.12547054E+03  d E =-.348069E-01
