       N       E                     dE             d eps       ncg     rms          rms(c)
DAV:   1     0.482800638529E+03    0.48280E+03   -0.28622E+04  7360   0.790E+02
DAV:   2    -0.764867221102E+02   -0.55929E+03   -0.54496E+03  9812   0.188E+02
DAV:   3    -0.131208805048E+03   -0.54722E+02   -0.54202E+02  8680   0.614E+01
DAV:   4    -0.133596739355E+03   -0.23879E+01   -0.23790E+01 10984   0.139E+01
DAV:   5    -0.133652832697E+03   -0.56093E-01   -0.56043E-01 10160   0.208E+00    0.999E+00
DAV:   6    -0.132148285235E+03    0.15045E+01   -0.26990E+00  8680   0.409E+00    0.577E+00
DAV:   7    -0.131886126479E+03    0.26216E+00   -0.26246E+00  8848   0.413E+00    0.130E+00
DAV:   8    -0.131847337412E+03    0.38789E-01   -0.27147E-01  9304   0.157E+00    0.346E-01
DAV:   9    -0.131827068050E+03    0.20269E-01   -0.25904E-02  9256   0.535E-01    0.129E-01
DAV:  10    -0.131817707965E+03    0.93601E-02   -0.40056E-03  9392   0.189E-01    0.526E-02
DAV:  11    -0.131814030045E+03    0.36779E-02   -0.80601E-04  9104   0.923E-02    0.242E-02
DAV:  12    -0.131811940803E+03    0.20892E-02   -0.21320E-04  9592   0.396E-02    0.135E-02
DAV:  13    -0.131810548862E+03    0.13919E-02   -0.76392E-05  9248   0.236E-02    0.840E-03
DAV:  14    -0.131811037467E+03   -0.48860E-03   -0.54414E-05  8592   0.193E-02    0.481E-03
DAV:  15    -0.131811461467E+03   -0.42400E-03   -0.21948E-04  8496   0.277E-02    0.278E-03
DAV:  16    -0.131811667297E+03   -0.20583E-03   -0.87330E-05  7872   0.167E-02    0.151E-03
DAV:  17    -0.131811724174E+03   -0.56877E-04   -0.80415E-06  6408   0.729E-03    0.100E-03
DAV:  18    -0.131811632496E+03    0.91678E-04   -0.28851E-05  7320   0.984E-03    0.759E-04
DAV:  19    -0.131811688674E+03   -0.56178E-04   -0.22120E-05  6832   0.116E-02    0.458E-04
DAV:  20    -0.131811596109E+03    0.92565E-04   -0.21818E-05  6876   0.971E-03    0.237E-04
DAV:  21    -0.131811576664E+03    0.19445E-04   -0.94400E-06  6300   0.867E-03    0.148E-04
DAV:  22    -0.131811570176E+03    0.64879E-05   -0.87443E-06  6640   0.837E-03    0.575E-05
DAV:  23    -0.131811570317E+03   -0.14160E-06   -0.27692E-06  6072   0.606E-03
   1 F= -.13181157E+03 E0= -.13181157E+03  d E =-.800619E-11
