 vasp.5.3.5 31Mar14 (build Oct 29 2014 16:16:03) complex                        
  
 executed on          Linux-UFHPC date 2016.02.09  17:25:19
 running on    8 total cores
 distrk:  each k-point on    8 cores,    1 groups
 distr:  one band on NCORES_PER_BAND=   2 cores,    4 groups


--------------------------------------------------------------------------------------------------------


 INCAR:
 POTCAR:    PAW_PBE P 17Jan2003                   
 POTCAR:   PAW_PBE Si 05Jan2001                   

 ----------------------------------------------------------------------------- 
|                                                                             |
|  ADVICE TO THIS USER RUNNING 'VASP/VAMP'   (HEAR YOUR MASTER'S VOICE ...):  |
|                                                                             |
|      You have switched on vdW-DFT.                                          |
|      This routine was written and supplied by Jiri Klimes.                  |
|      We recommed that you carefully read and cite the following             |
|      publication                                                            |
|      J. Klimes, D.R. Bowler, A. Michelides                                  |
|        J. Phys.: Cond Matt. 22 022201 (2010)                                |
|      J. Klimes, D.R. Bowler, A. Michelides                                  |
|        Phys. Rev. B. 83, 195131 (2011)                                      |
|      and references therein.                                                |
|                                                                             |
 ----------------------------------------------------------------------------- 

 POTCAR:    PAW_PBE P 17Jan2003                   
   VRHFIN =P : s2p3                                                             
   LEXCH  = PE                                                                  
   EATOM  =   176.0430 eV,   12.9388 Ry                                         
                                                                                
   TITEL  = PAW_PBE P 17Jan2003                                                 
   LULTRA =        F    use ultrasoft PP ?                                      
   IUNSCR =        1    unscreen: 0-lin 1-nonlin 2-no                           
   RPACOR =    1.500    partial core radius                                     
   POMASS =   30.974; ZVAL   =    5.000    mass and valenz                      
   RCORE  =    1.900    outmost cutoff radius                                   
   RWIGS  =    2.330; RWIGS  =    1.233    wigner-seitz radius (au A)           
   ENMAX  =  270.000; ENMIN  =  191.280 eV                                      
   ICORE  =        2    local potential                                         
   LCOR   =        T    correct aug charges                                     
   LPAW   =        T    paw PP                                                  
   EAUG   =  342.924                                                            
   DEXC   =    -.002                                                            
   RMAX   =    2.887    core radius for proj-oper                               
   RAUG   =    1.300    factor for augmentation sphere                          
   RDEP   =    1.931    radius for radial grids                                 
   QCUT   =   -4.330; QGAM   =    8.659    optimization parameters              
                                                                                
   Description                                                                  
     l     E      TYP  RCUT    TYP  RCUT                                        
     0   .000     23  1.900                                                     
     0   .000     23  1.900                                                     
     1   .000     23  1.900                                                     
     1   .000     23  1.900                                                     
     2   .000     23  1.900                                                     
  local pseudopotential read in
  partial core-charges read in
  atomic valenz-charges read in
  non local Contribution for L=           0  read in
    real space projection operators read in
  non local Contribution for L=           0  read in
    real space projection operators read in
  non local Contribution for L=           1  read in
    real space projection operators read in
  non local Contribution for L=           1  read in
    real space projection operators read in
    PAW grid and wavefunctions read in
 
   number of l-projection  operators is LMAX  =           4
   number of lm-projection operators is LMMAX =           8
 
 POTCAR:   PAW_PBE Si 05Jan2001                   
   VRHFIN =Si: s2p2                                                             
   LEXCH  = PE                                                                  
   EATOM  =   103.0669 eV,    7.5752 Ry                                         
                                                                                
   TITEL  = PAW_PBE Si 05Jan2001                                                
   LULTRA =        F    use ultrasoft PP ?                                      
   IUNSCR =        1    unscreen: 0-lin 1-nonlin 2-no                           
   RPACOR =    1.500    partial core radius                                     
   POMASS =   28.085; ZVAL   =    4.000    mass and valenz                      
   RCORE  =    1.900    outmost cutoff radius                                   
   RWIGS  =    2.480; RWIGS  =    1.312    wigner-seitz radius (au A)           
   ENMAX  =  245.345; ENMIN  =  184.009 eV                                      
   ICORE  =        2    local potential                                         
   LCOR   =        T    correct aug charges                                     
   LPAW   =        T    paw PP                                                  
   EAUG   =  322.069                                                            
   DEXC   =    -.007                                                            
   RMAX   =    2.944    core radius for proj-oper                               
   RAUG   =    1.300    factor for augmentation sphere                          
   RDEP   =    1.993    radius for radial grids                                 
   QCUT   =   -4.246; QGAM   =    8.493    optimization parameters              
                                                                                
   Description                                                                  
     l     E      TYP  RCUT    TYP  RCUT                                        
     0   .000     23  1.900                                                     
     0   .000     23  1.900                                                     
     1   .000     23  1.900                                                     
     1   .000     23  1.900                                                     
     2   .000      7  1.900                                                     
  local pseudopotential read in
  partial core-charges read in
  atomic valenz-charges read in
  non local Contribution for L=           0  read in
    real space projection operators read in
  non local Contribution for L=           0  read in
    real space projection operators read in
  non local Contribution for L=           1  read in
    real space projection operators read in
  non local Contribution for L=           1  read in
    real space projection operators read in
    PAW grid and wavefunctions read in
 
   number of l-projection  operators is LMAX  =           4
   number of lm-projection operators is LMMAX =           8
 
 Optimization of the real space projectors (new method)

 maximal supplied QI-value         = 19.84
 optimisation between [QCUT,QGAM] = [  8.73, 17.66] = [ 21.34, 87.33] Ry 
 Optimized for a Real-space Cutoff    1.50 Angstroem

   l    n(q)    QCUT    max X(q) W(low)/X(q) W(high)/X(q)  e(spline) 
   0      8     8.731     6.651    0.16E-04    0.15E-04    0.77E-08
   0      8     8.731    90.285    0.16E-03    0.90E-04    0.16E-06
   1      7     8.731     4.328    0.47E-04    0.36E-04    0.45E-07
   1      7     8.731    54.583    0.13E-03    0.39E-03    0.20E-06
 Optimization of the real space projectors (new method)

 maximal supplied QI-value         = 19.84
 optimisation between [QCUT,QGAM] = [  8.73, 17.66] = [ 21.34, 87.33] Ry 
 Optimized for a Real-space Cutoff    1.46 Angstroem

   l    n(q)    QCUT    max X(q) W(low)/X(q) W(high)/X(q)  e(spline) 
   0      8     8.731     8.708    0.16E-04    0.11E-04    0.68E-08
   0      8     8.731   106.241    0.24E-03    0.77E-04    0.13E-06
   1      7     8.731     5.901    0.34E-04    0.38E-04    0.36E-07
   1      7     8.731    73.241    0.12E-03    0.39E-03    0.15E-06

 ----------------------------------------------------------------------------- 
|                                                                             |
|  ADVICE TO THIS USER RUNNING 'VASP/VAMP'   (HEAR YOUR MASTER'S VOICE ...):  |
|                                                                             |
|      You enforced a specific xc-type in the INCAR file,                     |
|      a different type was found on the POTCAR file                          |
|          I HOPE YOU KNOW, WHAT YOU ARE  DOING                               |
|                                                                             |
 ----------------------------------------------------------------------------- 

  PAW_PBE P 17Jan2003                   :
 energy of atom  1       EATOM= -176.0430
 kinetic energy error for atom=    0.0040 (will be added to EATOM!!)
 PAW_PBE Si 05Jan2001                   :
 energy of atom  2       EATOM= -103.0669
 kinetic energy error for atom=    0.0021 (will be added to EATOM!!)
 
 
 POSCAR: Si12                                    
  positions in direct lattice
  No initial velocities read in
 exchange correlation table for  LEXCH =       42
   RHO(1)=    0.500       N(1)  =     2000
   RHO(2)=  100.500       N(2)  =     4000
 


--------------------------------------------------------------------------------------------------------


 ion  position               nearest neighbor table
   1  0.114  0.228  0.233-  15 2.28  21 2.29  21 2.29
   2  0.114  0.228  0.515-  16 2.28  22 2.29  22 2.29
   3  0.458  0.916  0.209-  21 2.28  13 2.30  13 2.30
   4  0.458  0.916  0.491-  22 2.28  14 2.30  14 2.30
   5  0.311  0.622  0.084-  17 2.28  23 2.30  23 2.30
   6  0.311  0.622  0.366-  18 2.28  24 2.30  24 2.30
   7  0.999  0.998  0.086-  19 2.29  19 2.29  13 2.32
   8  0.999  0.998  0.368-  20 2.29  20 2.29  14 2.32
   9  0.655  0.310  0.060-  19 2.28  17 2.29  17 2.29
  10  0.655  0.310  0.342-  20 2.28  18 2.29  18 2.29
  11  0.770  0.539  0.207-  15 2.29  15 2.29  23 2.32
  12  0.770  0.539  0.489-  16 2.29  16 2.29  24 2.32
  13  0.940  0.879  0.158-   3 2.30   3 2.30   7 2.32  23 2.35
  14  0.940  0.879  0.440-   4 2.30   4 2.30   8 2.32  24 2.35
  15  0.205  0.410  0.186-   1 2.28  11 2.29  11 2.29  17 2.37
  16  0.205  0.410  0.468-   2 2.28  12 2.29  12 2.29  18 2.37
  17  0.202  0.404  0.100-   5 2.28   9 2.29   9 2.29  15 2.37
  18  0.202  0.404  0.382-   6 2.28  10 2.29  10 2.29  16 2.37
  19  0.564  0.128  0.108-   9 2.28   7 2.29   7 2.29  21 2.37
  20  0.564  0.128  0.390-  10 2.28   8 2.29   8 2.29  22 2.37
  21  0.567  0.134  0.194-   3 2.28   1 2.29   1 2.29  19 2.37
  22  0.567  0.134  0.476-   4 2.28   2 2.29   2 2.29  20 2.37
  23  0.829  0.658  0.136-   5 2.30   5 2.30  11 2.32  13 2.35
  24  0.829  0.658  0.418-   6 2.30   6 2.30  12 2.32  14 2.35
 
  LATTYP: Found a base centered orthorhombic cell.
 ALAT       =     3.5404000000
 B/A-ratio  =     5.8153587165
 C/A-ratio  =     7.7678875268
  
  Lattice vectors:
  
 A1 = (   1.7702000000,  10.2943480000,   0.0000000000)
 A2 = (   1.7702000000, -10.2943480000,   0.0000000000)
 A3 = (   0.0000000000,   0.0000000000, -27.5014290000)


Analysis of symmetry for initial positions (statically):
=====================================================================
 Subroutine PRICEL returns:
 Original cell was already a primitive cell.
 

 Routine SETGRP: Setting up the symmetry group for a 
 base centered orthorhombic supercell.


 Subroutine GETGRP returns: Found  2 space group operations
 (whereof  2 operations were pure point group operations)
 out of a pool of  8 trial point group operations.


The static configuration has the point symmetry C_1h.


Analysis of symmetry for dynamics (positions and initial velocities):
=====================================================================
 Subroutine PRICEL returns:
 Original cell was already a primitive cell.
 

 Routine SETGRP: Setting up the symmetry group for a 
 base centered orthorhombic supercell.


 Subroutine GETGRP returns: Found  2 space group operations
 (whereof  2 operations were pure point group operations)
 out of a pool of  8 trial point group operations.


The dynamic configuration has the point symmetry C_1h.
 
 
 KPOINTS: pymatgen generated KPOINTS with grid den

Automatic generation of k-mesh.
Space group operators:
 irot       det(A)        alpha          n_x          n_y          n_z        tau_x        tau_y        tau_z
    1     1.000000     0.000000     1.000000     0.000000     0.000000     0.000000     0.000000     0.000000
    2    -1.000000   180.000000     1.000000     0.000000     0.000000     0.000000     0.000000     0.000000
 
 Subroutine IBZKPT returns following result:
 ===========================================
 
 Found     54 irreducible k-points:
 
 Following reciprocal coordinates:
            Coordinates               Weight
  0.000000  0.000000  0.000000      1.000000
  0.076923 -0.000000  0.000000      2.000000
  0.153846 -0.000000  0.000000      2.000000
  0.230769 -0.000000  0.000000      2.000000
  0.307692 -0.000000  0.000000      2.000000
  0.384615 -0.000000  0.000000      2.000000
  0.461538 -0.000000  0.000000      2.000000
  0.000000  0.250000  0.000000      2.000000
  0.076923  0.250000  0.000000      2.000000
  0.153846  0.250000  0.000000      2.000000
  0.230769  0.250000  0.000000      2.000000
  0.307692  0.250000  0.000000      2.000000
  0.384615  0.250000  0.000000      2.000000
  0.461538  0.250000  0.000000      2.000000
 -0.461538  0.250000  0.000000      2.000000
 -0.384615  0.250000  0.000000      2.000000
 -0.307692  0.250000  0.000000      2.000000
 -0.230769  0.250000  0.000000      2.000000
 -0.153846  0.250000  0.000000      2.000000
 -0.076923  0.250000  0.000000      2.000000
  0.000000  0.500000  0.000000      1.000000
  0.076923  0.500000  0.000000      2.000000
  0.153846  0.500000  0.000000      2.000000
  0.230769  0.500000  0.000000      2.000000
  0.307692  0.500000  0.000000      2.000000
  0.384615  0.500000  0.000000      2.000000
  0.461538  0.500000  0.000000      2.000000
  0.000000  0.000000  0.500000      1.000000
  0.076923 -0.000000  0.500000      2.000000
  0.153846 -0.000000  0.500000      2.000000
  0.230769 -0.000000  0.500000      2.000000
  0.307692 -0.000000  0.500000      2.000000
  0.384615 -0.000000  0.500000      2.000000
  0.461538 -0.000000  0.500000      2.000000
  0.000000  0.250000  0.500000      2.000000
  0.076923  0.250000  0.500000      2.000000
  0.153846  0.250000  0.500000      2.000000
  0.230769  0.250000  0.500000      2.000000
  0.307692  0.250000  0.500000      2.000000
  0.384615  0.250000  0.500000      2.000000
  0.461538  0.250000  0.500000      2.000000
 -0.461538  0.250000  0.500000      2.000000
 -0.384615  0.250000  0.500000      2.000000
 -0.307692  0.250000  0.500000      2.000000
 -0.230769  0.250000  0.500000      2.000000
 -0.153846  0.250000  0.500000      2.000000
 -0.076923  0.250000  0.500000      2.000000
  0.000000  0.500000  0.500000      1.000000
  0.076923  0.500000  0.500000      2.000000
  0.153846  0.500000  0.500000      2.000000
  0.230769  0.500000  0.500000      2.000000
  0.307692  0.500000  0.500000      2.000000
  0.384615  0.500000  0.500000      2.000000
  0.461538  0.500000  0.500000      2.000000
 
 Following cartesian coordinates:
            Coordinates               Weight
  0.000000  0.000000  0.000000      1.000000
  0.021727  0.003736  0.000000      2.000000
  0.043454  0.007472  0.000000      2.000000
  0.065182  0.011209  0.000000      2.000000
  0.086909  0.014945  0.000000      2.000000
  0.108636  0.018681  0.000000      2.000000
  0.130363  0.022417  0.000000      2.000000
  0.000000  0.024285  0.000000      2.000000
  0.021727  0.028021  0.000000      2.000000
  0.043454  0.031758  0.000000      2.000000
  0.065182  0.035494  0.000000      2.000000
  0.086909  0.039230  0.000000      2.000000
  0.108636  0.042966  0.000000      2.000000
  0.130363  0.046702  0.000000      2.000000
 -0.130363  0.001868  0.000000      2.000000
 -0.108636  0.005604  0.000000      2.000000
 -0.086909  0.009340  0.000000      2.000000
 -0.065182  0.013077  0.000000      2.000000
 -0.043454  0.016813  0.000000      2.000000
 -0.021727  0.020549  0.000000      2.000000
  0.000000  0.048570  0.000000      1.000000
  0.021727  0.052307  0.000000      2.000000
  0.043454  0.056043  0.000000      2.000000
  0.065182  0.059779  0.000000      2.000000
  0.086909  0.063515  0.000000      2.000000
  0.108636  0.067251  0.000000      2.000000
  0.130363  0.070987  0.000000      2.000000
  0.000000  0.000000  0.018181      1.000000
  0.021727  0.003736  0.018181      2.000000
  0.043454  0.007472  0.018181      2.000000
  0.065182  0.011209  0.018181      2.000000
  0.086909  0.014945  0.018181      2.000000
  0.108636  0.018681  0.018181      2.000000
  0.130363  0.022417  0.018181      2.000000
  0.000000  0.024285  0.018181      2.000000
  0.021727  0.028021  0.018181      2.000000
  0.043454  0.031758  0.018181      2.000000
  0.065182  0.035494  0.018181      2.000000
  0.086909  0.039230  0.018181      2.000000
  0.108636  0.042966  0.018181      2.000000
  0.130363  0.046702  0.018181      2.000000
 -0.130363  0.001868  0.018181      2.000000
 -0.108636  0.005604  0.018181      2.000000
 -0.086909  0.009340  0.018181      2.000000
 -0.065182  0.013077  0.018181      2.000000
 -0.043454  0.016813  0.018181      2.000000
 -0.021727  0.020549  0.018181      2.000000
  0.000000  0.048570  0.018181      1.000000
  0.021727  0.052307  0.018181      2.000000
  0.043454  0.056043  0.018181      2.000000
  0.065182  0.059779  0.018181      2.000000
  0.086909  0.063515  0.018181      2.000000
  0.108636  0.067251  0.018181      2.000000
  0.130363  0.070987  0.018181      2.000000
 


--------------------------------------------------------------------------------------------------------




 Dimension of arrays:
   k-points           NKPTS =     54   k-points in BZ     NKDIM =     54   number of bands    NBANDS=     68
   number of dos      NEDOS =    301   number of ions     NIONS =     24
   non local maximal  LDIM  =      4   non local SUM 2l+1 LMDIM =      8
   total plane-waves  NPLWV = 192000
   max r-space proj   IRMAX =   2772   max aug-charges    IRDMAX=   6603
   dimension x,y,z NGX =    20 NGY =   60 NGZ =  160
   dimension x,y,z NGXF=    40 NGYF=  120 NGZF=  320
   support grid    NGXF=    40 NGYF=  120 NGZF=  320
   ions per type =              12  12
 NGX,Y,Z   is equivalent  to a cutoff of   9.39,  9.55,  9.67 a.u.
 NGXF,Y,Z  is equivalent  to a cutoff of  18.78, 19.10, 19.34 a.u.


 I would recommend the setting:
   dimension x,y,z NGX =    20 NGY =   59 NGZ =  155
 SYSTEM =  unknown system                          
 POSCAR =  Si12                                    

 Startparameter for this run:
   NWRITE =      2    write-flag & timer
   PREC   = accura    normal or accurate (medium, high low for compatibility)
   ISTART =      0    job   : 0-new  1-cont  2-samecut
   ICHARG =      2    charge: 1-file 2-atom 10-const
   ISPIN  =      1    spin polarized calculation?
   LNONCOLLINEAR =      F non collinear calculations
   LSORBIT =      F    spin-orbit coupling
   INIWAV =      1    electr: 0-lowe 1-rand  2-diag
   LASPH  =      F    aspherical Exc in radial PAW
   METAGGA=      F    non-selfconsistent MetaGGA calc.

 Electronic Relaxation 1
   ENCUT  =  300.0 eV  22.05 Ry    4.70 a.u.   5.00 14.75 38.84*2*pi/ulx,y,z
   ENINI  =  300.0     initial cutoff
   ENAUG  =  342.9 eV  augmentation charge cutoff
   NELM   =     60;   NELMIN=  2; NELMDL= -5     # of ELM steps 
   EDIFF  = 0.1E-05   stopping-criterion for ELM
   LREAL  =      T    real-space projection
   NLSPLINE    = F    spline interpolate recip. space projectors
   LCOMPAT=      F    compatible to vasp.4.4
   GGA_COMPAT  = T    GGA compatible to vasp.4.4-vasp.4.6
   LMAXPAW     = -100 max onsite density
   LMAXMIX     =    2 max onsite mixed and CHGCAR
   VOSKOWN=      0    Vosko Wilk Nusair interpolation
   ROPT   =   -0.00025  -0.00025
 Ionic relaxation
   EDIFFG = 0.1E-04   stopping-criterion for IOM
   NSW    =      0    number of steps for IOM
   NBLOCK =      1;   KBLOCK =      1    inner block; outer block 
   IBRION =     -1    ionic relax: 0-MD 1-quasi-New 2-CG
   NFREE  =      1    steps in history (QN), initial steepest desc. (CG)
   ISIF   =      3    stress and relaxation
   IWAVPR =     10    prediction:  0-non 1-charg 2-wave 3-comb
   ISYM   =      2    0-nonsym 1-usesym 2-fastsym
   LCORR  =      T    Harris-Foulkes like correction to forces

   POTIM  = 0.5000    time-step for ionic-motion
   TEIN   =    0.0    initial temperature
   TEBEG  =    0.0;   TEEND  =   0.0 temperature during run
   SMASS  =  -3.00    Nose mass-parameter (am)
   estimated Nose-frequenzy (Omega)   =  0.10E-29 period in steps =****** mass=  -0.286E-27a.u.
   SCALEE = 1.0000    scale energy and forces
   NPACO  =    256;   APACO  = 16.0  distance and # of slots for P.C.
   PSTRESS=    0.0 pullay stress

  Mass of Ions in am
   POMASS =  30.97 28.09
  Ionic Valenz
   ZVAL   =   5.00  4.00
  Atomic Wigner-Seitz radii
   RWIGS  =  -1.00 -1.00
  virtual crystal weights 
   VCA    =   1.00  1.00
   NELECT =     108.0000    total number of electrons
   NUPDOWN=      -1.0000    fix difference up-down

 DOS related values:
   EMIN   =  10.00;   EMAX   =-10.00  energy-range for DOS
   EFERMI =   0.00
   ISMEAR =     0;   SIGMA  =   0.10  broadening in eV -4-tet -1-fermi 0-gaus

 Electronic relaxation 2 (details)
   IALGO  =     38    algorithm
   LDIAG  =      T    sub-space diagonalisation (order eigenvalues)
   LSUBROT=      F    optimize rotation matrix (better conditioning)
   TURBO    =      0    0=normal 1=particle mesh
   IRESTART =      0    0=no restart 2=restart with 2 vectors
   NREBOOT  =      0    no. of reboots
   NMIN     =      0    reboot dimension
   EREF     =   0.00    reference energy to select bands
   IMIX   =      4    mixing-type and parameters
     AMIX     =   0.40;   BMIX     =  1.00
     AMIX_MAG =   1.60;   BMIX_MAG =  1.00
     AMIN     =   0.10
     WC   =   100.;   INIMIX=   1;  MIXPRE=   1;  MAXMIX= -45

 Intra band minimization:
   WEIMIN = 0.0000     energy-eigenvalue tresh-hold
   EBREAK =  0.37E-08  absolut break condition
   DEPER  =   0.30     relativ break condition  

   TIME   =   0.40     timestep for ELM

  volume/ion in A,a.u.               =      41.76       281.83
  Fermi-wavevector in a.u.,A,eV,Ry     =   0.779018  1.472130  8.256946  0.606868
  Thomas-Fermi vector in A             =   1.882034
 
 Write flags
   LWAVE  =      F    write WAVECAR
   LCHARG =      F    write CHGCAR
   LVTOT  =      F    write LOCPOT, total local potential
   LVHAR  =      F    write LOCPOT, Hartree potential only
   LELF   =      F    write electronic localiz. function (ELF)
   LORBIT =      0    0 simple, 1 ext, 2 COOP (PROOUT)


 Dipole corrections
   LMONO  =      F    monopole corrections only (constant potential shift)
   LDIPOL =      F    correct potential (dipole corrections)
   IDIPOL =      0    1-x, 2-y, 3-z, 4-all directions 
   EPSILON=  1.0000000 bulk dielectric constant

 Exchange correlation treatment:
   GGA     =    BO    GGA type
   LEXCH   =    42    internal setting for exchange type
   VOSKOWN=      0    Vosko Wilk Nusair interpolation
   LHFCALC =     F    Hartree Fock is set to
   LHFONE  =     F    Hartree Fock one center treatment
   AEXX    =    0.0000 exact exchange contribution

 vdW DFT:
   LUSE_VDW   =     T    switch on vdW DFT
   Zab_VDW    =-.8491    correlation parameter
   PARAM1     =0.1833
   PARAM2     =0.2200
   PARAM3     =0.0000

 Linear response parameters
   LEPSILON=     F    determine dielectric tensor
   LRPA    =     F    only Hartree local field effects (RPA)
   LNABLA  =     F    use nabla operator in PAW spheres
   LVEL    =     F    velocity operator in full k-point grid
   LINTERFAST=   F  fast interpolation
   KINTER  =     0    interpolate to denser k-point grid
   CSHIFT  =0.1000    complex shift for real part using Kramers Kronig
   OMEGAMAX=  -1.0    maximum frequency
   DEG_THRESHOLD= 0.2000000E-02 threshold for treating states as degnerate
   RTIME   =    0.100 relaxation time in fs

 Orbital magnetization related:
   ORBITALMAG=     F  switch on orbital magnetization
   LCHIMAG   =     F  perturbation theory with respect to B field
   DQ        =  0.001000  dq finite difference perturbation B field



--------------------------------------------------------------------------------------------------------


 Static calculation
 charge density and potential will be updated during run
 non-spin polarized calculation
 Variant of blocked Davidson
 Davidson routine will perform the subspace rotation
 perform sub-space diagonalisation
    after iterative eigenvector-optimisation
 modified Broyden-mixing scheme, WC =      100.0
 initial mixing is a Kerker type mixing with AMIX =  0.4000 and BMIX =      1.0000
 Hartree-type preconditioning will be used
 using additional bands           14
 real space projection scheme for non local part
 use partial core corrections
 calculate Harris-corrections to forces 
   (improved forces if not selfconsistent)
 use gradient corrections 
 use of overlap-Matrix (Vanderbilt PP)
 Gauss-broadening in eV      SIGMA  =   0.10


--------------------------------------------------------------------------------------------------------


  energy-cutoff  :      300.00
  volume of cell :     1002.32
      direct lattice vectors                 reciprocal lattice vectors
     3.540400000  0.000000000  0.000000000     0.282453960  0.048570342  0.000000000
    -1.770200000 10.294348000  0.000000000     0.000000000  0.097140683  0.000000000
     0.000000000  0.000000000 27.501429000     0.000000000  0.000000000  0.036361747

  length of vectors
     3.540400000 10.445439617 27.501429000     0.286599577  0.097140683  0.036361747


 
 k-points in units of 2pi/SCALE and weight: pymatgen generated KPOINTS with grid den
   0.00000000  0.00000000  0.00000000       0.010
   0.02172723  0.00373618  0.00000000       0.019
   0.04345446  0.00747236  0.00000000       0.019
   0.06518168  0.01120854  0.00000000       0.019
   0.08690891  0.01494472  0.00000000       0.019
   0.10863614  0.01868090  0.00000000       0.019
   0.13036337  0.02241708  0.00000000       0.019
   0.00000000  0.02428517  0.00000000       0.019
   0.02172723  0.02802135  0.00000000       0.019
   0.04345446  0.03175753  0.00000000       0.019
   0.06518168  0.03549371  0.00000000       0.019
   0.08690891  0.03922989  0.00000000       0.019
   0.10863614  0.04296607  0.00000000       0.019
   0.13036337  0.04670225  0.00000000       0.019
  -0.13036337  0.00186809  0.00000000       0.019
  -0.10863614  0.00560427  0.00000000       0.019
  -0.08690891  0.00934045  0.00000000       0.019
  -0.06518168  0.01307663  0.00000000       0.019
  -0.04345446  0.01681281  0.00000000       0.019
  -0.02172723  0.02054899  0.00000000       0.019
   0.00000000  0.04857034  0.00000000       0.010
   0.02172723  0.05230652  0.00000000       0.019
   0.04345446  0.05604270  0.00000000       0.019
   0.06518168  0.05977888  0.00000000       0.019
   0.08690891  0.06351506  0.00000000       0.019
   0.10863614  0.06725124  0.00000000       0.019
   0.13036337  0.07098742  0.00000000       0.019
   0.00000000  0.00000000  0.01818087       0.010
   0.02172723  0.00373618  0.01818087       0.019
   0.04345446  0.00747236  0.01818087       0.019
   0.06518168  0.01120854  0.01818087       0.019
   0.08690891  0.01494472  0.01818087       0.019
   0.10863614  0.01868090  0.01818087       0.019
   0.13036337  0.02241708  0.01818087       0.019
   0.00000000  0.02428517  0.01818087       0.019
   0.02172723  0.02802135  0.01818087       0.019
   0.04345446  0.03175753  0.01818087       0.019
   0.06518168  0.03549371  0.01818087       0.019
   0.08690891  0.03922989  0.01818087       0.019
   0.10863614  0.04296607  0.01818087       0.019
   0.13036337  0.04670225  0.01818087       0.019
  -0.13036337  0.00186809  0.01818087       0.019
  -0.10863614  0.00560427  0.01818087       0.019
  -0.08690891  0.00934045  0.01818087       0.019
  -0.06518168  0.01307663  0.01818087       0.019
  -0.04345446  0.01681281  0.01818087       0.019
  -0.02172723  0.02054899  0.01818087       0.019
   0.00000000  0.04857034  0.01818087       0.010
   0.02172723  0.05230652  0.01818087       0.019
   0.04345446  0.05604270  0.01818087       0.019
   0.06518168  0.05977888  0.01818087       0.019
   0.08690891  0.06351506  0.01818087       0.019
   0.10863614  0.06725124  0.01818087       0.019
   0.13036337  0.07098742  0.01818087       0.019
 
 k-points in reciprocal lattice and weights: pymatgen generated KPOINTS with grid den
   0.00000000  0.00000000  0.00000000       0.010
   0.07692308 -0.00000000  0.00000000       0.019
   0.15384615 -0.00000000  0.00000000       0.019
   0.23076923 -0.00000000  0.00000000       0.019
   0.30769231 -0.00000000  0.00000000       0.019
   0.38461538 -0.00000000  0.00000000       0.019
   0.46153846 -0.00000000  0.00000000       0.019
   0.00000000  0.25000000  0.00000000       0.019
   0.07692308  0.25000000  0.00000000       0.019
   0.15384615  0.25000000  0.00000000       0.019
   0.23076923  0.25000000  0.00000000       0.019
   0.30769231  0.25000000  0.00000000       0.019
   0.38461538  0.25000000  0.00000000       0.019
   0.46153846  0.25000000  0.00000000       0.019
  -0.46153846  0.25000000  0.00000000       0.019
  -0.38461538  0.25000000  0.00000000       0.019
  -0.30769231  0.25000000  0.00000000       0.019
  -0.23076923  0.25000000  0.00000000       0.019
  -0.15384615  0.25000000  0.00000000       0.019
  -0.07692308  0.25000000  0.00000000       0.019
   0.00000000  0.50000000  0.00000000       0.010
   0.07692308  0.50000000  0.00000000       0.019
   0.15384615  0.50000000  0.00000000       0.019
   0.23076923  0.50000000  0.00000000       0.019
   0.30769231  0.50000000  0.00000000       0.019
   0.38461538  0.50000000  0.00000000       0.019
   0.46153846  0.50000000  0.00000000       0.019
   0.00000000  0.00000000  0.50000000       0.010
   0.07692308 -0.00000000  0.50000000       0.019
   0.15384615 -0.00000000  0.50000000       0.019
   0.23076923 -0.00000000  0.50000000       0.019
   0.30769231 -0.00000000  0.50000000       0.019
   0.38461538 -0.00000000  0.50000000       0.019
   0.46153846 -0.00000000  0.50000000       0.019
   0.00000000  0.25000000  0.50000000       0.019
   0.07692308  0.25000000  0.50000000       0.019
   0.15384615  0.25000000  0.50000000       0.019
   0.23076923  0.25000000  0.50000000       0.019
   0.30769231  0.25000000  0.50000000       0.019
   0.38461538  0.25000000  0.50000000       0.019
   0.46153846  0.25000000  0.50000000       0.019
  -0.46153846  0.25000000  0.50000000       0.019
  -0.38461538  0.25000000  0.50000000       0.019
  -0.30769231  0.25000000  0.50000000       0.019
  -0.23076923  0.25000000  0.50000000       0.019
  -0.15384615  0.25000000  0.50000000       0.019
  -0.07692308  0.25000000  0.50000000       0.019
   0.00000000  0.50000000  0.50000000       0.010
   0.07692308  0.50000000  0.50000000       0.019
   0.15384615  0.50000000  0.50000000       0.019
   0.23076923  0.50000000  0.50000000       0.019
   0.30769231  0.50000000  0.50000000       0.019
   0.38461538  0.50000000  0.50000000       0.019
   0.46153846  0.50000000  0.50000000       0.019
 
 position of ions in fractional coordinates (direct lattice) 
   0.11402300  0.22804500  0.23316207
   0.11402300  0.22804500  0.51499159
   0.45808900  0.91617900  0.20939482
   0.45808900  0.91617900  0.49122434
   0.31085400  0.62170900  0.08414979
   0.31085400  0.62170900  0.36597930
   0.99923000  0.99846000  0.08631254
   0.99923000  0.99846000  0.36814206
   0.65492700  0.30985400  0.06041748
   0.65492700  0.30985400  0.34224700
   0.76973800  0.53947500  0.20725292
   0.76973800  0.53947500  0.48908244
   0.93971600  0.87943300  0.15783749
   0.93971600  0.87943300  0.43966701
   0.20515200  0.41030300  0.18578822
   0.20515200  0.41030300  0.46761774
   0.20184900  0.40369900  0.09969156
   0.20184900  0.40369900  0.38152107
   0.56380500  0.12761000  0.10779021
   0.56380500  0.12761000  0.38961973
   0.56710600  0.13421200  0.19387616
   0.56710600  0.13421200  0.47570568
   0.82923400  0.65846800  0.13571444
   0.82923400  0.65846800  0.41754396
 
 position of ions in cartesian coordinates  (Angst):
   0.00000177  2.34757459  6.41229012
   0.00000177  2.34757459 14.16300462
  -0.00000177  9.43146546  5.75865686
  -0.00000177  9.43146546 13.50937136
  -0.00000177  6.40008880  2.31423934
  -0.00000177  6.40008880 10.06495384
   1.77020000 10.27849470  2.37371832
   1.77020000 10.27849470 10.12443282
   1.77020000  3.18974491  1.66156717
   1.77020000  3.18974491  9.41228167
   1.77020177  5.55354339  5.69975143
   1.77020177  5.55354339 13.45046593
   1.77019823  9.05318934  4.34075665
   1.77019823  9.05318934 12.09147115
   0.00000177  4.22380187  5.10944151
   0.00000177  4.22380187 12.86015601
  -0.00000177  4.15581799  2.74166024
  -0.00000177  4.15581799 10.49237474
   1.77020000  1.31366175  2.96438477
   1.77020000  1.31366175 10.71509927
   1.77020000  1.38162503  5.33187152
   1.77020000  1.38162503 13.08258602
   1.77020000  6.77849874  3.73234107
   1.77020000  6.77849874 11.48305557
 


--------------------------------------------------------------------------------------------------------


 k-point  1 :   0.0000 0.0000 0.0000  plane waves:   11717
 k-point  2 :   0.0769-0.0000 0.0000  plane waves:   11762
 k-point  3 :   0.1538-0.0000 0.0000  plane waves:   11805
 k-point  4 :   0.2308-0.0000 0.0000  plane waves:   11824
 k-point  5 :   0.3077-0.0000 0.0000  plane waves:   11875
 k-point  6 :   0.3846-0.0000 0.0000  plane waves:   11864
 k-point  7 :   0.4615-0.0000 0.0000  plane waves:   11883
 k-point  8 :   0.0000 0.2500 0.0000  plane waves:   11683
 k-point  9 :   0.0769 0.2500 0.0000  plane waves:   11756
 k-point 10 :   0.1538 0.2500 0.0000  plane waves:   11807
 k-point 11 :   0.2308 0.2500 0.0000  plane waves:   11853
 k-point 12 :   0.3077 0.2500 0.0000  plane waves:   11866
 k-point 13 :   0.3846 0.2500 0.0000  plane waves:   11889
 k-point 14 :   0.4615 0.2500 0.0000  plane waves:   11885
 k-point 15 :  -0.4615 0.2500 0.0000  plane waves:   11886
 k-point 16 :  -0.3846 0.2500 0.0000  plane waves:   11867
 k-point 17 :  -0.3077 0.2500 0.0000  plane waves:   11849
 k-point 18 :  -0.2308 0.2500 0.0000  plane waves:   11827
 k-point 19 :  -0.1538 0.2500 0.0000  plane waves:   11801
 k-point 20 :  -0.0769 0.2500 0.0000  plane waves:   11757
 k-point 21 :   0.0000 0.5000 0.0000  plane waves:   11710
 k-point 22 :   0.0769 0.5000 0.0000  plane waves:   11762
 k-point 23 :   0.1538 0.5000 0.0000  plane waves:   11782
 k-point 24 :   0.2308 0.5000 0.0000  plane waves:   11841
 k-point 25 :   0.3077 0.5000 0.0000  plane waves:   11876
 k-point 26 :   0.3846 0.5000 0.0000  plane waves:   11889
 k-point 27 :   0.4615 0.5000 0.0000  plane waves:   11881
 k-point 28 :   0.0000 0.0000 0.5000  plane waves:   11698
 k-point 29 :   0.0769-0.0000 0.5000  plane waves:   11752
 k-point 30 :   0.1538-0.0000 0.5000  plane waves:   11800
 k-point 31 :   0.2308-0.0000 0.5000  plane waves:   11834
 k-point 32 :   0.3077-0.0000 0.5000  plane waves:   11850
 k-point 33 :   0.3846-0.0000 0.5000  plane waves:   11888
 k-point 34 :   0.4615-0.0000 0.5000  plane waves:   11896
 k-point 35 :   0.0000 0.2500 0.5000  plane waves:   11714
 k-point 36 :   0.0769 0.2500 0.5000  plane waves:   11754
 k-point 37 :   0.1538 0.2500 0.5000  plane waves:   11802
 k-point 38 :   0.2308 0.2500 0.5000  plane waves:   11840
 k-point 39 :   0.3077 0.2500 0.5000  plane waves:   11858
 k-point 40 :   0.3846 0.2500 0.5000  plane waves:   11896
 k-point 41 :   0.4615 0.2500 0.5000  plane waves:   11886
 k-point 42 :  -0.4615 0.2500 0.5000  plane waves:   11852
 k-point 43 :  -0.3846 0.2500 0.5000  plane waves:   11838
 k-point 44 :  -0.3077 0.2500 0.5000  plane waves:   11842
 k-point 45 :  -0.2308 0.2500 0.5000  plane waves:   11840
 k-point 46 :  -0.1538 0.2500 0.5000  plane waves:   11804
 k-point 47 :  -0.0769 0.2500 0.5000  plane waves:   11748
 k-point 48 :   0.0000 0.5000 0.5000  plane waves:   11724
 k-point 49 :   0.0769 0.5000 0.5000  plane waves:   11748
 k-point 50 :   0.1538 0.5000 0.5000  plane waves:   11814
 k-point 51 :   0.2308 0.5000 0.5000  plane waves:   11832
 k-point 52 :   0.3077 0.5000 0.5000  plane waves:   11868
 k-point 53 :   0.3846 0.5000 0.5000  plane waves:   11892
 k-point 54 :   0.4615 0.5000 0.5000  plane waves:   11878

 maximum and minimum number of plane-waves per node :      5964     5832

 maximum number of plane-waves:     11896
 maximum index in each direction: 
   IXMAX=    5   IYMAX=   14   IZMAX=   38
   IXMIN=   -5   IYMIN=  -15   IZMIN=  -39

 WARNING: aliasing errors must be expected set NGX to  22 to avoid them
 NGY is ok and might be reduce to  60
 NGZ is ok and might be reduce to 156
 aliasing errors are usually negligible using standard VASP settings
 and one can safely disregard these warnings

 real space projection operators:
  total allocation   :       3793.25 KBytes
  max/ min on nodes  :       1899.38       1893.88


 parallel 3D FFT for wavefunctions:
    minimum data exchange during FFTs selected (reduces bandwidth)
 parallel 3D FFT for charge:
    minimum data exchange during FFTs selected (reduces bandwidth)


 total amount of memory used by VASP on root node   146493. kBytes
========================================================================

   base      :      30000. kBytes
   nonlr-proj:       3452. kBytes
   fftplans  :       9347. kBytes
   grid      :      14649. kBytes
   one-center:         36. kBytes
   wavefun   :      89009. kBytes
 
     INWAV:  cpu time    0.00: real time    0.00
 Broyden mixing: mesh for mixing (old mesh)
   NGX =  9   NGY = 29   NGZ = 77
  (NGX  = 40   NGY  =120   NGZ  =320)
  gives a total of  20097 points

 initial charge density was supplied:
 charge density of overlapping atoms calculated
 number of electron     108.0000000 magnetization 
 keeping initial charge density in first step


--------------------------------------------------------------------------------------------------------


 Maximum index for non-local projection operator         1333
 Maximum index for augmentation-charges          822 (set IRDMAX)


--------------------------------------------------------------------------------------------------------


 First call to EWALD:  gamma=   0.177
 Maximum number of real-space cells 7x 3x 1
 Maximum number of reciprocal cells 1x 3x 7

 FEWALD executed in parallel
    FEWALD:  cpu time    0.01: real time    0.01


----------------------------------------- Iteration    1(   1)  ---------------------------------------


vdW kernel read from vdw_kernel.bindat
  0.0000  0.2424  0.5071  0.7962  1.1119  1.4567  1.8333  2.2446  2.6937  3.1842
  3.7199  4.3049  4.9438  5.6415  6.4036  7.2358  8.1446  9.1372 10.2212 11.4050
 12.6979 14.1099 15.6519 17.3360 19.1751 21.1837 23.3773 25.7729 28.3892 31.2465
 34.3669 37.7748 41.4965 45.5611 50.0000
 
    POTLOK:  cpu time   16.54: real time   16.65
    SETDIJ:  cpu time    0.02: real time    0.02
     EDDAV:  cpu time   81.03: real time   81.16
       DOS:  cpu time    0.01: real time    0.01
    --------------------------------------------
      LOOP:  cpu time   97.60: real time   97.85

 eigenvalue-minimisations  :  7360
 total energy-change (2. order) : 0.4828006E+03  (-0.2862249E+04)
 number of electron     108.0000000 magnetization 
 augmentation part      108.0000000 magnetization 

 Free energy of the ion-electron system (eV)
  ---------------------------------------------------
  alpha Z        PSCENC =        36.80884744
  Ewald energy   TEWEN  =     11887.29854092
  -Hartree energ DENC   =    -14945.55186438
  -exchange      EXHF   =         0.00000000
  -V(xc)+E(xc)   XCENC  =       -88.24515328
  PAW double counting   =      1056.43050070     -732.41190547
  entropy T*S    EENTRO =        -0.03943085
  eigenvalues    EBANDS =       -85.53015700
  atomic energy  EATOM  =      3354.04126044
  ---------------------------------------------------
  free energy    TOTEN  =       482.80063853 eV

  energy without entropy =      482.84006938  energy(sigma->0) =      482.82035395


--------------------------------------------------------------------------------------------------------




----------------------------------------- Iteration    1(   2)  ---------------------------------------


     EDDAV:  cpu time  100.99: real time  101.08
       DOS:  cpu time    0.01: real time    0.01
    --------------------------------------------
      LOOP:  cpu time  101.00: real time  101.09

 eigenvalue-minimisations  :  9812
 total energy-change (2. order) :-0.5592874E+03  (-0.5449589E+03)
 number of electron     108.0000000 magnetization 
 augmentation part      108.0000000 magnetization 

 Free energy of the ion-electron system (eV)
  ---------------------------------------------------
  alpha Z        PSCENC =        36.80884744
  Ewald energy   TEWEN  =     11887.29854092
  -Hartree energ DENC   =    -14945.55186438
  -exchange      EXHF   =         0.00000000
  -V(xc)+E(xc)   XCENC  =       -88.24515328
  PAW double counting   =      1056.43050070     -732.41190547
  entropy T*S    EENTRO =        -0.00000000
  eigenvalues    EBANDS =      -644.85694849
  atomic energy  EATOM  =      3354.04126044
  ---------------------------------------------------
  free energy    TOTEN  =       -76.48672211 eV

  energy without entropy =      -76.48672211  energy(sigma->0) =      -76.48672211


--------------------------------------------------------------------------------------------------------




----------------------------------------- Iteration    1(   3)  ---------------------------------------


     EDDAV:  cpu time   76.37: real time   76.43
       DOS:  cpu time    0.01: real time    0.01
    --------------------------------------------
      LOOP:  cpu time   76.38: real time   76.44

 eigenvalue-minimisations  :  8680
 total energy-change (2. order) :-0.5472208E+02  (-0.5420180E+02)
 number of electron     108.0000000 magnetization 
 augmentation part      108.0000000 magnetization 

 Free energy of the ion-electron system (eV)
  ---------------------------------------------------
  alpha Z        PSCENC =        36.80884744
  Ewald energy   TEWEN  =     11887.29854092
  -Hartree energ DENC   =    -14945.55186438
  -exchange      EXHF   =         0.00000000
  -V(xc)+E(xc)   XCENC  =       -88.24515328
  PAW double counting   =      1056.43050070     -732.41190547
  entropy T*S    EENTRO =        -0.00000000
  eigenvalues    EBANDS =      -699.57903143
  atomic energy  EATOM  =      3354.04126044
  ---------------------------------------------------
  free energy    TOTEN  =      -131.20880505 eV

  energy without entropy =     -131.20880505  energy(sigma->0) =     -131.20880505


--------------------------------------------------------------------------------------------------------




----------------------------------------- Iteration    1(   4)  ---------------------------------------


     EDDAV:  cpu time   83.33: real time   83.51
       DOS:  cpu time    0.00: real time    0.01
    --------------------------------------------
      LOOP:  cpu time   83.34: real time   83.52

 eigenvalue-minimisations  : 10984
 total energy-change (2. order) :-0.2387934E+01  (-0.2379019E+01)
 number of electron     108.0000000 magnetization 
 augmentation part      108.0000000 magnetization 

 Free energy of the ion-electron system (eV)
  ---------------------------------------------------
  alpha Z        PSCENC =        36.80884744
  Ewald energy   TEWEN  =     11887.29854092
  -Hartree energ DENC   =    -14945.55186438
  -exchange      EXHF   =         0.00000000
  -V(xc)+E(xc)   XCENC  =       -88.24515328
  PAW double counting   =      1056.43050070     -732.41190547
  entropy T*S    EENTRO =        -0.00000000
  eigenvalues    EBANDS =      -701.96696573
  atomic energy  EATOM  =      3354.04126044
  ---------------------------------------------------
  free energy    TOTEN  =      -133.59673935 eV

  energy without entropy =     -133.59673935  energy(sigma->0) =     -133.59673935


--------------------------------------------------------------------------------------------------------




----------------------------------------- Iteration    1(   5)  ---------------------------------------


     EDDAV:  cpu time   81.94: real time   82.00
       DOS:  cpu time    0.01: real time    0.01
    CHARGE:  cpu time    4.91: real time    4.91
    MIXING:  cpu time    0.01: real time    0.01
    --------------------------------------------
      LOOP:  cpu time   86.87: real time   86.93

 eigenvalue-minimisations  : 10160
 total energy-change (2. order) :-0.5609334E-01  (-0.5604285E-01)
 number of electron     107.9999995 magnetization 
 augmentation part       -9.5002318 magnetization 

 Broyden mixing:
  rms(total) = 0.99915E+00    rms(broyden)= 0.99893E+00
  rms(prec ) = 0.10531E+01
  weight for this iteration     100.00

 Free energy of the ion-electron system (eV)
  ---------------------------------------------------
  alpha Z        PSCENC =        36.80884744
  Ewald energy   TEWEN  =     11887.29854092
  -Hartree energ DENC   =    -14945.55186438
  -exchange      EXHF   =         0.00000000
  -V(xc)+E(xc)   XCENC  =       -88.24515328
  PAW double counting   =      1056.43050070     -732.41190547
  entropy T*S    EENTRO =        -0.00000000
  eigenvalues    EBANDS =      -702.02305908
  atomic energy  EATOM  =      3354.04126044
  ---------------------------------------------------
  free energy    TOTEN  =      -133.65283270 eV

  energy without entropy =     -133.65283270  energy(sigma->0) =     -133.65283270


--------------------------------------------------------------------------------------------------------




----------------------------------------- Iteration    1(   6)  ---------------------------------------


    POTLOK:  cpu time   14.54: real time   14.55
    SETDIJ:  cpu time    0.01: real time    0.01
     EDDAV:  cpu time   74.78: real time   74.87
       DOS:  cpu time    0.01: real time    0.01
    CHARGE:  cpu time    5.01: real time    5.02
    MIXING:  cpu time    0.01: real time    0.01
    --------------------------------------------
      LOOP:  cpu time   94.36: real time   94.47

 eigenvalue-minimisations  :  8680
 total energy-change (2. order) : 0.1504547E+01  (-0.2699029E+00)
 number of electron     107.9999995 magnetization 
 augmentation part       -9.3576020 magnetization 

 Broyden mixing:
  rms(total) = 0.57702E+00    rms(broyden)= 0.57700E+00
  rms(prec ) = 0.60497E+00
  weight for this iteration     100.00

 eigenvalues of (default mixing * dielectric matrix)
  average eigenvalue GAMMA=   2.1733
  2.1733

 Free energy of the ion-electron system (eV)
  ---------------------------------------------------
  alpha Z        PSCENC =        36.80884744
  Ewald energy   TEWEN  =     11887.29854092
  -Hartree energ DENC   =    -14980.30454596
  -exchange      EXHF   =         0.00000000
  -V(xc)+E(xc)   XCENC  =       -85.04506052
  PAW double counting   =      1115.64452097     -793.22364350
  entropy T*S    EENTRO =        -0.00000000
  eigenvalues    EBANDS =      -667.36820504
  atomic energy  EATOM  =      3354.04126044
  ---------------------------------------------------
  free energy    TOTEN  =      -132.14828524 eV

  energy without entropy =     -132.14828524  energy(sigma->0) =     -132.14828524


--------------------------------------------------------------------------------------------------------




----------------------------------------- Iteration    1(   7)  ---------------------------------------


    POTLOK:  cpu time   14.68: real time   14.69
    SETDIJ:  cpu time    0.01: real time    0.01
     EDDAV:  cpu time   82.15: real time   82.24
       DOS:  cpu time    0.01: real time    0.01
    CHARGE:  cpu time    4.54: real time    4.54
    MIXING:  cpu time    0.01: real time    0.01
    --------------------------------------------
      LOOP:  cpu time  101.41: real time  101.51

 eigenvalue-minimisations  :  8848
 total energy-change (2. order) : 0.2621588E+00  (-0.2624625E+00)
 number of electron     107.9999995 magnetization 
 augmentation part       -9.2059260 magnetization 

 Broyden mixing:
  rms(total) = 0.13048E+00    rms(broyden)= 0.13045E+00
  rms(prec ) = 0.13641E+00
  weight for this iteration     100.00

 eigenvalues of (default mixing * dielectric matrix)
  average eigenvalue GAMMA=   2.0359
  1.5900  2.4819

 Free energy of the ion-electron system (eV)
  ---------------------------------------------------
  alpha Z        PSCENC =        36.80884744
  Ewald energy   TEWEN  =     11887.29854092
  -Hartree energ DENC   =    -15023.54555292
  -exchange      EXHF   =         0.00000000
  -V(xc)+E(xc)   XCENC  =       -80.89254578
  PAW double counting   =      1171.57148140     -850.71015286
  entropy T*S    EENTRO =        -0.00000000
  eigenvalues    EBANDS =      -626.45800513
  atomic energy  EATOM  =      3354.04126044
  ---------------------------------------------------
  free energy    TOTEN  =      -131.88612648 eV

  energy without entropy =     -131.88612648  energy(sigma->0) =     -131.88612648


--------------------------------------------------------------------------------------------------------




----------------------------------------- Iteration    1(   8)  ---------------------------------------


    POTLOK:  cpu time   14.68: real time   14.69
    SETDIJ:  cpu time    0.01: real time    0.01
     EDDAV:  cpu time   83.19: real time   83.33
       DOS:  cpu time    0.01: real time    0.01
    CHARGE:  cpu time    4.34: real time    4.34
    MIXING:  cpu time    0.01: real time    0.01
    --------------------------------------------
      LOOP:  cpu time  102.25: real time  102.40

 eigenvalue-minimisations  :  9304
 total energy-change (2. order) : 0.3878907E-01  (-0.2714745E-01)
 number of electron     107.9999995 magnetization 
 augmentation part       -9.2295942 magnetization 

 Broyden mixing:
  rms(total) = 0.34612E-01    rms(broyden)= 0.34608E-01
  rms(prec ) = 0.36839E-01
  weight for this iteration     100.00

 eigenvalues of (default mixing * dielectric matrix)
  average eigenvalue GAMMA=   1.9112
  2.7096  1.3486  1.6753

 Free energy of the ion-electron system (eV)
  ---------------------------------------------------
  alpha Z        PSCENC =        36.80884744
  Ewald energy   TEWEN  =     11887.29854092
  -Hartree energ DENC   =    -15027.03645491
  -exchange      EXHF   =         0.00000000
  -V(xc)+E(xc)   XCENC  =       -80.37899026
  PAW double counting   =      1162.09294541     -841.00846373
  entropy T*S    EENTRO =        -0.00000000
  eigenvalues    EBANDS =      -623.66502274
  atomic energy  EATOM  =      3354.04126044
  ---------------------------------------------------
  free energy    TOTEN  =      -131.84733741 eV

  energy without entropy =     -131.84733741  energy(sigma->0) =     -131.84733741


--------------------------------------------------------------------------------------------------------




----------------------------------------- Iteration    1(   9)  ---------------------------------------


    POTLOK:  cpu time   14.66: real time   14.67
    SETDIJ:  cpu time    0.01: real time    0.01
     EDDAV:  cpu time   83.76: real time   84.09
       DOS:  cpu time    0.00: real time    0.01
    CHARGE:  cpu time    5.73: real time    5.73
    MIXING:  cpu time    0.02: real time    0.02
    --------------------------------------------
      LOOP:  cpu time  104.19: real time  104.53

 eigenvalue-minimisations  :  9256
 total energy-change (2. order) : 0.2026936E-01  (-0.2590448E-02)
 number of electron     107.9999995 magnetization 
 augmentation part       -9.2340237 magnetization 

 Broyden mixing:
  rms(total) = 0.12931E-01    rms(broyden)= 0.12930E-01
  rms(prec ) = 0.14357E-01
  weight for this iteration     100.00

 eigenvalues of (default mixing * dielectric matrix)
  average eigenvalue GAMMA=   1.7887
  2.5404  1.0939  1.9855  1.5351

 Free energy of the ion-electron system (eV)
  ---------------------------------------------------
  alpha Z        PSCENC =        36.80884744
  Ewald energy   TEWEN  =     11887.29854092
  -Hartree energ DENC   =    -15029.76848389
  -exchange      EXHF   =         0.00000000
  -V(xc)+E(xc)   XCENC  =       -80.19128162
  PAW double counting   =      1159.96063822     -838.80445118
  entropy T*S    EENTRO =        -0.00000000
  eigenvalues    EBANDS =      -621.17213839
  atomic energy  EATOM  =      3354.04126044
  ---------------------------------------------------
  free energy    TOTEN  =      -131.82706805 eV

  energy without entropy =     -131.82706805  energy(sigma->0) =     -131.82706805


--------------------------------------------------------------------------------------------------------




----------------------------------------- Iteration    1(  10)  ---------------------------------------


    POTLOK:  cpu time   14.90: real time   14.97
    SETDIJ:  cpu time    0.01: real time    0.01
     EDDAV:  cpu time   99.77: real time   99.89
       DOS:  cpu time    0.01: real time    0.01
    CHARGE:  cpu time    5.79: real time    5.79
    MIXING:  cpu time    0.02: real time    0.02
    --------------------------------------------
      LOOP:  cpu time  120.50: real time  120.70

 eigenvalue-minimisations  :  9392
 total energy-change (2. order) : 0.9360085E-02  (-0.4005615E-03)
 number of electron     107.9999995 magnetization 
 augmentation part       -9.2332159 magnetization 

 Broyden mixing:
  rms(total) = 0.52626E-02    rms(broyden)= 0.52619E-02
  rms(prec ) = 0.67796E-02
  weight for this iteration     100.00

 eigenvalues of (default mixing * dielectric matrix)
  average eigenvalue GAMMA=   1.7409
  2.7171  2.1353  0.9905  1.4309  1.4309

 Free energy of the ion-electron system (eV)
  ---------------------------------------------------
  alpha Z        PSCENC =        36.80884744
  Ewald energy   TEWEN  =     11887.29854092
  -Hartree energ DENC   =    -15031.03565941
  -exchange      EXHF   =         0.00000000
  -V(xc)+E(xc)   XCENC  =       -80.20491445
  PAW double counting   =      1158.68069768     -837.48435716
  entropy T*S    EENTRO =        -0.00000000
  eigenvalues    EBANDS =      -619.92212344
  atomic energy  EATOM  =      3354.04126044
  ---------------------------------------------------
  free energy    TOTEN  =      -131.81770797 eV

  energy without entropy =     -131.81770797  energy(sigma->0) =     -131.81770797


--------------------------------------------------------------------------------------------------------




----------------------------------------- Iteration    1(  11)  ---------------------------------------


    POTLOK:  cpu time   14.95: real time   14.95
    SETDIJ:  cpu time    0.02: real time    0.02
     EDDAV:  cpu time   96.84: real time   96.96
       DOS:  cpu time    0.01: real time    0.01
    CHARGE:  cpu time    5.79: real time    5.83
    MIXING:  cpu time    0.02: real time    0.02
    --------------------------------------------
      LOOP:  cpu time  117.63: real time  117.79

 eigenvalue-minimisations  :  9104
 total energy-change (2. order) : 0.3677920E-02  (-0.8060058E-04)
 number of electron     107.9999995 magnetization 
 augmentation part       -9.2326679 magnetization 

 Broyden mixing:
  rms(total) = 0.24235E-02    rms(broyden)= 0.24232E-02
  rms(prec ) = 0.37148E-02
  weight for this iteration     100.00

 eigenvalues of (default mixing * dielectric matrix)
  average eigenvalue GAMMA=   1.7241
  2.7871  2.0995  1.7748  0.8837  1.3998  1.3998

 Free energy of the ion-electron system (eV)
  ---------------------------------------------------
  alpha Z        PSCENC =        36.80884744
  Ewald energy   TEWEN  =     11887.29854092
  -Hartree energ DENC   =    -15032.13326321
  -exchange      EXHF   =         0.00000000
  -V(xc)+E(xc)   XCENC  =       -80.18983041
  PAW double counting   =      1157.93417510     -836.72044193
  entropy T*S    EENTRO =        -0.00000000
  eigenvalues    EBANDS =      -618.85331841
  atomic energy  EATOM  =      3354.04126044
  ---------------------------------------------------
  free energy    TOTEN  =      -131.81403005 eV

  energy without entropy =     -131.81403005  energy(sigma->0) =     -131.81403005


--------------------------------------------------------------------------------------------------------




----------------------------------------- Iteration    1(  12)  ---------------------------------------


    POTLOK:  cpu time   14.93: real time   14.96
    SETDIJ:  cpu time    0.01: real time    0.01
     EDDAV:  cpu time  100.63: real time  100.80
       DOS:  cpu time    0.01: real time    0.01
    CHARGE:  cpu time    5.79: real time    5.80
    MIXING:  cpu time    0.01: real time    0.01
    --------------------------------------------
      LOOP:  cpu time  121.39: real time  121.59

 eigenvalue-minimisations  :  9592
 total energy-change (2. order) : 0.2089242E-02  (-0.2132042E-04)
 number of electron     107.9999995 magnetization 
 augmentation part       -9.2324527 magnetization 

 Broyden mixing:
  rms(total) = 0.13540E-02    rms(broyden)= 0.13539E-02
  rms(prec ) = 0.23909E-02
  weight for this iteration     100.00

 eigenvalues of (default mixing * dielectric matrix)
  average eigenvalue GAMMA=   1.7235
  2.9459  2.5197  1.5394  1.5394  0.9826  1.2688  1.2688

 Free energy of the ion-electron system (eV)
  ---------------------------------------------------
  alpha Z        PSCENC =        36.80884744
  Ewald energy   TEWEN  =     11887.29854092
  -Hartree energ DENC   =    -15033.17507618
  -exchange      EXHF   =         0.00000000
  -V(xc)+E(xc)   XCENC  =       -80.17982727
  PAW double counting   =      1157.77568479     -836.55754400
  entropy T*S    EENTRO =        -0.00000000
  eigenvalues    EBANDS =      -617.82382695
  atomic energy  EATOM  =      3354.04126044
  ---------------------------------------------------
  free energy    TOTEN  =      -131.81194080 eV

  energy without entropy =     -131.81194080  energy(sigma->0) =     -131.81194080


--------------------------------------------------------------------------------------------------------




----------------------------------------- Iteration    1(  13)  ---------------------------------------


    POTLOK:  cpu time   14.92: real time   14.94
    SETDIJ:  cpu time    0.01: real time    0.01
     EDDAV:  cpu time   97.88: real time   98.12
       DOS:  cpu time    0.01: real time    0.01
    CHARGE:  cpu time    5.75: real time    5.76
    MIXING:  cpu time    0.01: real time    0.01
    --------------------------------------------
      LOOP:  cpu time  118.60: real time  118.85

 eigenvalue-minimisations  :  9248
 total energy-change (2. order) : 0.1391941E-02  (-0.7639177E-05)
 number of electron     107.9999995 magnetization 
 augmentation part       -9.2323176 magnetization 

 Broyden mixing:
  rms(total) = 0.84050E-03    rms(broyden)= 0.84047E-03
  rms(prec ) = 0.14677E-02
  weight for this iteration     100.00

 eigenvalues of (default mixing * dielectric matrix)
  average eigenvalue GAMMA=   1.7649
  3.1412  2.2615  2.2615  1.7612  0.9029  1.2332  1.2787  1.2787

 Free energy of the ion-electron system (eV)
  ---------------------------------------------------
  alpha Z        PSCENC =        36.80884744
  Ewald energy   TEWEN  =     11887.29854092
  -Hartree energ DENC   =    -15034.21285176
  -exchange      EXHF   =         0.00000000
  -V(xc)+E(xc)   XCENC  =       -80.17488579
  PAW double counting   =      1157.54642190     -836.32246253
  entropy T*S    EENTRO =        -0.00000000
  eigenvalues    EBANDS =      -616.79541950
  atomic energy  EATOM  =      3354.04126044
  ---------------------------------------------------
  free energy    TOTEN  =      -131.81054886 eV

  energy without entropy =     -131.81054886  energy(sigma->0) =     -131.81054886


--------------------------------------------------------------------------------------------------------




----------------------------------------- Iteration    1(  14)  ---------------------------------------


    POTLOK:  cpu time   14.92: real time   14.93
    SETDIJ:  cpu time    0.01: real time    0.01
     EDDAV:  cpu time   80.27: real time   80.35
       DOS:  cpu time    0.01: real time    0.01
    CHARGE:  cpu time    3.96: real time    4.05
    MIXING:  cpu time    0.01: real time    0.02
    --------------------------------------------
      LOOP:  cpu time   99.19: real time   99.37

 eigenvalue-minimisations  :  8592
 total energy-change (2. order) :-0.4886044E-03  (-0.5441445E-05)
 number of electron     107.9999995 magnetization 
 augmentation part       -9.2321769 magnetization 

 Broyden mixing:
  rms(total) = 0.48111E-03    rms(broyden)= 0.48108E-03
  rms(prec ) = 0.86292E-03
  weight for this iteration     100.00

 eigenvalues of (default mixing * dielectric matrix)
  average eigenvalue GAMMA=   1.9335
  4.4870  2.7690  2.2702  1.6568  1.6568  1.2824  1.2824  0.9333  1.0634

 Free energy of the ion-electron system (eV)
  ---------------------------------------------------
  alpha Z        PSCENC =        36.80884744
  Ewald energy   TEWEN  =     11887.29854092
  -Hartree energ DENC   =    -15034.91612570
  -exchange      EXHF   =         0.00000000
  -V(xc)+E(xc)   XCENC  =       -80.17008690
  PAW double counting   =      1157.57467365     -836.35185592
  entropy T*S    EENTRO =        -0.00000000
  eigenvalues    EBANDS =      -616.09629140
  atomic energy  EATOM  =      3354.04126044
  ---------------------------------------------------
  free energy    TOTEN  =      -131.81103747 eV

  energy without entropy =     -131.81103747  energy(sigma->0) =     -131.81103747


--------------------------------------------------------------------------------------------------------




----------------------------------------- Iteration    1(  15)  ---------------------------------------


    POTLOK:  cpu time   14.56: real time   14.57
    SETDIJ:  cpu time    0.01: real time    0.01
     EDDAV:  cpu time   73.31: real time   73.38
       DOS:  cpu time    0.01: real time    0.01
    CHARGE:  cpu time    4.85: real time    4.85
    MIXING:  cpu time    0.01: real time    0.01
    --------------------------------------------
      LOOP:  cpu time   92.75: real time   92.84

 eigenvalue-minimisations  :  8496
 total energy-change (2. order) :-0.4240002E-03  (-0.2194815E-04)
 number of electron     107.9999995 magnetization 
 augmentation part       -9.2320977 magnetization 

 Broyden mixing:
  rms(total) = 0.27751E-03    rms(broyden)= 0.27749E-03
  rms(prec ) = 0.45790E-03
  weight for this iteration     100.00

 eigenvalues of (default mixing * dielectric matrix)
  average eigenvalue GAMMA=   2.0638
  5.6063  2.7594  2.7594  2.0229  1.4553  1.4553  1.2823  1.2823  0.9368  1.0781

 Free energy of the ion-electron system (eV)
  ---------------------------------------------------
  alpha Z        PSCENC =        36.80884744
  Ewald energy   TEWEN  =     11887.29854092
  -Hartree energ DENC   =    -15035.53470328
  -exchange      EXHF   =         0.00000000
  -V(xc)+E(xc)   XCENC  =       -80.16753062
  PAW double counting   =      1157.59871301     -836.37635372
  entropy T*S    EENTRO =        -0.00000000
  eigenvalues    EBANDS =      -615.48023566
  atomic energy  EATOM  =      3354.04126044
  ---------------------------------------------------
  free energy    TOTEN  =      -131.81146147 eV

  energy without entropy =     -131.81146147  energy(sigma->0) =     -131.81146147


--------------------------------------------------------------------------------------------------------




----------------------------------------- Iteration    1(  16)  ---------------------------------------


    POTLOK:  cpu time   14.61: real time   14.61
    SETDIJ:  cpu time    0.01: real time    0.01
     EDDAV:  cpu time   70.59: real time   70.68
       DOS:  cpu time    0.01: real time    0.01
    CHARGE:  cpu time    4.95: real time    4.95
    MIXING:  cpu time    0.01: real time    0.02
    --------------------------------------------
      LOOP:  cpu time   90.19: real time   90.28

 eigenvalue-minimisations  :  7872
 total energy-change (2. order) :-0.2058305E-03  (-0.8733017E-05)
 number of electron     107.9999995 magnetization 
 augmentation part       -9.2320873 magnetization 

 Broyden mixing:
  rms(total) = 0.15100E-03    rms(broyden)= 0.15098E-03
  rms(prec ) = 0.26244E-03
  weight for this iteration     100.00

 eigenvalues of (default mixing * dielectric matrix)
  average eigenvalue GAMMA=   2.0736
  6.2822  2.9105  2.6413  1.8305  1.8305  1.2895  1.2895  0.9526  0.9639  1.4094
  1.4094

 Free energy of the ion-electron system (eV)
  ---------------------------------------------------
  alpha Z        PSCENC =        36.80884744
  Ewald energy   TEWEN  =     11887.29854092
  -Hartree energ DENC   =    -15035.83061673
  -exchange      EXHF   =         0.00000000
  -V(xc)+E(xc)   XCENC  =       -80.16612311
  PAW double counting   =      1157.61389353     -836.39180128
  entropy T*S    EENTRO =        -0.00000000
  eigenvalues    EBANDS =      -615.18566852
  atomic energy  EATOM  =      3354.04126044
  ---------------------------------------------------
  free energy    TOTEN  =      -131.81166730 eV

  energy without entropy =     -131.81166730  energy(sigma->0) =     -131.81166730


--------------------------------------------------------------------------------------------------------




----------------------------------------- Iteration    1(  17)  ---------------------------------------


    POTLOK:  cpu time   14.78: real time   14.79
    SETDIJ:  cpu time    0.01: real time    0.01
     EDDAV:  cpu time   64.62: real time   64.66
       DOS:  cpu time    0.01: real time    0.01
    CHARGE:  cpu time    4.45: real time    4.45
    MIXING:  cpu time    0.01: real time    0.01
    --------------------------------------------
      LOOP:  cpu time   83.88: real time   83.94

 eigenvalue-minimisations  :  6408
 total energy-change (2. order) :-0.5687679E-04  (-0.8041464E-06)
 number of electron     107.9999995 magnetization 
 augmentation part       -9.2320780 magnetization 

 Broyden mixing:
  rms(total) = 0.10013E-03    rms(broyden)= 0.10013E-03
  rms(prec ) = 0.18680E-03
  weight for this iteration     100.00

 eigenvalues of (default mixing * dielectric matrix)
  average eigenvalue GAMMA=   2.1503
  6.7485  3.3096  2.7182  2.5180  1.6537  1.5722  1.5722  1.2793  1.2793  0.9419
  0.9870  1.2240

 Free energy of the ion-electron system (eV)
  ---------------------------------------------------
  alpha Z        PSCENC =        36.80884744
  Ewald energy   TEWEN  =     11887.29854092
  -Hartree energ DENC   =    -15035.89247205
  -exchange      EXHF   =         0.00000000
  -V(xc)+E(xc)   XCENC  =       -80.16603055
  PAW double counting   =      1157.61939498     -836.39743967
  entropy T*S    EENTRO =        -0.00000000
  eigenvalues    EBANDS =      -615.12382570
  atomic energy  EATOM  =      3354.04126044
  ---------------------------------------------------
  free energy    TOTEN  =      -131.81172417 eV

  energy without entropy =     -131.81172417  energy(sigma->0) =     -131.81172417


--------------------------------------------------------------------------------------------------------




----------------------------------------- Iteration    1(  18)  ---------------------------------------


    POTLOK:  cpu time   14.72: real time   14.73
    SETDIJ:  cpu time    0.01: real time    0.01
     EDDAV:  cpu time   69.69: real time   69.74
       DOS:  cpu time    0.01: real time    0.01
    CHARGE:  cpu time    4.36: real time    4.37
    MIXING:  cpu time    0.02: real time    0.02
    --------------------------------------------
      LOOP:  cpu time   88.81: real time   88.88

 eigenvalue-minimisations  :  7320
 total energy-change (2. order) : 0.9167809E-04  (-0.2885057E-05)
 number of electron     107.9999995 magnetization 
 augmentation part       -9.2320869 magnetization 

 Broyden mixing:
  rms(total) = 0.75922E-04    rms(broyden)= 0.75918E-04
  rms(prec ) = 0.10724E-03
  weight for this iteration     100.00

 eigenvalues of (default mixing * dielectric matrix)
  average eigenvalue GAMMA=   2.1298
  6.7125  3.6285  2.8190  2.2775  1.8970  1.8970  1.5034  1.5034  1.2430  1.2430
  1.0749  0.9444  0.9444

 Free energy of the ion-electron system (eV)
  ---------------------------------------------------
  alpha Z        PSCENC =        36.80884744
  Ewald energy   TEWEN  =     11887.29854092
  -Hartree energ DENC   =    -15035.98458807
  -exchange      EXHF   =         0.00000000
  -V(xc)+E(xc)   XCENC  =       -80.16601170
  PAW double counting   =      1157.60866891     -836.38634141
  entropy T*S    EENTRO =        -0.00000000
  eigenvalues    EBANDS =      -615.03200905
  atomic energy  EATOM  =      3354.04126044
  ---------------------------------------------------
  free energy    TOTEN  =      -131.81163250 eV

  energy without entropy =     -131.81163250  energy(sigma->0) =     -131.81163250


--------------------------------------------------------------------------------------------------------




----------------------------------------- Iteration    1(  19)  ---------------------------------------


    POTLOK:  cpu time   14.69: real time   14.70
    SETDIJ:  cpu time    0.01: real time    0.01
     EDDAV:  cpu time   62.85: real time   62.90
       DOS:  cpu time    0.01: real time    0.01
    CHARGE:  cpu time    4.26: real time    4.27
    MIXING:  cpu time    0.02: real time    0.02
    --------------------------------------------
      LOOP:  cpu time   81.84: real time   81.91

 eigenvalue-minimisations  :  6832
 total energy-change (2. order) :-0.5617828E-04  (-0.2212000E-05)
 number of electron     107.9999995 magnetization 
 augmentation part       -9.2320880 magnetization 

 Broyden mixing:
  rms(total) = 0.45818E-04    rms(broyden)= 0.45815E-04
  rms(prec ) = 0.63067E-04
  weight for this iteration     100.00

 eigenvalues of (default mixing * dielectric matrix)
  average eigenvalue GAMMA=   2.2979
  7.5894  5.3463  2.9473  2.4320  2.4320  1.5457  1.5457  1.4608  1.4608  1.2590
  1.2590  0.9842  0.9842  0.9240

 Free energy of the ion-electron system (eV)
  ---------------------------------------------------
  alpha Z        PSCENC =        36.80884744
  Ewald energy   TEWEN  =     11887.29854092
  -Hartree energ DENC   =    -15035.97773223
  -exchange      EXHF   =         0.00000000
  -V(xc)+E(xc)   XCENC  =       -80.16622151
  PAW double counting   =      1157.60825944     -836.38599775
  entropy T*S    EENTRO =        -0.00000000
  eigenvalues    EBANDS =      -615.03864543
  atomic energy  EATOM  =      3354.04126044
  ---------------------------------------------------
  free energy    TOTEN  =      -131.81168867 eV

  energy without entropy =     -131.81168867  energy(sigma->0) =     -131.81168867


--------------------------------------------------------------------------------------------------------




----------------------------------------- Iteration    1(  20)  ---------------------------------------


    POTLOK:  cpu time   14.60: real time   14.60
    SETDIJ:  cpu time    0.01: real time    0.01
     EDDAV:  cpu time   73.92: real time   73.96
       DOS:  cpu time    0.01: real time    0.01
    CHARGE:  cpu time    5.55: real time    5.55
    MIXING:  cpu time    0.02: real time    0.02
    --------------------------------------------
      LOOP:  cpu time   94.11: real time   94.16

 eigenvalue-minimisations  :  6876
 total energy-change (2. order) : 0.9256512E-04  (-0.2181789E-05)
 number of electron     107.9999995 magnetization 
 augmentation part       -9.2320820 magnetization 

 Broyden mixing:
  rms(total) = 0.23683E-04    rms(broyden)= 0.23680E-04
  rms(prec ) = 0.29043E-04
  weight for this iteration     100.00

 eigenvalues of (default mixing * dielectric matrix)
  average eigenvalue GAMMA=   2.3172
  7.9549  6.1409  2.9464  2.7316  2.1434  1.6998  1.6998  1.5336  1.5336  1.2449
  1.2449  1.0656  0.9305  0.9443  0.9443

 Free energy of the ion-electron system (eV)
  ---------------------------------------------------
  alpha Z        PSCENC =        36.80884744
  Ewald energy   TEWEN  =     11887.29854092
  -Hartree energ DENC   =    -15036.00817987
  -exchange      EXHF   =         0.00000000
  -V(xc)+E(xc)   XCENC  =       -80.16611720
  PAW double counting   =      1157.60837021     -836.38612630
  entropy T*S    EENTRO =        -0.00000000
  eigenvalues    EBANDS =      -615.00819175
  atomic energy  EATOM  =      3354.04126044
  ---------------------------------------------------
  free energy    TOTEN  =      -131.81159611 eV

  energy without entropy =     -131.81159611  energy(sigma->0) =     -131.81159611


--------------------------------------------------------------------------------------------------------




----------------------------------------- Iteration    1(  21)  ---------------------------------------


    POTLOK:  cpu time   14.87: real time   14.89
    SETDIJ:  cpu time    0.01: real time    0.01
     EDDAV:  cpu time   71.57: real time   71.69
       DOS:  cpu time    0.00: real time    0.01
    CHARGE:  cpu time    5.50: real time    5.50
    MIXING:  cpu time    0.02: real time    0.02
    --------------------------------------------
      LOOP:  cpu time   91.98: real time   92.12

 eigenvalue-minimisations  :  6300
 total energy-change (2. order) : 0.1944545E-04  (-0.9440045E-06)
 number of electron     107.9999995 magnetization 
 augmentation part       -9.2320837 magnetization 

 Broyden mixing:
  rms(total) = 0.14780E-04    rms(broyden)= 0.14778E-04
  rms(prec ) = 0.17126E-04
  weight for this iteration     100.00

 eigenvalues of (default mixing * dielectric matrix)
  average eigenvalue GAMMA=   2.3794
  8.8808  6.6110  3.1118  2.6731  2.4936  1.8187  1.4383  1.4383  1.4700  1.4700
  1.2158  1.2158  1.3329  0.9303  0.9848  0.9848

 Free energy of the ion-electron system (eV)
  ---------------------------------------------------
  alpha Z        PSCENC =        36.80884744
  Ewald energy   TEWEN  =     11887.29854092
  -Hartree energ DENC   =    -15036.00412274
  -exchange      EXHF   =         0.00000000
  -V(xc)+E(xc)   XCENC  =       -80.16621913
  PAW double counting   =      1157.60772009     -836.38544830
  entropy T*S    EENTRO =        -0.00000000
  eigenvalues    EBANDS =      -615.01215540
  atomic energy  EATOM  =      3354.04126044
  ---------------------------------------------------
  free energy    TOTEN  =      -131.81157666 eV

  energy without entropy =     -131.81157666  energy(sigma->0) =     -131.81157666


--------------------------------------------------------------------------------------------------------




----------------------------------------- Iteration    1(  22)  ---------------------------------------


    POTLOK:  cpu time   14.93: real time   14.95
    SETDIJ:  cpu time    0.01: real time    0.01
     EDDAV:  cpu time   75.11: real time   75.18
       DOS:  cpu time    0.01: real time    0.01
    CHARGE:  cpu time    5.55: real time    5.55
    MIXING:  cpu time    0.02: real time    0.02
    --------------------------------------------
      LOOP:  cpu time   95.63: real time   95.72

 eigenvalue-minimisations  :  6640
 total energy-change (2. order) : 0.6487855E-05  (-0.8744323E-06)
 number of electron     107.9999995 magnetization 
 augmentation part       -9.2320842 magnetization 

 Broyden mixing:
  rms(total) = 0.57461E-05    rms(broyden)= 0.57429E-05
  rms(prec ) = 0.67652E-05
  weight for this iteration     100.00

 eigenvalues of (default mixing * dielectric matrix)
  average eigenvalue GAMMA=   2.3331
  8.8490  6.8407  3.1860  2.7495  2.5137  1.5076  1.5076  1.6998  1.6998  1.5480
  1.2383  1.2383  1.2280  1.0089  0.9349  0.9564  0.9564

 Free energy of the ion-electron system (eV)
  ---------------------------------------------------
  alpha Z        PSCENC =        36.80884744
  Ewald energy   TEWEN  =     11887.29854092
  -Hartree energ DENC   =    -15036.00343516
  -exchange      EXHF   =         0.00000000
  -V(xc)+E(xc)   XCENC  =       -80.16622915
  PAW double counting   =      1157.60788546     -836.38562502
  entropy T*S    EENTRO =        -0.00000000
  eigenvalues    EBANDS =      -615.01281511
  atomic energy  EATOM  =      3354.04126044
  ---------------------------------------------------
  free energy    TOTEN  =      -131.81157018 eV

  energy without entropy =     -131.81157018  energy(sigma->0) =     -131.81157018


--------------------------------------------------------------------------------------------------------




----------------------------------------- Iteration    1(  23)  ---------------------------------------


    POTLOK:  cpu time   14.88: real time   14.90
    SETDIJ:  cpu time    0.01: real time    0.01
     EDDAV:  cpu time   70.04: real time   70.14
       DOS:  cpu time    0.01: real time    0.01
    --------------------------------------------
      LOOP:  cpu time   84.95: real time   85.05

 eigenvalue-minimisations  :  6072
 total energy-change (2. order) :-0.1415956E-06  (-0.2769232E-06)
 number of electron     107.9999995 magnetization 
 augmentation part       -9.2320842 magnetization 

 Free energy of the ion-electron system (eV)
  ---------------------------------------------------
  alpha Z        PSCENC =        36.80884744
  Ewald energy   TEWEN  =     11887.29854092
  -Hartree energ DENC   =    -15036.00352602
  -exchange      EXHF   =         0.00000000
  -V(xc)+E(xc)   XCENC  =       -80.16623440
  PAW double counting   =      1157.60793692     -836.38567917
  entropy T*S    EENTRO =        -0.00000000
  eigenvalues    EBANDS =      -615.01271646
  atomic energy  EATOM  =      3354.04126044
  ---------------------------------------------------
  free energy    TOTEN  =      -131.81157032 eV

  energy without entropy =     -131.81157032  energy(sigma->0) =     -131.81157032


--------------------------------------------------------------------------------------------------------




 average (electrostatic) potential at core
  the test charge radii are     0.9587  0.9892
  (the norm of the test charge is              1.0000)
       1 -88.7072       2 -88.7064       3 -88.6812       4 -88.6971       5 -88.6971
       6 -88.6817       7 -88.5950       8 -88.6257       9 -88.7055      10 -88.7069
[...]
     31      -3.9880      2.00000
     32      -3.9264      2.00000
     33      -3.7351      2.00000
     34      -3.6516      2.00000
     35      -3.2706      2.00000
     36      -3.1892      2.00000
     37      -3.1629      2.00000
     38      -3.0202      2.00000
     39      -3.0011      2.00000
     40      -2.6893      2.00000
     41      -2.5951      2.00000
     42      -2.4998      2.00000
     43      -2.4806      2.00000
     44      -2.3778      2.00000
     45      -2.0175      2.00000
     46      -1.9470      2.00000
     47      -1.9175      2.00000
     48      -1.7578      2.00000
     49      -1.7054      2.00000
     50      -1.6996      2.00000
     51      -1.3498      2.00000
     52      -1.3142      2.00000
     53      -1.1337      2.00000
     54      -0.7756      2.00000
     55       1.4083      0.00000
     56       1.5216      0.00000
     57       1.6091      0.00000
     58       1.6729      0.00000
     59       2.1385      0.00000
     60       2.3556      0.00000
     61       2.5330      0.00000
     62       2.6340      0.00000
     63       2.7174      0.00000
     64       2.8003      0.00000
     65       3.0340      0.00000
     66       3.1311      0.00000
     67       3.2322      0.00000
     68       3.3020      0.00000

 k-point    52 :       0.3077    0.5000    0.5000
  band No.  band energies     occupation 
      1     -12.4715      2.00000
      2     -12.4423      2.00000
      3     -12.1177      2.00000
      4     -12.1081      2.00000
      5     -11.6218      2.00000
      6     -11.5501      2.00000
      7     -10.9804      2.00000
      8     -10.9481      2.00000
      9     -10.7619      2.00000
     10     -10.7554      2.00000
     11     -10.3518      2.00000
     12     -10.3324      2.00000
     13      -8.8751      2.00000
     14      -8.8655      2.00000
     15      -7.7339      2.00000
     16      -7.7088      2.00000
     17      -7.0297      2.00000
     18      -6.9971      2.00000
     19      -6.9341      2.00000
     20      -6.8937      2.00000
     21      -6.1599      2.00000
     22      -6.1123      2.00000
     23      -5.8859      2.00000
     24      -5.8599      2.00000
     25      -5.3208      2.00000
     26      -5.2935      2.00000
     27      -4.8691      2.00000
     28      -4.8275      2.00000
     29      -4.4986      2.00000
     30      -4.3763      2.00000
     31      -4.3420      2.00000
     32      -4.2182      2.00000
     33      -4.0400      2.00000
     34      -4.0205      2.00000
     35      -3.2296      2.00000
     36      -3.1924      2.00000
     37      -3.0695      2.00000
     38      -3.0298      2.00000
     39      -2.9779      2.00000
     40      -2.8513      2.00000
     41      -2.8293      2.00000
     42      -2.5303      2.00000
     43      -2.5104      2.00000
     44      -2.3927      2.00000
     45      -2.2393      2.00000
     46      -2.1394      2.00000
     47      -1.9347      2.00000
     48      -1.9093      2.00000
     49      -1.8579      2.00000
     50      -1.7629      2.00000
     51      -1.6934      2.00000
     52      -1.6758      2.00000
     53      -1.3187      2.00000
     54      -1.1374      2.00000
     55       1.2767      0.00000
     56       1.3417      0.00000
     57       1.3729      0.00000
     58       1.5122      0.00000
     59       2.1119      0.00000
     60       2.1783      0.00000
     61       2.2426      0.00000
     62       2.3843      0.00000
     63       2.4921      0.00000
     64       2.4984      0.00000
     65       2.5745      0.00000
     66       2.6749      0.00000
     67       2.9773      0.00000
     68       3.0608      0.00000

 k-point    53 :       0.3846    0.5000    0.5000
  band No.  band energies     occupation 
      1     -11.9937      2.00000
      2     -11.9673      2.00000
      3     -11.6205      2.00000
      4     -11.6115      2.00000
      5     -11.2215      2.00000
      6     -11.1603      2.00000
      7     -10.7299      2.00000
      8     -10.7081      2.00000
      9     -10.5712      2.00000
     10     -10.5652      2.00000
     11     -10.4098      2.00000
     12     -10.4081      2.00000
     13      -8.8576      2.00000
     14      -8.8519      2.00000
     15      -8.2088      2.00000
     16      -8.1847      2.00000
     17      -7.5768      2.00000
     18      -7.5503      2.00000
     19      -7.3475      2.00000
     20      -7.3152      2.00000
     21      -6.6729      2.00000
     22      -6.6647      2.00000
     23      -6.6216      2.00000
     24      -6.5909      2.00000
     25      -5.2624      2.00000
     26      -5.2353      2.00000
     27      -4.6474      2.00000
     28      -4.6022      2.00000
     29      -4.5601      2.00000
     30      -4.3755      2.00000
     31      -4.1162      2.00000
     32      -4.0496      2.00000
     33      -4.0028      2.00000
     34      -3.9714      2.00000
     35      -3.4945      2.00000
     36      -3.4677      2.00000
     37      -3.1522      2.00000
     38      -3.1349      2.00000
     39      -3.0936      2.00000
     40      -3.0550      2.00000
     41      -2.8399      2.00000
     42      -2.8045      2.00000
     43      -2.5577      2.00000
     44      -2.4556      2.00000
     45      -2.2999      2.00000
     46      -2.2425      2.00000
     47      -2.1414      2.00000
     48      -2.0565      2.00000
     49      -2.0126      2.00000
     50      -1.9829      2.00000
     51      -1.8180      2.00000
     52      -1.7583      2.00000
     53      -1.3654      2.00000
     54      -1.3564      2.00000
     55       1.2720      0.00000
     56       1.3394      0.00000
     57       1.5123      0.00000
     58       1.5760      0.00000
     59       1.8355      0.00000
     60       1.8980      0.00000
     61       2.0202      0.00000
     62       2.1357      0.00000
     63       2.1949      0.00000
     64       2.2781      0.00000
     65       2.3140      0.00000
     66       2.4703      0.00000
     67       2.6696      0.00000
     68       2.7920      0.00000

 k-point    54 :       0.4615    0.5000    0.5000
  band No.  band energies     occupation 
      1     -11.4483      2.00000
      2     -11.4263      2.00000
      3     -11.1204      2.00000
      4     -11.1142      2.00000
      5     -10.8988      2.00000
      6     -10.8900      2.00000
      7     -10.8050      2.00000
      8     -10.7894      2.00000
      9     -10.6719      2.00000
     10     -10.6657      2.00000
     11     -10.5746      2.00000
     12     -10.5646      2.00000
     13      -8.6229      2.00000
     14      -8.6051      2.00000
     15      -8.3977      2.00000
     16      -8.3756      2.00000
     17      -8.0765      2.00000
     18      -8.0560      2.00000
     19      -7.5129      2.00000
     20      -7.5035      2.00000
     21      -7.2418      2.00000
     22      -7.2338      2.00000
     23      -7.1235      2.00000
     24      -7.1137      2.00000
     25      -4.9101      2.00000
     26      -4.8814      2.00000
     27      -4.4456      2.00000
     28      -4.4179      2.00000
     29      -4.2851      2.00000
     30      -4.1762      2.00000
     31      -4.0642      2.00000
     32      -3.9877      2.00000
     33      -3.9247      2.00000
     34      -3.8530      2.00000
     35      -3.7213      2.00000
     36      -3.7140      2.00000
     37      -3.5147      2.00000
     38      -3.4912      2.00000
     39      -3.2096      2.00000
     40      -3.2049      2.00000
     41      -3.0003      2.00000
     42      -2.9450      2.00000
     43      -2.6632      2.00000
     44      -2.6252      2.00000
     45      -2.3479      2.00000
     46      -2.3121      2.00000
     47      -2.1787      2.00000
     48      -2.1272      2.00000
     49      -2.0711      2.00000
     50      -2.0288      2.00000
     51      -1.7116      2.00000
     52      -1.5808      2.00000
     53      -1.5111      2.00000
     54      -1.4117      2.00000
     55       1.3589      0.00000
     56       1.4040      0.00000
     57       1.5420      0.00000
     58       1.5832      0.00000
     59       1.6818      0.00000
     60       1.7604      0.00000
     61       1.8791      0.00000
     62       1.9757      0.00000
     63       2.0531      0.00000
     64       2.1674      0.00000
     65       2.3583      0.00000
     66       2.3968      0.00000
     67       2.5145      0.00000
     68       2.6175      0.00000


--------------------------------------------------------------------------------------------------------


 soft charge-density along one line, spin component           1
         0         1         2         3         4         5         6         7         8         9
 total charge-density along one line
 
 pseudopotential strength for first ion, spin component:           1
 29.761   0.008  -0.001  -0.024   0.000  -0.000  -0.001  -0.000
  0.008   0.009  -0.000  -0.000  -0.000   0.000   0.000   0.000
 -0.001  -0.000   6.546  -0.001  -0.000  -0.003   0.000   0.000
 -0.024  -0.000  -0.001   6.541   0.000   0.000  -0.002  -0.000
  0.000  -0.000  -0.000   0.000   6.547   0.000  -0.000  -0.003
 -0.000   0.000  -0.003   0.000   0.000   0.015  -0.000  -0.000
 -0.001   0.000   0.000  -0.002  -0.000  -0.000   0.015   0.000
 -0.000   0.000   0.000  -0.000  -0.003  -0.000   0.000   0.015
 total augmentation occupancy for first ion, spin component:           1
  1.815  -0.361   0.007   0.260   0.000   0.003   0.110   0.000
 -0.361   1.294   0.026   0.864   0.000   0.004  -0.434   0.000
  0.007   0.026   1.141   0.014   0.000  -0.506   0.014   0.000
  0.260   0.864   0.014   1.300   0.000   0.014  -0.423   0.000
  0.000   0.000   0.000   0.000   1.143   0.000   0.000  -0.529
  0.003   0.004  -0.506   0.014   0.000   0.294  -0.016   0.000
  0.110  -0.434   0.014  -0.423   0.000  -0.016   0.229   0.000
  0.000   0.000   0.000   0.000  -0.529   0.000   0.000   0.327


------------------------ aborting loop because EDIFF is reached ----------------------------------------


    CHARGE:  cpu time    5.52: real time    5.52
    FORLOC:  cpu time    0.09: real time    0.09
    FORNL :  cpu time   23.41: real time   23.43
    STRESS:  cpu time   70.51: real time   70.55
    FORCOR:  cpu time   14.95: real time   14.96
    FORHAR:  cpu time    0.16: real time    0.16
    MIXING:  cpu time    0.01: real time    0.01
    OFIELD:  cpu time    0.00: real time    0.00

  FORCE on cell =-STRESS in cart. coord.  units (eV):
  Direction    XX          YY          ZZ          XY          YZ          ZX
  --------------------------------------------------------------------------------------
  Alpha Z    36.80885    36.80885    36.80885
  Ewald   14366.83356 13953.44785-16432.99028    -0.00012   -18.27899    -0.00019
  Hartree 14877.29425 14593.68053-14434.96971     0.00001    -4.16376     0.00000
  E(xc)    -356.84050  -356.94642  -355.22107     0.00001    -0.19968     0.00001
  Local  -30784.89846-30100.87825 29275.02580    -0.00009    17.61268     0.00009
  n-local  1143.31684  1145.28253  1140.83308     0.00092     1.45524    -0.00069
  augment  -199.03339  -200.23630  -203.32012     0.00019    -0.48009     0.00004
  Kinetic   917.21287   929.03041   972.14550    -0.00041     4.45277    -0.00008
  Fock        0.00000     0.00000     0.00000     0.00000     0.00000     0.00000
  -------------------------------------------------------------------------------------
  Total       0.69401     0.18920    -1.68795     0.00000     0.39816     0.00000
  in kB       1.10936     0.30243    -2.69814     0.00000     0.63644     0.00000
  external pressure =       -0.43 kB  Pullay stress =        0.00 kB


 VOLUME and BASIS-vectors are now :
 -----------------------------------------------------------------------------
  energy-cutoff  :      300.00
  volume of cell :     1002.32
      direct lattice vectors                 reciprocal lattice vectors
     3.540400000  0.000000000  0.000000000     0.282453960  0.048570342  0.000000000
    -1.770200000 10.294348000  0.000000000     0.000000000  0.097140683  0.000000000
     0.000000000  0.000000000 27.501429000     0.000000000  0.000000000  0.036361747

  length of vectors
     3.540400000 10.445439617 27.501429000     0.286599577  0.097140683  0.036361747


 FORCES acting on ions
    electron-ion (+dipol)            ewald-force                    non-local-force                 convergence-correction
 -----------------------------------------------------------------------------------------------
   -.414E-03 0.822E+01 0.269E+02   -.938E-04 -.802E+01 -.220E+02   0.000E+00 -.262E+00 -.490E+01   -.182E-09 0.229E-04 0.134E-04
   -.430E-03 -.181E+01 -.572E+03   -.899E-04 0.202E+01 0.577E+03   0.000E+00 -.209E+00 -.479E+01   -.213E-09 0.148E-04 0.202E-04
   0.405E-03 0.622E+02 0.492E+02   -.771E-05 -.637E+02 -.450E+02   -.278E-16 0.154E+01 -.417E+01   0.285E-09 0.560E-06 0.167E-04
   0.410E-03 0.572E+02 -.526E+03   -.799E-05 -.587E+02 0.531E+03   0.278E-16 0.154E+01 -.428E+01   0.169E-09 0.862E-05 0.198E-04
   0.430E-03 -.572E+02 0.526E+03   0.869E-04 0.587E+02 -.531E+03   0.000E+00 -.154E+01 0.429E+01   -.142E-09 -.100E-04 -.195E-04
   0.431E-03 -.622E+02 -.492E+02   0.875E-04 0.637E+02 0.449E+02   0.000E+00 -.154E+01 0.417E+01   -.188E-09 0.783E-06 -.157E-04
   -.217E-05 0.537E+02 0.526E+03   0.155E-04 -.556E+02 -.530E+03   0.000E+00 0.191E+01 0.417E+01   0.962E-10 0.172E-04 -.142E-04
   0.356E-05 0.631E+02 -.595E+02   0.147E-04 -.650E+02 0.553E+02   0.000E+00 0.191E+01 0.404E+01   0.147E-09 0.121E-04 -.187E-04
   -.397E-05 0.182E+01 0.572E+03   -.859E-04 -.202E+01 -.577E+03   -.347E-17 0.210E+00 0.479E+01   -.412E-11 -.175E-04 -.255E-04
   -.184E-04 -.821E+01 -.269E+02   -.813E-04 0.801E+01 0.220E+02   0.000E+00 0.263E+00 0.490E+01   -.128E-09 -.236E-04 -.132E-04
   -.417E-03 -.631E+02 0.595E+02   0.900E-05 0.650E+02 -.554E+02   0.000E+00 -.191E+01 -.404E+01   -.136E-09 -.134E-04 0.184E-04
   -.395E-03 -.537E+02 -.526E+03   0.952E-05 0.557E+02 0.530E+03   0.000E+00 -.191E+01 -.417E+01   -.155E-09 -.138E-04 0.126E-04
   0.632E-04 0.306E+02 0.209E+03   -.258E-04 -.327E+02 -.209E+03   -.278E-16 0.210E+01 0.343E+00   -.180E-09 -.131E-05 -.167E-04
   0.534E-04 0.312E+02 -.254E+03   -.258E-04 -.334E+02 0.254E+03   -.278E-16 0.215E+01 0.354E+00   -.187E-09 -.373E-05 -.214E-04
   -.659E-04 -.117E+02 0.138E+03   0.180E-04 0.120E+02 -.141E+03   -.347E-17 -.259E+00 0.255E+01   0.380E-10 0.910E-05 0.199E-04
   -.731E-04 -.967E+01 -.335E+03   0.182E-04 0.992E+01 0.333E+03   0.000E+00 -.234E+00 0.257E+01   0.977E-10 0.891E-05 0.208E-04
   0.870E-04 -.507E+01 0.346E+03   0.720E-04 0.553E+01 -.343E+03   -.694E-17 -.467E+00 -.253E+01   0.153E-09 -.169E-04 -.757E-05
   0.751E-04 -.108E+02 -.126E+03   0.716E-04 0.112E+02 0.129E+03   0.000E+00 -.380E+00 -.252E+01   0.274E-09 -.139E-04 0.982E-06
   -.609E-05 0.967E+01 0.335E+03   -.522E-05 -.992E+01 -.332E+03   0.000E+00 0.230E+00 -.257E+01   -.136E-09 -.726E-05 -.224E-04
   -.137E-04 0.117E+02 -.139E+03   -.486E-05 -.120E+02 0.141E+03   0.000E+00 0.254E+00 -.256E+01   -.105E-09 -.103E-04 -.196E-04
   -.180E-05 0.108E+02 0.126E+03   0.102E-03 -.112E+02 -.129E+03   0.694E-17 0.380E+00 0.253E+01   -.952E-10 0.136E-04 -.478E-06
   0.831E-05 0.507E+01 -.346E+03   0.102E-03 -.553E+01 0.343E+03   0.694E-17 0.466E+00 0.253E+01   0.221E-10 0.145E-04 0.554E-05
   -.181E-04 -.312E+02 0.254E+03   -.894E-04 0.334E+02 -.254E+03   0.000E+00 -.215E+01 -.352E+00   0.229E-09 0.304E-05 0.220E-04
   -.307E-05 -.306E+02 -.209E+03   -.894E-04 0.327E+02 0.209E+03   0.000E+00 -.210E+01 -.344E+00   0.212E-09 0.272E-05 0.187E-04
 -----------------------------------------------------------------------------------------------
   0.104E-03 0.584E-02 -.375E-02   -.138E-13 0.213E-13 0.284E-12   -.555E-16 -.511E-02 0.776E-02   -.129E-09 -.295E-05 -.604E-05
 
 
 POSITION                                       TOTAL-FORCE (eV/Angst)
 -----------------------------------------------------------------------------------
      0.00000      2.34757      6.41229         0.000000     -0.062704     -0.036679
      0.00000      2.34757     14.16300         0.000000     -0.003733     -0.006377
     -0.00000      9.43147      5.75866         0.000000     -0.019571      0.077960
     -0.00000      9.43147     13.50937         0.000000      0.010457     -0.012510
     -0.00000      6.40009      2.31424         0.000000     -0.010462      0.015954
     -0.00000      6.40009     10.06495         0.000000      0.020532     -0.076151
      1.77020     10.27849      2.37372        -0.000000     -0.002574     -0.005132
      1.77020     10.27849     10.12443         0.000000     -0.006165     -0.085301
      1.77020      3.18974      1.66157         0.000000      0.003201      0.004247
      1.77020      3.18974      9.41228        -0.000000      0.062635      0.035725
      1.77020      5.55354      5.69975         0.000000      0.007308      0.087174
      1.77020      5.55354     13.45047         0.000000      0.003130      0.005028
      1.77020      9.05319      4.34076         0.000000      0.008913      0.007573
      1.77020      9.05319     12.09147        -0.000000     -0.020719      0.002286
      0.00000      4.22380      5.10944         0.000000     -0.001030      0.043026
      0.00000      4.22380     12.86016         0.000000      0.017418     -0.005325
     -0.00000      4.15582      2.74166         0.000000     -0.004215     -0.021936
     -0.00000      4.15582     10.49237         0.000000      0.013818      0.025481
      1.77020      1.31366      2.96438         0.000000     -0.018185      0.000679
      1.77020      1.31366     10.71510         0.000000     -0.001282     -0.046788
      1.77020      1.38163      5.33187         0.000000     -0.013761     -0.022048
      1.77020      1.38163     13.08259         0.000000      0.003423      0.024343
      1.77020      6.77850      3.73234        -0.000000      0.022095     -0.001907
      1.77020      6.77850     11.48306        -0.000000     -0.008531     -0.009322
 -----------------------------------------------------------------------------------
    total drift:                                0.000104      0.000726      0.003998


--------------------------------------------------------------------------------------------------------



  FREE ENERGIE OF THE ION-ELECTRON SYSTEM (eV)
  ---------------------------------------------------
  free  energy   TOTEN  =      -131.81157032 eV

  energy  without entropy=     -131.81157032  energy(sigma->0) =     -131.81157032
 


--------------------------------------------------------------------------------------------------------


    POTLOK:  cpu time   14.92: real time   14.92


--------------------------------------------------------------------------------------------------------


     LOOP+:  cpu time 2358.51: real time 2361.69
    4ORBIT:  cpu time    0.00: real time    0.00

 total amount of memory used by VASP on root node   146493. kBytes
========================================================================

   base      :      30000. kBytes
   nonlr-proj:       3452. kBytes
   fftplans  :       9347. kBytes
   grid      :      14649. kBytes
   one-center:         36. kBytes
   wavefun   :      89009. kBytes
 
  
  
 General timing and accounting informations for this job:
 ========================================================
  
                  Total CPU time used (sec):     2378.708
                            User time (sec):     2340.357
                          System time (sec):       38.351
                         Elapsed time (sec):     2383.067
  
                   Maximum memory used (kb):      334952.
                   Average memory used (kb):           0.
  
                          Minor page faults:      7062755
                          Major page faults:           14
                 Voluntary context switches:         1467
