<?xml version="1.0" encoding="ISO-8859-1"?>
<modeling>
 <generator>
  <i name="program" type="string">vasp </i>
  <i name="version" type="string">5.3.5  </i>
  <i name="subversion" type="string">31Mar14 (build Oct 29 2014 16:16:03) complex                          parallel </i>
  <i name="platform" type="string">Linux-UFHPC </i>
  <i name="date" type="string">2016 02 09 </i>
  <i name="time" type="string">17:25:19 </i>
 </generator>
 <incar>
  <i type="string" name="PREC">accurate</i>
  <i type="int" name="IBRION">     2</i>
  <i name="EDIFF">      0.00000100</i>
  <i type="int" name="NSW">     0</i>
  <i type="int" name="ISIF">     3</i>
  <i name="ENCUT">    300.00000000</i>
  <i type="string" name="LREAL"> Auto</i>
  <i type="int" name="ISMEAR">     0</i>
  <i name="SIGMA">      0.10000000</i>
  <i type="logical" name="LWAVE"> F  </i>
  <i type="logical" name="LCHARG"> F  </i>
  <i type="logical" name="LAECHG"> F  </i>
  <i type="string" name="GGA"> Bo</i>
  <i name="PARAM1">      0.18333333</i>
  <i name="PARAM2">      0.22000000</i>
  <i type="logical" name="LUSE_VDW"> T  </i>
  <i name="AGGAC">      0.00000000</i>
 </incar>
 <kpoints>
  <generation param="Gamma">
   <v type="int" name="divisions">      13        4        2 </v>
   <v name="usershift">      0.00000000       0.00000000       0.00000000 </v>
   <v name="genvec1">      0.07692308      -0.00000000       0.00000000 </v>
   <v name="genvec2">      0.00000000       0.25000000       0.00000000 </v>
   <v name="genvec3">      0.00000000       0.00000000       0.50000000 </v>
   <v name="shift">      0.00000000       0.00000000       0.00000000 </v>
  </generation>
  <varray name="kpointlist" >
   <v>       0.00000000       0.00000000       0.00000000 </v>
   <v>       0.07692308      -0.00000000       0.00000000 </v>
   <v>       0.15384615      -0.00000000       0.00000000 </v>
   <v>       0.23076923      -0.00000000       0.00000000 </v>
   <v>       0.30769231      -0.00000000       0.00000000 </v>
   <v>       0.38461538      -0.00000000       0.00000000 </v>
   <v>       0.46153846      -0.00000000       0.00000000 </v>
   <v>       0.00000000       0.25000000       0.00000000 </v>
   <v>       0.07692308       0.25000000       0.00000000 </v>
   <v>       0.15384615       0.25000000       0.00000000 </v>
   <v>       0.23076923       0.25000000       0.00000000 </v>
   <v>       0.30769231       0.25000000       0.00000000 </v>
   <v>       0.38461538       0.25000000       0.00000000 </v>
   <v>       0.46153846       0.25000000       0.00000000 </v>
   <v>      -0.46153846       0.25000000       0.00000000 </v>
   <v>      -0.38461538       0.25000000       0.00000000 </v>
   <v>      -0.30769231       0.25000000       0.00000000 </v>
   <v>      -0.23076923       0.25000000       0.00000000 </v>
   <v>      -0.15384615       0.25000000       0.00000000 </v>
   <v>      -0.07692308       0.25000000       0.00000000 </v>
   <v>       0.00000000       0.50000000       0.00000000 </v>
   <v>       0.07692308       0.50000000       0.00000000 </v>
   <v>       0.15384615       0.50000000       0.00000000 </v>
   <v>       0.23076923       0.50000000       0.00000000 </v>
   <v>       0.30769231       0.50000000       0.00000000 </v>
   <v>       0.38461538       0.50000000       0.00000000 </v>
   <v>       0.46153846       0.50000000       0.00000000 </v>
   <v>       0.00000000       0.00000000       0.50000000 </v>
   <v>       0.07692308      -0.00000000       0.50000000 </v>
   <v>       0.15384615      -0.00000000       0.50000000 </v>
   <v>       0.23076923      -0.00000000       0.50000000 </v>
   <v>       0.30769231      -0.00000000       0.50000000 </v>
   <v>       0.38461538      -0.00000000       0.50000000 </v>
   <v>       0.46153846      -0.00000000       0.50000000 </v>
   <v>       0.00000000       0.25000000       0.50000000 </v>
   <v>       0.07692308       0.25000000       0.50000000 </v>
   <v>       0.15384615       0.25000000       0.50000000 </v>
   <v>       0.23076923       0.25000000       0.50000000 </v>
   <v>       0.30769231       0.25000000       0.50000000 </v>
   <v>       0.38461538       0.25000000       0.50000000 </v>
   <v>       0.46153846       0.25000000       0.50000000 </v>
   <v>      -0.46153846       0.25000000       0.50000000 </v>
   <v>      -0.38461538       0.25000000       0.50000000 </v>
   <v>      -0.30769231       0.25000000       0.50000000 </v>
   <v>      -0.23076923       0.25000000       0.50000000 </v>
   <v>      -0.15384615       0.25000000       0.50000000 </v>
   <v>      -0.07692308       0.25000000       0.50000000 </v>
   <v>       0.00000000       0.50000000       0.50000000 </v>
   <v>       0.07692308       0.50000000       0.50000000 </v>
   <v>       0.15384615       0.50000000       0.50000000 </v>
   <v>       0.23076923       0.50000000       0.50000000 </v>
   <v>       0.30769231       0.50000000       0.50000000 </v>
   <v>       0.38461538       0.50000000       0.50000000 </v>
   <v>       0.46153846       0.50000000       0.50000000 </v>
  </varray>
  <varray name="weights" >
   <v>       0.00961538 </v>
   <v>       0.01923077 </v>
   <v>       0.01923077 </v>
   <v>       0.01923077 </v>
   <v>       0.01923077 </v>
   <v>       0.01923077 </v>
   <v>       0.01923077 </v>
   <v>       0.01923077 </v>
   <v>       0.01923077 </v>
   <v>       0.01923077 </v>
   <v>       0.01923077 </v>
   <v>       0.01923077 </v>
   <v>       0.01923077 </v>
   <v>       0.01923077 </v>
   <v>       0.01923077 </v>
   <v>       0.01923077 </v>
   <v>       0.01923077 </v>
   <v>       0.01923077 </v>
   <v>       0.01923077 </v>
   <v>       0.01923077 </v>
   <v>       0.00961538 </v>
   <v>       0.01923077 </v>
   <v>       0.01923077 </v>
   <v>       0.01923077 </v>
   <v>       0.01923077 </v>
   <v>       0.01923077 </v>
   <v>       0.01923077 </v>
   <v>       0.00961538 </v>
   <v>       0.01923077 </v>
   <v>       0.01923077 </v>
   <v>       0.01923077 </v>
   <v>       0.01923077 </v>
   <v>       0.01923077 </v>
   <v>       0.01923077 </v>
   <v>       0.01923077 </v>
   <v>       0.01923077 </v>
   <v>       0.01923077 </v>
   <v>       0.01923077 </v>
   <v>       0.01923077 </v>
   <v>       0.01923077 </v>
   <v>       0.01923077 </v>
   <v>       0.01923077 </v>
   <v>       0.01923077 </v>
   <v>       0.01923077 </v>
   <v>       0.01923077 </v>
   <v>       0.01923077 </v>
   <v>       0.01923077 </v>
   <v>       0.00961538 </v>
   <v>       0.01923077 </v>
   <v>       0.01923077 </v>
   <v>       0.01923077 </v>
   <v>       0.01923077 </v>
   <v>       0.01923077 </v>
   <v>       0.01923077 </v>
  </varray>
 </kpoints>
 <parameters>
  <separator name="general" >
   <i type="string" name="SYSTEM">unknown system</i>
   <i type="logical" name="LCOMPAT"> F  </i>
  </separator>
  <separator name="electronic" >
   <i type="string" name="PREC">accura</i>
   <i name="ENMAX">    300.00000000</i>
   <i name="ENAUG">    342.92400000</i>
   <i name="EDIFF">      0.00000100</i>
   <i type="int" name="IALGO">    38</i>
   <i type="int" name="IWAVPR">    10</i>
   <i type="int" name="NBANDS">    68</i>
   <i name="NELECT">    108.00000000</i>
   <i type="int" name="TURBO">     0</i>
   <i type="int" name="IRESTART">     0</i>
   <i type="int" name="NREBOOT">     0</i>
   <i type="int" name="NMIN">     0</i>
   <i name="EREF">      0.00000000</i>
   <separator name="electronic smearing" >
    <i type="int" name="ISMEAR">     0</i>
    <i name="SIGMA">      0.10000000</i>
    <i name="KSPACING">      0.50000000</i>
    <i type="logical" name="KGAMMA"> T  </i>
   </separator>
   <separator name="electronic projectors" >
    <i type="logical" name="LREAL"> T  </i>
    <v name="ROPT">     -0.00025000     -0.00025000</v>
    <i type="int" name="LMAXPAW">  -100</i>
    <i type="int" name="LMAXMIX">     2</i>
    <i type="logical" name="NLSPLINE"> F  </i>
   </separator>
   <separator name="electronic startup" >
    <i type="int" name="ISTART">     0</i>
    <i type="int" name="ICHARG">     2</i>
    <i type="int" name="INIWAV">     1</i>
   </separator>
   <separator name="electronic spin" >
    <i type="int" name="ISPIN">     1</i>
    <i type="logical" name="LNONCOLLINEAR"> F  </i>
    <v name="MAGMOM">      1.00000000      1.00000000      1.00000000      1.00000000      1.00000000      1.00000000      1.00000000      1.00000000      1.00000000      1.00000000      1.00000000      1.00000000      1.00000000      1.00000000      1.00000000      1.00000000      1.00000000      1.00000000      1.00000000      1.00000000
      1.00000000      1.00000000      1.00000000      1.00000000</v>
    <i name="NUPDOWN">     -1.00000000</i>
    <i type="logical" name="LSORBIT"> F  </i>
    <v name="SAXIS">      0.00000000      0.00000000      1.00000000</v>
    <i type="logical" name="LSPIRAL"> F  </i>
    <v name="QSPIRAL">      0.00000000      0.00000000      0.00000000</v>
    <i type="logical" name="LZEROZ"> F  </i>
   </separator>
   <separator name="electronic exchange-correlation" >
    <i type="logical" name="LASPH"> F  </i>
    <i type="logical" name="LMETAGGA"> F  </i>
   </separator>
   <separator name="electronic convergence" >
    <i type="int" name="NELM">    60</i>
    <i type="int" name="NELMDL">    -5</i>
    <i type="int" name="NELMIN">     2</i>
    <i name="ENINI">    300.00000000</i>
    <separator name="electronic convergence detail" >
     <i type="logical" name="LDIAG"> T  </i>
     <i type="logical" name="LSUBROT"> F  </i>
     <i name="WEIMIN">      0.00000000</i>
     <i name="EBREAK">      0.00000000</i>
     <i name="DEPER">      0.30000000</i>
     <i type="int" name="NRMM">     4</i>
     <i name="TIME">      0.40000000</i>
    </separator>
   </separator>
   <separator name="electronic mixer" >
    <i name="AMIX">      0.40000000</i>
    <i name="BMIX">      1.00000000</i>
    <i name="AMIN">      0.10000000</i>
    <i name="AMIX_MAG">      1.60000000</i>
    <i name="BMIX_MAG">      1.00000000</i>
    <separator name="electronic mixer details" >
     <i type="int" name="IMIX">     4</i>
     <i type="int" name="MAXMIX">   -45</i>
     <i name="WC">    100.00000000</i>
     <i type="int" name="INIMIX">     1</i>
     <i type="int" name="MIXPRE">     1</i>
     <i type="int" name="MREMOVE">     5</i>
    </separator>
   </separator>
   <separator name="electronic dipolcorrection" >
    <i type="logical" name="LDIPOL"> F  </i>
    <i type="logical" name="LMONO"> F  </i>
    <i type="int" name="IDIPOL">     0</i>
    <i name="EPSILON">      1.00000000</i>
    <v name="DIPOL">   -100.00000000   -100.00000000   -100.00000000</v>
    <i name="EFIELD">      0.00000000</i>
   </separator>
  </separator>
  <separator name="grids" >
   <i type="int" name="NGX">    20</i>
   <i type="int" name="NGY">    60</i>
   <i type="int" name="NGZ">   160</i>
   <i type="int" name="NGXF">    40</i>
   <i type="int" name="NGYF">   120</i>
   <i type="int" name="NGZF">   320</i>
   <i type="logical" name="ADDGRID"> F  </i>
  </separator>
  <separator name="ionic" >
   <i type="int" name="NSW">     0</i>
   <i type="int" name="IBRION">    -1</i>
   <i type="int" name="ISIF">     3</i>
   <i name="PSTRESS">      0.00000000</i>
   <i name="EDIFFG">      0.00001000</i>
   <i type="int" name="NFREE">     1</i>
   <i name="POTIM">      0.50000000</i>
   <i name="SMASS">     -3.00000000</i>
   <i name="SCALEE">      1.00000000</i>
  </separator>
  <separator name="ionic md" >
   <i name="TEBEG">      0.00010000</i>
   <i name="TEEND">      0.00010000</i>
   <i type="int" name="NBLOCK">     1</i>
   <i type="int" name="KBLOCK">     1</i>
   <i type="int" name="NPACO">   256</i>
   <i name="APACO">     16.00000000</i>
  </separator>
  <separator name="symmetry" >
   <i type="int" name="ISYM">     2</i>
   <i name="SYMPREC">      0.00001000</i>
  </separator>
  <separator name="dos" >
   <i type="logical" name="LORBIT"> F  </i>
   <v name="RWIGS">     -1.00000000     -1.00000000</v>
   <i type="int" name="NEDOS">   301</i>
   <i name="EMIN">     10.00000000</i>
   <i name="EMAX">    -10.00000000</i>
   <i name="EFERMI">      0.00000000</i>
  </separator>
  <separator name="writing" >
   <i type="int" name="NWRITE">     2</i>
   <i type="logical" name="LWAVE"> F  </i>
   <i type="logical" name="LCHARG"> F  </i>
   <i type="logical" name="LPARD"> F  </i>
   <i type="logical" name="LVTOT"> F  </i>
   <i type="logical" name="LVHAR"> F  </i>
   <i type="logical" name="LELF"> F  </i>
   <i type="logical" name="LOPTICS"> F  </i>
   <v name="STM">      0.00000000      0.00000000      0.00000000      0.00000000      0.00000000      0.00000000      0.00000000</v>
  </separator>
  <separator name="performance" >
   <i type="int" name="NPAR">     4</i>
   <i type="int" name="NSIM">     4</i>
   <i type="int" name="NBLK">    -1</i>
   <i type="logical" name="LPLANE"> T  </i>
   <i type="logical" name="LSCALAPACK"> T  </i>
   <i type="logical" name="LSCAAWARE"> F  </i>
   <i type="logical" name="LSCALU"> F  </i>
   <i type="logical" name="LASYNC"> F  </i>
   <i type="logical" name="LORBITALREAL"> F  </i>
  </separator>
  <separator name="miscellaneous" >
   <i type="int" name="IDIOT">     3</i>
   <i type="logical" name="LMUSIC"> F  </i>
   <v name="POMASS">     30.97400000     28.08500000</v>
   <v name="DARWINR">      0.00000000      0.00000000</v>
   <v name="DARWINV">      1.00000000      1.00000000</v>
   <i type="logical" name="LCORR"> T  </i>
  </separator>
  <i type="logical" name="GGA_COMPAT"> T  </i>
  <i type="logical" name="LBERRY"> F  </i>
  <i type="int" name="ICORELEVEL">     0</i>
  <i type="logical" name="LDAU"> F  </i>
  <i type="int" name="I_CONSTRAINED_M">     0</i>
  <separator name="electronic exchange-correlation" >
   <i type="string" name="GGA">BO</i>
   <i type="int" name="VOSKOWN">     0</i>
   <i type="logical" name="LHFCALC"> F  </i>
   <i type="string" name="PRECFOCK"></i>
   <i type="logical" name="LSYMGRAD"> F  </i>
   <i type="logical" name="LHFONE"> F  </i>
   <i type="logical" name="LRHFCALC"> F  </i>
   <i type="logical" name="LTHOMAS"> F  </i>
   <i type="logical" name="LMODELHF"> F  </i>
   <i name="ENCUT4O">     -1.00000000</i>
   <i type="int" name="EXXOEP">     0</i>
   <i type="int" name="FOURORBIT">     0</i>
   <i name="AEXX">      0.00000000</i>
   <i name="HFALPHA">      0.00000000</i>
   <i name="MCALPHA">      0.00000000</i>
   <i name="ALDAX">      1.00000000</i>
   <i name="AGGAX">      1.00000000</i>
   <i name="ALDAC">      1.00000000</i>
   <i name="AGGAC">      0.00000000</i>
   <i type="int" name="NKREDX">     1</i>
   <i type="int" name="NKREDY">     1</i>
   <i type="int" name="NKREDZ">     1</i>
   <i type="logical" name="SHIFTRED"> F  </i>
   <i type="logical" name="ODDONLY"> F  </i>
   <i type="logical" name="EVENONLY"> F  </i>
   <i type="int" name="LMAXFOCK">     0</i>
   <i type="int" name="NMAXFOCKAE">     0</i>
   <i type="logical" name="LFOCKAEDFT"> F  </i>
   <i name="HFSCREEN">      0.00000000</i>
   <i name="HFSCREENC">      0.00000000</i>
   <i type="int" name="NBANDSGWLOW">     0</i>
  </separator>
  <separator name="vdW DFT" >
   <i type="logical" name="LUSE_VDW"> T  </i>
   <i name="Zab_VDW">     -0.84910000</i>
   <i name="PARAM1">      0.18333333</i>
   <i name="PARAM2">      0.22000000</i>
   <i name="PARAM3">      0.00000000</i>
  </separator>
  <separator name="model GW" >
   <i type="int" name="MODEL_GW">     0</i>
   <i name="MODEL_EPS0">     25.05800243</i>
   <i name="MODEL_ALPHA">      1.00000000</i>
  </separator>
  <separator name="linear response parameters" >
   <i type="logical" name="LEPSILON"> F  </i>
   <i type="logical" name="LRPA"> F  </i>
   <i type="logical" name="LNABLA"> F  </i>
   <i type="logical" name="LVEL"> F  </i>
   <i type="int" name="KINTER">     0</i>
   <i name="CSHIFT">      0.10000000</i>
   <i name="OMEGAMAX">     -1.00000000</i>
   <i name="DEG_THRESHOLD">      0.00200000</i>
  </separator>
  <separator name="orbital magnetization" >
   <i type="logical" name="NUCIND"> F  </i>
   <v name="MAGPOS">      0.00000000      0.00000000      0.00000000</v>
   <i type="logical" name="LNICSALL"> T  </i>
   <i type="logical" name="ORBITALMAG"> F  </i>
   <i type="logical" name="LMAGBLOCH"> F  </i>
   <i type="logical" name="LCHIMAG"> F  </i>
   <i type="logical" name="LGAUGE"> T  </i>
   <i type="int" name="MAGATOM">     0</i>
   <v name="MAGDIPOL">      0.00000000      0.00000000      0.00000000</v>
   <v name="AVECCONST">      0.00000000      0.00000000      0.00000000</v>
  </separator>
  <separator name="response functions" >
   <i type="logical" name="LADDER"> F  </i>
   <i type="logical" name="LFXC"> F  </i>
   <i type="logical" name="LHARTREE"> T  </i>
   <i type="int" name="IBSE">     0</i>
   <i type="logical" name="LTCTE"> F  </i>
   <i type="logical" name="LTETE"> F  </i>
   <i type="logical" name="LTRIPLET"> F  </i>
   <i type="logical" name="LFXCEPS"> F  </i>
   <i type="logical" name="LFXHEG"> F  </i>
   <i type="logical" name="L2ORDER"> F  </i>
   <i type="logical" name="LUSEW"> F  </i>
   <i name="ENCUTGW">     -2.00000000</i>
   <i name="ENCUTGWSOFT">     -2.00000000</i>
   <i name="ENCUTLF">     -1.00000000</i>
   <i type="int" name="LMAXMP2">    -1</i>
   <i name="SCISSOR">      0.00000000</i>
   <i type="int" name="NOMEGA">     0</i>
   <i type="int" name="NOMEGAR">     0</i>
   <i type="int" name="NBANDSGW">    -1</i>
   <i type="int" name="NBANDSO">    -1</i>
   <i type="int" name="NBANDSV">    -1</i>
   <i type="int" name="NELM">     1</i>
   <i type="int" name="DIM">     3</i>
   <i type="int" name="ANTIRES">     0</i>
   <i name="OMEGAMAX">    -30.00000000</i>
   <i name="OMEGAMIN">    -30.00000000</i>
   <i name="OMEGATL">   -200.00000000</i>
   <i type="int" name="OMEGAGRID">     0</i>
   <i name="CSHIFT">     -0.10000000</i>
   <i type="logical" name="SELFENERGY"> F  </i>
   <i type="logical" name="LSPECTRAL"> F  </i>
   <i type="logical" name="ODDONLYGW"> F  </i>
   <i type="logical" name="EVENONLYGW"> F  </i>
   <i type="int" name="NKREDLFX">     1</i>
   <i type="int" name="NKREDLFY">     1</i>
   <i type="int" name="NKREDLFZ">     1</i>
   <i type="int" name="MAXMEM">  1800</i>
   <i type="int" name="TELESCOPE">     0</i>
   <i type="int" name="TAUPAR">     1</i>
  </separator>
  <separator name="External order field" >
   <i name="OFIELD_KAPPA">      0.00000000</i>
   <v name="OFIELD_K">      0.00000000      0.00000000      0.00000000</v>
   <i name="OFIELD_Q6_NEAR">      0.00000000</i>
   <i name="OFIELD_Q6_FAR">      0.00000000</i>
   <i name="OFIELD_A">      0.00000000</i>
  </separator>
 </parameters>
 <atominfo>
  <atoms>      24 </atoms>
  <types>       2 </types>
  <array name="atoms" >
   <dimension dim="1">ion</dimension>
   <field type="string">element</field>
   <field type="int">atomtype</field>
   <set>
    <rc><c>P </c><c>   1</c></rc>
    <rc><c>P </c><c>   1</c></rc>
    <rc><c>P </c><c>   1</c></rc>
    <rc><c>P </c><c>   1</c></rc>
    <rc><c>P </c><c>   1</c></rc>
    <rc><c>P </c><c>   1</c></rc>
    <rc><c>P </c><c>   1</c></rc>
    <rc><c>P </c><c>   1</c></rc>
    <rc><c>P </c><c>   1</c></rc>
    <rc><c>P </c><c>   1</c></rc>
    <rc><c>P </c><c>   1</c></rc>
    <rc><c>P </c><c>   1</c></rc>
    <rc><c>Si</c><c>   2</c></rc>
    <rc><c>Si</c><c>   2</c></rc>
    <rc><c>Si</c><c>   2</c></rc>
    <rc><c>Si</c><c>   2</c></rc>
    <rc><c>Si</c><c>   2</c></rc>
    <rc><c>Si</c><c>   2</c></rc>
    <rc><c>Si</c><c>   2</c></rc>
    <rc><c>Si</c><c>   2</c></rc>
    <rc><c>Si</c><c>   2</c></rc>
    <rc><c>Si</c><c>   2</c></rc>
    <rc><c>Si</c><c>   2</c></rc>
    <rc><c>Si</c><c>   2</c></rc>
   </set>
  </array>
  <array name="atomtypes" >
   <dimension dim="1">type</dimension>
   <field type="int">atomspertype</field>
   <field type="string">element</field>
   <field>mass</field>
   <field>valence</field>
   <field type="string">pseudopotential</field>
   <set>
    <rc><c>  12</c><c>P </c><c>     30.97400000</c><c>      5.00000000</c><c>  PAW_PBE P 17Jan2003                   </c></rc>
    <rc><c>  12</c><c>Si</c><c>     28.08500000</c><c>      4.00000000</c><c> PAW_PBE Si 05Jan2001                   </c></rc>
   </set>
  </array>
 </atominfo>
 <structure name="initialpos" >
  <crystal>
   <varray name="basis" >
    <v>       3.54040000       0.00000000       0.00000000 </v>
    <v>      -1.77020000      10.29434800       0.00000000 </v>
    <v>       0.00000000       0.00000000      27.50142900 </v>
   </varray>
   <i name="volume">   1002.32009712 </i>
   <varray name="rec_basis" >
    <v>       0.28245396       0.04857034       0.00000000 </v>
    <v>       0.00000000       0.09714068       0.00000000 </v>
    <v>       0.00000000       0.00000000       0.03636175 </v>
   </varray>
  </crystal>
  <varray name="positions" >
   <v>       0.11402300       0.22804500       0.23316207 </v>
   <v>       0.11402300       0.22804500       0.51499159 </v>
   <v>       0.45808900       0.91617900       0.20939482 </v>
   <v>       0.45808900       0.91617900       0.49122434 </v>
   <v>       0.31085400       0.62170900       0.08414979 </v>
   <v>       0.31085400       0.62170900       0.36597930 </v>
   <v>       0.99923000       0.99846000       0.08631254 </v>
   <v>       0.99923000       0.99846000       0.36814206 </v>
   <v>       0.65492700       0.30985400       0.06041748 </v>
   <v>       0.65492700       0.30985400       0.34224700 </v>
   <v>       0.76973800       0.53947500       0.20725292 </v>
   <v>       0.76973800       0.53947500       0.48908244 </v>
   <v>       0.93971600       0.87943300       0.15783749 </v>
   <v>       0.93971600       0.87943300       0.43966701 </v>
   <v>       0.20515200       0.41030300       0.18578822 </v>
   <v>       0.20515200       0.41030300       0.46761774 </v>
   <v>       0.20184900       0.40369900       0.09969156 </v>
   <v>       0.20184900       0.40369900       0.38152107 </v>
   <v>       0.56380500       0.12761000       0.10779021 </v>
   <v>       0.56380500       0.12761000       0.38961973 </v>
   <v>       0.56710600       0.13421200       0.19387616 </v>
   <v>       0.56710600       0.13421200       0.47570568 </v>
   <v>       0.82923400       0.65846800       0.13571444 </v>
   <v>       0.82923400       0.65846800       0.41754396 </v>
  </varray>
 </structure>
 <calculation>
  <scstep>
   <time name="dav">   81.03   81.16</time>
   <time name="total">   97.60   97.85</time>
   <energy>
    <i name="alphaZ">     36.80884744 </i>
    <i name="ewald">  11887.29854092 </i>
    <i name="hartreedc"> -14945.55186438 </i>
    <i name="XCdc">    -88.24515328 </i>
    <i name="pawpsdc">   1056.43050070 </i>
    <i name="pawaedc">   -732.41190547 </i>
    <i name="eentropy">     -0.03943085 </i>
    <i name="bandstr">    -85.53015700 </i>
    <i name="atom">   3354.04126044 </i>
    <i name="e_fr_energy">    482.80063853 </i>
    <i name="e_wo_entrp">    482.84006938 </i>
    <i name="e_0_energy">    482.82035395 </i>
   </energy>
  </scstep>
  <scstep>
   <time name="dav">  100.99  101.08</time>
   <time name="total">  101.00  101.09</time>
   <energy>
    <i name="e_fr_energy">    -76.48672211 </i>
    <i name="e_wo_entrp">    -76.48672211 </i>
    <i name="e_0_energy">    -76.48672211 </i>
   </energy>
  </scstep>
  <scstep>
   <time name="dav">   76.37   76.43</time>
   <time name="total">   76.38   76.44</time>
   <energy>
    <i name="e_fr_energy">   -131.20880505 </i>
    <i name="e_wo_entrp">   -131.20880505 </i>
    <i name="e_0_energy">   -131.20880505 </i>
   </energy>
  </scstep>
  <scstep>
   <time name="dav">   83.33   83.51</time>
   <time name="total">   83.34   83.52</time>
   <energy>
    <i name="e_fr_energy">   -133.59673935 </i>
    <i name="e_wo_entrp">   -133.59673935 </i>
    <i name="e_0_energy">   -133.59673935 </i>
   </energy>
  </scstep>
  <scstep>
   <time name="dav">   81.94   82.00</time>
   <time name="total">   86.87   86.93</time>
   <energy>
    <i name="e_fr_energy">   -133.65283270 </i>
    <i name="e_wo_entrp">   -133.65283270 </i>
    <i name="e_0_energy">   -133.65283270 </i>
   </energy>
  </scstep>
  <scstep>
   <time name="dav">   74.78   74.87</time>
   <time name="total">   94.36   94.47</time>
   <energy>
    <i name="e_fr_energy">   -132.14828524 </i>
    <i name="e_wo_entrp">   -132.14828524 </i>
    <i name="e_0_energy">   -132.14828524 </i>
   </energy>
  </scstep>
  <scstep>
   <time name="dav">   82.15   82.24</time>
   <time name="total">  101.41  101.51</time>
   <energy>
    <i name="e_fr_energy">   -131.88612648 </i>
    <i name="e_wo_entrp">   -131.88612648 </i>
    <i name="e_0_energy">   -131.88612648 </i>
   </energy>
  </scstep>
  <scstep>
   <time name="dav">   83.19   83.33</time>
   <time name="total">  102.25  102.40</time>
   <energy>
    <i name="e_fr_energy">   -131.84733741 </i>
    <i name="e_wo_entrp">   -131.84733741 </i>
    <i name="e_0_energy">   -131.84733741 </i>
   </energy>
  </scstep>
  <scstep>
   <time name="dav">   83.76   84.09</time>
   <time name="total">  104.19  104.53</time>
   <energy>
    <i name="e_fr_energy">   -131.82706805 </i>
    <i name="e_wo_entrp">   -131.82706805 </i>
    <i name="e_0_energy">   -131.82706805 </i>
   </energy>
  </scstep>
  <scstep>
   <time name="dav">   99.77   99.89</time>
   <time name="total">  120.50  120.70</time>
   <energy>
    <i name="e_fr_energy">   -131.81770797 </i>
    <i name="e_wo_entrp">   -131.81770797 </i>
    <i name="e_0_energy">   -131.81770797 </i>
   </energy>
  </scstep>
  <scstep>
   <time name="dav">   96.84   96.96</time>
   <time name="total">  117.63  117.79</time>
   <energy>
    <i name="e_fr_energy">   -131.81403005 </i>
    <i name="e_wo_entrp">   -131.81403005 </i>
    <i name="e_0_energy">   -131.81403005 </i>
   </energy>
  </scstep>
  <scstep>
   <time name="dav">  100.63  100.80</time>
   <time name="total">  121.39  121.59</time>
   <energy>
    <i name="e_fr_energy">   -131.81194080 </i>
    <i name="e_wo_entrp">   -131.81194080 </i>
    <i name="e_0_energy">   -131.81194080 </i>
   </energy>
  </scstep>
  <scstep>
   <time name="dav">   97.88   98.12</time>
   <time name="total">  118.60  118.85</time>
   <energy>
    <i name="e_fr_energy">   -131.81054886 </i>
    <i name="e_wo_entrp">   -131.81054886 </i>
    <i name="e_0_energy">   -131.81054886 </i>
   </energy>
  </scstep>
  <scstep>
   <time name="dav">   80.27   80.35</time>
   <time name="total">   99.19   99.37</time>
   <energy>
    <i name="e_fr_energy">   -131.81103747 </i>
    <i name="e_wo_entrp">   -131.81103747 </i>
    <i name="e_0_energy">   -131.81103747 </i>
   </energy>
  </scstep>
  <scstep>
   <time name="dav">   73.31   73.38</time>
   <time name="total">   92.75   92.84</time>
   <energy>
    <i name="e_fr_energy">   -131.81146147 </i>
    <i name="e_wo_entrp">   -131.81146147 </i>
    <i name="e_0_energy">   -131.81146147 </i>
   </energy>
  </scstep>
  <scstep>
   <time name="dav">   70.59   70.68</time>
   <time name="total">   90.19   90.28</time>
   <energy>
    <i name="e_fr_energy">   -131.81166730 </i>
    <i name="e_wo_entrp">   -131.81166730 </i>
    <i name="e_0_energy">   -131.81166730 </i>
   </energy>
  </scstep>
  <scstep>
   <time name="dav">   64.62   64.66</time>
   <time name="total">   83.88   83.94</time>
   <energy>
    <i name="e_fr_energy">   -131.81172417 </i>
    <i name="e_wo_entrp">   -131.81172417 </i>
    <i name="e_0_energy">   -131.81172417 </i>
   </energy>
  </scstep>
  <scstep>
   <time name="dav">   69.69   69.74</time>
   <time name="total">   88.81   88.88</time>
   <energy>
    <i name="e_fr_energy">   -131.81163250 </i>
    <i name="e_wo_entrp">   -131.81163250 </i>
    <i name="e_0_energy">   -131.81163250 </i>
   </energy>
  </scstep>
  <scstep>
   <time name="dav">   62.85   62.90</time>
   <time name="total">   81.84   81.91</time>
   <energy>
    <i name="e_fr_energy">   -131.81168867 </i>
    <i name="e_wo_entrp">   -131.81168867 </i>
    <i name="e_0_energy">   -131.81168867 </i>
   </energy>
  </scstep>
  <scstep>
   <time name="dav">   73.92   73.96</time>
   <time name="total">   94.11   94.16</time>
   <energy>
    <i name="e_fr_energy">   -131.81159611 </i>
    <i name="e_wo_entrp">   -131.81159611 </i>
    <i name="e_0_energy">   -131.81159611 </i>
   </energy>
  </scstep>
  <scstep>
   <time name="dav">   71.57   71.69</time>
   <time name="total">   91.98   92.12</time>
   <energy>
    <i name="e_fr_energy">   -131.81157666 </i>
    <i name="e_wo_entrp">   -131.81157666 </i>
    <i name="e_0_energy">   -131.81157666 </i>
   </energy>
  </scstep>
  <scstep>
   <time name="dav">   75.11   75.18</time>
   <time name="total">   95.63   95.72</time>
   <energy>
    <i name="e_fr_energy">   -131.81157018 </i>
    <i name="e_wo_entrp">   -131.81157018 </i>
    <i name="e_0_energy">   -131.81157018 </i>
   </energy>
  </scstep>
  <scstep>
   <time name="dav">   70.04   70.14</time>
   <time name="total">   84.95   85.05</time>
   <energy>
    <i name="alphaZ">     36.80884744 </i>
    <i name="ewald">  11887.29854092 </i>
    <i name="hartreedc"> -15036.00352602 </i>
    <i name="XCdc">    -80.16623440 </i>
    <i name="pawpsdc">   1157.60793692 </i>
    <i name="pawaedc">   -836.38567917 </i>
    <i name="eentropy">     -0.00000000 </i>
    <i name="bandstr">   -615.01271646 </i>
    <i name="atom">   3354.04126044 </i>
    <i name="e_fr_energy">   -131.81157032 </i>
    <i name="e_wo_entrp">   -131.81157032 </i>
    <i name="e_0_energy">   -131.81157032 </i>
   </energy>
  </scstep>
  <structure>
   <crystal>
    <varray name="basis" >
     <v>       3.54040000       0.00000000       0.00000000 </v>
     <v>      -1.77020000      10.29434800       0.00000000 </v>
     <v>       0.00000000       0.00000000      27.50142900 </v>
    </varray>
    <i name="volume">   1002.32009712 </i>
    <varray name="rec_basis" >
     <v>       0.28245396       0.04857034       0.00000000 </v>
     <v>       0.00000000       0.09714068       0.00000000 </v>
     <v>       0.00000000       0.00000000       0.03636175 </v>
    </varray>
   </crystal>
   <varray name="positions" >
    <v>       0.11402300       0.22804500       0.23316207 </v>
    <v>       0.11402300       0.22804500       0.51499159 </v>
    <v>       0.45808900       0.91617900       0.20939482 </v>
    <v>       0.45808900       0.91617900       0.49122434 </v>
    <v>       0.31085400       0.62170900       0.08414979 </v>
    <v>       0.31085400       0.62170900       0.36597930 </v>
    <v>       0.99923000       0.99846000       0.08631254 </v>
    <v>       0.99923000       0.99846000       0.36814206 </v>
    <v>       0.65492700       0.30985400       0.06041748 </v>
    <v>       0.65492700       0.30985400       0.34224700 </v>
    <v>       0.76973800       0.53947500       0.20725292 </v>
    <v>       0.76973800       0.53947500       0.48908244 </v>
    <v>       0.93971600       0.87943300       0.15783749 </v>
    <v>       0.93971600       0.87943300       0.43966701 </v>
    <v>       0.20515200       0.41030300       0.18578822 </v>
    <v>       0.20515200       0.41030300       0.46761774 </v>
    <v>       0.20184900       0.40369900       0.09969156 </v>
    <v>       0.20184900       0.40369900       0.38152107 </v>
    <v>       0.56380500       0.12761000       0.10779021 </v>
    <v>       0.56380500       0.12761000       0.38961973 </v>
    <v>       0.56710600       0.13421200       0.19387616 </v>
    <v>       0.56710600       0.13421200       0.47570568 </v>
    <v>       0.82923400       0.65846800       0.13571444 </v>
    <v>       0.82923400       0.65846800       0.41754396 </v>
   </varray>
  </structure>
  <varray name="forces" >
   <v>       0.00000000      -0.06270444      -0.03667930 </v>
   <v>       0.00000000      -0.00373266      -0.00637665 </v>
   <v>       0.00000000      -0.01957082       0.07796014 </v>
   <v>       0.00000000       0.01045700      -0.01250979 </v>
   <v>       0.00000000      -0.01046169       0.01595415 </v>
   <v>       0.00000000       0.02053173      -0.07615136 </v>
   <v>      -0.00000000      -0.00257387      -0.00513208 </v>
   <v>       0.00000000      -0.00616488      -0.08530105 </v>
   <v>       0.00000000       0.00320058       0.00424668 </v>
   <v>      -0.00000000       0.06263545       0.03572530 </v>
   <v>       0.00000000       0.00730798       0.08717447 </v>
   <v>       0.00000000       0.00313024       0.00502828 </v>
   <v>       0.00000000       0.00891316       0.00757261 </v>
   <v>      -0.00000000      -0.02071925       0.00228608 </v>
   <v>       0.00000000      -0.00102957       0.04302604 </v>
   <v>       0.00000000       0.01741825      -0.00532533 </v>
   <v>       0.00000000      -0.00421462      -0.02193561 </v>
   <v>       0.00000000       0.01381770       0.02548078 </v>
   <v>       0.00000000      -0.01818490       0.00067903 </v>
   <v>       0.00000000      -0.00128159      -0.04678832 </v>
   <v>       0.00000000      -0.01376065      -0.02204807 </v>
   <v>       0.00000000       0.00342331       0.02434297 </v>
   <v>      -0.00000000       0.02209476      -0.00190661 </v>
   <v>      -0.00000000      -0.00853120      -0.00932234 </v>
  </varray>
  <varray name="stress" >
   <v>       1.10935724       0.00000000       0.00000000 </v>
   <v>       0.00000000       0.30242925       0.63644380 </v>
   <v>       0.00000000       0.63644391      -2.69813979 </v>
  </varray>
  <energy>
   <i name="e_fr_energy">   -131.81157032 </i>
   <i name="e_wo_entrp">   -131.81157032 </i>
   <i name="e_0_energy">     -0.00000000 </i>
  </energy>
  <time name="totalsc"> 2358.51 2361.69</time>
  <eigenvalues>
   <array>
    <dimension dim="1">band</dimension>
    <dimension dim="2">kpoint</dimension>
    <dimension dim="3">spin</dimension>
    <field>eigene</field>
    <field>occ</field>
    <set>
     <set comment="spin 1">
      <set comment="kpoint 1">
       <r>  -13.5022    1.0000 </r>
       <r>  -13.4748    1.0000 </r>
       <r>  -12.7501    1.0000 </r>
       <r>  -12.7491    1.0000 </r>
       <r>  -12.4673    1.0000 </r>
       <r>  -12.3917    1.0000 </r>
       <r>  -12.0542    1.0000 </r>
       <r>  -12.0078    1.0000 </r>
       <r>  -11.3867    1.0000 </r>
       <r>  -11.3785    1.0000 </r>
       <r>  -10.9565    1.0000 </r>
       <r>  -10.9206    1.0000 </r>
       <r>   -8.0219    1.0000 </r>
       <r>   -7.9442    1.0000 </r>
       <r>   -7.7810    1.0000 </r>
       <r>   -7.7683    1.0000 </r>
       <r>   -6.8549    1.0000 </r>
       <r>   -6.7041    1.0000 </r>
       <r>   -6.4568    1.0000 </r>
       <r>   -6.4253    1.0000 </r>
       <r>   -5.7972    1.0000 </r>
       <r>   -5.7542    1.0000 </r>
       <r>   -4.7206    1.0000 </r>
       <r>   -4.6660    1.0000 </r>
       <r>   -3.9078    1.0000 </r>
       <r>   -3.6641    1.0000 </r>
       <r>   -3.6143    1.0000 </r>
       <r>   -3.4377    1.0000 </r>
       <r>   -3.0893    1.0000 </r>
       <r>   -3.0169    1.0000 </r>
       <r>   -2.9898    1.0000 </r>
       <r>   -2.8201    1.0000 </r>
       <r>   -2.7932    1.0000 </r>
       <r>   -2.7923    1.0000 </r>
       <r>   -2.4162    1.0000 </r>
       <r>   -2.3767    1.0000 </r>
       <r>   -2.3606    1.0000 </r>
       <r>   -2.3097    1.0000 </r>
       <r>   -2.0867    1.0000 </r>
       <r>   -1.9654    1.0000 </r>
       <r>   -1.8736    1.0000 </r>
       <r>   -1.7219    1.0000 </r>
       <r>   -1.6877    1.0000 </r>
       <r>   -1.6698    1.0000 </r>
       <r>   -1.5938    1.0000 </r>
       <r>   -1.5867    1.0000 </r>
       <r>   -1.5670    1.0000 </r>
       <r>   -1.5093    1.0000 </r>
       <r>   -1.3865    1.0000 </r>
       <r>   -1.3727    1.0000 </r>
       <r>   -1.3028    1.0000 </r>
       <r>   -1.1122    1.0000 </r>
       <r>   -1.0812    1.0000 </r>
       <r>   -0.5354    1.0000 </r>
       <r>    1.1324    0.0000 </r>
       <r>    1.3040    0.0000 </r>
       <r>    1.3392    0.0000 </r>
       <r>    1.3967    0.0000 </r>
       <r>    1.7166    0.0000 </r>
       <r>    1.8040    0.0000 </r>
       <r>    2.0076    0.0000 </r>
       <r>    2.0164    0.0000 </r>
       <r>    2.0552    0.0000 </r>
       <r>    2.3002    0.0000 </r>
       <r>    2.4621    0.0000 </r>
       <r>    2.4989    0.0000 </r>
       <r>    2.6478    0.0000 </r>
       <r>    2.7711    0.0000 </r>
      </set>
      <set comment="kpoint 2">
       <r>  -13.4409    1.0000 </r>
       <r>  -13.4135    1.0000 </r>
       <r>  -12.6990    1.0000 </r>
       <r>  -12.6959    1.0000 </r>
       <r>  -12.4116    1.0000 </r>
       <r>  -12.3361    1.0000 </r>
       <r>  -11.9918    1.0000 </r>
       <r>  -11.9457    1.0000 </r>
       <r>  -11.3379    1.0000 </r>
       <r>  -11.3294    1.0000 </r>
       <r>  -10.9079    1.0000 </r>
       <r>  -10.8724    1.0000 </r>
       <r>   -8.0506    1.0000 </r>
       <r>   -7.9888    1.0000 </r>
       <r>   -7.7543    1.0000 </r>
       <r>   -7.7210    1.0000 </r>
       <r>   -6.8197    1.0000 </r>
       <r>   -6.6731    1.0000 </r>
       <r>   -6.4506    1.0000 </r>
       <r>   -6.4197    1.0000 </r>
       <r>   -5.7642    1.0000 </r>
       <r>   -5.7193    1.0000 </r>
       <r>   -4.7228    1.0000 </r>
       <r>   -4.6709    1.0000 </r>
       <r>   -3.8859    1.0000 </r>
       <r>   -3.6769    1.0000 </r>
       <r>   -3.6533    1.0000 </r>
       <r>   -3.5672    1.0000 </r>
       <r>   -3.4296    1.0000 </r>
       <r>   -3.3190    1.0000 </r>
       <r>   -3.2228    1.0000 </r>
       <r>   -3.1944    1.0000 </r>
       <r>   -3.1194    1.0000 </r>
       <r>   -2.8972    1.0000 </r>
       <r>   -2.6893    1.0000 </r>
       <r>   -2.6667    1.0000 </r>
       <r>   -2.4404    1.0000 </r>
       <r>   -2.4123    1.0000 </r>
       <r>   -2.1734    1.0000 </r>
       <r>   -2.1422    1.0000 </r>
       <r>   -2.0494    1.0000 </r>
       <r>   -1.9536    1.0000 </r>
       <r>   -1.9164    1.0000 </r>
       <r>   -1.9157    1.0000 </r>
       <r>   -1.8026    1.0000 </r>
       <r>   -1.7845    1.0000 </r>
       <r>   -1.7450    1.0000 </r>
       <r>   -1.6094    1.0000 </r>
       <r>   -1.4889    1.0000 </r>
       <r>   -1.4293    1.0000 </r>
       <r>   -1.2092    1.0000 </r>
       <r>   -1.0737    1.0000 </r>
       <r>   -1.0393    1.0000 </r>
       <r>   -0.4925    1.0000 </r>
       <r>    1.5442    0.0000 </r>
       <r>    1.6743    0.0000 </r>
       <r>    1.7880    0.0000 </r>
       <r>    1.8331    0.0000 </r>
       <r>    2.1063    0.0000 </r>
       <r>    2.1762    0.0000 </r>
       <r>    2.2340    0.0000 </r>
       <r>    2.2560    0.0000 </r>
       <r>    2.2951    0.0000 </r>
       <r>    2.4400    0.0000 </r>
       <r>    2.6466    0.0000 </r>
       <r>    2.6598    0.0000 </r>
       <r>    2.8125    0.0000 </r>
       <r>    2.8254    0.0000 </r>
      </set>
      <set comment="kpoint 3">
       <r>  -13.2578    1.0000 </r>
       <r>  -13.2305    1.0000 </r>
       <r>  -12.5445    1.0000 </r>
       <r>  -12.5390    1.0000 </r>
       <r>  -12.2465    1.0000 </r>
       <r>  -12.1714    1.0000 </r>
       <r>  -11.8088    1.0000 </r>
       <r>  -11.7637    1.0000 </r>
       <r>  -11.1964    1.0000 </r>
       <r>  -11.1872    1.0000 </r>
       <r>  -10.7685    1.0000 </r>
       <r>  -10.7342    1.0000 </r>
       <r>   -8.1352    1.0000 </r>
       <r>   -8.0958    1.0000 </r>
       <r>   -7.7172    1.0000 </r>
       <r>   -7.6749    1.0000 </r>
       <r>   -6.7369    1.0000 </r>
       <r>   -6.6034    1.0000 </r>
       <r>   -6.4612    1.0000 </r>
       <r>   -6.4326    1.0000 </r>
       <r>   -5.6908    1.0000 </r>
       <r>   -5.6422    1.0000 </r>
       <r>   -4.8275    1.0000 </r>
       <r>   -4.8031    1.0000 </r>
       <r>   -4.1848    1.0000 </r>
       <r>   -4.1560    1.0000 </r>
       <r>   -4.0400    1.0000 </r>
       <r>   -4.0259    1.0000 </r>
       <r>   -3.9567    1.0000 </r>
       <r>   -3.9042    1.0000 </r>
       <r>   -3.6907    1.0000 </r>
       <r>   -3.6457    1.0000 </r>
       <r>   -3.4731    1.0000 </r>
       <r>   -3.2225    1.0000 </r>
       <r>   -3.1237    1.0000 </r>
       <r>   -2.9862    1.0000 </r>
       <r>   -2.9423    1.0000 </r>
       <r>   -2.8851    1.0000 </r>
       <r>   -2.8788    1.0000 </r>
       <r>   -2.6179    1.0000 </r>
       <r>   -2.3369    1.0000 </r>
       <r>   -2.3224    1.0000 </r>
       <r>   -2.1113    1.0000 </r>
       <r>   -2.0892    1.0000 </r>
       <r>   -1.9521    1.0000 </r>
       <r>   -1.8718    1.0000 </r>
       <r>   -1.7764    1.0000 </r>
       <r>   -1.6501    1.0000 </r>
       <r>   -1.6262    1.0000 </r>
       <r>   -1.5582    1.0000 </r>
       <r>   -1.1990    1.0000 </r>
       <r>   -1.1398    1.0000 </r>
       <r>   -1.0639    1.0000 </r>
       <r>   -0.5714    1.0000 </r>
       <r>    1.9462    0.0000 </r>
       <r>    1.9786    0.0000 </r>
       <r>    2.2395    0.0000 </r>
       <r>    2.3293    0.0000 </r>
       <r>    2.4656    0.0000 </r>
       <r>    2.4901    0.0000 </r>
       <r>    2.6264    0.0000 </r>
       <r>    2.6668    0.0000 </r>
       <r>    2.7374    0.0000 </r>
       <r>    2.7524    0.0000 </r>
       <r>    2.9421    0.0000 </r>
       <r>    3.0123    0.0000 </r>
       <r>    3.0944    0.0000 </r>
       <r>    3.1526    0.0000 </r>
      </set>
      <set comment="kpoint 4">
       <r>  -12.9565    1.0000 </r>
       <r>  -12.9296    1.0000 </r>
       <r>  -12.2891    1.0000 </r>
       <r>  -12.2818    1.0000 </r>
       <r>  -11.9788    1.0000 </r>
       <r>  -11.9052    1.0000 </r>
       <r>  -11.5199    1.0000 </r>
       <r>  -11.4766    1.0000 </r>
       <r>  -10.9802    1.0000 </r>
       <r>  -10.9700    1.0000 </r>
       <r>  -10.5638    1.0000 </r>
       <r>  -10.5328    1.0000 </r>
       <r>   -8.3167    1.0000 </r>
       <r>   -8.2963    1.0000 </r>
       <r>   -7.7859    1.0000 </r>
       <r>   -7.7546    1.0000 </r>
       <r>   -6.6930    1.0000 </r>
       <r>   -6.6060    1.0000 </r>
       <r>   -6.5769    1.0000 </r>
       <r>   -6.5673    1.0000 </r>
       <r>   -5.7102    1.0000 </r>
       <r>   -5.6636    1.0000 </r>
       <r>   -5.2925    1.0000 </r>
       <r>   -5.2815    1.0000 </r>
       <r>   -4.7838    1.0000 </r>
       <r>   -4.7374    1.0000 </r>
       <r>   -4.5683    1.0000 </r>
       <r>   -4.5531    1.0000 </r>
       <r>   -4.4611    1.0000 </r>
       <r>   -4.4476    1.0000 </r>
       <r>   -4.1456    1.0000 </r>
       <r>   -4.1189    1.0000 </r>
       <r>   -3.7845    1.0000 </r>
       <r>   -3.6978    1.0000 </r>
       <r>   -3.4253    1.0000 </r>
       <r>   -3.4103    1.0000 </r>
       <r>   -3.2741    1.0000 </r>
       <r>   -2.9953    1.0000 </r>
       <r>   -2.9030    1.0000 </r>
       <r>   -2.7250    1.0000 </r>
       <r>   -2.5508    1.0000 </r>
       <r>   -2.4610    1.0000 </r>
       <r>   -2.4051    1.0000 </r>
       <r>   -2.3332    1.0000 </r>
       <r>   -1.8929    1.0000 </r>
       <r>   -1.8566    1.0000 </r>
       <r>   -1.8288    1.0000 </r>
       <r>   -1.7353    1.0000 </r>
       <r>   -1.6991    1.0000 </r>
       <r>   -1.6266    1.0000 </r>
       <r>   -1.4251    1.0000 </r>
       <r>   -1.3821    1.0000 </r>
       <r>   -1.1869    1.0000 </r>
       <r>   -0.8079    1.0000 </r>
       <r>    1.8247    0.0000 </r>
       <r>    1.9325    0.0000 </r>
       <r>    2.0227    0.0000 </r>
       <r>    2.1216    0.0000 </r>
       <r>    2.1953    0.0000 </r>
       <r>    2.3454    0.0000 </r>
       <r>    2.4084    0.0000 </r>
       <r>    2.4589    0.0000 </r>
       <r>    2.6761    0.0000 </r>
       <r>    2.7611    0.0000 </r>
       <r>    2.9165    0.0000 </r>
       <r>    2.9550    0.0000 </r>
       <r>    2.9752    0.0000 </r>
       <r>    3.0665    0.0000 </r>
      </set>
      <set comment="kpoint 5">
       <r>  -12.5443    1.0000 </r>
       <r>  -12.5180    1.0000 </r>
       <r>  -11.9413    1.0000 </r>
       <r>  -11.9330    1.0000 </r>
       <r>  -11.6248    1.0000 </r>
       <r>  -11.5550    1.0000 </r>
       <r>  -11.1591    1.0000 </r>
       <r>  -11.1200    1.0000 </r>
       <r>  -10.7363    1.0000 </r>
       <r>  -10.7259    1.0000 </r>
       <r>  -10.3736    1.0000 </r>
       <r>  -10.3515    1.0000 </r>
       <r>   -8.6074    1.0000 </r>
       <r>   -8.5952    1.0000 </r>
       <r>   -8.0411    1.0000 </r>
       <r>   -8.0210    1.0000 </r>
       <r>   -6.9604    1.0000 </r>
       <r>   -6.9300    1.0000 </r>
       <r>   -6.8685    1.0000 </r>
       <r>   -6.8220    1.0000 </r>
       <r>   -6.1223    1.0000 </r>
       <r>   -6.1030    1.0000 </r>
       <r>   -5.9262    1.0000 </r>
       <r>   -5.8940    1.0000 </r>
       <r>   -5.1735    1.0000 </r>
       <r>   -5.1452    1.0000 </r>
       <r>   -4.7772    1.0000 </r>
       <r>   -4.7167    1.0000 </r>
       <r>   -4.6636    1.0000 </r>
       <r>   -4.6255    1.0000 </r>
       <r>   -4.3159    1.0000 </r>
       <r>   -4.2227    1.0000 </r>
       <r>   -4.1938    1.0000 </r>
       <r>   -4.1361    1.0000 </r>
       <r>   -3.3460    1.0000 </r>
       <r>   -3.3373    1.0000 </r>
       <r>   -3.1258    1.0000 </r>
       <r>   -3.0351    1.0000 </r>
       <r>   -3.0043    1.0000 </r>
       <r>   -2.8757    1.0000 </r>
       <r>   -2.7570    1.0000 </r>
       <r>   -2.6396    1.0000 </r>
       <r>   -2.5273    1.0000 </r>
       <r>   -2.3831    1.0000 </r>
       <r>   -2.0356    1.0000 </r>
       <r>   -1.9940    1.0000 </r>
       <r>   -1.8828    1.0000 </r>
       <r>   -1.8626    1.0000 </r>
       <r>   -1.8132    1.0000 </r>
       <r>   -1.7703    1.0000 </r>
       <r>   -1.6879    1.0000 </r>
       <r>   -1.6218    1.0000 </r>
       <r>   -1.3334    1.0000 </r>
       <r>   -1.1114    1.0000 </r>
       <r>    1.5653    0.0000 </r>
       <r>    1.6620    0.0000 </r>
       <r>    1.7764    0.0000 </r>
       <r>    1.8823    0.0000 </r>
       <r>    1.9756    0.0000 </r>
       <r>    2.0475    0.0000 </r>
       <r>    2.1789    0.0000 </r>
       <r>    2.3243    0.0000 </r>
       <r>    2.4005    0.0000 </r>
       <r>    2.4637    0.0000 </r>
       <r>    2.6849    0.0000 </r>
       <r>    2.7634    0.0000 </r>
       <r>    2.8526    0.0000 </r>
       <r>    2.9464    0.0000 </r>
      </set>
      <set comment="kpoint 6">
       <r>  -12.0352    1.0000 </r>
       <r>  -12.0102    1.0000 </r>
       <r>  -11.5221    1.0000 </r>
       <r>  -11.5140    1.0000 </r>
       <r>  -11.2218    1.0000 </r>
       <r>  -11.1611    1.0000 </r>
       <r>  -10.8092    1.0000 </r>
       <r>  -10.7827    1.0000 </r>
       <r>  -10.5807    1.0000 </r>
       <r>  -10.5733    1.0000 </r>
       <r>  -10.4038    1.0000 </r>
       <r>  -10.4016    1.0000 </r>
       <r>   -8.7829    1.0000 </r>
       <r>   -8.7732    1.0000 </r>
       <r>   -8.3342    1.0000 </r>
       <r>   -8.3129    1.0000 </r>
       <r>   -7.4209    1.0000 </r>
       <r>   -7.3967    1.0000 </r>
       <r>   -7.3774    1.0000 </r>
       <r>   -7.3427    1.0000 </r>
       <r>   -6.7114    1.0000 </r>
       <r>   -6.7074    1.0000 </r>
       <r>   -6.6260    1.0000 </r>
       <r>   -6.5903    1.0000 </r>
       <r>   -5.1758    1.0000 </r>
       <r>   -5.1462    1.0000 </r>
       <r>   -4.6571    1.0000 </r>
       <r>   -4.5294    1.0000 </r>
       <r>   -4.4985    1.0000 </r>
       <r>   -4.4507    1.0000 </r>
       <r>   -4.2245    1.0000 </r>
       <r>   -4.1463    1.0000 </r>
       <r>   -4.0446    1.0000 </r>
       <r>   -4.0001    1.0000 </r>
       <r>   -3.6155    1.0000 </r>
       <r>   -3.5936    1.0000 </r>
       <r>   -3.2269    1.0000 </r>
       <r>   -3.2077    1.0000 </r>
       <r>   -3.1393    1.0000 </r>
       <r>   -3.0762    1.0000 </r>
       <r>   -2.7574    1.0000 </r>
       <r>   -2.7291    1.0000 </r>
       <r>   -2.4950    1.0000 </r>
       <r>   -2.4133    1.0000 </r>
       <r>   -2.2680    1.0000 </r>
       <r>   -2.2134    1.0000 </r>
       <r>   -2.1247    1.0000 </r>
       <r>   -2.0101    1.0000 </r>
       <r>   -1.9747    1.0000 </r>
       <r>   -1.9629    1.0000 </r>
       <r>   -1.8172    1.0000 </r>
       <r>   -1.7300    1.0000 </r>
       <r>   -1.3450    1.0000 </r>
       <r>   -1.3256    1.0000 </r>
       <r>    1.3905    0.0000 </r>
       <r>    1.4847    0.0000 </r>
       <r>    1.6443    0.0000 </r>
       <r>    1.7271    0.0000 </r>
       <r>    1.7699    0.0000 </r>
       <r>    1.8338    0.0000 </r>
       <r>    2.0252    0.0000 </r>
       <r>    2.1851    0.0000 </r>
       <r>    2.2091    0.0000 </r>
       <r>    2.3032    0.0000 </r>
       <r>    2.3736    0.0000 </r>
       <r>    2.4763    0.0000 </r>
       <r>    2.6891    0.0000 </r>
       <r>    2.8177    0.0000 </r>
      </set>
      <set comment="kpoint 7">
       <r>  -11.4596    1.0000 </r>
       <r>  -11.4379    1.0000 </r>
       <r>  -11.0982    1.0000 </r>
       <r>  -11.0922    1.0000 </r>
       <r>  -10.8970    1.0000 </r>
       <r>  -10.8856    1.0000 </r>
       <r>  -10.7984    1.0000 </r>
       <r>  -10.7852    1.0000 </r>
       <r>  -10.6791    1.0000 </r>
       <r>  -10.6720    1.0000 </r>
       <r>  -10.5885    1.0000 </r>
       <r>  -10.5777    1.0000 </r>
       <r>   -8.6464    1.0000 </r>
       <r>   -8.6274    1.0000 </r>
       <r>   -8.3972    1.0000 </r>
       <r>   -8.3750    1.0000 </r>
       <r>   -8.0357    1.0000 </r>
       <r>   -8.0167    1.0000 </r>
       <r>   -7.5231    1.0000 </r>
       <r>   -7.5139    1.0000 </r>
       <r>   -7.2365    1.0000 </r>
       <r>   -7.2308    1.0000 </r>
       <r>   -7.1340    1.0000 </r>
       <r>   -7.1225    1.0000 </r>
       <r>   -4.8819    1.0000 </r>
       <r>   -4.8510    1.0000 </r>
       <r>   -4.4690    1.0000 </r>
       <r>   -4.4407    1.0000 </r>
       <r>   -4.2726    1.0000 </r>
       <r>   -4.1714    1.0000 </r>
       <r>   -4.0411    1.0000 </r>
       <r>   -3.9781    1.0000 </r>
       <r>   -3.9239    1.0000 </r>
       <r>   -3.8541    1.0000 </r>
       <r>   -3.7832    1.0000 </r>
       <r>   -3.7730    1.0000 </r>
       <r>   -3.5323    1.0000 </r>
       <r>   -3.5094    1.0000 </r>
       <r>   -3.2081    1.0000 </r>
       <r>   -3.1996    1.0000 </r>
       <r>   -2.9840    1.0000 </r>
       <r>   -2.9190    1.0000 </r>
       <r>   -2.6618    1.0000 </r>
       <r>   -2.6206    1.0000 </r>
       <r>   -2.3314    1.0000 </r>
       <r>   -2.2939    1.0000 </r>
       <r>   -2.1761    1.0000 </r>
       <r>   -2.1338    1.0000 </r>
       <r>   -2.0735    1.0000 </r>
       <r>   -2.0254    1.0000 </r>
       <r>   -1.7143    1.0000 </r>
       <r>   -1.5770    1.0000 </r>
       <r>   -1.5017    1.0000 </r>
       <r>   -1.4098    1.0000 </r>
       <r>    1.3797    0.0000 </r>
       <r>    1.4206    0.0000 </r>
       <r>    1.5492    0.0000 </r>
       <r>    1.5766    0.0000 </r>
       <r>    1.6760    0.0000 </r>
       <r>    1.7624    0.0000 </r>
       <r>    1.8483    0.0000 </r>
       <r>    1.9833    0.0000 </r>
       <r>    2.0853    0.0000 </r>
       <r>    2.1875    0.0000 </r>
       <r>    2.3692    0.0000 </r>
       <r>    2.4664    0.0000 </r>
       <r>    2.5226    0.0000 </r>
       <r>    2.6078    0.0000 </r>
      </set>
      <set comment="kpoint 8">
       <r>  -13.4475    1.0000 </r>
       <r>  -13.4186    1.0000 </r>
       <r>  -12.9289    1.0000 </r>
       <r>  -12.9176    1.0000 </r>
       <r>  -12.4669    1.0000 </r>
       <r>  -12.3872    1.0000 </r>
       <r>  -11.8398    1.0000 </r>
       <r>  -11.7988    1.0000 </r>
       <r>  -11.4319    1.0000 </r>
       <r>  -11.4230    1.0000 </r>
       <r>  -10.9629    1.0000 </r>
       <r>  -10.9318    1.0000 </r>
       <r>   -8.4781    1.0000 </r>
       <r>   -8.4507    1.0000 </r>
       <r>   -7.3989    1.0000 </r>
       <r>   -7.2561    1.0000 </r>
       <r>   -6.6376    1.0000 </r>
       <r>   -6.6047    1.0000 </r>
       <r>   -6.5894    1.0000 </r>
       <r>   -6.5126    1.0000 </r>
       <r>   -5.7313    1.0000 </r>
       <r>   -5.6653    1.0000 </r>
       <r>   -4.6372    1.0000 </r>
       <r>   -4.5470    1.0000 </r>
       <r>   -4.0288    1.0000 </r>
       <r>   -3.9399    1.0000 </r>
       <r>   -3.7333    1.0000 </r>
       <r>   -3.4205    1.0000 </r>
       <r>   -3.2602    1.0000 </r>
       <r>   -3.0868    1.0000 </r>
       <r>   -3.0643    1.0000 </r>
       <r>   -2.9571    1.0000 </r>
       <r>   -2.6617    1.0000 </r>
       <r>   -2.6535    1.0000 </r>
       <r>   -2.3619    1.0000 </r>
       <r>   -2.3373    1.0000 </r>
       <r>   -2.3130    1.0000 </r>
       <r>   -2.2967    1.0000 </r>
       <r>   -2.1999    1.0000 </r>
       <r>   -2.0227    1.0000 </r>
       <r>   -1.9233    1.0000 </r>
       <r>   -1.9109    1.0000 </r>
       <r>   -1.8425    1.0000 </r>
       <r>   -1.8191    1.0000 </r>
       <r>   -1.5786    1.0000 </r>
       <r>   -1.5747    1.0000 </r>
       <r>   -1.4916    1.0000 </r>
       <r>   -1.3269    1.0000 </r>
       <r>   -1.3187    1.0000 </r>
       <r>   -1.3022    1.0000 </r>
       <r>   -1.1829    1.0000 </r>
       <r>   -1.0586    1.0000 </r>
       <r>   -1.0008    1.0000 </r>
       <r>   -0.4644    1.0000 </r>
       <r>    1.1944    0.0000 </r>
       <r>    1.3017    0.0000 </r>
       <r>    1.3666    0.0000 </r>
       <r>    1.4989    0.0000 </r>
       <r>    1.7366    0.0000 </r>
       <r>    1.7519    0.0000 </r>
       <r>    1.8129    0.0000 </r>
       <r>    1.9651    0.0000 </r>
       <r>    2.2892    0.0000 </r>
       <r>    2.3172    0.0000 </r>
       <r>    2.5386    0.0000 </r>
       <r>    2.6569    0.0000 </r>
       <r>    2.7146    0.0000 </r>
       <r>    2.7428    0.0000 </r>
      </set>
      <set comment="kpoint 9">
       <r>  -13.3709    1.0000 </r>
       <r>  -13.3413    1.0000 </r>
       <r>  -12.9098    1.0000 </r>
       <r>  -12.8986    1.0000 </r>
       <r>  -12.4098    1.0000 </r>
       <r>  -12.3300    1.0000 </r>
       <r>  -11.7393    1.0000 </r>
       <r>  -11.6995    1.0000 </r>
       <r>  -11.3901    1.0000 </r>
       <r>  -11.3820    1.0000 </r>
       <r>  -10.9179    1.0000 </r>
       <r>  -10.8883    1.0000 </r>
       <r>   -8.5343    1.0000 </r>
       <r>   -8.5114    1.0000 </r>
       <r>   -7.3514    1.0000 </r>
       <r>   -7.2023    1.0000 </r>
       <r>   -6.6455    1.0000 </r>
       <r>   -6.6104    1.0000 </r>
       <r>   -6.5149    1.0000 </r>
       <r>   -6.4458    1.0000 </r>
       <r>   -5.6829    1.0000 </r>
       <r>   -5.6163    1.0000 </r>
       <r>   -4.6729    1.0000 </r>
       <r>   -4.6051    1.0000 </r>
       <r>   -4.0736    1.0000 </r>
       <r>   -4.0232    1.0000 </r>
       <r>   -3.7001    1.0000 </r>
       <r>   -3.5867    1.0000 </r>
       <r>   -3.5223    1.0000 </r>
       <r>   -3.3612    1.0000 </r>
       <r>   -3.3205    1.0000 </r>
       <r>   -3.0516    1.0000 </r>
       <r>   -2.9784    1.0000 </r>
       <r>   -2.9369    1.0000 </r>
       <r>   -2.6603    1.0000 </r>
       <r>   -2.6102    1.0000 </r>
       <r>   -2.4557    1.0000 </r>
       <r>   -2.4276    1.0000 </r>
       <r>   -2.2958    1.0000 </r>
       <r>   -2.2270    1.0000 </r>
       <r>   -2.1716    1.0000 </r>
       <r>   -2.0493    1.0000 </r>
       <r>   -1.9853    1.0000 </r>
       <r>   -1.9217    1.0000 </r>
       <r>   -1.7998    1.0000 </r>
       <r>   -1.7709    1.0000 </r>
       <r>   -1.7190    1.0000 </r>
       <r>   -1.6679    1.0000 </r>
       <r>   -1.3846    1.0000 </r>
       <r>   -1.2657    1.0000 </r>
       <r>   -1.0973    1.0000 </r>
       <r>   -1.0152    1.0000 </r>
       <r>   -0.9538    1.0000 </r>
       <r>   -0.4260    1.0000 </r>
       <r>    1.5912    0.0000 </r>
       <r>    1.6455    0.0000 </r>
       <r>    1.7935    0.0000 </r>
       <r>    1.8386    0.0000 </r>
       <r>    1.9929    0.0000 </r>
       <r>    2.0304    0.0000 </r>
       <r>    2.2529    0.0000 </r>
       <r>    2.2684    0.0000 </r>
       <r>    2.5313    0.0000 </r>
       <r>    2.6185    0.0000 </r>
       <r>    2.6889    0.0000 </r>
       <r>    2.7227    0.0000 </r>
       <r>    2.9057    0.0000 </r>
       <r>    3.0243    0.0000 </r>
      </set>
      <set comment="kpoint 10">
       <r>  -13.1746    1.0000 </r>
       <r>  -13.1444    1.0000 </r>
       <r>  -12.7731    1.0000 </r>
       <r>  -12.7624    1.0000 </r>
       <r>  -12.2430    1.0000 </r>
       <r>  -12.1640    1.0000 </r>
       <r>  -11.5403    1.0000 </r>
       <r>  -11.5023    1.0000 </r>
       <r>  -11.2499    1.0000 </r>
       <r>  -11.2430    1.0000 </r>
       <r>  -10.7758    1.0000 </r>
       <r>  -10.7479    1.0000 </r>
       <r>   -8.5959    1.0000 </r>
       <r>   -8.5808    1.0000 </r>
       <r>   -7.3110    1.0000 </r>
       <r>   -7.1830    1.0000 </r>
       <r>   -6.6214    1.0000 </r>
       <r>   -6.5894    1.0000 </r>
       <r>   -6.4793    1.0000 </r>
       <r>   -6.4163    1.0000 </r>
       <r>   -5.6324    1.0000 </r>
       <r>   -5.5717    1.0000 </r>
       <r>   -4.8154    1.0000 </r>
       <r>   -4.7693    1.0000 </r>
       <r>   -4.3404    1.0000 </r>
       <r>   -4.3261    1.0000 </r>
       <r>   -4.2664    1.0000 </r>
       <r>   -4.2168    1.0000 </r>
       <r>   -3.9554    1.0000 </r>
       <r>   -3.9051    1.0000 </r>
       <r>   -3.6341    1.0000 </r>
       <r>   -3.5379    1.0000 </r>
       <r>   -3.4186    1.0000 </r>
       <r>   -3.1188    1.0000 </r>
       <r>   -2.9963    1.0000 </r>
       <r>   -2.9256    1.0000 </r>
       <r>   -2.9009    1.0000 </r>
       <r>   -2.8051    1.0000 </r>
       <r>   -2.7310    1.0000 </r>
       <r>   -2.5983    1.0000 </r>
       <r>   -2.5584    1.0000 </r>
       <r>   -2.5048    1.0000 </r>
       <r>   -2.2751    1.0000 </r>
       <r>   -2.2529    1.0000 </r>
       <r>   -2.0110    1.0000 </r>
       <r>   -1.8705    1.0000 </r>
       <r>   -1.8329    1.0000 </r>
       <r>   -1.7632    1.0000 </r>
       <r>   -1.4648    1.0000 </r>
       <r>   -1.4111    1.0000 </r>
       <r>   -1.1351    1.0000 </r>
       <r>   -1.0373    1.0000 </r>
       <r>   -1.0260    1.0000 </r>
       <r>   -0.5108    1.0000 </r>
       <r>    1.6732    0.0000 </r>
       <r>    1.7052    0.0000 </r>
       <r>    2.1081    0.0000 </r>
       <r>    2.1919    0.0000 </r>
       <r>    2.3679    0.0000 </r>
       <r>    2.4234    0.0000 </r>
       <r>    2.7450    0.0000 </r>
       <r>    2.8064    0.0000 </r>
       <r>    2.8541    0.0000 </r>
       <r>    2.9943    0.0000 </r>
       <r>    3.0435    0.0000 </r>
       <r>    3.1088    0.0000 </r>
       <r>    3.1473    0.0000 </r>
       <r>    3.1827    0.0000 </r>
      </set>
      <set comment="kpoint 11">
       <r>  -12.8633    1.0000 </r>
       <r>  -12.8326    1.0000 </r>
       <r>  -12.5212    1.0000 </r>
       <r>  -12.5116    1.0000 </r>
       <r>  -11.9743    1.0000 </r>
       <r>  -11.8974    1.0000 </r>
       <r>  -11.2620    1.0000 </r>
       <r>  -11.2270    1.0000 </r>
       <r>  -11.0271    1.0000 </r>
       <r>  -11.0219    1.0000 </r>
       <r>  -10.5572    1.0000 </r>
       <r>  -10.5319    1.0000 </r>
       <r>   -8.7228    1.0000 </r>
       <r>   -8.7159    1.0000 </r>
       <r>   -7.3757    1.0000 </r>
       <r>   -7.2998    1.0000 </r>
       <r>   -6.6603    1.0000 </r>
       <r>   -6.6302    1.0000 </r>
       <r>   -6.6148    1.0000 </r>
       <r>   -6.5681    1.0000 </r>
       <r>   -5.8007    1.0000 </r>
       <r>   -5.7432    1.0000 </r>
       <r>   -5.1627    1.0000 </r>
       <r>   -5.1508    1.0000 </r>
       <r>   -4.9938    1.0000 </r>
       <r>   -4.9603    1.0000 </r>
       <r>   -4.6289    1.0000 </r>
       <r>   -4.6003    1.0000 </r>
       <r>   -4.5507    1.0000 </r>
       <r>   -4.4524    1.0000 </r>
       <r>   -4.0055    1.0000 </r>
       <r>   -3.9409    1.0000 </r>
       <r>   -3.7361    1.0000 </r>
       <r>   -3.6525    1.0000 </r>
       <r>   -3.2642    1.0000 </r>
       <r>   -3.1633    1.0000 </r>
       <r>   -3.1462    1.0000 </r>
       <r>   -3.0492    1.0000 </r>
       <r>   -3.0298    1.0000 </r>
       <r>   -2.7010    1.0000 </r>
       <r>   -2.6028    1.0000 </r>
       <r>   -2.4882    1.0000 </r>
       <r>   -2.4693    1.0000 </r>
       <r>   -2.3913    1.0000 </r>
       <r>   -2.0010    1.0000 </r>
       <r>   -1.9410    1.0000 </r>
       <r>   -1.8991    1.0000 </r>
       <r>   -1.7585    1.0000 </r>
       <r>   -1.7059    1.0000 </r>
       <r>   -1.7013    1.0000 </r>
       <r>   -1.3534    1.0000 </r>
       <r>   -1.3167    1.0000 </r>
       <r>   -1.1360    1.0000 </r>
       <r>   -0.7768    1.0000 </r>
       <r>    1.4239    0.0000 </r>
       <r>    1.5365    0.0000 </r>
       <r>    1.6289    0.0000 </r>
       <r>    1.6957    0.0000 </r>
       <r>    2.1366    0.0000 </r>
       <r>    2.3471    0.0000 </r>
       <r>    2.5283    0.0000 </r>
       <r>    2.6273    0.0000 </r>
       <r>    2.7218    0.0000 </r>
       <r>    2.8002    0.0000 </r>
       <r>    3.0309    0.0000 </r>
       <r>    3.1235    0.0000 </r>
       <r>    3.2350    0.0000 </r>
       <r>    3.3015    0.0000 </r>
      </set>
      <set comment="kpoint 12">
       <r>  -12.4466    1.0000 </r>
       <r>  -12.4155    1.0000 </r>
       <r>  -12.1613    1.0000 </r>
       <r>  -12.1534    1.0000 </r>
       <r>  -11.6206    1.0000 </r>
       <r>  -11.5486    1.0000 </r>
       <r>  -10.9450    1.0000 </r>
       <r>  -10.9161    1.0000 </r>
       <r>  -10.7624    1.0000 </r>
       <r>  -10.7592    1.0000 </r>
       <r>  -10.3485    1.0000 </r>
       <r>  -10.3297    1.0000 </r>
       <r>   -8.9229    1.0000 </r>
       <r>   -8.9137    1.0000 </r>
       <r>   -7.6661    1.0000 </r>
       <r>   -7.6407    1.0000 </r>
       <r>   -7.0735    1.0000 </r>
       <r>   -7.0483    1.0000 </r>
       <r>   -6.9287    1.0000 </r>
       <r>   -6.8882    1.0000 </r>
       <r>   -6.1666    1.0000 </r>
       <r>   -6.1139    1.0000 </r>
       <r>   -5.8777    1.0000 </r>
       <r>   -5.8533    1.0000 </r>
       <r>   -5.3427    1.0000 </r>
       <r>   -5.3162    1.0000 </r>
       <r>   -4.9090    1.0000 </r>
       <r>   -4.8657    1.0000 </r>
       <r>   -4.4465    1.0000 </r>
       <r>   -4.3565    1.0000 </r>
       <r>   -4.3182    1.0000 </r>
       <r>   -4.2209    1.0000 </r>
       <r>   -3.9723    1.0000 </r>
       <r>   -3.9479    1.0000 </r>
       <r>   -3.3070    1.0000 </r>
       <r>   -3.2751    1.0000 </r>
       <r>   -3.0610    1.0000 </r>
       <r>   -2.9577    1.0000 </r>
       <r>   -2.9329    1.0000 </r>
       <r>   -2.8190    1.0000 </r>
       <r>   -2.8075    1.0000 </r>
       <r>   -2.5475    1.0000 </r>
       <r>   -2.4785    1.0000 </r>
       <r>   -2.3807    1.0000 </r>
       <r>   -2.3054    1.0000 </r>
       <r>   -2.1766    1.0000 </r>
       <r>   -1.9430    1.0000 </r>
       <r>   -1.9159    1.0000 </r>
       <r>   -1.8699    1.0000 </r>
       <r>   -1.7580    1.0000 </r>
       <r>   -1.6974    1.0000 </r>
       <r>   -1.6864    1.0000 </r>
       <r>   -1.3175    1.0000 </r>
       <r>   -1.1466    1.0000 </r>
       <r>    1.2155    0.0000 </r>
       <r>    1.2758    0.0000 </r>
       <r>    1.2991    0.0000 </r>
       <r>    1.4425    0.0000 </r>
       <r>    2.1105    0.0000 </r>
       <r>    2.2141    0.0000 </r>
       <r>    2.2466    0.0000 </r>
       <r>    2.3849    0.0000 </r>
       <r>    2.4437    0.0000 </r>
       <r>    2.5541    0.0000 </r>
       <r>    2.6647    0.0000 </r>
       <r>    2.7209    0.0000 </r>
       <r>    2.9792    0.0000 </r>
       <r>    3.0594    0.0000 </r>
      </set>
      <set comment="kpoint 13">
       <r>  -11.9424    1.0000 </r>
       <r>  -11.9121    1.0000 </r>
       <r>  -11.7104    1.0000 </r>
       <r>  -11.7045    1.0000 </r>
       <r>  -11.2204    1.0000 </r>
       <r>  -11.1591    1.0000 </r>
       <r>  -10.6796    1.0000 </r>
       <r>  -10.6645    1.0000 </r>
       <r>  -10.5512    1.0000 </r>
       <r>  -10.5498    1.0000 </r>
       <r>  -10.4156    1.0000 </r>
       <r>  -10.4149    1.0000 </r>
       <r>   -8.9094    1.0000 </r>
       <r>   -8.9077    1.0000 </r>
       <r>   -8.0668    1.0000 </r>
       <r>   -8.0494    1.0000 </r>
       <r>   -7.7356    1.0000 </r>
       <r>   -7.7189    1.0000 </r>
       <r>   -7.3208    1.0000 </r>
       <r>   -7.2888    1.0000 </r>
       <r>   -6.6542    1.0000 </r>
       <r>   -6.6343    1.0000 </r>
       <r>   -6.6162    1.0000 </r>
       <r>   -6.5985    1.0000 </r>
       <r>   -5.3074    1.0000 </r>
       <r>   -5.2781    1.0000 </r>
       <r>   -4.7561    1.0000 </r>
       <r>   -4.7149    1.0000 </r>
       <r>   -4.5144    1.0000 </r>
       <r>   -4.3150    1.0000 </r>
       <r>   -4.1024    1.0000 </r>
       <r>   -4.0269    1.0000 </r>
       <r>   -3.8244    1.0000 </r>
       <r>   -3.7941    1.0000 </r>
       <r>   -3.3145    1.0000 </r>
       <r>   -3.2919    1.0000 </r>
       <r>   -3.2551    1.0000 </r>
       <r>   -3.2062    1.0000 </r>
       <r>   -3.0762    1.0000 </r>
       <r>   -3.0752    1.0000 </r>
       <r>   -2.8875    1.0000 </r>
       <r>   -2.8519    1.0000 </r>
       <r>   -2.6605    1.0000 </r>
       <r>   -2.5132    1.0000 </r>
       <r>   -2.3117    1.0000 </r>
       <r>   -2.2474    1.0000 </r>
       <r>   -2.1579    1.0000 </r>
       <r>   -2.0552    1.0000 </r>
       <r>   -2.0249    1.0000 </r>
       <r>   -1.9848    1.0000 </r>
       <r>   -1.8006    1.0000 </r>
       <r>   -1.7796    1.0000 </r>
       <r>   -1.4016    1.0000 </r>
       <r>   -1.3764    1.0000 </r>
       <r>    1.2114    0.0000 </r>
       <r>    1.2512    0.0000 </r>
       <r>    1.3463    0.0000 </r>
       <r>    1.3963    0.0000 </r>
       <r>    1.8423    0.0000 </r>
       <r>    1.8668    0.0000 </r>
       <r>    2.0283    0.0000 </r>
       <r>    2.0712    0.0000 </r>
       <r>    2.0883    0.0000 </r>
       <r>    2.3926    0.0000 </r>
       <r>    2.5895    0.0000 </r>
       <r>    2.6531    0.0000 </r>
       <r>    2.6828    0.0000 </r>
       <r>    2.7994    0.0000 </r>
      </set>
      <set comment="kpoint 14">
       <r>  -11.3902    1.0000 </r>
       <r>  -11.3646    1.0000 </r>
       <r>  -11.2143    1.0000 </r>
       <r>  -11.2102    1.0000 </r>
       <r>  -10.9051    1.0000 </r>
       <r>  -10.9043    1.0000 </r>
       <r>  -10.8225    1.0000 </r>
       <r>  -10.7996    1.0000 </r>
       <r>  -10.6480    1.0000 </r>
       <r>  -10.6456    1.0000 </r>
       <r>  -10.5323    1.0000 </r>
       <r>  -10.5250    1.0000 </r>
       <r>   -8.5053    1.0000 </r>
       <r>   -8.5014    1.0000 </r>
       <r>   -8.3568    1.0000 </r>
       <r>   -8.3399    1.0000 </r>
       <r>   -8.2864    1.0000 </r>
       <r>   -8.2598    1.0000 </r>
       <r>   -7.4680    1.0000 </r>
       <r>   -7.4613    1.0000 </r>
       <r>   -7.2685    1.0000 </r>
       <r>   -7.2556    1.0000 </r>
       <r>   -7.0902    1.0000 </r>
       <r>   -7.0870    1.0000 </r>
       <r>   -4.9823    1.0000 </r>
       <r>   -4.9551    1.0000 </r>
       <r>   -4.4375    1.0000 </r>
       <r>   -4.4108    1.0000 </r>
       <r>   -4.2475    1.0000 </r>
       <r>   -4.1402    1.0000 </r>
       <r>   -4.0662    1.0000 </r>
       <r>   -4.0345    1.0000 </r>
       <r>   -3.8923    1.0000 </r>
       <r>   -3.8695    1.0000 </r>
       <r>   -3.6265    1.0000 </r>
       <r>   -3.5917    1.0000 </r>
       <r>   -3.4570    1.0000 </r>
       <r>   -3.4262    1.0000 </r>
       <r>   -3.2202    1.0000 </r>
       <r>   -3.2060    1.0000 </r>
       <r>   -2.9581    1.0000 </r>
       <r>   -2.9163    1.0000 </r>
       <r>   -2.6181    1.0000 </r>
       <r>   -2.5724    1.0000 </r>
       <r>   -2.5584    1.0000 </r>
       <r>   -2.5332    1.0000 </r>
       <r>   -2.1733    1.0000 </r>
       <r>   -2.0807    1.0000 </r>
       <r>   -2.0748    1.0000 </r>
       <r>   -2.0494    1.0000 </r>
       <r>   -1.6798    1.0000 </r>
       <r>   -1.5800    1.0000 </r>
       <r>   -1.5553    1.0000 </r>
       <r>   -1.4204    1.0000 </r>
       <r>    1.4289    0.0000 </r>
       <r>    1.4413    0.0000 </r>
       <r>    1.4852    0.0000 </r>
       <r>    1.5732    0.0000 </r>
       <r>    1.5927    0.0000 </r>
       <r>    1.6221    0.0000 </r>
       <r>    1.7779    0.0000 </r>
       <r>    1.8714    0.0000 </r>
       <r>    2.1679    0.0000 </r>
       <r>    2.1749    0.0000 </r>
       <r>    2.3831    0.0000 </r>
       <r>    2.4346    0.0000 </r>
       <r>    2.5827    0.0000 </r>
       <r>    2.6555    0.0000 </r>
      </set>
      <set comment="kpoint 15">
       <r>  -11.4931    1.0000 </r>
       <r>  -11.4719    1.0000 </r>
       <r>  -11.0210    1.0000 </r>
       <r>  -11.0163    1.0000 </r>
       <r>  -10.8888    1.0000 </r>
       <r>  -10.8646    1.0000 </r>
       <r>  -10.7593    1.0000 </r>
       <r>  -10.7579    1.0000 </r>
       <r>  -10.7044    1.0000 </r>
       <r>  -10.7014    1.0000 </r>
       <r>  -10.6523    1.0000 </r>
       <r>  -10.6484    1.0000 </r>
       <r>   -8.7164    1.0000 </r>
       <r>   -8.6943    1.0000 </r>
       <r>   -8.3913    1.0000 </r>
       <r>   -8.3686    1.0000 </r>
       <r>   -7.8952    1.0000 </r>
       <r>   -7.8872    1.0000 </r>
       <r>   -7.5545    1.0000 </r>
       <r>   -7.5483    1.0000 </r>
       <r>   -7.2347    1.0000 </r>
       <r>   -7.2240    1.0000 </r>
       <r>   -7.1782    1.0000 </r>
       <r>   -7.1550    1.0000 </r>
       <r>   -4.7230    1.0000 </r>
       <r>   -4.6520    1.0000 </r>
       <r>   -4.5328    1.0000 </r>
       <r>   -4.5232    1.0000 </r>
       <r>   -4.3195    1.0000 </r>
       <r>   -4.3102    1.0000 </r>
       <r>   -4.0059    1.0000 </r>
       <r>   -3.9993    1.0000 </r>
       <r>   -3.9125    1.0000 </r>
       <r>   -3.8936    1.0000 </r>
       <r>   -3.8395    1.0000 </r>
       <r>   -3.8204    1.0000 </r>
       <r>   -3.6004    1.0000 </r>
       <r>   -3.5801    1.0000 </r>
       <r>   -3.3159    1.0000 </r>
       <r>   -3.2862    1.0000 </r>
       <r>   -2.7977    1.0000 </r>
       <r>   -2.7115    1.0000 </r>
       <r>   -2.6620    1.0000 </r>
       <r>   -2.6051    1.0000 </r>
       <r>   -2.3565    1.0000 </r>
       <r>   -2.3115    1.0000 </r>
       <r>   -2.1349    1.0000 </r>
       <r>   -2.1243    1.0000 </r>
       <r>   -2.1038    1.0000 </r>
       <r>   -2.0357    1.0000 </r>
       <r>   -1.7173    1.0000 </r>
       <r>   -1.5526    1.0000 </r>
       <r>   -1.4687    1.0000 </r>
       <r>   -1.3987    1.0000 </r>
       <r>    1.3708    0.0000 </r>
       <r>    1.4381    0.0000 </r>
       <r>    1.6054    0.0000 </r>
       <r>    1.6718    0.0000 </r>
       <r>    1.7143    0.0000 </r>
       <r>    1.7529    0.0000 </r>
       <r>    1.9203    0.0000 </r>
       <r>    1.9445    0.0000 </r>
       <r>    2.1885    0.0000 </r>
       <r>    2.3287    0.0000 </r>
       <r>    2.3809    0.0000 </r>
       <r>    2.4542    0.0000 </r>
       <r>    2.5972    0.0000 </r>
       <r>    2.6274    0.0000 </r>
      </set>
      <set comment="kpoint 16">
       <r>  -12.0615    1.0000 </r>
       <r>  -12.0371    1.0000 </r>
       <r>  -11.4353    1.0000 </r>
       <r>  -11.4317    1.0000 </r>
       <r>  -11.2194    1.0000 </r>
       <r>  -11.1599    1.0000 </r>
       <r>  -10.8911    1.0000 </r>
       <r>  -10.8609    1.0000 </r>
       <r>  -10.5835    1.0000 </r>
       <r>  -10.5762    1.0000 </r>
       <r>  -10.3995    1.0000 </r>
       <r>  -10.3969    1.0000 </r>
       <r>   -8.6958    1.0000 </r>
       <r>   -8.6843    1.0000 </r>
       <r>   -8.4424    1.0000 </r>
       <r>   -8.4318    1.0000 </r>
       <r>   -7.4032    1.0000 </r>
       <r>   -7.3762    1.0000 </r>
       <r>   -7.2804    1.0000 </r>
       <r>   -7.2683    1.0000 </r>
       <r>   -6.7639    1.0000 </r>
       <r>   -6.7543    1.0000 </r>
       <r>   -6.6305    1.0000 </r>
       <r>   -6.5934    1.0000 </r>
       <r>   -5.0331    1.0000 </r>
       <r>   -4.9754    1.0000 </r>
       <r>   -4.8196    1.0000 </r>
       <r>   -4.7707    1.0000 </r>
       <r>   -4.3661    1.0000 </r>
       <r>   -4.3520    1.0000 </r>
       <r>   -4.2555    1.0000 </r>
       <r>   -4.1799    1.0000 </r>
       <r>   -4.0525    1.0000 </r>
       <r>   -4.0230    1.0000 </r>
       <r>   -3.6793    1.0000 </r>
       <r>   -3.6644    1.0000 </r>
       <r>   -3.3617    1.0000 </r>
       <r>   -3.3446    1.0000 </r>
       <r>   -3.1558    1.0000 </r>
       <r>   -3.0862    1.0000 </r>
       <r>   -2.6919    1.0000 </r>
       <r>   -2.6863    1.0000 </r>
       <r>   -2.5201    1.0000 </r>
       <r>   -2.3968    1.0000 </r>
       <r>   -2.2363    1.0000 </r>
       <r>   -2.1822    1.0000 </r>
       <r>   -2.1224    1.0000 </r>
       <r>   -1.9792    1.0000 </r>
       <r>   -1.8973    1.0000 </r>
       <r>   -1.8905    1.0000 </r>
       <r>   -1.8034    1.0000 </r>
       <r>   -1.7025    1.0000 </r>
       <r>   -1.3371    1.0000 </r>
       <r>   -1.3025    1.0000 </r>
       <r>    1.3781    0.0000 </r>
       <r>    1.4457    0.0000 </r>
       <r>    1.6822    0.0000 </r>
       <r>    1.8816    0.0000 </r>
       <r>    1.9057    0.0000 </r>
       <r>    1.9859    0.0000 </r>
       <r>    2.0621    0.0000 </r>
       <r>    2.2515    0.0000 </r>
       <r>    2.2699    0.0000 </r>
       <r>    2.3623    0.0000 </r>
       <r>    2.4236    0.0000 </r>
       <r>    2.5471    0.0000 </r>
       <r>    2.5677    0.0000 </r>
       <r>    2.7213    0.0000 </r>
      </set>
      <set comment="kpoint 17">
       <r>  -12.5565    1.0000 </r>
       <r>  -12.5305    1.0000 </r>
       <r>  -11.8986    1.0000 </r>
       <r>  -11.8927    1.0000 </r>
       <r>  -11.6241    1.0000 </r>
       <r>  -11.5553    1.0000 </r>
       <r>  -11.2061    1.0000 </r>
       <r>  -11.1655    1.0000 </r>
       <r>  -10.7281    1.0000 </r>
       <r>  -10.7177    1.0000 </r>
       <r>  -10.3800    1.0000 </r>
       <r>  -10.3572    1.0000 </r>
       <r>   -8.5091    1.0000 </r>
       <r>   -8.4958    1.0000 </r>
       <r>   -8.1428    1.0000 </r>
       <r>   -8.1246    1.0000 </r>
       <r>   -6.9653    1.0000 </r>
       <r>   -6.9331    1.0000 </r>
       <r>   -6.8428    1.0000 </r>
       <r>   -6.7897    1.0000 </r>
       <r>   -6.1116    1.0000 </r>
       <r>   -6.1003    1.0000 </r>
       <r>   -5.9357    1.0000 </r>
       <r>   -5.9022    1.0000 </r>
       <r>   -5.1123    1.0000 </r>
       <r>   -5.0838    1.0000 </r>
       <r>   -4.8594    1.0000 </r>
       <r>   -4.8169    1.0000 </r>
       <r>   -4.6067    1.0000 </r>
       <r>   -4.5776    1.0000 </r>
       <r>   -4.3085    1.0000 </r>
       <r>   -4.2312    1.0000 </r>
       <r>   -4.2207    1.0000 </r>
       <r>   -4.1520    1.0000 </r>
       <r>   -3.4076    1.0000 </r>
       <r>   -3.4030    1.0000 </r>
       <r>   -3.1334    1.0000 </r>
       <r>   -3.0391    1.0000 </r>
       <r>   -3.0077    1.0000 </r>
       <r>   -2.8534    1.0000 </r>
       <r>   -2.7675    1.0000 </r>
       <r>   -2.6350    1.0000 </r>
       <r>   -2.5406    1.0000 </r>
       <r>   -2.3698    1.0000 </r>
       <r>   -1.9896    1.0000 </r>
       <r>   -1.9648    1.0000 </r>
       <r>   -1.8693    1.0000 </r>
       <r>   -1.8484    1.0000 </r>
       <r>   -1.8130    1.0000 </r>
       <r>   -1.7605    1.0000 </r>
       <r>   -1.6871    1.0000 </r>
       <r>   -1.6102    1.0000 </r>
       <r>   -1.3391    1.0000 </r>
       <r>   -1.1085    1.0000 </r>
       <r>    1.6123    0.0000 </r>
       <r>    1.6857    0.0000 </r>
       <r>    1.8863    0.0000 </r>
       <r>    1.9702    0.0000 </r>
       <r>    2.0131    0.0000 </r>
       <r>    2.0541    0.0000 </r>
       <r>    2.2416    0.0000 </r>
       <r>    2.3161    0.0000 </r>
       <r>    2.4011    0.0000 </r>
       <r>    2.5103    0.0000 </r>
       <r>    2.6636    0.0000 </r>
       <r>    2.7504    0.0000 </r>
       <r>    2.7772    0.0000 </r>
       <r>    2.9078    0.0000 </r>
      </set>
      <set comment="kpoint 18">
       <r>  -12.9523    1.0000 </r>
       <r>  -12.9253    1.0000 </r>
       <r>  -12.3042    1.0000 </r>
       <r>  -12.2960    1.0000 </r>
       <r>  -11.9789    1.0000 </r>
       <r>  -11.9050    1.0000 </r>
       <r>  -11.5024    1.0000 </r>
       <r>  -11.4596    1.0000 </r>
       <r>  -10.9839    1.0000 </r>
       <r>  -10.9737    1.0000 </r>
       <r>  -10.5622    1.0000 </r>
       <r>  -10.5315    1.0000 </r>
       <r>   -8.3563    1.0000 </r>
       <r>   -8.3373    1.0000 </r>
       <r>   -7.7457    1.0000 </r>
       <r>   -7.7118    1.0000 </r>
       <r>   -6.6900    1.0000 </r>
       <r>   -6.6092    1.0000 </r>
       <r>   -6.5773    1.0000 </r>
       <r>   -6.5709    1.0000 </r>
       <r>   -5.7126    1.0000 </r>
       <r>   -5.6654    1.0000 </r>
       <r>   -5.2880    1.0000 </r>
       <r>   -5.2766    1.0000 </r>
       <r>   -4.8043    1.0000 </r>
       <r>   -4.7585    1.0000 </r>
       <r>   -4.5613    1.0000 </r>
       <r>   -4.5467    1.0000 </r>
       <r>   -4.4669    1.0000 </r>
       <r>   -4.4485    1.0000 </r>
       <r>   -4.1434    1.0000 </r>
       <r>   -4.1131    1.0000 </r>
       <r>   -3.7796    1.0000 </r>
       <r>   -3.6924    1.0000 </r>
       <r>   -3.4062    1.0000 </r>
       <r>   -3.3902    1.0000 </r>
       <r>   -3.2714    1.0000 </r>
       <r>   -2.9906    1.0000 </r>
       <r>   -2.9032    1.0000 </r>
       <r>   -2.7353    1.0000 </r>
       <r>   -2.5716    1.0000 </r>
       <r>   -2.4663    1.0000 </r>
       <r>   -2.4067    1.0000 </r>
       <r>   -2.3416    1.0000 </r>
       <r>   -1.8946    1.0000 </r>
       <r>   -1.8480    1.0000 </r>
       <r>   -1.8215    1.0000 </r>
       <r>   -1.7428    1.0000 </r>
       <r>   -1.7027    1.0000 </r>
       <r>   -1.6379    1.0000 </r>
       <r>   -1.4204    1.0000 </r>
       <r>   -1.3766    1.0000 </r>
       <r>   -1.1829    1.0000 </r>
       <r>   -0.8054    1.0000 </r>
       <r>    1.7862    0.0000 </r>
       <r>    1.8952    0.0000 </r>
       <r>    1.9979    0.0000 </r>
       <r>    2.1016    0.0000 </r>
       <r>    2.1785    0.0000 </r>
       <r>    2.3225    0.0000 </r>
       <r>    2.4033    0.0000 </r>
       <r>    2.4685    0.0000 </r>
       <r>    2.7052    0.0000 </r>
       <r>    2.8010    0.0000 </r>
       <r>    2.9472    0.0000 </r>
       <r>    2.9554    0.0000 </r>
       <r>    3.0070    0.0000 </r>
       <r>    3.0811    0.0000 </r>
      </set>
      <set comment="kpoint 19">
       <r>  -13.2365    1.0000 </r>
       <r>  -13.2087    1.0000 </r>
       <r>  -12.6201    1.0000 </r>
       <r>  -12.6104    1.0000 </r>
       <r>  -12.2470    1.0000 </r>
       <r>  -12.1700    1.0000 </r>
       <r>  -11.7188    1.0000 </r>
       <r>  -11.6760    1.0000 </r>
       <r>  -11.2160    1.0000 </r>
       <r>  -11.2062    1.0000 </r>
       <r>  -10.7655    1.0000 </r>
       <r>  -10.7331    1.0000 </r>
       <r>   -8.3404    1.0000 </r>
       <r>   -8.3139    1.0000 </r>
       <r>   -7.5200    1.0000 </r>
       <r>   -7.4467    1.0000 </r>
       <r>   -6.6744    1.0000 </r>
       <r>   -6.5666    1.0000 </r>
       <r>   -6.5106    1.0000 </r>
       <r>   -6.4855    1.0000 </r>
       <r>   -5.6690    1.0000 </r>
       <r>   -5.6140    1.0000 </r>
       <r>   -4.8104    1.0000 </r>
       <r>   -4.7716    1.0000 </r>
       <r>   -4.2493    1.0000 </r>
       <r>   -4.2308    1.0000 </r>
       <r>   -4.1211    1.0000 </r>
       <r>   -4.0938    1.0000 </r>
       <r>   -3.9332    1.0000 </r>
[...]
       <r>    2.7920    0.0000 </r>
      </set>
      <set comment="kpoint 54">
       <r>  -11.4483    1.0000 </r>
       <r>  -11.4263    1.0000 </r>
       <r>  -11.1204    1.0000 </r>
       <r>  -11.1142    1.0000 </r>
       <r>  -10.8988    1.0000 </r>
       <r>  -10.8900    1.0000 </r>
       <r>  -10.8050    1.0000 </r>
       <r>  -10.7894    1.0000 </r>
       <r>  -10.6719    1.0000 </r>
       <r>  -10.6657    1.0000 </r>
       <r>  -10.5746    1.0000 </r>
       <r>  -10.5646    1.0000 </r>
       <r>   -8.6229    1.0000 </r>
       <r>   -8.6051    1.0000 </r>
       <r>   -8.3977    1.0000 </r>
       <r>   -8.3756    1.0000 </r>
       <r>   -8.0765    1.0000 </r>
       <r>   -8.0560    1.0000 </r>
       <r>   -7.5129    1.0000 </r>
       <r>   -7.5035    1.0000 </r>
       <r>   -7.2418    1.0000 </r>
       <r>   -7.2338    1.0000 </r>
       <r>   -7.1235    1.0000 </r>
       <r>   -7.1137    1.0000 </r>
       <r>   -4.9101    1.0000 </r>
       <r>   -4.8814    1.0000 </r>
       <r>   -4.4456    1.0000 </r>
       <r>   -4.4179    1.0000 </r>
       <r>   -4.2851    1.0000 </r>
       <r>   -4.1762    1.0000 </r>
       <r>   -4.0642    1.0000 </r>
       <r>   -3.9877    1.0000 </r>
       <r>   -3.9247    1.0000 </r>
       <r>   -3.8530    1.0000 </r>
       <r>   -3.7213    1.0000 </r>
       <r>   -3.7140    1.0000 </r>
       <r>   -3.5147    1.0000 </r>
       <r>   -3.4912    1.0000 </r>
       <r>   -3.2096    1.0000 </r>
       <r>   -3.2049    1.0000 </r>
       <r>   -3.0003    1.0000 </r>
       <r>   -2.9450    1.0000 </r>
       <r>   -2.6632    1.0000 </r>
       <r>   -2.6252    1.0000 </r>
       <r>   -2.3479    1.0000 </r>
       <r>   -2.3121    1.0000 </r>
       <r>   -2.1787    1.0000 </r>
       <r>   -2.1272    1.0000 </r>
       <r>   -2.0711    1.0000 </r>
       <r>   -2.0288    1.0000 </r>
       <r>   -1.7116    1.0000 </r>
       <r>   -1.5808    1.0000 </r>
       <r>   -1.5111    1.0000 </r>
       <r>   -1.4117    1.0000 </r>
       <r>    1.3589    0.0000 </r>
       <r>    1.4040    0.0000 </r>
       <r>    1.5420    0.0000 </r>
       <r>    1.5832    0.0000 </r>
       <r>    1.6818    0.0000 </r>
       <r>    1.7604    0.0000 </r>
       <r>    1.8791    0.0000 </r>
       <r>    1.9757    0.0000 </r>
       <r>    2.0531    0.0000 </r>
       <r>    2.1674    0.0000 </r>
       <r>    2.3583    0.0000 </r>
       <r>    2.3968    0.0000 </r>
       <r>    2.5145    0.0000 </r>
       <r>    2.6175    0.0000 </r>
      </set>
     </set>
    </set>
   </array>
  </eigenvalues>
  <separator name="orbital magnetization" >
   <v name="MAGDIPOLOUT">      0.00000000      0.00000000      0.00000000</v>
  </separator>
  <dos>
   <i name="efermi">      0.04055472 </i>
   <total>
    <array>
     <dimension dim="1">gridpoints</dimension>
     <dimension dim="2">spin</dimension>
     <field>energy</field>
     <field>total</field>
     <field>integrated</field>
     <set>
      <set comment="spin 1">
       <r>   -14.5022     0.0000     0.0000 </r>
       <r>   -14.4396     0.0000     0.0000 </r>
       <r>   -14.3769     0.0000     0.0000 </r>
       <r>   -14.3142     0.0000     0.0000 </r>
       <r>   -14.2515     0.0000     0.0000 </r>
       <r>   -14.1888     0.0000     0.0000 </r>
       <r>   -14.1262     0.0000     0.0000 </r>
       <r>   -14.0635     0.0000     0.0000 </r>
       <r>   -14.0008     0.0000     0.0000 </r>
       <r>   -13.9381     0.0000     0.0000 </r>
       <r>   -13.8754     0.0000     0.0000 </r>
       <r>   -13.8127     0.0000     0.0000 </r>
       <r>   -13.7501     0.0002     0.0000 </r>
       <r>   -13.6874     0.0043     0.0003 </r>
       <r>   -13.6247     0.0503     0.0034 </r>
       <r>   -13.5620     0.3263     0.0239 </r>
       <r>   -13.4993     1.2176     0.1002 </r>
       <r>   -13.4366     2.7151     0.2704 </r>
       <r>   -13.3740     3.8430     0.5113 </r>
       <r>   -13.3113     3.9870     0.7612 </r>
       <r>   -13.2486     3.7962     0.9991 </r>
       <r>   -13.1859     3.6251     1.2264 </r>
       <r>   -13.1232     3.3369     1.4355 </r>
       <r>   -13.0606     3.0142     1.6245 </r>
       <r>   -12.9979     3.1615     1.8226 </r>
       <r>   -12.9352     4.3692     2.0965 </r>
       <r>   -12.8725     5.7630     2.4578 </r>
       <r>   -12.8098     5.8444     2.8241 </r>
       <r>   -12.7471     4.5810     3.1112 </r>
       <r>   -12.6845     3.2645     3.3159 </r>
       <r>   -12.6218     3.1892     3.5158 </r>
       <r>   -12.5591     4.7813     3.8155 </r>
       <r>   -12.4964     6.7057     4.2358 </r>
       <r>   -12.4337     7.3985     4.6996 </r>
       <r>   -12.3710     7.1198     5.1458 </r>
       <r>   -12.3084     6.5957     5.5593 </r>
       <r>   -12.2457     6.0487     5.9384 </r>
       <r>   -12.1830     5.5181     6.2843 </r>
       <r>   -12.1203     5.1617     6.6079 </r>
       <r>   -12.0576     5.3844     6.9454 </r>
       <r>   -11.9950     6.8484     7.3746 </r>
       <r>   -11.9323     8.2581     7.8923 </r>
       <r>   -11.8696     7.6840     8.3739 </r>
       <r>   -11.8069     5.9624     8.7477 </r>
       <r>   -11.7442     5.0820     9.0662 </r>
       <r>   -11.6815     5.4826     9.4099 </r>
       <r>   -11.6189     6.7665     9.8340 </r>
       <r>   -11.5562     8.4904    10.3662 </r>
       <r>   -11.4935    10.3383    11.0142 </r>
       <r>   -11.4308    11.5376    11.7375 </r>
       <r>   -11.3681    10.6206    12.4032 </r>
       <r>   -11.3054     8.8139    12.9557 </r>
       <r>   -11.2428     9.4417    13.5475 </r>
       <r>   -11.1801    10.9536    14.2341 </r>
       <r>   -11.1174     9.8353    14.8506 </r>
       <r>   -11.0547     8.2415    15.3672 </r>
       <r>   -10.9920     9.5089    15.9632 </r>
       <r>   -10.9294    12.4227    16.7419 </r>
       <r>   -10.8667    13.9134    17.6140 </r>
       <r>   -10.8040    14.2984    18.5103 </r>
       <r>   -10.7413    15.0757    19.4553 </r>
       <r>   -10.6786    14.4680    20.3622 </r>
       <r>   -10.6159    12.9123    21.1715 </r>
       <r>   -10.5533    12.0515    21.9270 </r>
       <r>   -10.4906     9.9793    22.5525 </r>
       <r>   -10.4279     7.6570    23.0324 </r>
       <r>   -10.3652     6.9961    23.4710 </r>
       <r>   -10.3025     5.3383    23.8056 </r>
       <r>   -10.2398     2.4249    23.9576 </r>
       <r>   -10.1772     0.5956    23.9949 </r>
       <r>   -10.1145     0.0761    23.9997 </r>
       <r>   -10.0518     0.0049    24.0000 </r>
       <r>    -9.9891     0.0002    24.0000 </r>
       <r>    -9.9264     0.0000    24.0000 </r>
       <r>    -9.8637     0.0000    24.0000 </r>
       <r>    -9.8011     0.0000    24.0000 </r>
       <r>    -9.7384     0.0000    24.0000 </r>
       <r>    -9.6757     0.0000    24.0000 </r>
       <r>    -9.6130     0.0000    24.0000 </r>
       <r>    -9.5503     0.0000    24.0000 </r>
       <r>    -9.4877     0.0000    24.0000 </r>
       <r>    -9.4250     0.0000    24.0000 </r>
       <r>    -9.3623     0.0000    24.0000 </r>
       <r>    -9.2996     0.0000    24.0000 </r>
       <r>    -9.2369     0.0000    24.0000 </r>
       <r>    -9.1742     0.0006    24.0000 </r>
       <r>    -9.1116     0.0134    24.0009 </r>
       <r>    -9.0489     0.1462    24.0100 </r>
       <r>    -8.9862     0.7964    24.0600 </r>
       <r>    -8.9235     2.2527    24.2012 </r>
       <r>    -8.8608     3.6207    24.4281 </r>
       <r>    -8.7981     4.3336    24.6998 </r>
       <r>    -8.7355     5.7237    25.0585 </r>
       <r>    -8.6728     7.4908    25.5281 </r>
       <r>    -8.6101     7.6210    26.0058 </r>
       <r>    -8.5474     6.5953    26.4192 </r>
       <r>    -8.4847     6.2856    26.8132 </r>
       <r>    -8.4221     7.2198    27.2657 </r>
       <r>    -8.3594     8.4571    27.7959 </r>
       <r>    -8.2967     7.9073    28.2915 </r>
       <r>    -8.2340     5.4684    28.6343 </r>
       <r>    -8.1713     3.8790    28.8774 </r>
       <r>    -8.1086     4.3651    29.1510 </r>
       <r>    -8.0460     5.3962    29.4893 </r>
       <r>    -7.9833     4.9080    29.7969 </r>
       <r>    -7.9206     3.2164    29.9985 </r>
       <r>    -7.8579     2.3545    30.1461 </r>
       <r>    -7.7952     3.2995    30.3529 </r>
       <r>    -7.7325     5.2337    30.6810 </r>
       <r>    -7.6699     5.7104    31.0389 </r>
       <r>    -7.6072     4.7524    31.3368 </r>
       <r>    -7.5445     4.8238    31.6392 </r>
       <r>    -7.4818     5.9136    32.0099 </r>
       <r>    -7.4191     7.0936    32.4545 </r>
       <r>    -7.3565     8.7509    33.0031 </r>
       <r>    -7.2938    10.4811    33.6600 </r>
       <r>    -7.2311    10.7154    34.3317 </r>
       <r>    -7.1684     9.0902    34.9015 </r>
       <r>    -7.1057     7.3816    35.3642 </r>
       <r>    -7.0430     6.0865    35.7457 </r>
       <r>    -6.9804     5.1220    36.0668 </r>
       <r>    -6.9177     5.0283    36.3820 </r>
       <r>    -6.8550     5.2085    36.7084 </r>
       <r>    -6.7923     5.8367    37.0743 </r>
       <r>    -6.7296     8.6108    37.6140 </r>
       <r>    -6.6669    14.0241    38.4931 </r>
       <r>    -6.6043    18.3723    39.6447 </r>
       <r>    -6.5416    16.7900    40.6972 </r>
       <r>    -6.4789    11.2735    41.4038 </r>
       <r>    -6.4162     6.8009    41.8301 </r>
       <r>    -6.3535     4.0252    42.0824 </r>
       <r>    -6.2909     2.5452    42.2420 </r>
       <r>    -6.2282     2.4467    42.3953 </r>
       <r>    -6.1655     3.2162    42.5969 </r>
       <r>    -6.1028     3.7023    42.8290 </r>
       <r>    -6.0401     2.9059    43.0111 </r>
       <r>    -5.9774     2.1146    43.1437 </r>
       <r>    -5.9148     2.9020    43.3256 </r>
       <r>    -5.8521     4.2432    43.5916 </r>
       <r>    -5.7894     5.2829    43.9227 </r>
       <r>    -5.7267     6.7331    44.3447 </r>
       <r>    -5.6640     7.8723    44.8382 </r>
       <r>    -5.6013     7.1149    45.2842 </r>
       <r>    -5.5387     4.8881    45.5906 </r>
       <r>    -5.4760     2.7456    45.7627 </r>
       <r>    -5.4133     1.7713    45.8737 </r>
       <r>    -5.3506     2.7341    46.0451 </r>
       <r>    -5.2879     4.7794    46.3447 </r>
       <r>    -5.2253     5.6816    46.7008 </r>
       <r>    -5.1626     5.5044    47.0458 </r>
       <r>    -5.0999     5.0283    47.3610 </r>
       <r>    -5.0372     4.6409    47.6519 </r>
       <r>    -4.9745     5.6255    48.0045 </r>
       <r>    -4.9118     7.6767    48.4857 </r>
       <r>    -4.8492     9.7530    49.0971 </r>
       <r>    -4.7865    10.9489    49.7834 </r>
       <r>    -4.7238    10.8646    50.4644 </r>
       <r>    -4.6611    10.9425    51.1503 </r>
       <r>    -4.5984    11.8824    51.8951 </r>
       <r>    -4.5357    12.4018    52.6725 </r>
       <r>    -4.4731    12.0609    53.4285 </r>
       <r>    -4.4104    11.5521    54.1526 </r>
       <r>    -4.3477    11.4732    54.8718 </r>
       <r>    -4.2850    12.0636    55.6280 </r>
       <r>    -4.2223    12.8322    56.4323 </r>
       <r>    -4.1597    13.3862    57.2714 </r>
       <r>    -4.0970    14.2225    58.1629 </r>
       <r>    -4.0343    16.0156    59.1668 </r>
       <r>    -3.9716    17.2706    60.2493 </r>
       <r>    -3.9089    15.7985    61.2396 </r>
       <r>    -3.8462    12.3868    62.0161 </r>
       <r>    -3.7836     9.8740    62.6350 </r>
       <r>    -3.7209    10.0749    63.2665 </r>
       <r>    -3.6582    11.7806    64.0050 </r>
       <r>    -3.5955    12.5328    64.7905 </r>
       <r>    -3.5328    12.0100    65.5434 </r>
       <r>    -3.4701    11.6344    66.2726 </r>
       <r>    -3.4075    11.8322    67.0143 </r>
       <r>    -3.3448    12.4592    67.7953 </r>
       <r>    -3.2821    13.8360    68.6625 </r>
       <r>    -3.2194    15.4162    69.6289 </r>
       <r>    -3.1567    16.2684    70.6486 </r>
       <r>    -3.0941    17.1025    71.7206 </r>
       <r>    -3.0314    18.7075    72.8933 </r>
       <r>    -2.9687    19.6485    74.1249 </r>
       <r>    -2.9060    18.5767    75.2893 </r>
       <r>    -2.8433    15.8998    76.2859 </r>
       <r>    -2.7806    13.4240    77.1274 </r>
       <r>    -2.7180    13.4119    77.9681 </r>
       <r>    -2.6553    15.8463    78.9614 </r>
       <r>    -2.5926    17.7136    80.0717 </r>
       <r>    -2.5299    17.7951    81.1871 </r>
       <r>    -2.4672    17.3493    82.2746 </r>
       <r>    -2.4045    17.5793    83.3765 </r>
       <r>    -2.3419    18.5277    84.5379 </r>
       <r>    -2.2792    17.9075    85.6604 </r>
       <r>    -2.2165    16.0610    86.6671 </r>
       <r>    -2.1538    16.1886    87.6819 </r>
       <r>    -2.0911    18.0177    88.8113 </r>
       <r>    -2.0285    20.0046    90.0652 </r>
       <r>    -1.9658    21.9326    91.4400 </r>
       <r>    -1.9031    23.1299    92.8898 </r>
       <r>    -1.8404    23.3261    94.3519 </r>
       <r>    -1.7777    23.5121    95.8257 </r>
       <r>    -1.7150    23.2147    97.2809 </r>
       <r>    -1.6524    20.3110    98.5540 </r>
       <r>    -1.5897    15.6521    99.5351 </r>
       <r>    -1.5270    12.0190   100.2885 </r>
       <r>    -1.4643    10.9685   100.9761 </r>
       <r>    -1.4016    12.9720   101.7892 </r>
       <r>    -1.3389    14.8300   102.7188 </r>
       <r>    -1.2763    12.8283   103.5229 </r>
       <r>    -1.2136     9.6352   104.1268 </r>
       <r>    -1.1509     9.4229   104.7175 </r>
       <r>    -1.0882    10.5444   105.3784 </r>
       <r>    -1.0255     9.9968   106.0050 </r>
       <r>    -0.9629     7.2429   106.4590 </r>
       <r>    -0.9002     4.1590   106.7197 </r>
       <r>    -0.8375     2.9031   106.9017 </r>
       <r>    -0.7748     2.6721   107.0692 </r>
       <r>    -0.7121     1.8324   107.1841 </r>
       <r>    -0.6494     0.9795   107.2455 </r>
       <r>    -0.5868     1.2912   107.3264 </r>
       <r>    -0.5241     2.4979   107.4830 </r>
       <r>    -0.4614     3.3235   107.6913 </r>
       <r>    -0.3987     2.8541   107.8702 </r>
       <r>    -0.3360     1.5187   107.9654 </r>
       <r>    -0.2733     0.4673   107.9947 </r>
       <r>    -0.2107     0.0779   107.9996 </r>
       <r>    -0.1480     0.0067   108.0000 </r>
       <r>    -0.0853     0.0003   108.0000 </r>
       <r>    -0.0226     0.0000   108.0000 </r>
       <r>     0.0401     0.0000   108.0000 </r>
       <r>     0.1027     0.0000   108.0000 </r>
       <r>     0.1654     0.0000   108.0000 </r>
       <r>     0.2281     0.0000   108.0000 </r>
       <r>     0.2908     0.0000   108.0000 </r>
       <r>     0.3535     0.0000   108.0000 </r>
       <r>     0.4162     0.0000   108.0000 </r>
       <r>     0.4788     0.0000   108.0000 </r>
       <r>     0.5415     0.0000   108.0000 </r>
       <r>     0.6042     0.0000   108.0000 </r>
       <r>     0.6669     0.0000   108.0000 </r>
       <r>     0.7296     0.0000   108.0000 </r>
       <r>     0.7923     0.0000   108.0000 </r>
       <r>     0.8549     0.0000   108.0000 </r>
       <r>     0.9176     0.0008   108.0001 </r>
       <r>     0.9803     0.0121   108.0008 </r>
       <r>     1.0430     0.1002   108.0071 </r>
       <r>     1.1057     0.5038   108.0387 </r>
       <r>     1.1683     1.6341   108.1411 </r>
       <r>     1.2310     3.6290   108.3686 </r>
       <r>     1.2937     6.1274   108.7527 </r>
       <r>     1.3564     8.6963   109.2978 </r>
       <r>     1.4191    10.3660   109.9475 </r>
       <r>     1.4818    10.6003   110.6120 </r>
       <r>     1.5444    11.1491   111.3108 </r>
       <r>     1.6071    12.8867   112.1186 </r>
       <r>     1.6698    14.4748   113.0259 </r>
       <r>     1.7325    14.9998   113.9661 </r>
       <r>     1.7952    14.9635   114.9041 </r>
       <r>     1.8579    14.6920   115.8250 </r>
       <r>     1.9205    13.8850   116.6954 </r>
       <r>     1.9832    13.4539   117.5387 </r>
       <r>     2.0459    13.9474   118.4129 </r>
       <r>     2.1086    14.9934   119.3528 </r>
       <r>     2.1713    16.4607   120.3846 </r>
       <r>     2.2339    17.5713   121.4860 </r>
       <r>     2.2966    18.0253   122.6158 </r>
       <r>     2.3593    18.0711   123.7486 </r>
       <r>     2.4220    17.7346   124.8602 </r>
       <r>     2.4847    17.1741   125.9367 </r>
       <r>     2.5474    16.3631   126.9624 </r>
       <r>     2.6100    16.1139   127.9725 </r>
       <r>     2.6727    17.5485   129.0725 </r>
       <r>     2.7354    18.7307   130.2465 </r>
       <r>     2.7981    17.3936   131.3368 </r>
       <r>     2.8608    14.3344   132.2353 </r>
       <r>     2.9235    11.9295   132.9831 </r>
       <r>     2.9861    11.0777   133.6775 </r>
       <r>     3.0488    10.4274   134.3311 </r>
       <r>     3.1115     9.0052   134.8956 </r>
       <r>     3.1742     7.0399   135.3368 </r>
       <r>     3.2369     5.0823   135.6554 </r>
       <r>     3.2995     3.2365   135.8583 </r>
       <r>     3.3622     1.6077   135.9590 </r>
       <r>     3.4249     0.5372   135.9927 </r>
       <r>     3.4876     0.1048   135.9993 </r>
       <r>     3.5503     0.0108   136.0000 </r>
       <r>     3.6130     0.0005   136.0000 </r>
       <r>     3.6756     0.0000   136.0000 </r>
       <r>     3.7383     0.0000   136.0000 </r>
       <r>     3.8010     0.0000   136.0000 </r>
       <r>     3.8637     0.0000   136.0000 </r>
       <r>     3.9264     0.0000   136.0000 </r>
       <r>     3.9891     0.0000   136.0000 </r>
       <r>     4.0517     0.0000   136.0000 </r>
       <r>     4.1144     0.0000   136.0000 </r>
       <r>     4.1771     0.0000   136.0000 </r>
       <r>     4.2398     0.0000   136.0000 </r>
       <r>     4.3025     0.0000   136.0000 </r>
      </set>
     </set>
    </array>
   </total>
  </dos>
 </calculation>
 <structure name="finalpos" >
  <crystal>
   <varray name="basis" >
    <v>       3.54040000       0.00000000       0.00000000 </v>
    <v>      -1.77020000      10.29434800       0.00000000 </v>
    <v>       0.00000000       0.00000000      27.50142900 </v>
   </varray>
   <i name="volume">   1002.32009712 </i>
   <varray name="rec_basis" >
    <v>       0.28245396       0.04857034       0.00000000 </v>
    <v>       0.00000000       0.09714068       0.00000000 </v>
    <v>       0.00000000       0.00000000       0.03636175 </v>
   </varray>
  </crystal>
  <varray name="positions" >
   <v>       0.11402300       0.22804500       0.23316207 </v>
   <v>       0.11402300       0.22804500       0.51499159 </v>
   <v>       0.45808900       0.91617900       0.20939482 </v>
   <v>       0.45808900       0.91617900       0.49122434 </v>
   <v>       0.31085400       0.62170900       0.08414979 </v>
   <v>       0.31085400       0.62170900       0.36597930 </v>
   <v>       0.99923000       0.99846000       0.08631254 </v>
   <v>       0.99923000       0.99846000       0.36814206 </v>
   <v>       0.65492700       0.30985400       0.06041748 </v>
   <v>       0.65492700       0.30985400       0.34224700 </v>
   <v>       0.76973800       0.53947500       0.20725292 </v>
   <v>       0.76973800       0.53947500       0.48908244 </v>
   <v>       0.93971600       0.87943300       0.15783749 </v>
   <v>       0.93971600       0.87943300       0.43966701 </v>
   <v>       0.20515200       0.41030300       0.18578822 </v>
   <v>       0.20515200       0.41030300       0.46761774 </v>
   <v>       0.20184900       0.40369900       0.09969156 </v>
   <v>       0.20184900       0.40369900       0.38152107 </v>
   <v>       0.56380500       0.12761000       0.10779021 </v>
   <v>       0.56380500       0.12761000       0.38961973 </v>
   <v>       0.56710600       0.13421200       0.19387616 </v>
   <v>       0.56710600       0.13421200       0.47570568 </v>
   <v>       0.82923400       0.65846800       0.13571444 </v>
   <v>       0.82923400       0.65846800       0.41754396 </v>
  </varray>
 </structure>
</modeling>
