<?xml version="1.0" encoding="ISO-8859-1"?>
<modeling>
 <generator>
  <i name="program" type="string">vasp </i>
  <i name="version" type="string">5.3.5  </i>
  <i name="subversion" type="string">31Mar14 (build Oct 29 2014 16:16:03) complex                          parallel </i>
  <i name="platform" type="string">Linux-UFHPC </i>
  <i name="date" type="string">2016 02 09 </i>
  <i name="time" type="string">17:25:17 </i>
 </generator>
 <incar>
  <i type="string" name="PREC">accurate</i>
  <i type="int" name="IBRION">     2</i>
  <i name="EDIFF">      0.00000100</i>
  <i type="int" name="NSW">     0</i>
  <i type="int" name="ISIF">     3</i>
  <i name="ENCUT">    300.00000000</i>
  <i type="string" name="LREAL"> Auto</i>
  <i type="int" name="ISMEAR">     0</i>
  <i name="SIGMA">      0.10000000</i>
  <i type="logical" name="LWAVE"> F  </i>
  <i type="logical" name="LCHARG"> F  </i>
  <i type="logical" name="LAECHG"> F  </i>
  <i type="string" name="GGA"> Bo</i>
  <i name="PARAM1">      0.18333333</i>
  <i name="PARAM2">      0.22000000</i>
  <i type="logical" name="LUSE_VDW"> T  </i>
  <i name="AGGAC">      0.00000000</i>
 </incar>
 <kpoints>
  <generation param="Gamma">
   <v type="int" name="divisions">      13        4        2 </v>
   <v name="usershift">      0.00000000       0.00000000       0.00000000 </v>
   <v name="genvec1">      0.07692308      -0.00000000       0.00000000 </v>
   <v name="genvec2">      0.00000000       0.25000000       0.00000000 </v>
   <v name="genvec3">      0.00000000       0.00000000       0.50000000 </v>
   <v name="shift">      0.00000000       0.00000000       0.00000000 </v>
  </generation>
  <varray name="kpointlist" >
   <v>       0.00000000       0.00000000       0.00000000 </v>
   <v>       0.07692308      -0.00000000       0.00000000 </v>
   <v>       0.15384615      -0.00000000       0.00000000 </v>
   <v>       0.23076923      -0.00000000       0.00000000 </v>
   <v>       0.30769231      -0.00000000       0.00000000 </v>
   <v>       0.38461538      -0.00000000       0.00000000 </v>
   <v>       0.46153846      -0.00000000       0.00000000 </v>
   <v>       0.00000000       0.25000000       0.00000000 </v>
   <v>       0.07692308       0.25000000       0.00000000 </v>
   <v>       0.15384615       0.25000000       0.00000000 </v>
   <v>       0.23076923       0.25000000       0.00000000 </v>
   <v>       0.30769231       0.25000000       0.00000000 </v>
   <v>       0.38461538       0.25000000       0.00000000 </v>
   <v>       0.46153846       0.25000000       0.00000000 </v>
   <v>      -0.46153846       0.25000000       0.00000000 </v>
   <v>      -0.38461538       0.25000000       0.00000000 </v>
   <v>      -0.30769231       0.25000000       0.00000000 </v>
   <v>      -0.23076923       0.25000000       0.00000000 </v>
   <v>      -0.15384615       0.25000000       0.00000000 </v>
   <v>      -0.07692308       0.25000000       0.00000000 </v>
   <v>       0.00000000       0.50000000       0.00000000 </v>
   <v>       0.07692308       0.50000000       0.00000000 </v>
   <v>       0.15384615       0.50000000       0.00000000 </v>
   <v>       0.23076923       0.50000000       0.00000000 </v>
   <v>       0.30769231       0.50000000       0.00000000 </v>
   <v>       0.38461538       0.50000000       0.00000000 </v>
   <v>       0.46153846       0.50000000       0.00000000 </v>
   <v>       0.00000000       0.00000000       0.50000000 </v>
   <v>       0.07692308      -0.00000000       0.50000000 </v>
   <v>       0.15384615      -0.00000000       0.50000000 </v>
   <v>       0.23076923      -0.00000000       0.50000000 </v>
   <v>       0.30769231      -0.00000000       0.50000000 </v>
   <v>       0.38461538      -0.00000000       0.50000000 </v>
   <v>       0.46153846      -0.00000000       0.50000000 </v>
   <v>       0.00000000       0.25000000       0.50000000 </v>
   <v>       0.07692308       0.25000000       0.50000000 </v>
   <v>       0.15384615       0.25000000       0.50000000 </v>
   <v>       0.23076923       0.25000000       0.50000000 </v>
   <v>       0.30769231       0.25000000       0.50000000 </v>
   <v>       0.38461538       0.25000000       0.50000000 </v>
   <v>       0.46153846       0.25000000       0.50000000 </v>
   <v>      -0.46153846       0.25000000       0.50000000 </v>
   <v>      -0.38461538       0.25000000       0.50000000 </v>
   <v>      -0.30769231       0.25000000       0.50000000 </v>
   <v>      -0.23076923       0.25000000       0.50000000 </v>
   <v>      -0.15384615       0.25000000       0.50000000 </v>
   <v>      -0.07692308       0.25000000       0.50000000 </v>
   <v>       0.00000000       0.50000000       0.50000000 </v>
   <v>       0.07692308       0.50000000       0.50000000 </v>
   <v>       0.15384615       0.50000000       0.50000000 </v>
   <v>       0.23076923       0.50000000       0.50000000 </v>
   <v>       0.30769231       0.50000000       0.50000000 </v>
   <v>       0.38461538       0.50000000       0.50000000 </v>
   <v>       0.46153846       0.50000000       0.50000000 </v>
  </varray>
  <varray name="weights" >
   <v>       0.00961538 </v>
   <v>       0.01923077 </v>
   <v>       0.01923077 </v>
   <v>       0.01923077 </v>
   <v>       0.01923077 </v>
   <v>       0.01923077 </v>
   <v>       0.01923077 </v>
   <v>       0.01923077 </v>
   <v>       0.01923077 </v>
   <v>       0.01923077 </v>
   <v>       0.01923077 </v>
   <v>       0.01923077 </v>
   <v>       0.01923077 </v>
   <v>       0.01923077 </v>
   <v>       0.01923077 </v>
   <v>       0.01923077 </v>
   <v>       0.01923077 </v>
   <v>       0.01923077 </v>
   <v>       0.01923077 </v>
   <v>       0.01923077 </v>
   <v>       0.00961538 </v>
   <v>       0.01923077 </v>
   <v>       0.01923077 </v>
   <v>       0.01923077 </v>
   <v>       0.01923077 </v>
   <v>       0.01923077 </v>
   <v>       0.01923077 </v>
   <v>       0.00961538 </v>
   <v>       0.01923077 </v>
   <v>       0.01923077 </v>
   <v>       0.01923077 </v>
   <v>       0.01923077 </v>
   <v>       0.01923077 </v>
   <v>       0.01923077 </v>
   <v>       0.01923077 </v>
   <v>       0.01923077 </v>
   <v>       0.01923077 </v>
   <v>       0.01923077 </v>
   <v>       0.01923077 </v>
   <v>       0.01923077 </v>
   <v>       0.01923077 </v>
   <v>       0.01923077 </v>
   <v>       0.01923077 </v>
   <v>       0.01923077 </v>
   <v>       0.01923077 </v>
   <v>       0.01923077 </v>
   <v>       0.01923077 </v>
   <v>       0.00961538 </v>
   <v>       0.01923077 </v>
   <v>       0.01923077 </v>
   <v>       0.01923077 </v>
   <v>       0.01923077 </v>
   <v>       0.01923077 </v>
   <v>       0.01923077 </v>
  </varray>
 </kpoints>
 <parameters>
  <separator name="general" >
   <i type="string" name="SYSTEM">unknown system</i>
   <i type="logical" name="LCOMPAT"> F  </i>
  </separator>
  <separator name="electronic" >
   <i type="string" name="PREC">accura</i>
   <i name="ENMAX">    300.00000000</i>
   <i name="ENAUG">    342.92400000</i>
   <i name="EDIFF">      0.00000100</i>
   <i type="int" name="IALGO">    38</i>
   <i type="int" name="IWAVPR">    10</i>
   <i type="int" name="NBANDS">    68</i>
   <i name="NELECT">    108.00000000</i>
   <i type="int" name="TURBO">     0</i>
   <i type="int" name="IRESTART">     0</i>
   <i type="int" name="NREBOOT">     0</i>
   <i type="int" name="NMIN">     0</i>
   <i name="EREF">      0.00000000</i>
   <separator name="electronic smearing" >
    <i type="int" name="ISMEAR">     0</i>
    <i name="SIGMA">      0.10000000</i>
    <i name="KSPACING">      0.50000000</i>
    <i type="logical" name="KGAMMA"> T  </i>
   </separator>
   <separator name="electronic projectors" >
    <i type="logical" name="LREAL"> T  </i>
    <v name="ROPT">     -0.00025000     -0.00025000</v>
    <i type="int" name="LMAXPAW">  -100</i>
    <i type="int" name="LMAXMIX">     2</i>
    <i type="logical" name="NLSPLINE"> F  </i>
   </separator>
   <separator name="electronic startup" >
    <i type="int" name="ISTART">     0</i>
    <i type="int" name="ICHARG">     2</i>
    <i type="int" name="INIWAV">     1</i>
   </separator>
   <separator name="electronic spin" >
    <i type="int" name="ISPIN">     1</i>
    <i type="logical" name="LNONCOLLINEAR"> F  </i>
    <v name="MAGMOM">      1.00000000      1.00000000      1.00000000      1.00000000      1.00000000      1.00000000      1.00000000      1.00000000      1.00000000      1.00000000      1.00000000      1.00000000      1.00000000      1.00000000      1.00000000      1.00000000      1.00000000      1.00000000      1.00000000      1.00000000
      1.00000000      1.00000000      1.00000000      1.00000000</v>
    <i name="NUPDOWN">     -1.00000000</i>
    <i type="logical" name="LSORBIT"> F  </i>
    <v name="SAXIS">      0.00000000      0.00000000      1.00000000</v>
    <i type="logical" name="LSPIRAL"> F  </i>
    <v name="QSPIRAL">      0.00000000      0.00000000      0.00000000</v>
    <i type="logical" name="LZEROZ"> F  </i>
   </separator>
   <separator name="electronic exchange-correlation" >
    <i type="logical" name="LASPH"> F  </i>
    <i type="logical" name="LMETAGGA"> F  </i>
   </separator>
   <separator name="electronic convergence" >
    <i type="int" name="NELM">    60</i>
    <i type="int" name="NELMDL">    -5</i>
    <i type="int" name="NELMIN">     2</i>
    <i name="ENINI">    300.00000000</i>
    <separator name="electronic convergence detail" >
     <i type="logical" name="LDIAG"> T  </i>
     <i type="logical" name="LSUBROT"> F  </i>
     <i name="WEIMIN">      0.00000000</i>
     <i name="EBREAK">      0.00000000</i>
     <i name="DEPER">      0.30000000</i>
     <i type="int" name="NRMM">     4</i>
     <i name="TIME">      0.40000000</i>
    </separator>
   </separator>
   <separator name="electronic mixer" >
    <i name="AMIX">      0.40000000</i>
    <i name="BMIX">      1.00000000</i>
    <i name="AMIN">      0.10000000</i>
    <i name="AMIX_MAG">      1.60000000</i>
    <i name="BMIX_MAG">      1.00000000</i>
    <separator name="electronic mixer details" >
     <i type="int" name="IMIX">     4</i>
     <i type="int" name="MAXMIX">   -45</i>
     <i name="WC">    100.00000000</i>
     <i type="int" name="INIMIX">     1</i>
     <i type="int" name="MIXPRE">     1</i>
     <i type="int" name="MREMOVE">     5</i>
    </separator>
   </separator>
   <separator name="electronic dipolcorrection" >
    <i type="logical" name="LDIPOL"> F  </i>
    <i type="logical" name="LMONO"> F  </i>
    <i type="int" name="IDIPOL">     0</i>
    <i name="EPSILON">      1.00000000</i>
    <v name="DIPOL">   -100.00000000   -100.00000000   -100.00000000</v>
    <i name="EFIELD">      0.00000000</i>
   </separator>
  </separator>
  <separator name="grids" >
   <i type="int" name="NGX">    20</i>
   <i type="int" name="NGY">    60</i>
   <i type="int" name="NGZ">   160</i>
   <i type="int" name="NGXF">    40</i>
   <i type="int" name="NGYF">   120</i>
   <i type="int" name="NGZF">   320</i>
   <i type="logical" name="ADDGRID"> F  </i>
  </separator>
  <separator name="ionic" >
   <i type="int" name="NSW">     0</i>
   <i type="int" name="IBRION">    -1</i>
   <i type="int" name="ISIF">     3</i>
   <i name="PSTRESS">      0.00000000</i>
   <i name="EDIFFG">      0.00001000</i>
   <i type="int" name="NFREE">     1</i>
   <i name="POTIM">      0.50000000</i>
   <i name="SMASS">     -3.00000000</i>
   <i name="SCALEE">      1.00000000</i>
  </separator>
  <separator name="ionic md" >
   <i name="TEBEG">      0.00010000</i>
   <i name="TEEND">      0.00010000</i>
   <i type="int" name="NBLOCK">     1</i>
   <i type="int" name="KBLOCK">     1</i>
   <i type="int" name="NPACO">   256</i>
   <i name="APACO">     16.00000000</i>
  </separator>
  <separator name="symmetry" >
   <i type="int" name="ISYM">     2</i>
   <i name="SYMPREC">      0.00001000</i>
  </separator>
  <separator name="dos" >
   <i type="logical" name="LORBIT"> F  </i>
   <v name="RWIGS">     -1.00000000     -1.00000000</v>
   <i type="int" name="NEDOS">   301</i>
   <i name="EMIN">     10.00000000</i>
   <i name="EMAX">    -10.00000000</i>
   <i name="EFERMI">      0.00000000</i>
  </separator>
  <separator name="writing" >
   <i type="int" name="NWRITE">     2</i>
   <i type="logical" name="LWAVE"> F  </i>
   <i type="logical" name="LCHARG"> F  </i>
   <i type="logical" name="LPARD"> F  </i>
   <i type="logical" name="LVTOT"> F  </i>
   <i type="logical" name="LVHAR"> F  </i>
   <i type="logical" name="LELF"> F  </i>
   <i type="logical" name="LOPTICS"> F  </i>
   <v name="STM">      0.00000000      0.00000000      0.00000000      0.00000000      0.00000000      0.00000000      0.00000000</v>
  </separator>
  <separator name="performance" >
   <i type="int" name="NPAR">     4</i>
   <i type="int" name="NSIM">     4</i>
   <i type="int" name="NBLK">    -1</i>
   <i type="logical" name="LPLANE"> T  </i>
   <i type="logical" name="LSCALAPACK"> T  </i>
   <i type="logical" name="LSCAAWARE"> F  </i>
   <i type="logical" name="LSCALU"> F  </i>
   <i type="logical" name="LASYNC"> F  </i>
   <i type="logical" name="LORBITALREAL"> F  </i>
  </separator>
  <separator name="miscellaneous" >
   <i type="int" name="IDIOT">     3</i>
   <i type="logical" name="LMUSIC"> F  </i>
   <v name="POMASS">     30.97400000     28.08500000</v>
   <v name="DARWINR">      0.00000000      0.00000000</v>
   <v name="DARWINV">      1.00000000      1.00000000</v>
   <i type="logical" name="LCORR"> T  </i>
  </separator>
  <i type="logical" name="GGA_COMPAT"> T  </i>
  <i type="logical" name="LBERRY"> F  </i>
  <i type="int" name="ICORELEVEL">     0</i>
  <i type="logical" name="LDAU"> F  </i>
  <i type="int" name="I_CONSTRAINED_M">     0</i>
  <separator name="electronic exchange-correlation" >
   <i type="string" name="GGA">BO</i>
   <i type="int" name="VOSKOWN">     0</i>
   <i type="logical" name="LHFCALC"> F  </i>
   <i type="string" name="PRECFOCK"></i>
   <i type="logical" name="LSYMGRAD"> F  </i>
   <i type="logical" name="LHFONE"> F  </i>
   <i type="logical" name="LRHFCALC"> F  </i>
   <i type="logical" name="LTHOMAS"> F  </i>
   <i type="logical" name="LMODELHF"> F  </i>
   <i name="ENCUT4O">     -1.00000000</i>
   <i type="int" name="EXXOEP">     0</i>
   <i type="int" name="FOURORBIT">     0</i>
   <i name="AEXX">      0.00000000</i>
   <i name="HFALPHA">      0.00000000</i>
   <i name="MCALPHA">      0.00000000</i>
   <i name="ALDAX">      1.00000000</i>
   <i name="AGGAX">      1.00000000</i>
   <i name="ALDAC">      1.00000000</i>
   <i name="AGGAC">      0.00000000</i>
   <i type="int" name="NKREDX">     1</i>
   <i type="int" name="NKREDY">     1</i>
   <i type="int" name="NKREDZ">     1</i>
   <i type="logical" name="SHIFTRED"> F  </i>
   <i type="logical" name="ODDONLY"> F  </i>
   <i type="logical" name="EVENONLY"> F  </i>
   <i type="int" name="LMAXFOCK">     0</i>
   <i type="int" name="NMAXFOCKAE">     0</i>
   <i type="logical" name="LFOCKAEDFT"> F  </i>
   <i name="HFSCREEN">      0.00000000</i>
   <i name="HFSCREENC">      0.00000000</i>
   <i type="int" name="NBANDSGWLOW">     0</i>
  </separator>
  <separator name="vdW DFT" >
   <i type="logical" name="LUSE_VDW"> T  </i>
   <i name="Zab_VDW">     -0.84910000</i>
   <i name="PARAM1">      0.18333333</i>
   <i name="PARAM2">      0.22000000</i>
   <i name="PARAM3">      0.00000000</i>
  </separator>
  <separator name="model GW" >
   <i type="int" name="MODEL_GW">     0</i>
   <i name="MODEL_EPS0">     25.05800243</i>
   <i name="MODEL_ALPHA">      1.00000000</i>
  </separator>
  <separator name="linear response parameters" >
   <i type="logical" name="LEPSILON"> F  </i>
   <i type="logical" name="LRPA"> F  </i>
   <i type="logical" name="LNABLA"> F  </i>
   <i type="logical" name="LVEL"> F  </i>
   <i type="int" name="KINTER">     0</i>
   <i name="CSHIFT">      0.10000000</i>
   <i name="OMEGAMAX">     -1.00000000</i>
   <i name="DEG_THRESHOLD">      0.00200000</i>
  </separator>
  <separator name="orbital magnetization" >
   <i type="logical" name="NUCIND"> F  </i>
   <v name="MAGPOS">      0.00000000      0.00000000      0.00000000</v>
   <i type="logical" name="LNICSALL"> T  </i>
   <i type="logical" name="ORBITALMAG"> F  </i>
   <i type="logical" name="LMAGBLOCH"> F  </i>
   <i type="logical" name="LCHIMAG"> F  </i>
   <i type="logical" name="LGAUGE"> T  </i>
   <i type="int" name="MAGATOM">     0</i>
   <v name="MAGDIPOL">      0.00000000      0.00000000      0.00000000</v>
   <v name="AVECCONST">      0.00000000      0.00000000      0.00000000</v>
  </separator>
  <separator name="response functions" >
   <i type="logical" name="LADDER"> F  </i>
   <i type="logical" name="LFXC"> F  </i>
   <i type="logical" name="LHARTREE"> T  </i>
   <i type="int" name="IBSE">     0</i>
   <i type="logical" name="LTCTE"> F  </i>
   <i type="logical" name="LTETE"> F  </i>
   <i type="logical" name="LTRIPLET"> F  </i>
   <i type="logical" name="LFXCEPS"> F  </i>
   <i type="logical" name="LFXHEG"> F  </i>
   <i type="logical" name="L2ORDER"> F  </i>
   <i type="logical" name="LUSEW"> F  </i>
   <i name="ENCUTGW">     -2.00000000</i>
   <i name="ENCUTGWSOFT">     -2.00000000</i>
   <i name="ENCUTLF">     -1.00000000</i>
   <i type="int" name="LMAXMP2">    -1</i>
   <i name="SCISSOR">      0.00000000</i>
   <i type="int" name="NOMEGA">     0</i>
   <i type="int" name="NOMEGAR">     0</i>
   <i type="int" name="NBANDSGW">    -1</i>
   <i type="int" name="NBANDSO">    -1</i>
   <i type="int" name="NBANDSV">    -1</i>
   <i type="int" name="NELM">     1</i>
   <i type="int" name="DIM">     3</i>
   <i type="int" name="ANTIRES">     0</i>
   <i name="OMEGAMAX">    -30.00000000</i>
   <i name="OMEGAMIN">    -30.00000000</i>
   <i name="OMEGATL">   -200.00000000</i>
   <i type="int" name="OMEGAGRID">     0</i>
   <i name="CSHIFT">     -0.10000000</i>
   <i type="logical" name="SELFENERGY"> F  </i>
   <i type="logical" name="LSPECTRAL"> F  </i>
   <i type="logical" name="ODDONLYGW"> F  </i>
   <i type="logical" name="EVENONLYGW"> F  </i>
   <i type="int" name="NKREDLFX">     1</i>
   <i type="int" name="NKREDLFY">     1</i>
   <i type="int" name="NKREDLFZ">     1</i>
   <i type="int" name="MAXMEM">  1800</i>
   <i type="int" name="TELESCOPE">     0</i>
   <i type="int" name="TAUPAR">     1</i>
  </separator>
  <separator name="External order field" >
   <i name="OFIELD_KAPPA">      0.00000000</i>
   <v name="OFIELD_K">      0.00000000      0.00000000      0.00000000</v>
   <i name="OFIELD_Q6_NEAR">      0.00000000</i>
   <i name="OFIELD_Q6_FAR">      0.00000000</i>
   <i name="OFIELD_A">      0.00000000</i>
  </separator>
 </parameters>
 <atominfo>
  <atoms>      24 </atoms>
  <types>       2 </types>
  <array name="atoms" >
   <dimension dim="1">ion</dimension>
   <field type="string">element</field>
   <field type="int">atomtype</field>
   <set>
    <rc><c>P </c><c>   1</c></rc>
    <rc><c>P </c><c>   1</c></rc>
    <rc><c>P </c><c>   1</c></rc>
    <rc><c>P </c><c>   1</c></rc>
    <rc><c>P </c><c>   1</c></rc>
    <rc><c>P </c><c>   1</c></rc>
    <rc><c>P </c><c>   1</c></rc>
    <rc><c>P </c><c>   1</c></rc>
    <rc><c>P </c><c>   1</c></rc>
    <rc><c>P </c><c>   1</c></rc>
    <rc><c>P </c><c>   1</c></rc>
    <rc><c>P </c><c>   1</c></rc>
    <rc><c>Si</c><c>   2</c></rc>
    <rc><c>Si</c><c>   2</c></rc>
    <rc><c>Si</c><c>   2</c></rc>
    <rc><c>Si</c><c>   2</c></rc>
    <rc><c>Si</c><c>   2</c></rc>
    <rc><c>Si</c><c>   2</c></rc>
    <rc><c>Si</c><c>   2</c></rc>
    <rc><c>Si</c><c>   2</c></rc>
    <rc><c>Si</c><c>   2</c></rc>
    <rc><c>Si</c><c>   2</c></rc>
    <rc><c>Si</c><c>   2</c></rc>
    <rc><c>Si</c><c>   2</c></rc>
   </set>
  </array>
  <array name="atomtypes" >
   <dimension dim="1">type</dimension>
   <field type="int">atomspertype</field>
   <field type="string">element</field>
   <field>mass</field>
   <field>valence</field>
   <field type="string">pseudopotential</field>
   <set>
    <rc><c>  12</c><c>P </c><c>     30.97400000</c><c>      5.00000000</c><c>  PAW_PBE P 17Jan2003                   </c></rc>
    <rc><c>  12</c><c>Si</c><c>     28.08500000</c><c>      4.00000000</c><c> PAW_PBE Si 05Jan2001                   </c></rc>
   </set>
  </array>
 </atominfo>
 <structure name="initialpos" >
  <crystal>
   <varray name="basis" >
    <v>       3.54040000       0.00000000       0.00000000 </v>
    <v>      -1.77020000      10.29434800       0.00000000 </v>
    <v>       0.00000000       0.00000000      27.50142900 </v>
   </varray>
   <i name="volume">   1002.32009712 </i>
   <varray name="rec_basis" >
    <v>       0.28245396       0.04857034       0.00000000 </v>
    <v>       0.00000000       0.09714068       0.00000000 </v>
    <v>       0.00000000       0.00000000       0.03636175 </v>
   </varray>
  </crystal>
  <varray name="positions" >
   <v>       0.11402300       0.22804500       0.23316207 </v>
   <v>       0.11402300       0.72804500       0.51499159 </v>
   <v>       0.45808900       0.91617900       0.20939482 </v>
   <v>       0.45808900       0.41617900       0.49122434 </v>
   <v>       0.31085400       0.62170900       0.08414979 </v>
   <v>       0.31085400       0.62170900       0.36597930 </v>
   <v>       0.99923000       0.99846000       0.08631254 </v>
   <v>       0.99923000       0.99846000       0.36814206 </v>
   <v>       0.65492700       0.30985400       0.06041748 </v>
   <v>       0.65492700       0.30985400       0.34224700 </v>
   <v>       0.76973800       0.53947500       0.20725292 </v>
   <v>       0.76973800       0.03947500       0.48908244 </v>
   <v>       0.93971600       0.87943300       0.15783749 </v>
   <v>       0.93971600       0.37943300       0.43966701 </v>
   <v>       0.20515200       0.41030300       0.18578822 </v>
   <v>       0.20515200       0.91030300       0.46761774 </v>
   <v>       0.20184900       0.40369900       0.09969156 </v>
   <v>       0.20184900       0.40369900       0.38152107 </v>
   <v>       0.56380500       0.12761000       0.10779021 </v>
   <v>       0.56380500       0.12761000       0.38961973 </v>
   <v>       0.56710600       0.13421200       0.19387616 </v>
   <v>       0.56710600       0.63421200       0.47570568 </v>
   <v>       0.82923400       0.65846800       0.13571444 </v>
   <v>       0.82923400       0.15846800       0.41754396 </v>
  </varray>
 </structure>
 <calculation>
  <scstep>
   <time name="dav">   61.45   61.51</time>
   <time name="total">   77.46   77.52</time>
   <energy>
    <i name="alphaZ">     36.80884744 </i>
    <i name="ewald">  12066.15055460 </i>
    <i name="hartreedc"> -15063.70763440 </i>
    <i name="XCdc">    -87.16831268 </i>
    <i name="pawpsdc">   1056.43050070 </i>
    <i name="pawaedc">   -732.41190547 </i>
    <i name="eentropy">     -0.04170315 </i>
    <i name="bandstr">    -95.89029496 </i>
    <i name="atom">   3354.04126044 </i>
    <i name="e_fr_energy">    534.21131253 </i>
    <i name="e_wo_entrp">    534.25301568 </i>
    <i name="e_0_energy">    534.23216411 </i>
   </energy>
  </scstep>
  <scstep>
   <time name="dav">   76.60   76.66</time>
   <time name="total">   76.61   76.67</time>
   <energy>
    <i name="e_fr_energy">    -34.23900612 </i>
    <i name="e_wo_entrp">    -34.21743102 </i>
    <i name="e_0_energy">    -34.22821857 </i>
   </energy>
  </scstep>
  <scstep>
   <time name="dav">   72.01   72.06</time>
   <time name="total">   72.02   72.07</time>
   <energy>
    <i name="e_fr_energy">    -93.76217940 </i>
    <i name="e_wo_entrp">    -93.72989971 </i>
    <i name="e_0_energy">    -93.74603955 </i>
   </energy>
  </scstep>
  <scstep>
   <time name="dav">   89.63   89.68</time>
   <time name="total">   89.64   89.69</time>
   <energy>
    <i name="e_fr_energy">    -96.90405910 </i>
    <i name="e_wo_entrp">    -96.87273395 </i>
    <i name="e_0_energy">    -96.88839653 </i>
   </energy>
  </scstep>
  <scstep>
   <time name="dav">   79.73   79.79</time>
   <time name="total">   83.88   83.94</time>
   <energy>
    <i name="e_fr_energy">    -96.95341135 </i>
    <i name="e_wo_entrp">    -96.92217025 </i>
    <i name="e_0_energy">    -96.93779080 </i>
   </energy>
  </scstep>
  <scstep>
   <time name="dav">   73.07   73.12</time>
   <time name="total">   91.72   91.77</time>
   <energy>
    <i name="e_fr_energy">    -91.33989437 </i>
    <i name="e_wo_entrp">    -91.31558045 </i>
    <i name="e_0_energy">    -91.32773741 </i>
   </energy>
  </scstep>
  <scstep>
   <time name="dav">   67.34   67.36</time>
   <time name="total">   85.99   86.02</time>
   <energy>
    <i name="e_fr_energy">    -91.57027396 </i>
    <i name="e_wo_entrp">    -91.53784352 </i>
    <i name="e_0_energy">    -91.55405874 </i>
   </energy>
  </scstep>
  <scstep>
   <time name="dav">   72.73   72.78</time>
   <time name="total">   91.36   91.41</time>
   <energy>
    <i name="e_fr_energy">    -91.53023472 </i>
    <i name="e_wo_entrp">    -91.49905425 </i>
    <i name="e_0_energy">    -91.51464449 </i>
   </energy>
  </scstep>
  <scstep>
   <time name="dav">   73.76   73.83</time>
   <time name="total">   92.41   92.49</time>
   <energy>
    <i name="e_fr_energy">    -91.56204428 </i>
    <i name="e_wo_entrp">    -91.52900267 </i>
    <i name="e_0_energy">    -91.54552347 </i>
   </energy>
  </scstep>
  <scstep>
   <time name="dav">   71.24   71.26</time>
   <time name="total">   89.86   89.89</time>
   <energy>
    <i name="e_fr_energy">    -91.54970019 </i>
    <i name="e_wo_entrp">    -91.51384191 </i>
    <i name="e_0_energy">    -91.53177105 </i>
   </energy>
  </scstep>
  <scstep>
   <time name="dav">   76.50   76.52</time>
   <time name="total">   95.13   95.16</time>
   <energy>
    <i name="e_fr_energy">    -91.54447107 </i>
    <i name="e_wo_entrp">    -91.50846561 </i>
    <i name="e_0_energy">    -91.52646834 </i>
   </energy>
  </scstep>
  <scstep>
   <time name="dav">   73.40   73.42</time>
   <time name="total">   92.25   92.27</time>
   <energy>
    <i name="e_fr_energy">    -91.53389597 </i>
    <i name="e_wo_entrp">    -91.49791198 </i>
    <i name="e_0_energy">    -91.51590397 </i>
   </energy>
  </scstep>
  <scstep>
   <time name="dav">   72.40   72.42</time>
   <time name="total">   91.29   91.31</time>
   <energy>
    <i name="e_fr_energy">    -91.52706833 </i>
    <i name="e_wo_entrp">    -91.49112982 </i>
    <i name="e_0_energy">    -91.50909907 </i>
   </energy>
  </scstep>
  <scstep>
   <time name="dav">   75.39   75.40</time>
   <time name="total">   94.08   94.10</time>
   <energy>
    <i name="e_fr_energy">    -91.52473664 </i>
    <i name="e_wo_entrp">    -91.48881308 </i>
    <i name="e_0_energy">    -91.50677486 </i>
   </energy>
  </scstep>
  <scstep>
   <time name="dav">   74.47   74.49</time>
   <time name="total">   93.16   93.18</time>
   <energy>
    <i name="e_fr_energy">    -91.52323272 </i>
    <i name="e_wo_entrp">    -91.48730933 </i>
    <i name="e_0_energy">    -91.50527103 </i>
   </energy>
  </scstep>
  <scstep>
   <time name="dav">   67.27   67.30</time>
   <time name="total">   86.20   86.23</time>
   <energy>
    <i name="e_fr_energy">    -91.52281319 </i>
    <i name="e_wo_entrp">    -91.48688406 </i>
    <i name="e_0_energy">    -91.50484863 </i>
   </energy>
  </scstep>
  <scstep>
   <time name="dav">   66.59   66.61</time>
   <time name="total">   85.42   85.44</time>
   <energy>
    <i name="e_fr_energy">    -91.52346268 </i>
    <i name="e_wo_entrp">    -91.48753708 </i>
    <i name="e_0_energy">    -91.50549988 </i>
   </energy>
  </scstep>
  <scstep>
   <time name="dav">   67.15   67.16</time>
   <time name="total">   85.96   85.98</time>
   <energy>
    <i name="e_fr_energy">    -91.52381082 </i>
    <i name="e_wo_entrp">    -91.48788603 </i>
    <i name="e_0_energy">    -91.50584843 </i>
   </energy>
  </scstep>
  <scstep>
   <time name="dav">   62.24   62.26</time>
   <time name="total">   80.90   80.92</time>
   <energy>
    <i name="e_fr_energy">    -91.52388694 </i>
    <i name="e_wo_entrp">    -91.48796401 </i>
    <i name="e_0_energy">    -91.50592548 </i>
   </energy>
  </scstep>
  <scstep>
   <time name="dav">   56.33   56.34</time>
   <time name="total">   75.01   75.03</time>
   <energy>
    <i name="e_fr_energy">    -91.52392086 </i>
    <i name="e_wo_entrp">    -91.48799796 </i>
    <i name="e_0_energy">    -91.50595941 </i>
   </energy>
  </scstep>
  <scstep>
   <time name="dav">   61.04   61.05</time>
   <time name="total">   80.08   80.09</time>
   <energy>
    <i name="e_fr_energy">    -91.52391902 </i>
    <i name="e_wo_entrp">    -91.48799500 </i>
    <i name="e_0_energy">    -91.50595701 </i>
   </energy>
  </scstep>
  <scstep>
   <time name="dav">   60.41   60.43</time>
   <time name="total">   79.25   79.27</time>
   <energy>
    <i name="e_fr_energy">    -91.52386329 </i>
    <i name="e_wo_entrp">    -91.48793828 </i>
    <i name="e_0_energy">    -91.50590078 </i>
   </energy>
  </scstep>
  <scstep>
   <time name="dav">   57.18   57.19</time>
   <time name="total">   76.08   76.10</time>
   <energy>
    <i name="e_fr_energy">    -91.52381493 </i>
    <i name="e_wo_entrp">    -91.48789023 </i>
    <i name="e_0_energy">    -91.50585258 </i>
   </energy>
  </scstep>
  <scstep>
   <time name="dav">   54.50   54.51</time>
   <time name="total">   73.21   73.22</time>
   <energy>
    <i name="e_fr_energy">    -91.52379072 </i>
    <i name="e_wo_entrp">    -91.48786614 </i>
    <i name="e_0_energy">    -91.50582843 </i>
   </energy>
  </scstep>
  <scstep>
   <time name="dav">   57.74   57.75</time>
   <time name="total">   76.47   76.49</time>
   <energy>
    <i name="e_fr_energy">    -91.52377542 </i>
    <i name="e_wo_entrp">    -91.48785071 </i>
    <i name="e_0_energy">    -91.50581306 </i>
   </energy>
  </scstep>
  <scstep>
   <time name="dav">   55.56   55.57</time>
   <time name="total">   74.36   74.38</time>
   <energy>
    <i name="e_fr_energy">    -91.52377229 </i>
    <i name="e_wo_entrp">    -91.48784760 </i>
    <i name="e_0_energy">    -91.50580995 </i>
   </energy>
  </scstep>
  <scstep>
   <time name="dav">   56.15   56.16</time>
   <time name="total">   70.67   70.69</time>
   <energy>
    <i name="alphaZ">     36.80884744 </i>
    <i name="ewald">  12066.15055460 </i>
    <i name="hartreedc"> -15168.48432123 </i>
    <i name="XCdc">    -79.00002757 </i>
    <i name="pawpsdc">   1202.71640555 </i>
    <i name="pawaedc">   -883.28590874 </i>
    <i name="eentropy">     -0.03592468 </i>
    <i name="bandstr">   -620.43465794 </i>
    <i name="atom">   3354.04126044 </i>
    <i name="e_fr_energy">    -91.52377212 </i>
    <i name="e_wo_entrp">    -91.48784744 </i>
    <i name="e_0_energy">    -91.50580978 </i>
   </energy>
  </scstep>
  <structure>
   <crystal>
    <varray name="basis" >
     <v>       3.54040000       0.00000000       0.00000000 </v>
     <v>      -1.77020000      10.29434800       0.00000000 </v>
     <v>       0.00000000       0.00000000      27.50142900 </v>
    </varray>
    <i name="volume">   1002.32009712 </i>
    <varray name="rec_basis" >
     <v>       0.28245396       0.04857034       0.00000000 </v>
     <v>       0.00000000       0.09714068       0.00000000 </v>
     <v>       0.00000000       0.00000000       0.03636175 </v>
    </varray>
   </crystal>
   <varray name="positions" >
    <v>       0.11402300       0.22804500       0.23316207 </v>
    <v>       0.11402300       0.72804500       0.51499159 </v>
    <v>       0.45808900       0.91617900       0.20939482 </v>
    <v>       0.45808900       0.41617900       0.49122434 </v>
    <v>       0.31085400       0.62170900       0.08414979 </v>
    <v>       0.31085400       0.62170900       0.36597930 </v>
    <v>       0.99923000       0.99846000       0.08631254 </v>
    <v>       0.99923000       0.99846000       0.36814206 </v>
    <v>       0.65492700       0.30985400       0.06041748 </v>
    <v>       0.65492700       0.30985400       0.34224700 </v>
    <v>       0.76973800       0.53947500       0.20725292 </v>
    <v>       0.76973800       0.03947500       0.48908244 </v>
    <v>       0.93971600       0.87943300       0.15783749 </v>
    <v>       0.93971600       0.37943300       0.43966701 </v>
    <v>       0.20515200       0.41030300       0.18578822 </v>
    <v>       0.20515200       0.91030300       0.46761774 </v>
    <v>       0.20184900       0.40369900       0.09969156 </v>
    <v>       0.20184900       0.40369900       0.38152107 </v>
    <v>       0.56380500       0.12761000       0.10779021 </v>
    <v>       0.56380500       0.12761000       0.38961973 </v>
    <v>       0.56710600       0.13421200       0.19387616 </v>
    <v>       0.56710600       0.63421200       0.47570568 </v>
    <v>       0.82923400       0.65846800       0.13571444 </v>
    <v>       0.82923400       0.15846800       0.41754396 </v>
   </varray>
  </structure>
  <varray name="forces" >
   <v>      -0.03594820      -0.02760039       0.00691660 </v>
   <v>      -0.07638286      -0.07701731      -0.26056250 </v>
   <v>      -0.00278829      -0.01298769       0.08179079 </v>
   <v>       0.38298484       0.07467306       0.57061630 </v>
   <v>      -0.00026076      -0.00258208       0.00751325 </v>
   <v>       0.51908235      -0.19526972       1.13542229 </v>
   <v>      -0.00364065      -0.00150745       0.00139050 </v>
   <v>       0.14118719      -0.50861179      -0.17118702 </v>
   <v>       0.00105726      -0.00116737       0.00540341 </v>
   <v>      -0.60990817       0.17503928      -1.39300099 </v>
   <v>       0.00097978       0.00661817       0.09735513 </v>
   <v>       0.31268809      -0.59295760       0.84098341 </v>
   <v>       0.00279367      -0.00168947       0.00726395 </v>
   <v>      -4.53768430      -1.28986837      11.16617315 </v>
   <v>      -0.00397910       0.01540637       0.03675314 </v>
   <v>      -0.36782068       0.57093032      -0.00415105 </v>
   <v>       0.00131260      -0.00226012      -0.01618812 </v>
   <v>       4.96168776       3.38461068     -11.14402536 </v>
   <v>      -0.00687757      -0.00813699      -0.01295248 </v>
   <v>     -77.72406429     -28.16073146     -68.46827894 </v>
   <v>       0.00642526      -0.01895622       0.00381395 </v>
   <v>      -0.39453626      -0.16819459      -1.19071999 </v>
   <v>       0.00166066       0.00649424      -0.00211376 </v>
   <v>      77.43203167      26.83576650      68.70178434 </v>
  </varray>
  <varray name="stress" >
   <v>     115.65912978      44.13446071      84.14333991 </v>
   <v>      44.13446064      19.83332910      28.30505881 </v>
   <v>      84.14334005      28.30505852     111.40704061 </v>
  </varray>
  <energy>
   <i name="e_fr_energy">    -91.52377212 </i>
   <i name="e_wo_entrp">    -91.50580978 </i>
   <i name="e_0_energy">     -0.03592468 </i>
  </energy>
  <time name="totalsc"> 2368.45 2369.37</time>
  <eigenvalues>
   <array>
    <dimension dim="1">band</dimension>
    <dimension dim="2">kpoint</dimension>
    <dimension dim="3">spin</dimension>
    <field>eigene</field>
    <field>occ</field>
    <set>
     <set comment="spin 1">
      <set comment="kpoint 1">
       <r>  -14.7508    1.0000 </r>
       <r>  -13.5459    1.0000 </r>
       <r>  -13.3020    1.0000 </r>
       <r>  -12.8092    1.0000 </r>
       <r>  -12.7959    1.0000 </r>
       <r>  -12.4862    1.0000 </r>
       <r>  -12.0933    1.0000 </r>
       <r>  -11.7474    1.0000 </r>
       <r>  -11.4437    1.0000 </r>
       <r>  -11.4279    1.0000 </r>
       <r>  -10.9970    1.0000 </r>
       <r>  -10.0252    1.0000 </r>
       <r>   -8.9794    1.0000 </r>
       <r>   -8.1816    1.0000 </r>
       <r>   -8.0297    1.0000 </r>
       <r>   -7.8328    1.0000 </r>
       <r>   -6.8586    1.0000 </r>
       <r>   -6.8339    1.0000 </r>
       <r>   -6.4992    1.0000 </r>
       <r>   -6.0565    1.0000 </r>
       <r>   -5.8366    1.0000 </r>
       <r>   -5.5902    1.0000 </r>
       <r>   -5.3400    1.0000 </r>
       <r>   -4.7567    1.0000 </r>
       <r>   -4.2919    1.0000 </r>
       <r>   -4.1626    1.0000 </r>
       <r>   -3.7223    1.0000 </r>
       <r>   -3.6319    1.0000 </r>
       <r>   -3.3375    1.0000 </r>
       <r>   -3.1022    1.0000 </r>
       <r>   -3.0663    1.0000 </r>
       <r>   -3.0508    1.0000 </r>
       <r>   -2.8518    1.0000 </r>
       <r>   -2.8478    1.0000 </r>
       <r>   -2.6042    1.0000 </r>
       <r>   -2.5119    1.0000 </r>
       <r>   -2.4481    1.0000 </r>
       <r>   -2.3921    1.0000 </r>
       <r>   -2.2739    1.0000 </r>
       <r>   -2.0837    1.0000 </r>
       <r>   -1.9786    1.0000 </r>
       <r>   -1.8811    1.0000 </r>
       <r>   -1.8475    1.0000 </r>
       <r>   -1.7361    1.0000 </r>
       <r>   -1.6475    1.0000 </r>
       <r>   -1.5949    1.0000 </r>
       <r>   -1.4383    1.0000 </r>
       <r>   -1.4004    1.0000 </r>
       <r>   -1.3456    1.0000 </r>
       <r>   -1.0980    1.0000 </r>
       <r>   -1.0239    1.0000 </r>
       <r>   -0.7799    1.0000 </r>
       <r>   -0.5046    1.0000 </r>
       <r>    0.3835    0.0844 </r>
       <r>    0.5265    0.0003 </r>
       <r>    0.7821    0.0000 </r>
       <r>    1.1376    0.0000 </r>
       <r>    1.2212    0.0000 </r>
       <r>    1.3326    0.0000 </r>
       <r>    1.3944    0.0000 </r>
       <r>    1.6063    0.0000 </r>
       <r>    1.6980    0.0000 </r>
       <r>    1.8271    0.0000 </r>
       <r>    1.9639    0.0000 </r>
       <r>    2.0279    0.0000 </r>
       <r>    2.2399    0.0000 </r>
       <r>    2.4269    0.0000 </r>
       <r>    2.6009    0.0000 </r>
      </set>
      <set comment="kpoint 2">
       <r>  -14.6930    1.0000 </r>
       <r>  -13.4845    1.0000 </r>
       <r>  -13.2464    1.0000 </r>
       <r>  -12.7560    1.0000 </r>
       <r>  -12.7370    1.0000 </r>
       <r>  -12.4306    1.0000 </r>
       <r>  -12.0311    1.0000 </r>
       <r>  -11.7073    1.0000 </r>
       <r>  -11.3920    1.0000 </r>
       <r>  -11.3705    1.0000 </r>
       <r>  -10.9486    1.0000 </r>
       <r>   -9.9994    1.0000 </r>
       <r>   -8.9629    1.0000 </r>
       <r>   -8.1754    1.0000 </r>
       <r>   -8.0680    1.0000 </r>
       <r>   -7.7948    1.0000 </r>
       <r>   -6.8459    1.0000 </r>
       <r>   -6.8019    1.0000 </r>
       <r>   -6.4934    1.0000 </r>
       <r>   -6.0366    1.0000 </r>
       <r>   -5.8031    1.0000 </r>
       <r>   -5.5978    1.0000 </r>
       <r>   -5.4529    1.0000 </r>
       <r>   -4.7633    1.0000 </r>
       <r>   -4.6079    1.0000 </r>
       <r>   -4.2432    1.0000 </r>
       <r>   -3.7717    1.0000 </r>
       <r>   -3.6833    1.0000 </r>
       <r>   -3.5633    1.0000 </r>
       <r>   -3.4070    1.0000 </r>
       <r>   -3.2681    1.0000 </r>
       <r>   -3.2288    1.0000 </r>
       <r>   -3.1523    1.0000 </r>
       <r>   -2.8757    1.0000 </r>
       <r>   -2.8251    1.0000 </r>
       <r>   -2.7568    1.0000 </r>
       <r>   -2.6323    1.0000 </r>
       <r>   -2.4862    1.0000 </r>
       <r>   -2.3880    1.0000 </r>
       <r>   -2.2152    1.0000 </r>
       <r>   -2.1107    1.0000 </r>
       <r>   -2.0232    1.0000 </r>
       <r>   -1.9709    1.0000 </r>
       <r>   -1.8493    1.0000 </r>
       <r>   -1.8262    1.0000 </r>
       <r>   -1.7516    1.0000 </r>
       <r>   -1.5275    1.0000 </r>
       <r>   -1.4369    1.0000 </r>
       <r>   -1.2794    1.0000 </r>
       <r>   -1.0731    1.0000 </r>
       <r>   -0.9899    1.0000 </r>
       <r>   -0.7800    1.0000 </r>
       <r>   -0.5032    1.0000 </r>
       <r>    0.4092    0.0409 </r>
       <r>    0.5817    0.0000 </r>
       <r>    0.9094    0.0000 </r>
       <r>    1.1697    0.0000 </r>
       <r>    1.4165    0.0000 </r>
       <r>    1.5604    0.0000 </r>
       <r>    1.7087    0.0000 </r>
       <r>    1.7610    0.0000 </r>
       <r>    2.0464    0.0000 </r>
       <r>    2.1323    0.0000 </r>
       <r>    2.2234    0.0000 </r>
       <r>    2.2612    0.0000 </r>
       <r>    2.4068    0.0000 </r>
       <r>    2.6089    0.0000 </r>
       <r>    2.7126    0.0000 </r>
      </set>
      <set comment="kpoint 3">
       <r>  -14.5212    1.0000 </r>
       <r>  -13.3015    1.0000 </r>
       <r>  -13.0811    1.0000 </r>
       <r>  -12.5994    1.0000 </r>
       <r>  -12.5606    1.0000 </r>
       <r>  -12.2659    1.0000 </r>
       <r>  -11.8487    1.0000 </r>
       <r>  -11.5886    1.0000 </r>
       <r>  -11.2482    1.0000 </r>
       <r>  -11.1999    1.0000 </r>
       <r>  -10.8098    1.0000 </r>
       <r>   -9.9381    1.0000 </r>
       <r>   -8.9318    1.0000 </r>
       <r>   -8.1904    1.0000 </r>
       <r>   -8.1620    1.0000 </r>
       <r>   -7.7525    1.0000 </r>
       <r>   -6.8563    1.0000 </r>
       <r>   -6.7268    1.0000 </r>
       <r>   -6.5053    1.0000 </r>
       <r>   -6.0545    1.0000 </r>
       <r>   -5.9566    1.0000 </r>
       <r>   -5.7282    1.0000 </r>
       <r>   -5.5668    1.0000 </r>
       <r>   -5.0206    1.0000 </r>
       <r>   -4.8699    1.0000 </r>
       <r>   -4.4199    1.0000 </r>
       <r>   -4.2362    1.0000 </r>
       <r>   -4.1871    1.0000 </r>
       <r>   -4.0861    1.0000 </r>
       <r>   -3.9712    1.0000 </r>
       <r>   -3.7023    1.0000 </r>
       <r>   -3.5833    1.0000 </r>
       <r>   -3.4546    1.0000 </r>
       <r>   -3.2949    1.0000 </r>
       <r>   -3.1536    1.0000 </r>
       <r>   -2.9930    1.0000 </r>
       <r>   -2.9756    1.0000 </r>
       <r>   -2.9415    1.0000 </r>
       <r>   -2.8326    1.0000 </r>
       <r>   -2.6537    1.0000 </r>
       <r>   -2.3950    1.0000 </r>
       <r>   -2.3199    1.0000 </r>
       <r>   -2.1575    1.0000 </r>
       <r>   -1.9703    1.0000 </r>
       <r>   -1.7966    1.0000 </r>
       <r>   -1.7791    1.0000 </r>
       <r>   -1.6678    1.0000 </r>
       <r>   -1.4344    1.0000 </r>
       <r>   -1.2622    1.0000 </r>
       <r>   -1.0979    1.0000 </r>
       <r>   -0.9378    1.0000 </r>
       <r>   -0.7971    1.0000 </r>
       <r>   -0.5869    1.0000 </r>
       <r>    0.2734    0.5719 </r>
       <r>    0.5518    0.0001 </r>
       <r>    0.9159    0.0000 </r>
       <r>    1.3037    0.0000 </r>
       <r>    1.4393    0.0000 </r>
       <r>    1.7615    0.0000 </r>
       <r>    1.9379    0.0000 </r>
       <r>    2.2398    0.0000 </r>
       <r>    2.4015    0.0000 </r>
       <r>    2.4786    0.0000 </r>
       <r>    2.6327    0.0000 </r>
       <r>    2.6925    0.0000 </r>
       <r>    2.9007    0.0000 </r>
       <r>    2.9633    0.0000 </r>
       <r>    3.0575    0.0000 </r>
      </set>
      <set comment="kpoint 4">
       <r>  -14.2424    1.0000 </r>
       <r>  -13.0005    1.0000 </r>
       <r>  -12.8118    1.0000 </r>
       <r>  -12.3428    1.0000 </r>
       <r>  -12.2756    1.0000 </r>
       <r>  -11.9993    1.0000 </r>
       <r>  -11.5612    1.0000 </r>
       <r>  -11.4029    1.0000 </r>
       <r>  -11.0308    1.0000 </r>
       <r>  -10.9397    1.0000 </r>
       <r>  -10.6067    1.0000 </r>
       <r>   -9.9064    1.0000 </r>
       <r>   -8.9365    1.0000 </r>
       <r>   -8.3647    1.0000 </r>
       <r>   -8.2977    1.0000 </r>
       <r>   -7.8274    1.0000 </r>
       <r>   -7.0394    1.0000 </r>
       <r>   -6.6985    1.0000 </r>
       <r>   -6.6388    1.0000 </r>
       <r>   -6.4792    1.0000 </r>
       <r>   -6.1393    1.0000 </r>
       <r>   -5.7756    1.0000 </r>
       <r>   -5.7288    1.0000 </r>
       <r>   -5.3516    1.0000 </r>
       <r>   -5.3135    1.0000 </r>
       <r>   -4.9103    1.0000 </r>
       <r>   -4.8104    1.0000 </r>
       <r>   -4.6141    1.0000 </r>
       <r>   -4.5266    1.0000 </r>
       <r>   -4.4613    1.0000 </r>
       <r>   -4.1904    1.0000 </r>
       <r>   -3.9948    1.0000 </r>
       <r>   -3.8060    1.0000 </r>
       <r>   -3.6930    1.0000 </r>
       <r>   -3.4914    1.0000 </r>
       <r>   -3.4614    1.0000 </r>
       <r>   -3.1026    1.0000 </r>
       <r>   -3.0121    1.0000 </r>
       <r>   -2.9826    1.0000 </r>
       <r>   -2.7591    1.0000 </r>
       <r>   -2.5926    1.0000 </r>
       <r>   -2.4844    1.0000 </r>
       <r>   -2.4274    1.0000 </r>
       <r>   -1.9334    1.0000 </r>
       <r>   -1.8688    1.0000 </r>
       <r>   -1.8164    1.0000 </r>
       <r>   -1.7303    1.0000 </r>
       <r>   -1.4883    1.0000 </r>
       <r>   -1.4344    1.0000 </r>
       <r>   -1.1612    1.0000 </r>
       <r>   -1.0375    1.0000 </r>
       <r>   -0.9328    1.0000 </r>
       <r>   -0.7814    1.0000 </r>
       <r>   -0.2754    1.0000 </r>
       <r>    0.4827    0.0027 </r>
       <r>    0.8002    0.0000 </r>
       <r>    1.2539    0.0000 </r>
       <r>    1.5494    0.0000 </r>
       <r>    1.8606    0.0000 </r>
       <r>    1.9517    0.0000 </r>
       <r>    2.0583    0.0000 </r>
       <r>    2.2659    0.0000 </r>
       <r>    2.3743    0.0000 </r>
       <r>    2.5472    0.0000 </r>
       <r>    2.6725    0.0000 </r>
       <r>    2.8762    0.0000 </r>
       <r>    2.9043    0.0000 </r>
       <r>    2.9797    0.0000 </r>
      </set>
      <set comment="kpoint 5">
       <r>  -13.8722    1.0000 </r>
       <r>  -12.5888    1.0000 </r>
       <r>  -12.4526    1.0000 </r>
       <r>  -11.9944    1.0000 </r>
       <r>  -11.9061    1.0000 </r>
       <r>  -11.6477    1.0000 </r>
       <r>  -11.2139    1.0000 </r>
       <r>  -11.1816    1.0000 </r>
       <r>  -10.7865    1.0000 </r>
       <r>  -10.6494    1.0000 </r>
       <r>  -10.4207    1.0000 </r>
       <r>  -10.0378    1.0000 </r>
       <r>   -8.9700    1.0000 </r>
       <r>   -8.6596    1.0000 </r>
       <r>   -8.5970    1.0000 </r>
       <r>   -8.0889    1.0000 </r>
       <r>   -7.3025    1.0000 </r>
       <r>   -7.0011    1.0000 </r>
       <r>   -6.9059    1.0000 </r>
       <r>   -6.8273    1.0000 </r>
       <r>   -6.6361    1.0000 </r>
       <r>   -6.1698    1.0000 </r>
       <r>   -5.9768    1.0000 </r>
       <r>   -5.9649    1.0000 </r>
       <r>   -5.4870    1.0000 </r>
       <r>   -5.3381    1.0000 </r>
       <r>   -5.2034    1.0000 </r>
       <r>   -4.7955    1.0000 </r>
       <r>   -4.7075    1.0000 </r>
       <r>   -4.6214    1.0000 </r>
       <r>   -4.3238    1.0000 </r>
       <r>   -4.2386    1.0000 </r>
       <r>   -4.2207    1.0000 </r>
       <r>   -3.8300    1.0000 </r>
       <r>   -3.5550    1.0000 </r>
       <r>   -3.3928    1.0000 </r>
       <r>   -3.1796    1.0000 </r>
       <r>   -3.0845    1.0000 </r>
       <r>   -3.0392    1.0000 </r>
       <r>   -2.9289    1.0000 </r>
       <r>   -2.7638    1.0000 </r>
       <r>   -2.5956    1.0000 </r>
       <r>   -2.4803    1.0000 </r>
       <r>   -2.0818    1.0000 </r>
       <r>   -1.9876    1.0000 </r>
       <r>   -1.9024    1.0000 </r>
       <r>   -1.8782    1.0000 </r>
       <r>   -1.7158    1.0000 </r>
       <r>   -1.5326    1.0000 </r>
       <r>   -1.3065    1.0000 </r>
       <r>   -1.1432    1.0000 </r>
       <r>   -1.0830    1.0000 </r>
       <r>   -1.0002    1.0000 </r>
       <r>   -0.7006    1.0000 </r>
       <r>    0.3285    0.2748 </r>
       <r>    0.6447    0.0000 </r>
       <r>    1.1002    0.0000 </r>
       <r>    1.3245    0.0000 </r>
       <r>    1.6243    0.0000 </r>
       <r>    1.7950    0.0000 </r>
       <r>    1.9345    0.0000 </r>
       <r>    2.0765    0.0000 </r>
       <r>    2.2300    0.0000 </r>
       <r>    2.3348    0.0000 </r>
       <r>    2.3843    0.0000 </r>
       <r>    2.6728    0.0000 </r>
       <r>    2.6985    0.0000 </r>
       <r>    2.8155    0.0000 </r>
      </set>
      <set comment="kpoint 6">
       <r>  -13.4511    1.0000 </r>
       <r>  -12.0815    1.0000 </r>
       <r>  -12.0428    1.0000 </r>
       <r>  -11.5754    1.0000 </r>
       <r>  -11.5367    1.0000 </r>
       <r>  -11.2507    1.0000 </r>
       <r>  -11.0502    1.0000 </r>
       <r>  -10.8561    1.0000 </r>
       <r>  -10.6319    1.0000 </r>
       <r>  -10.5310    1.0000 </r>
       <r>  -10.4601    1.0000 </r>
       <r>  -10.2278    1.0000 </r>
       <r>   -8.9927    1.0000 </r>
       <r>   -8.9191    1.0000 </r>
       <r>   -8.8349    1.0000 </r>
       <r>   -8.3816    1.0000 </r>
       <r>   -7.6313    1.0000 </r>
       <r>   -7.4637    1.0000 </r>
       <r>   -7.4211    1.0000 </r>
       <r>   -7.2134    1.0000 </r>
       <r>   -6.9834    1.0000 </r>
       <r>   -6.7658    1.0000 </r>
       <r>   -6.6661    1.0000 </r>
       <r>   -6.2993    1.0000 </r>
       <r>   -5.6253    1.0000 </r>
       <r>   -5.3540    1.0000 </r>
       <r>   -5.2061    1.0000 </r>
       <r>   -4.7716    1.0000 </r>
       <r>   -4.6173    1.0000 </r>
       <r>   -4.5310    1.0000 </r>
       <r>   -4.2806    1.0000 </r>
       <r>   -4.2151    1.0000 </r>
       <r>   -4.0884    1.0000 </r>
       <r>   -3.8268    1.0000 </r>
       <r>   -3.6574    1.0000 </r>
       <r>   -3.6140    1.0000 </r>
       <r>   -3.2751    1.0000 </r>
       <r>   -3.2454    1.0000 </r>
       <r>   -3.1667    1.0000 </r>
       <r>   -2.9977    1.0000 </r>
       <r>   -2.7931    1.0000 </r>
       <r>   -2.5622    1.0000 </r>
       <r>   -2.4994    1.0000 </r>
       <r>   -2.3126    1.0000 </r>
       <r>   -2.2005    1.0000 </r>
       <r>   -2.0955    1.0000 </r>
       <r>   -2.0302    1.0000 </r>
       <r>   -1.8519    1.0000 </r>
       <r>   -1.6153    1.0000 </r>
       <r>   -1.5136    1.0000 </r>
       <r>   -1.4179    1.0000 </r>
       <r>   -1.2770    1.0000 </r>
       <r>   -0.9972    1.0000 </r>
       <r>   -0.7780    1.0000 </r>
       <r>    0.2396    0.7449 </r>
       <r>    0.5044    0.0010 </r>
       <r>    0.9112    0.0000 </r>
       <r>    1.2018    0.0000 </r>
       <r>    1.4298    0.0000 </r>
       <r>    1.7008    0.0000 </r>
       <r>    1.7103    0.0000 </r>
       <r>    1.8800    0.0000 </r>
       <r>    2.0661    0.0000 </r>
       <r>    2.1326    0.0000 </r>
       <r>    2.2710    0.0000 </r>
       <r>    2.3156    0.0000 </r>
       <r>    2.4502    0.0000 </r>
       <r>    2.7348    0.0000 </r>
      </set>
      <set comment="kpoint 7">
       <r>  -13.1018    1.0000 </r>
       <r>  -11.7532    1.0000 </r>
       <r>  -11.5062    1.0000 </r>
       <r>  -11.3955    1.0000 </r>
       <r>  -11.1527    1.0000 </r>
       <r>  -10.9514    1.0000 </r>
       <r>  -10.9459    1.0000 </r>
       <r>  -10.8482    1.0000 </r>
       <r>  -10.7356    1.0000 </r>
       <r>  -10.6394    1.0000 </r>
       <r>  -10.5782    1.0000 </r>
       <r>  -10.3290    1.0000 </r>
       <r>   -9.1838    1.0000 </r>
       <r>   -8.8654    1.0000 </r>
       <r>   -8.6933    1.0000 </r>
       <r>   -8.4442    1.0000 </r>
       <r>   -8.0841    1.0000 </r>
       <r>   -7.8770    1.0000 </r>
       <r>   -7.5779    1.0000 </r>
       <r>   -7.5589    1.0000 </r>
       <r>   -7.2925    1.0000 </r>
       <r>   -7.1995    1.0000 </r>
       <r>   -7.1794    1.0000 </r>
       <r>   -6.3899    1.0000 </r>
       <r>   -5.6124    1.0000 </r>
       <r>   -5.3942    1.0000 </r>
       <r>   -4.9282    1.0000 </r>
       <r>   -4.7260    1.0000 </r>
       <r>   -4.5194    1.0000 </r>
       <r>   -4.3756    1.0000 </r>
       <r>   -4.2466    1.0000 </r>
       <r>   -4.0645    1.0000 </r>
       <r>   -3.9451    1.0000 </r>
       <r>   -3.8453    1.0000 </r>
       <r>   -3.8231    1.0000 </r>
       <r>   -3.5984    1.0000 </r>
       <r>   -3.5593    1.0000 </r>
       <r>   -3.2622    1.0000 </r>
       <r>   -3.1951    1.0000 </r>
       <r>   -3.0136    1.0000 </r>
       <r>   -2.8970    1.0000 </r>
       <r>   -2.7025    1.0000 </r>
       <r>   -2.6636    1.0000 </r>
       <r>   -2.4110    1.0000 </r>
       <r>   -2.3410    1.0000 </r>
       <r>   -2.1953    1.0000 </r>
       <r>   -2.1136    1.0000 </r>
       <r>   -1.7976    1.0000 </r>
       <r>   -1.7098    1.0000 </r>
       <r>   -1.6506    1.0000 </r>
       <r>   -1.5225    1.0000 </r>
       <r>   -1.3720    1.0000 </r>
       <r>   -0.9885    1.0000 </r>
       <r>   -0.7894    1.0000 </r>
       <r>    0.2365    0.7588 </r>
       <r>    0.4275    0.0228 </r>
       <r>    0.7299    0.0000 </r>
       <r>    1.2061    0.0000 </r>
       <r>    1.3621    0.0000 </r>
       <r>    1.5810    0.0000 </r>
       <r>    1.6378    0.0000 </r>
       <r>    1.7001    0.0000 </r>
       <r>    1.8771    0.0000 </r>
       <r>    2.0296    0.0000 </r>
       <r>    2.1053    0.0000 </r>
       <r>    2.3631    0.0000 </r>
       <r>    2.4058    0.0000 </r>
       <r>    2.5058    0.0000 </r>
      </set>
      <set comment="kpoint 8">
       <r>  -14.7473    1.0000 </r>
       <r>  -13.4906    1.0000 </r>
       <r>  -13.3588    1.0000 </r>
       <r>  -12.9804    1.0000 </r>
       <r>  -12.6708    1.0000 </r>
       <r>  -12.4843    1.0000 </r>
       <r>  -11.9785    1.0000 </r>
       <r>  -11.8747    1.0000 </r>
       <r>  -11.4834    1.0000 </r>
       <r>  -11.2447    1.0000 </r>
       <r>  -11.0056    1.0000 </r>
       <r>  -10.0010    1.0000 </r>
       <r>   -9.1156    1.0000 </r>
       <r>   -8.5201    1.0000 </r>
       <r>   -8.1323    1.0000 </r>
       <r>   -7.3829    1.0000 </r>
       <r>   -6.8803    1.0000 </r>
       <r>   -6.6762    1.0000 </r>
       <r>   -6.6088    1.0000 </r>
       <r>   -6.0591    1.0000 </r>
       <r>   -5.7545    1.0000 </r>
       <r>   -5.5788    1.0000 </r>
       <r>   -5.1958    1.0000 </r>
       <r>   -4.6591    1.0000 </r>
       <r>   -4.2550    1.0000 </r>
       <r>   -4.0972    1.0000 </r>
       <r>   -4.0176    1.0000 </r>
       <r>   -3.5859    1.0000 </r>
       <r>   -3.4097    1.0000 </r>
       <r>   -3.3042    1.0000 </r>
       <r>   -3.1331    1.0000 </r>
       <r>   -3.0814    1.0000 </r>
       <r>   -2.8878    1.0000 </r>
       <r>   -2.7153    1.0000 </r>
       <r>   -2.6804    1.0000 </r>
       <r>   -2.5196    1.0000 </r>
       <r>   -2.3937    1.0000 </r>
       <r>   -2.3743    1.0000 </r>
       <r>   -2.3197    1.0000 </r>
       <r>   -2.1598    1.0000 </r>
       <r>   -1.9962    1.0000 </r>
       <r>   -1.9616    1.0000 </r>
       <r>   -1.8892    1.0000 </r>
       <r>   -1.8121    1.0000 </r>
       <r>   -1.6329    1.0000 </r>
       <r>   -1.4927    1.0000 </r>
       <r>   -1.4157    1.0000 </r>
       <r>   -1.3685    1.0000 </r>
       <r>   -1.2201    1.0000 </r>
       <r>   -1.0708    1.0000 </r>
       <r>   -1.0141    1.0000 </r>
       <r>   -0.8569    1.0000 </r>
       <r>   -0.4549    1.0000 </r>
       <r>    0.2819    0.5238 </r>
       <r>    0.5658    0.0000 </r>
       <r>    0.9069    0.0000 </r>
       <r>    1.1546    0.0000 </r>
       <r>    1.2478    0.0000 </r>
       <r>    1.3941    0.0000 </r>
       <r>    1.4250    0.0000 </r>
       <r>    1.5914    0.0000 </r>
       <r>    1.7296    0.0000 </r>
       <r>    1.7813    0.0000 </r>
       <r>    1.9388    0.0000 </r>
       <r>    2.1180    0.0000 </r>
       <r>    2.2564    0.0000 </r>
       <r>    2.5368    0.0000 </r>
       <r>    2.6478    0.0000 </r>
      </set>
      <set comment="kpoint 9">
       <r>  -14.6888    1.0000 </r>
       <r>  -13.4138    1.0000 </r>
       <r>  -13.3124    1.0000 </r>
       <r>  -12.9613    1.0000 </r>
       <r>  -12.5814    1.0000 </r>
       <r>  -12.4268    1.0000 </r>
       <r>  -11.9719    1.0000 </r>
       <r>  -11.7767    1.0000 </r>
       <r>  -11.4420    1.0000 </r>
       <r>  -11.1613    1.0000 </r>
       <r>  -10.9613    1.0000 </r>
       <r>   -9.9730    1.0000 </r>
       <r>   -9.1216    1.0000 </r>
       <r>   -8.5787    1.0000 </r>
       <r>   -8.1151    1.0000 </r>
       <r>   -7.3338    1.0000 </r>
       <r>   -6.8880    1.0000 </r>
       <r>   -6.6841    1.0000 </r>
       <r>   -6.5372    1.0000 </r>
       <r>   -6.0255    1.0000 </r>
       <r>   -5.7057    1.0000 </r>
       <r>   -5.5565    1.0000 </r>
       <r>   -5.3697    1.0000 </r>
       <r>   -4.7026    1.0000 </r>
       <r>   -4.5481    1.0000 </r>
       <r>   -4.1627    1.0000 </r>
       <r>   -4.0464    1.0000 </r>
       <r>   -3.6491    1.0000 </r>
       <r>   -3.5509    1.0000 </r>
       <r>   -3.4813    1.0000 </r>
       <r>   -3.3917    1.0000 </r>
       <r>   -3.3053    1.0000 </r>
       <r>   -3.1093    1.0000 </r>
       <r>   -3.0288    1.0000 </r>
       <r>   -2.9075    1.0000 </r>
       <r>   -2.7050    1.0000 </r>
       <r>   -2.5588    1.0000 </r>
       <r>   -2.4977    1.0000 </r>
       <r>   -2.3639    1.0000 </r>
       <r>   -2.2925    1.0000 </r>
       <r>   -2.1683    1.0000 </r>
       <r>   -2.1244    1.0000 </r>
       <r>   -2.0169    1.0000 </r>
       <r>   -1.8479    1.0000 </r>
       <r>   -1.7877    1.0000 </r>
       <r>   -1.7446    1.0000 </r>
       <r>   -1.4047    1.0000 </r>
       <r>   -1.3643    1.0000 </r>
       <r>   -1.1495    1.0000 </r>
       <r>   -1.0837    1.0000 </r>
       <r>   -1.0114    1.0000 </r>
       <r>   -0.8898    1.0000 </r>
       <r>   -0.4657    1.0000 </r>
       <r>    0.3076    0.3809 </r>
       <r>    0.6920    0.0000 </r>
       <r>    0.9933    0.0000 </r>
       <r>    1.1605    0.0000 </r>
       <r>    1.4315    0.0000 </r>
       <r>    1.5754    0.0000 </r>
       <r>    1.7156    0.0000 </r>
       <r>    1.7868    0.0000 </r>
       <r>    1.9293    0.0000 </r>
       <r>    2.0560    0.0000 </r>
       <r>    2.2267    0.0000 </r>
       <r>    2.4128    0.0000 </r>
       <r>    2.5184    0.0000 </r>
       <r>    2.6507    0.0000 </r>
       <r>    2.7091    0.0000 </r>
      </set>
      <set comment="kpoint 10">
       <r>  -14.5167    1.0000 </r>
       <r>  -13.2174    1.0000 </r>
       <r>  -13.1502    1.0000 </r>
       <r>  -12.8248    1.0000 </r>
       <r>  -12.3837    1.0000 </r>
       <r>  -12.2601    1.0000 </r>
       <r>  -11.8640    1.0000 </r>
       <r>  -11.5792    1.0000 </r>
       <r>  -11.3026    1.0000 </r>
       <r>  -10.9900    1.0000 </r>
       <r>  -10.8200    1.0000 </r>
       <r>   -9.9138    1.0000 </r>
       <r>   -9.0912    1.0000 </r>
       <r>   -8.6446    1.0000 </r>
       <r>   -8.1246    1.0000 </r>
       <r>   -7.3052    1.0000 </r>
       <r>   -6.8996    1.0000 </r>
       <r>   -6.6619    1.0000 </r>
       <r>   -6.5049    1.0000 </r>
       <r>   -6.1053    1.0000 </r>
       <r>   -5.8847    1.0000 </r>
       <r>   -5.6557    1.0000 </r>
       <r>   -5.4888    1.0000 </r>
       <r>   -4.9583    1.0000 </r>
       <r>   -4.8468    1.0000 </r>
       <r>   -4.4314    1.0000 </r>
       <r>   -4.3724    1.0000 </r>
       <r>   -4.2962    1.0000 </r>
       <r>   -4.0493    1.0000 </r>
       <r>   -3.9403    1.0000 </r>
       <r>   -3.7718    1.0000 </r>
       <r>   -3.6243    1.0000 </r>
       <r>   -3.4973    1.0000 </r>
       <r>   -3.3100    1.0000 </r>
       <r>   -3.1091    1.0000 </r>
       <r>   -2.9822    1.0000 </r>
       <r>   -2.9601    1.0000 </r>
       <r>   -2.8120    1.0000 </r>
       <r>   -2.7589    1.0000 </r>
       <r>   -2.6384    1.0000 </r>
       <r>   -2.5826    1.0000 </r>
       <r>   -2.3559    1.0000 </r>
       <r>   -2.3211    1.0000 </r>
       <r>   -1.9909    1.0000 </r>
       <r>   -1.8981    1.0000 </r>
       <r>   -1.7840    1.0000 </r>
       <r>   -1.5079    1.0000 </r>
       <r>   -1.2533    1.0000 </r>
       <r>   -1.1789    1.0000 </r>
       <r>   -1.1090    1.0000 </r>
       <r>   -1.0087    1.0000 </r>
       <r>   -0.9034    1.0000 </r>
       <r>   -0.6379    1.0000 </r>
       <r>    0.3454    0.2010 </r>
       <r>    0.5082    0.0008 </r>
       <r>    0.9624    0.0000 </r>
       <r>    1.3128    0.0000 </r>
       <r>    1.4271    0.0000 </r>
       <r>    1.6565    0.0000 </r>
       <r>    1.7739    0.0000 </r>
       <r>    2.0995    0.0000 </r>
       <r>    2.3025    0.0000 </r>
       <r>    2.4150    0.0000 </r>
       <r>    2.7268    0.0000 </r>
       <r>    2.8697    0.0000 </r>
       <r>    2.9816    0.0000 </r>
       <r>    3.0188    0.0000 </r>
       <r>    3.0852    0.0000 </r>
      </set>
      <set comment="kpoint 11">
       <r>  -14.2379    1.0000 </r>
       <r>  -12.9070    1.0000 </r>
       <r>  -12.8768    1.0000 </r>
       <r>  -12.5735    1.0000 </r>
       <r>  -12.0910    1.0000 </r>
       <r>  -11.9920    1.0000 </r>
       <r>  -11.6637    1.0000 </r>
       <r>  -11.3026    1.0000 </r>
       <r>  -11.0807    1.0000 </r>
       <r>  -10.7578    1.0000 </r>
       <r>  -10.6027    1.0000 </r>
       <r>   -9.8914    1.0000 </r>
       <r>   -9.0591    1.0000 </r>
       <r>   -8.7763    1.0000 </r>
       <r>   -8.2529    1.0000 </r>
       <r>   -7.3961    1.0000 </r>
       <r>   -7.0507    1.0000 </r>
       <r>   -6.7016    1.0000 </r>
       <r>   -6.6506    1.0000 </r>
       <r>   -6.6181    1.0000 </r>
       <r>   -5.9881    1.0000 </r>
       <r>   -5.8276    1.0000 </r>
       <r>   -5.6799    1.0000 </r>
       <r>   -5.3360    1.0000 </r>
       <r>   -5.2101    1.0000 </r>
       <r>   -5.0406    1.0000 </r>
       <r>   -4.9327    1.0000 </r>
       <r>   -4.6712    1.0000 </r>
       <r>   -4.5599    1.0000 </r>
       <r>   -4.4126    1.0000 </r>
       <r>   -4.2090    1.0000 </r>
       <r>   -4.0231    1.0000 </r>
       <r>   -3.7527    1.0000 </r>
       <r>   -3.5558    1.0000 </r>
       <r>   -3.4177    1.0000 </r>
       <r>   -3.2158    1.0000 </r>
       <r>   -3.0992    1.0000 </r>
       <r>   -3.0620    1.0000 </r>
       <r>   -3.0171    1.0000 </r>
       <r>   -2.7581    1.0000 </r>
       <r>   -2.6033    1.0000 </r>
       <r>   -2.5316    1.0000 </r>
       <r>   -2.4130    1.0000 </r>
       <r>   -1.9993    1.0000 </r>
       <r>   -1.9436    1.0000 </r>
       <r>   -1.8378    1.0000 </r>
       <r>   -1.7727    1.0000 </r>
       <r>   -1.4421    1.0000 </r>
       <r>   -1.3933    1.0000 </r>
       <r>   -1.2214    1.0000 </r>
       <r>   -1.0260    1.0000 </r>
       <r>   -0.9486    1.0000 </r>
       <r>   -0.8980    1.0000 </r>
       <r>   -0.2031    1.0000 </r>
       <r>    0.4749    0.0038 </r>
       <r>    0.7466    0.0000 </r>
       <r>    1.2963    0.0000 </r>
       <r>    1.4155    0.0000 </r>
       <r>    1.5609    0.0000 </r>
       <r>    1.6853    0.0000 </r>
       <r>    1.8549    0.0000 </r>
       <r>    2.2287    0.0000 </r>
       <r>    2.4057    0.0000 </r>
       <r>    2.5652    0.0000 </r>
       <r>    2.7119    0.0000 </r>
       <r>    2.7254    0.0000 </r>
       <r>    2.9622    0.0000 </r>
       <r>    3.0264    0.0000 </r>
      </set>
      <set comment="kpoint 12">
       <r>  -13.8684    1.0000 </r>
       <r>  -12.5118    1.0000 </r>
       <r>  -12.4860    1.0000 </r>
       <r>  -12.2144    1.0000 </r>
       <r>  -11.7372    1.0000 </r>
       <r>  -11.6413    1.0000 </r>
       <r>  -11.3949    1.0000 </r>
       <r>  -10.9890    1.0000 </r>
       <r>  -10.8169    1.0000 </r>
       <r>  -10.5527    1.0000 </r>
       <r>  -10.3973    1.0000 </r>
       <r>  -10.0162    1.0000 </r>
       <r>   -9.0245    1.0000 </r>
       <r>   -8.9755    1.0000 </r>
       <r>   -8.5632    1.0000 </r>
       <r>   -7.7118    1.0000 </r>
       <r>   -7.3708    1.0000 </r>
       <r>   -7.1182    1.0000 </r>
       <r>   -6.9713    1.0000 </r>
       <r>   -6.9474    1.0000 </r>
       <r>   -6.3529    1.0000 </r>
       <r>   -6.1997    1.0000 </r>
       <r>   -6.0867    1.0000 </r>
       <r>   -5.9233    1.0000 </r>
       <r>   -5.5114    1.0000 </r>
       <r>   -5.4068    1.0000 </r>
       <r>   -5.3180    1.0000 </r>
       <r>   -4.9434    1.0000 </r>
       <r>   -4.6217    1.0000 </r>
       <r>   -4.4357    1.0000 </r>
       <r>   -4.3903    1.0000 </r>
       <r>   -4.3142    1.0000 </r>
       <r>   -4.0174    1.0000 </r>
       <r>   -3.7030    1.0000 </r>
       <r>   -3.4292    1.0000 </r>
       <r>   -3.3408    1.0000 </r>
       <r>   -3.1566    1.0000 </r>
       <r>   -3.0158    1.0000 </r>
       <r>   -2.9195    1.0000 </r>
       <r>   -2.8665    1.0000 </r>
       <r>   -2.8117    1.0000 </r>
       <r>   -2.5197    1.0000 </r>
       <r>   -2.4387    1.0000 </r>
       <r>   -2.3267    1.0000 </r>
       <r>   -2.0579    1.0000 </r>
       <r>   -1.9660    1.0000 </r>
       <r>   -1.8940    1.0000 </r>
       <r>   -1.7501    1.0000 </r>
       <r>   -1.6316    1.0000 </r>
       <r>   -1.3479    1.0000 </r>
       <r>   -1.1974    1.0000 </r>
       <r>   -1.1350    1.0000 </r>
       <r>   -0.9130    1.0000 </r>
       <r>   -0.6982    1.0000 </r>
       <r>    0.3569    0.1587 </r>
       <r>    0.5324    0.0002 </r>
       <r>    1.1027    0.0000 </r>
       <r>    1.2144    0.0000 </r>
       <r>    1.2513    0.0000 </r>
       <r>    1.4846    0.0000 </r>
       <r>    1.9189    0.0000 </r>
       <r>    2.0535    0.0000 </r>
       <r>    2.1885    0.0000 </r>
       <r>    2.3197    0.0000 </r>
       <r>    2.4639    0.0000 </r>
       <r>    2.5886    0.0000 </r>
       <r>    2.6191    0.0000 </r>
       <r>    2.9634    0.0000 </r>
      </set>
      <set comment="kpoint 13">
       <r>  -13.4486    1.0000 </r>
       <r>  -12.0832    1.0000 </r>
       <r>  -11.9842    1.0000 </r>
       <r>  -11.7644    1.0000 </r>
       <r>  -11.4405    1.0000 </r>
       <r>  -11.2491    1.0000 </r>
       <r>  -11.1115    1.0000 </r>
       <r>  -10.7316    1.0000 </r>
       <r>  -10.6076    1.0000 </r>
       <r>  -10.5870    1.0000 </r>
       <r>  -10.4729    1.0000 </r>
       <r>  -10.1580    1.0000 </r>
       <r>   -8.9998    1.0000 </r>
       <r>   -8.9640    1.0000 </r>
       <r>   -8.9006    1.0000 </r>
       <r>   -8.1162    1.0000 </r>
       <r>   -7.7850    1.0000 </r>
       <r>   -7.7049    1.0000 </r>
       <r>   -7.3642    1.0000 </r>
       <r>   -7.1607    1.0000 </r>
       <r>   -6.9024    1.0000 </r>
       <r>   -6.7000    1.0000 </r>
       <r>   -6.6662    1.0000 </r>
       <r>   -6.4518    1.0000 </r>
       <r>   -5.6283    1.0000 </r>
       <r>   -5.3701    1.0000 </r>
       <r>   -5.2979    1.0000 </r>
       <r>   -4.7920    1.0000 </r>
       <r>   -4.7396    1.0000 </r>
       <r>   -4.4570    1.0000 </r>
       <r>   -4.3255    1.0000 </r>
       <r>   -4.1208    1.0000 </r>
       <r>   -3.8691    1.0000 </r>
       <r>   -3.7803    1.0000 </r>
       <r>   -3.5170    1.0000 </r>
       <r>   -3.3574    1.0000 </r>
       <r>   -3.2956    1.0000 </r>
       <r>   -3.2404    1.0000 </r>
       <r>   -3.1294    1.0000 </r>
       <r>   -2.9345    1.0000 </r>
       <r>   -2.8394    1.0000 </r>
       <r>   -2.6676    1.0000 </r>
       <r>   -2.5598    1.0000 </r>
       <r>   -2.3656    1.0000 </r>
       <r>   -2.2331    1.0000 </r>
       <r>   -2.1307    1.0000 </r>
       <r>   -2.0696    1.0000 </r>
       <r>   -1.8597    1.0000 </r>
       <r>   -1.6598    1.0000 </r>
       <r>   -1.4854    1.0000 </r>
       <r>   -1.4414    1.0000 </r>
       <r>   -1.3378    1.0000 </r>
       <r>   -1.0051    1.0000 </r>
       <r>   -0.8117    1.0000 </r>
       <r>    0.2720    0.5796 </r>
       <r>    0.4055    0.0457 </r>
       <r>    0.8785    0.0000 </r>
       <r>    1.1730    0.0000 </r>
       <r>    1.2357    0.0000 </r>
       <r>    1.3705    0.0000 </r>
       <r>    1.7740    0.0000 </r>
       <r>    1.8234    0.0000 </r>
       <r>    1.9826    0.0000 </r>
       <r>    2.0960    0.0000 </r>
       <r>    2.1792    0.0000 </r>
       <r>    2.3750    0.0000 </r>
       <r>    2.6038    0.0000 </r>
       <r>    2.6739    0.0000 </r>
      </set>
      <set comment="kpoint 14">
       <r>  -13.1011    1.0000 </r>
       <r>  -11.7631    1.0000 </r>
       <r>  -11.4354    1.0000 </r>
       <r>  -11.3809    1.0000 </r>
       <r>  -11.2694    1.0000 </r>
       <r>  -10.9668    1.0000 </r>
       <r>  -10.9605    1.0000 </r>
       <r>  -10.8688    1.0000 </r>
       <r>  -10.7061    1.0000 </r>
       <r>  -10.5851    1.0000 </r>
       <r>  -10.5326    1.0000 </r>
       <r>  -10.3635    1.0000 </r>
       <r>   -9.1910    1.0000 </r>
       <r>   -8.8646    1.0000 </r>
       <r>   -8.5597    1.0000 </r>
       <r>   -8.4048    1.0000 </r>
       <r>   -8.3328    1.0000 </r>
       <r>   -7.8489    1.0000 </r>
       <r>   -7.5244    1.0000 </r>
       <r>   -7.5036    1.0000 </r>
       <r>   -7.3217    1.0000 </r>
       <r>   -7.2532    1.0000 </r>
       <r>   -7.1450    1.0000 </r>
       <r>   -6.4623    1.0000 </r>
       <r>   -5.5673    1.0000 </r>
       <r>   -5.3882    1.0000 </r>
       <r>   -5.0277    1.0000 </r>
       <r>   -4.6644    1.0000 </r>
       <r>   -4.5153    1.0000 </r>
       <r>   -4.4357    1.0000 </r>
       <r>   -4.1858    1.0000 </r>
       <r>   -4.1256    1.0000 </r>
       <r>   -3.9390    1.0000 </r>
       <r>   -3.8480    1.0000 </r>
       <r>   -3.6671    1.0000 </r>
       <r>   -3.5741    1.0000 </r>
       <r>   -3.4924    1.0000 </r>
       <r>   -3.2673    1.0000 </r>
       <r>   -3.1413    1.0000 </r>
       <r>   -2.9983    1.0000 </r>
       <r>   -2.9661    1.0000 </r>
       <r>   -2.7033    1.0000 </r>
       <r>   -2.6427    1.0000 </r>
       <r>   -2.6059    1.0000 </r>
       <r>   -2.2794    1.0000 </r>
       <r>   -2.1507    1.0000 </r>
       <r>   -2.1233    1.0000 </r>
       <r>   -1.7775    1.0000 </r>
       <r>   -1.6933    1.0000 </r>
       <r>   -1.6751    1.0000 </r>
       <r>   -1.5473    1.0000 </r>
       <r>   -1.3586    1.0000 </r>
       <r>   -0.9864    1.0000 </r>
       <r>   -0.8189    1.0000 </r>
       <r>    0.2022    0.8826 </r>
       <r>    0.3909    0.0692 </r>
       <r>    0.7213    0.0000 </r>
       <r>    1.1681    0.0000 </r>
       <r>    1.4085    0.0000 </r>
       <r>    1.5051    0.0000 </r>
       <r>    1.5515    0.0000 </r>
       <r>    1.6967    0.0000 </r>
       <r>    1.8106    0.0000 </r>
       <r>    2.0863    0.0000 </r>
       <r>    2.1315    0.0000 </r>
       <r>    2.3135    0.0000 </r>
       <r>    2.4378    0.0000 </r>
       <r>    2.4882    0.0000 </r>
      </set>
      <set comment="kpoint 15">
       <r>  -13.1026    1.0000 </r>
       <r>  -11.7544    1.0000 </r>
       <r>  -11.5398    1.0000 </r>
       <r>  -11.3797    1.0000 </r>
       <r>  -11.0765    1.0000 </r>
       <r>  -10.9656    1.0000 </r>
       <r>  -10.9360    1.0000 </r>
       <r>  -10.8130    1.0000 </r>
       <r>  -10.7620    1.0000 </r>
       <r>  -10.7078    1.0000 </r>
       <r>  -10.5742    1.0000 </r>
       <r>  -10.3320    1.0000 </r>
       <r>   -9.1765    1.0000 </r>
       <r>   -8.8860    1.0000 </r>
       <r>   -8.7616    1.0000 </r>
       <r>   -8.4380    1.0000 </r>
       <r>   -7.9491    1.0000 </r>
       <r>   -7.8681    1.0000 </r>
       <r>   -7.6094    1.0000 </r>
       <r>   -7.5427    1.0000 </r>
       <r>   -7.2860    1.0000 </r>
       <r>   -7.2323    1.0000 </r>
       <r>   -7.1827    1.0000 </r>
       <r>   -6.4173    1.0000 </r>
       <r>   -5.5756    1.0000 </r>
       <r>   -5.3427    1.0000 </r>
       <r>   -4.8485    1.0000 </r>
       <r>   -4.7062    1.0000 </r>
       <r>   -4.5787    1.0000 </r>
       <r>   -4.4119    1.0000 </r>
       <r>   -4.3034    1.0000 </r>
       <r>   -4.0189    1.0000 </r>
       <r>   -3.9967    1.0000 </r>
       <r>   -3.8899    1.0000 </r>
       <r>   -3.8542    1.0000 </r>
       <r>   -3.6513    1.0000 </r>
       <r>   -3.5782    1.0000 </r>
       <r>   -3.3605    1.0000 </r>
       <r>   -3.1754    1.0000 </r>
       <r>   -3.0605    1.0000 </r>
       <r>   -2.8136    1.0000 </r>
       <r>   -2.6935    1.0000 </r>
       <r>   -2.6526    1.0000 </r>
       <r>   -2.4002    1.0000 </r>
       <r>   -2.2799    1.0000 </r>
       <r>   -2.1678    1.0000 </r>
       <r>   -2.1372    1.0000 </r>
       <r>   -1.7941    1.0000 </r>
       <r>   -1.7062    1.0000 </r>
       <r>   -1.6286    1.0000 </r>
       <r>   -1.4973    1.0000 </r>
       <r>   -1.2773    1.0000 </r>
       <r>   -0.9692    1.0000 </r>
       <r>   -0.7981    1.0000 </r>
       <r>    0.2043    0.8764 </r>
       <r>    0.4002    0.0534 </r>
       <r>    0.7308    0.0000 </r>
       <r>    1.1599    0.0000 </r>
       <r>    1.3703    0.0000 </r>
       <r>    1.6548    0.0000 </r>
       <r>    1.6796    0.0000 </r>
       <r>    1.7476    0.0000 </r>
       <r>    1.8256    0.0000 </r>
       <r>    2.1439    0.0000 </r>
       <r>    2.2366    0.0000 </r>
       <r>    2.3209    0.0000 </r>
       <r>    2.3909    0.0000 </r>
       <r>    2.5466    0.0000 </r>
      </set>
      <set comment="kpoint 16">
       <r>  -13.4523    1.0000 </r>
       <r>  -12.1073    1.0000 </r>
       <r>  -12.0268    1.0000 </r>
       <r>  -11.5685    1.0000 </r>
       <r>  -11.4905    1.0000 </r>
       <r>  -11.2481    1.0000 </r>
       <r>  -11.0232    1.0000 </r>
       <r>  -10.9363    1.0000 </r>
       <r>  -10.6349    1.0000 </r>
       <r>  -10.5394    1.0000 </r>
       <r>  -10.4556    1.0000 </r>
       <r>  -10.2351    1.0000 </r>
       <r>   -8.9973    1.0000 </r>
       <r>   -8.9188    1.0000 </r>
       <r>   -8.7471    1.0000 </r>
       <r>   -8.4951    1.0000 </r>
       <r>   -7.6277    1.0000 </r>
       <r>   -7.4461    1.0000 </r>
       <r>   -7.3362    1.0000 </r>
       <r>   -7.2585    1.0000 </r>
       <r>   -6.8922    1.0000 </r>
       <r>   -6.8153    1.0000 </r>
       <r>   -6.6697    1.0000 </r>
       <r>   -6.3364    1.0000 </r>
       <r>   -5.5151    1.0000 </r>
       <r>   -5.3944    1.0000 </r>
       <r>   -5.0532    1.0000 </r>
       <r>   -4.8647    1.0000 </r>
       <r>   -4.8106    1.0000 </r>
       <r>   -4.4081    1.0000 </r>
       <r>   -4.2886    1.0000 </r>
       <r>   -4.1883    1.0000 </r>
       <r>   -4.1124    1.0000 </r>
       <r>   -3.9009    1.0000 </r>
       <r>   -3.7211    1.0000 </r>
       <r>   -3.5867    1.0000 </r>
       <r>   -3.4097    1.0000 </r>
       <r>   -3.2536    1.0000 </r>
       <r>   -3.1964    1.0000 </r>
       <r>   -3.0900    1.0000 </r>
       <r>   -2.7362    1.0000 </r>
       <r>   -2.5387    1.0000 </r>
       <r>   -2.5069    1.0000 </r>
       <r>   -2.2777    1.0000 </r>
       <r>   -2.1859    1.0000 </r>
       <r>   -2.0816    1.0000 </r>
       <r>   -1.9504    1.0000 </r>
       <r>   -1.8388    1.0000 </r>
       <r>   -1.5776    1.0000 </r>
       <r>   -1.5341    1.0000 </r>
       <r>   -1.3962    1.0000 </r>
       <r>   -1.1994    1.0000 </r>
       <r>   -0.9650    1.0000 </r>
       <r>   -0.7493    1.0000 </r>
       <r>    0.2690    0.5958 </r>
       <r>    0.4702    0.0046 </r>
       <r>    0.8804    0.0000 </r>
       <r>    1.1985    0.0000 </r>
       <r>    1.4320    0.0000 </r>
       <r>    1.7235    0.0000 </r>
       <r>    1.7793    0.0000 </r>
       <r>    1.9093    0.0000 </r>
       <r>    2.1234    0.0000 </r>
       <r>    2.1936    0.0000 </r>
       <r>    2.2971    0.0000 </r>
       <r>    2.4096    0.0000 </r>
       <r>    2.5457    0.0000 </r>
       <r>    2.6079    0.0000 </r>
      </set>
      <set comment="kpoint 17">
       <r>  -13.8729    1.0000 </r>
       <r>  -12.6010    1.0000 </r>
       <r>  -12.4398    1.0000 </r>
       <r>  -11.9537    1.0000 </r>
       <r>  -11.9351    1.0000 </r>
       <r>  -11.6472    1.0000 </r>
       <r>  -11.2487    1.0000 </r>
       <r>  -11.1253    1.0000 </r>
       <r>  -10.7788    1.0000 </r>
       <r>  -10.7314    1.0000 </r>
       <r>  -10.4267    1.0000 </r>
       <r>  -10.0017    1.0000 </r>
       <r>   -8.9445    1.0000 </r>
       <r>   -8.6477    1.0000 </r>
       <r>   -8.5593    1.0000 </r>
       <r>   -8.1914    1.0000 </r>
       <r>   -7.2305    1.0000 </r>
       <r>   -7.0076    1.0000 </r>
       <r>   -6.9260    1.0000 </r>
       <r>   -6.8727    1.0000 </r>
       <r>   -6.5766    1.0000 </r>
       <r>   -6.1631    1.0000 </r>
       <r>   -5.9798    1.0000 </r>
       <r>   -5.9527    1.0000 </r>
       <r>   -5.5007    1.0000 </r>
       <r>   -5.3090    1.0000 </r>
       <r>   -5.1426    1.0000 </r>
       <r>   -4.8881    1.0000 </r>
       <r>   -4.6800    1.0000 </r>
       <r>   -4.6469    1.0000 </r>
       <r>   -4.3265    1.0000 </r>
       <r>   -4.2647    1.0000 </r>
       <r>   -4.2399    1.0000 </r>
       <r>   -3.8275    1.0000 </r>
       <r>   -3.5794    1.0000 </r>
       <r>   -3.4592    1.0000 </r>
       <r>   -3.2003    1.0000 </r>
       <r>   -3.0886    1.0000 </r>
       <r>   -3.0183    1.0000 </r>
       <r>   -2.9192    1.0000 </r>
       <r>   -2.7618    1.0000 </r>
       <r>   -2.5875    1.0000 </r>
       <r>   -2.4464    1.0000 </r>
       <r>   -2.0474    1.0000 </r>
       <r>   -2.0075    1.0000 </r>
       <r>   -1.8996    1.0000 </r>
       <r>   -1.8522    1.0000 </r>
       <r>   -1.7167    1.0000 </r>
       <r>   -1.5299    1.0000 </r>
       <r>   -1.3140    1.0000 </r>
       <r>   -1.1675    1.0000 </r>
       <r>   -1.0842    1.0000 </r>
       <r>   -0.9937    1.0000 </r>
       <r>   -0.6163    1.0000 </r>
       <r>    0.4143    0.0350 </r>
       <r>    0.6321    0.0000 </r>
       <r>    1.0500    0.0000 </r>
       <r>    1.4021    0.0000 </r>
       <r>    1.6382    0.0000 </r>
       <r>    1.8137    0.0000 </r>
       <r>    1.9321    0.0000 </r>
       <r>    1.9968    0.0000 </r>
       <r>    2.2438    0.0000 </r>
       <r>    2.3632    0.0000 </r>
       <r>    2.4075    0.0000 </r>
       <r>    2.6606    0.0000 </r>
       <r>    2.7503    0.0000 </r>
       <r>    2.7741    0.0000 </r>
      </set>
      <set comment="kpoint 18">
       <r>  -14.2421    1.0000 </r>
       <r>  -12.9963    1.0000 </r>
       <r>  -12.8158    1.0000 </r>
       <r>  -12.3574    1.0000 </r>
       <r>  -12.2685    1.0000 </r>
       <r>  -11.9993    1.0000 </r>
       <r>  -11.5442    1.0000 </r>
       <r>  -11.4042    1.0000 </r>
       <r>  -11.0347    1.0000 </r>
       <r>  -10.9479    1.0000 </r>
       <r>  -10.6052    1.0000 </r>
       <r>   -9.8897    1.0000 </r>
       <r>   -8.9324    1.0000 </r>
       <r>   -8.4037    1.0000 </r>
       <r>   -8.3431    1.0000 </r>
       <r>   -7.7860    1.0000 </r>
       <r>   -6.9397    1.0000 </r>
       <r>   -6.6955    1.0000 </r>
       <r>   -6.6433    1.0000 </r>
       <r>   -6.5279    1.0000 </r>
       <r>   -6.2305    1.0000 </r>
       <r>   -5.7467    1.0000 </r>
       <r>   -5.6631    1.0000 </r>
       <r>   -5.3427    1.0000 </r>
       <r>   -5.3118    1.0000 </r>
       <r>   -4.8759    1.0000 </r>
       <r>   -4.8113    1.0000 </r>
       <r>   -4.6064    1.0000 </r>
       <r>   -4.5867    1.0000 </r>
       <r>   -4.5105    1.0000 </r>
       <r>   -4.1898    1.0000 </r>
       <r>   -4.0239    1.0000 </r>
       <r>   -3.7983    1.0000 </r>
       <r>   -3.7132    1.0000 </r>
       <r>   -3.4749    1.0000 </r>
       <r>   -3.4396    1.0000 </r>
       <r>   -3.0722    1.0000 </r>
       <r>   -3.0095    1.0000 </r>
       <r>   -2.9957    1.0000 </r>
       <r>   -2.7738    1.0000 </r>
       <r>   -2.6117    1.0000 </r>
       <r>   -2.4560    1.0000 </r>
       <r>   -2.3627    1.0000 </r>
       <r>   -1.9182    1.0000 </r>
       <r>   -1.8664    1.0000 </r>
       <r>   -1.8052    1.0000 </r>
       <r>   -1.6797    1.0000 </r>
       <r>   -1.5771    1.0000 </r>
       <r>   -1.4570    1.0000 </r>
       <r>   -1.1681    1.0000 </r>
       <r>   -1.1336    1.0000 </r>
       <r>   -0.9055    1.0000 </r>
       <r>   -0.7725    1.0000 </r>
       <r>   -0.2455    1.0000 </r>
       <r>    0.5921    0.0000 </r>
       <r>    0.8440    0.0000 </r>
       <r>    1.2379    0.0000 </r>
       <r>    1.5735    0.0000 </r>
       <r>    1.7819    0.0000 </r>
       <r>    1.8638    0.0000 </r>
       <r>    2.0096    0.0000 </r>
       <r>    2.2444    0.0000 </r>
       <r>    2.3902    0.0000 </r>
       <r>    2.4689    0.0000 </r>
       <r>    2.7102    0.0000 </r>
       <r>    2.8227    0.0000 </r>
       <r>    2.9149    0.0000 </r>
[...]
       <r>    2.6418    0.0000 </r>
      </set>
      <set comment="kpoint 54">
       <r>  -13.1018    1.0000 </r>
       <r>  -11.7641    1.0000 </r>
       <r>  -11.4947    1.0000 </r>
       <r>  -11.3647    1.0000 </r>
       <r>  -11.1749    1.0000 </r>
       <r>  -10.9834    1.0000 </r>
       <r>  -10.9524    1.0000 </r>
       <r>  -10.8539    1.0000 </r>
       <r>  -10.7284    1.0000 </r>
       <r>  -10.6258    1.0000 </r>
       <r>  -10.5274    1.0000 </r>
       <r>  -10.3681    1.0000 </r>
       <r>   -9.1839    1.0000 </r>
       <r>   -8.8846    1.0000 </r>
       <r>   -8.6704    1.0000 </r>
       <r>   -8.4448    1.0000 </r>
       <r>   -8.1241    1.0000 </r>
       <r>   -7.8385    1.0000 </r>
       <r>   -7.5661    1.0000 </r>
       <r>   -7.4915    1.0000 </r>
       <r>   -7.2964    1.0000 </r>
       <r>   -7.2468    1.0000 </r>
       <r>   -7.1752    1.0000 </r>
       <r>   -6.4861    1.0000 </r>
       <r>   -5.5335    1.0000 </r>
       <r>   -5.3416    1.0000 </r>
       <r>   -4.9592    1.0000 </r>
       <r>   -4.7755    1.0000 </r>
       <r>   -4.4947    1.0000 </r>
       <r>   -4.4024    1.0000 </r>
       <r>   -4.2441    1.0000 </r>
       <r>   -4.0748    1.0000 </r>
       <r>   -3.9439    1.0000 </r>
       <r>   -3.8714    1.0000 </r>
       <r>   -3.7723    1.0000 </r>
       <r>   -3.5945    1.0000 </r>
       <r>   -3.5520    1.0000 </r>
       <r>   -3.2642    1.0000 </r>
       <r>   -3.1419    1.0000 </r>
       <r>   -3.1005    1.0000 </r>
       <r>   -3.0232    1.0000 </r>
       <r>   -2.7042    1.0000 </r>
       <r>   -2.6725    1.0000 </r>
       <r>   -2.3898    1.0000 </r>
       <r>   -2.2346    1.0000 </r>
       <r>   -2.1648    1.0000 </r>
       <r>   -2.1111    1.0000 </r>
       <r>   -1.7922    1.0000 </r>
       <r>   -1.6716    1.0000 </r>
       <r>   -1.6542    1.0000 </r>
       <r>   -1.5228    1.0000 </r>
       <r>   -1.2620    1.0000 </r>
       <r>   -0.9655    1.0000 </r>
       <r>   -0.8308    1.0000 </r>
       <r>    0.1508    0.9722 </r>
       <r>    0.3573    0.1571 </r>
       <r>    0.7375    0.0000 </r>
       <r>    1.1482    0.0000 </r>
       <r>    1.3481    0.0000 </r>
       <r>    1.5383    0.0000 </r>
       <r>    1.6295    0.0000 </r>
       <r>    1.6813    0.0000 </r>
       <r>    1.8856    0.0000 </r>
       <r>    2.0492    0.0000 </r>
       <r>    2.2614    0.0000 </r>
       <r>    2.3366    0.0000 </r>
       <r>    2.4147    0.0000 </r>
       <r>    2.4883    0.0000 </r>
      </set>
     </set>
    </set>
   </array>
  </eigenvalues>
  <separator name="orbital magnetization" >
   <v name="MAGDIPOLOUT">      0.00000000      0.00000000      0.00000000</v>
  </separator>
  <dos>
   <i name="efermi">      0.28617100 </i>
   <total>
    <array>
     <dimension dim="1">gridpoints</dimension>
     <dimension dim="2">spin</dimension>
     <field>energy</field>
     <field>total</field>
     <field>integrated</field>
     <set>
      <set comment="spin 1">
       <r>   -15.7508     0.0000     0.0000 </r>
       <r>   -15.6846     0.0000     0.0000 </r>
       <r>   -15.6183     0.0000     0.0000 </r>
       <r>   -15.5520     0.0000     0.0000 </r>
       <r>   -15.4857     0.0000     0.0000 </r>
       <r>   -15.4195     0.0000     0.0000 </r>
       <r>   -15.3532     0.0000     0.0000 </r>
       <r>   -15.2869     0.0000     0.0000 </r>
       <r>   -15.2206     0.0000     0.0000 </r>
       <r>   -15.1544     0.0000     0.0000 </r>
       <r>   -15.0881     0.0000     0.0000 </r>
       <r>   -15.0218     0.0001     0.0000 </r>
       <r>   -14.9555     0.0040     0.0003 </r>
       <r>   -14.8893     0.0590     0.0042 </r>
       <r>   -14.8230     0.4055     0.0311 </r>
       <r>   -14.7567     1.3672     0.1217 </r>
       <r>   -14.6904     2.3306     0.2761 </r>
       <r>   -14.6242     2.1908     0.4213 </r>
       <r>   -14.5579     1.7889     0.5399 </r>
       <r>   -14.4916     1.8097     0.6598 </r>
       <r>   -14.4253     1.2322     0.7415 </r>
       <r>   -14.3591     0.5766     0.7797 </r>
       <r>   -14.2928     0.8969     0.8391 </r>
       <r>   -14.2265     1.6182     0.9464 </r>
       <r>   -14.1602     1.3676     1.0370 </r>
       <r>   -14.0940     0.5152     1.0712 </r>
       <r>   -14.0277     0.1419     1.0806 </r>
       <r>   -13.9614     0.4080     1.1076 </r>
       <r>   -13.8951     1.2303     1.1892 </r>
       <r>   -13.8289     1.6622     1.2993 </r>
       <r>   -13.7626     0.9941     1.3652 </r>
       <r>   -13.6963     0.2759     1.3835 </r>
       <r>   -13.6300     0.1677     1.3946 </r>
       <r>   -13.5638     0.7532     1.4445 </r>
       <r>   -13.4975     2.3172     1.5981 </r>
       <r>   -13.4312     4.0746     1.8681 </r>
       <r>   -13.3649     4.6756     2.1780 </r>
       <r>   -13.2987     4.5082     2.4768 </r>
       <r>   -13.2324     4.1443     2.7514 </r>
       <r>   -13.1661     4.1929     3.0293 </r>
       <r>   -13.0998     4.7174     3.3420 </r>
       <r>   -13.0336     4.4185     3.6348 </r>
       <r>   -12.9673     3.8510     3.8900 </r>
       <r>   -12.9010     4.1289     4.1637 </r>
       <r>   -12.8347     4.3849     4.4543 </r>
       <r>   -12.7685     3.8146     4.7071 </r>
       <r>   -12.7022     3.2204     4.9205 </r>
       <r>   -12.6359     3.7602     5.1697 </r>
       <r>   -12.5697     5.2457     5.5174 </r>
       <r>   -12.5034     6.5832     5.9537 </r>
       <r>   -12.4371     6.8981     6.4108 </r>
       <r>   -12.3708     5.8496     6.7985 </r>
       <r>   -12.3046     4.8140     7.1176 </r>
       <r>   -12.2383     4.5288     7.4177 </r>
       <r>   -12.1720     4.2701     7.7007 </r>
       <r>   -12.1057     4.9926     8.0316 </r>
       <r>   -12.0395     6.8954     8.4886 </r>
       <r>   -11.9732     7.8855     9.0112 </r>
       <r>   -11.9069     6.9179     9.4697 </r>
       <r>   -11.8406     5.7015     9.8475 </r>
       <r>   -11.7744     5.9837    10.2441 </r>
       <r>   -11.7081     7.0057    10.7084 </r>
       <r>   -11.6418     7.4621    11.2030 </r>
       <r>   -11.5755     7.5416    11.7028 </r>
       <r>   -11.5093     7.9991    12.2329 </r>
       <r>   -11.4430     8.7546    12.8131 </r>
       <r>   -11.3767     8.9232    13.4045 </r>
       <r>   -11.3104     8.5700    13.9725 </r>
       <r>   -11.2442     8.6041    14.5427 </r>
       <r>   -11.1779     8.2283    15.0880 </r>
       <r>   -11.1116     7.8264    15.6067 </r>
       <r>   -11.0453     9.0056    16.2035 </r>
       <r>   -10.9791    10.9178    16.9271 </r>
       <r>   -10.9128    10.9319    17.6516 </r>
       <r>   -10.8465     9.4426    18.2774 </r>
       <r>   -10.7802     9.0027    18.8741 </r>
       <r>   -10.7140     8.6672    19.4485 </r>
       <r>   -10.6477     8.6858    20.0241 </r>
       <r>   -10.5814     9.4351    20.6494 </r>
       <r>   -10.5151     8.3826    21.2050 </r>
       <r>   -10.4489     6.2816    21.6213 </r>
       <r>   -10.3826     4.9331    21.9482 </r>
       <r>   -10.3163     3.6588    22.1907 </r>
       <r>   -10.2500     2.4556    22.3535 </r>
       <r>   -10.1838     1.9305    22.4814 </r>
       <r>   -10.1175     1.8646    22.6050 </r>
       <r>   -10.0512     2.7968    22.7904 </r>
       <r>    -9.9849     4.9723    23.1199 </r>
       <r>    -9.9187     6.0961    23.5239 </r>
       <r>    -9.8524     4.6198    23.8301 </r>
       <r>    -9.7861     2.0349    23.9649 </r>
       <r>    -9.7198     0.4726    23.9963 </r>
       <r>    -9.6536     0.0535    23.9998 </r>
       <r>    -9.5873     0.0028    24.0000 </r>
       <r>    -9.5210     0.0001    24.0000 </r>
       <r>    -9.4547     0.0012    24.0001 </r>
       <r>    -9.3885     0.0237    24.0017 </r>
       <r>    -9.3222     0.2316    24.0170 </r>
       <r>    -9.2559     1.1142    24.0908 </r>
       <r>    -9.1897     2.8103    24.2771 </r>
       <r>    -9.1234     4.3735    24.5669 </r>
       <r>    -9.0571     5.8173    24.9525 </r>
       <r>    -8.9908     8.1056    25.4897 </r>
       <r>    -8.9246     9.7259    26.1342 </r>
       <r>    -8.8583     8.4370    26.6934 </r>
       <r>    -8.7920     5.9100    27.0851 </r>
       <r>    -8.7257     4.7983    27.4031 </r>
       <r>    -8.6595     4.7057    27.7150 </r>
       <r>    -8.5932     4.7192    28.0277 </r>
       <r>    -8.5269     4.5414    28.3287 </r>
       <r>    -8.4606     4.4946    28.6266 </r>
       <r>    -8.3944     4.8535    28.9482 </r>
       <r>    -8.3281     4.7611    29.2638 </r>
       <r>    -8.2618     4.4291    29.5573 </r>
       <r>    -8.1955     5.2323    29.9041 </r>
       <r>    -8.1293     6.6373    30.3440 </r>
       <r>    -8.0630     5.9520    30.7384 </r>
       <r>    -7.9967     3.3924    30.9633 </r>
       <r>    -7.9304     2.0914    31.1019 </r>
       <r>    -7.8642     2.9334    31.2963 </r>
       <r>    -7.7979     4.2415    31.5774 </r>
       <r>    -7.7316     4.4292    31.8709 </r>
       <r>    -7.6653     4.0481    32.1392 </r>
       <r>    -7.5991     4.3358    32.4266 </r>
       <r>    -7.5328     4.9513    32.7547 </r>
       <r>    -7.4665     5.2653    33.1037 </r>
       <r>    -7.4002     6.0142    33.5023 </r>
       <r>    -7.3340     7.4925    33.9988 </r>
       <r>    -7.2677     8.6931    34.5749 </r>
       <r>    -7.2014     8.4203    35.1330 </r>
       <r>    -7.1351     6.4724    35.5620 </r>
       <r>    -7.0689     4.7893    35.8794 </r>
       <r>    -7.0026     5.3472    36.2337 </r>
       <r>    -6.9363     7.4507    36.7275 </r>
       <r>    -6.8700     9.1677    37.3351 </r>
       <r>    -6.8038     9.4339    37.9603 </r>
       <r>    -6.7375     9.6899    38.6025 </r>
       <r>    -6.6712    11.2591    39.3487 </r>
       <r>    -6.6049    10.9585    40.0750 </r>
       <r>    -6.5387     8.3431    40.6279 </r>
       <r>    -6.4724     6.5784    41.0639 </r>
       <r>    -6.4061     5.3820    41.4206 </r>
       <r>    -6.3398     4.2951    41.7052 </r>
       <r>    -6.2736     3.6246    41.9455 </r>
       <r>    -6.2073     3.7185    42.1919 </r>
       <r>    -6.1410     4.8859    42.5157 </r>
       <r>    -6.0747     6.4921    42.9460 </r>
       <r>    -6.0085     7.5234    43.4446 </r>
       <r>    -5.9422     7.0048    43.9088 </r>
       <r>    -5.8759     5.2577    44.2573 </r>
       <r>    -5.8097     4.3364    44.5447 </r>
       <r>    -5.7434     5.0765    44.8811 </r>
       <r>    -5.6771     6.5586    45.3158 </r>
       <r>    -5.6108     8.3240    45.8675 </r>
       <r>    -5.5446     9.4748    46.4954 </r>
       <r>    -5.4783     9.0275    47.0937 </r>
       <r>    -5.4120     8.9686    47.6881 </r>
       <r>    -5.3457    10.4643    48.3816 </r>
       <r>    -5.2795     9.9526    49.0412 </r>
       <r>    -5.2132     6.8312    49.4939 </r>
       <r>    -5.1469     4.2596    49.7762 </r>
       <r>    -5.0806     3.4722    50.0064 </r>
       <r>    -5.0144     4.6443    50.3142 </r>
       <r>    -4.9481     6.7683    50.7627 </r>
       <r>    -4.8818     8.5477    51.3292 </r>
       <r>    -4.8155     9.1245    51.9339 </r>
       <r>    -4.7493     9.0243    52.5320 </r>
       <r>    -4.6830     9.4663    53.1594 </r>
       <r>    -4.6167    10.1801    53.8341 </r>
       <r>    -4.5504    10.4329    54.5255 </r>
       <r>    -4.4842    10.5031    55.2216 </r>
       <r>    -4.4179    10.6597    55.9281 </r>
       <r>    -4.3516    11.0043    56.6574 </r>
       <r>    -4.2853    12.2000    57.4659 </r>
       <r>    -4.2191    13.4532    58.3575 </r>
       <r>    -4.1528    12.7903    59.2052 </r>
       <r>    -4.0865    11.4514    59.9641 </r>
       <r>    -4.0202    10.9303    60.6885 </r>
       <r>    -3.9540    10.1643    61.3622 </r>
       <r>    -3.8877     9.3267    61.9803 </r>
       <r>    -3.8214     9.7816    62.6286 </r>
       <r>    -3.7551    10.6596    63.3350 </r>
       <r>    -3.6889    11.1749    64.0756 </r>
       <r>    -3.6226    12.2418    64.8869 </r>
       <r>    -3.5563    13.6013    65.7884 </r>
       <r>    -3.4900    13.5008    66.6831 </r>
       <r>    -3.4238    12.4998    67.5115 </r>
       <r>    -3.3575    11.9907    68.3062 </r>
       <r>    -3.2912    12.8175    69.1557 </r>
       <r>    -3.2249    14.5337    70.1189 </r>
       <r>    -3.1587    16.0913    71.1854 </r>
       <r>    -3.0924    18.0523    72.3818 </r>
       <r>    -3.0261    19.4745    73.6724 </r>
       <r>    -2.9598    18.7028    74.9119 </r>
       <r>    -2.8936    15.8342    75.9614 </r>
       <r>    -2.8273    13.4050    76.8498 </r>
       <r>    -2.7610    13.2037    77.7248 </r>
       <r>    -2.6948    14.0905    78.6587 </r>
       <r>    -2.6285    14.9553    79.6498 </r>
       <r>    -2.5622    15.4608    80.6745 </r>
       <r>    -2.4959    14.9885    81.6678 </r>
       <r>    -2.4297    14.4253    82.6239 </r>
       <r>    -2.3634    14.6741    83.5964 </r>
       <r>    -2.2971    14.0441    84.5271 </r>
       <r>    -2.2308    13.0395    85.3913 </r>
       <r>    -2.1646    13.7003    86.2993 </r>
       <r>    -2.0983    14.7982    87.2801 </r>
       <r>    -2.0320    14.7783    88.2595 </r>
       <r>    -1.9657    14.8469    89.2435 </r>
       <r>    -1.8995    15.5956    90.2770 </r>
       <r>    -1.8332    16.8056    91.3908 </r>
       <r>    -1.7669    17.3664    92.5418 </r>
       <r>    -1.7006    16.2325    93.6176 </r>
       <r>    -1.6344    14.2029    94.5589 </r>
       <r>    -1.5681    12.4413    95.3834 </r>
       <r>    -1.5018    12.4606    96.2092 </r>
       <r>    -1.4355    13.6605    97.1146 </r>
       <r>    -1.3693    13.8154    98.0302 </r>
       <r>    -1.3030    12.7065    98.8723 </r>
       <r>    -1.2367    11.8617    99.6584 </r>
       <r>    -1.1704    12.1150   100.4613 </r>
       <r>    -1.1042    12.9275   101.3181 </r>
       <r>    -1.0379    13.8965   102.2391 </r>
       <r>    -0.9716    14.4608   103.1975 </r>
       <r>    -0.9053    13.1158   104.0667 </r>
       <r>    -0.8391    10.8890   104.7884 </r>
       <r>    -0.7728     9.0984   105.3914 </r>
       <r>    -0.7065     6.6732   105.8336 </r>
       <r>    -0.6402     4.5543   106.1355 </r>
       <r>    -0.5740     3.5744   106.3723 </r>
       <r>    -0.5077     3.0836   106.5767 </r>
       <r>    -0.4414     2.7631   106.7598 </r>
       <r>    -0.3751     1.8849   106.8848 </r>
       <r>    -0.3089     1.1786   106.9629 </r>
       <r>    -0.2426     1.3741   107.0539 </r>
       <r>    -0.1763     1.4794   107.1520 </r>
       <r>    -0.1100     0.8841   107.2106 </r>
       <r>    -0.0438     0.2686   107.2284 </r>
       <r>     0.0225     0.0909   107.2344 </r>
       <r>     0.0888     0.3698   107.2589 </r>
       <r>     0.1551     1.4597   107.3557 </r>
       <r>     0.2213     3.6669   107.5987 </r>
       <r>     0.2876     6.2109   108.0103 </r>
       <r>     0.3539     7.7710   108.5253 </r>
       <r>     0.4202     8.0538   109.0591 </r>
       <r>     0.4864     7.4749   109.5545 </r>
       <r>     0.5527     6.8005   110.0052 </r>
       <r>     0.6190     6.3090   110.4233 </r>
       <r>     0.6852     5.8771   110.8128 </r>
       <r>     0.7515     5.4103   111.1714 </r>
       <r>     0.8178     4.7814   111.4883 </r>
       <r>     0.8841     4.6881   111.7990 </r>
       <r>     0.9503     5.0298   112.1323 </r>
       <r>     1.0166     5.1168   112.4714 </r>
       <r>     1.0829     5.5643   112.8402 </r>
       <r>     1.1492     7.5788   113.3425 </r>
       <r>     1.2154    10.2014   114.0186 </r>
       <r>     1.2817    10.9100   114.7416 </r>
       <r>     1.3480    10.3684   115.4288 </r>
       <r>     1.4143    10.6855   116.1370 </r>
       <r>     1.4805    10.9723   116.8641 </r>
       <r>     1.5468    10.8599   117.5839 </r>
       <r>     1.6131    11.7232   118.3608 </r>
       <r>     1.6794    13.5100   119.2562 </r>
       <r>     1.7456    15.2326   120.2657 </r>
       <r>     1.8119    14.8941   121.2528 </r>
       <r>     1.8782    12.4774   122.0798 </r>
       <r>     1.9445    10.4536   122.7726 </r>
       <r>     2.0107    10.2073   123.4490 </r>
       <r>     2.0770    11.6538   124.2214 </r>
       <r>     2.1433    13.0943   125.0892 </r>
       <r>     2.2096    13.8844   126.0094 </r>
       <r>     2.2758    14.5866   126.9761 </r>
       <r>     2.3421    14.8746   127.9619 </r>
       <r>     2.4084    15.1626   128.9668 </r>
       <r>     2.4747    14.6912   129.9405 </r>
       <r>     2.5409    13.1651   130.8130 </r>
       <r>     2.6072    12.4605   131.6388 </r>
       <r>     2.6735    12.9438   132.4966 </r>
       <r>     2.7398    12.1472   133.3017 </r>
       <r>     2.8060     9.3337   133.9203 </r>
       <r>     2.8723     7.2912   134.4035 </r>
       <r>     2.9386     7.1881   134.8799 </r>
       <r>     3.0049     6.9372   135.3397 </r>
       <r>     3.0711     5.3342   135.6932 </r>
       <r>     3.1374     3.0864   135.8977 </r>
       <r>     3.2037     1.2182   135.9785 </r>
       <r>     3.2700     0.2867   135.9975 </r>
       <r>     3.3362     0.0359   135.9998 </r>
       <r>     3.4025     0.0022   136.0000 </r>
       <r>     3.4688     0.0001   136.0000 </r>
       <r>     3.5351     0.0000   136.0000 </r>
       <r>     3.6013     0.0000   136.0000 </r>
       <r>     3.6676     0.0000   136.0000 </r>
       <r>     3.7339     0.0000   136.0000 </r>
       <r>     3.8001     0.0000   136.0000 </r>
       <r>     3.8664     0.0000   136.0000 </r>
       <r>     3.9327     0.0000   136.0000 </r>
       <r>     3.9990     0.0000   136.0000 </r>
       <r>     4.0652     0.0000   136.0000 </r>
       <r>     4.1315     0.0000   136.0000 </r>
      </set>
     </set>
    </array>
   </total>
  </dos>
 </calculation>
 <structure name="finalpos" >
  <crystal>
   <varray name="basis" >
    <v>       3.54040000       0.00000000       0.00000000 </v>
    <v>      -1.77020000      10.29434800       0.00000000 </v>
    <v>       0.00000000       0.00000000      27.50142900 </v>
   </varray>
   <i name="volume">   1002.32009712 </i>
   <varray name="rec_basis" >
    <v>       0.28245396       0.04857034       0.00000000 </v>
    <v>       0.00000000       0.09714068       0.00000000 </v>
    <v>       0.00000000       0.00000000       0.03636175 </v>
   </varray>
  </crystal>
  <varray name="positions" >
   <v>       0.11402300       0.22804500       0.23316207 </v>
   <v>       0.11402300       0.72804500       0.51499159 </v>
   <v>       0.45808900       0.91617900       0.20939482 </v>
   <v>       0.45808900       0.41617900       0.49122434 </v>
   <v>       0.31085400       0.62170900       0.08414979 </v>
   <v>       0.31085400       0.62170900       0.36597930 </v>
   <v>       0.99923000       0.99846000       0.08631254 </v>
   <v>       0.99923000       0.99846000       0.36814206 </v>
   <v>       0.65492700       0.30985400       0.06041748 </v>
   <v>       0.65492700       0.30985400       0.34224700 </v>
   <v>       0.76973800       0.53947500       0.20725292 </v>
   <v>       0.76973800       0.03947500       0.48908244 </v>
   <v>       0.93971600       0.87943300       0.15783749 </v>
   <v>       0.93971600       0.37943300       0.43966701 </v>
   <v>       0.20515200       0.41030300       0.18578822 </v>
   <v>       0.20515200       0.91030300       0.46761774 </v>
   <v>       0.20184900       0.40369900       0.09969156 </v>
   <v>       0.20184900       0.40369900       0.38152107 </v>
   <v>       0.56380500       0.12761000       0.10779021 </v>
   <v>       0.56380500       0.12761000       0.38961973 </v>
   <v>       0.56710600       0.13421200       0.19387616 </v>
   <v>       0.56710600       0.63421200       0.47570568 </v>
   <v>       0.82923400       0.65846800       0.13571444 </v>
   <v>       0.82923400       0.15846800       0.41754396 </v>
  </varray>
 </structure>
</modeling>
