<?xml version="1.0" encoding="ISO-8859-1"?>
<modeling>
 <generator>
  <i name="program" type="string">vasp </i>
  <i name="version" type="string">5.4.1  </i>
  <i name="subversion" type="string">24Jun15 (build May 10 2016 14:18:23) complex                          parallel </i>
  <i name="platform" type="string">IFC91_ompi </i>
  <i name="date" type="string">2016 12 09 </i>
  <i name="time" type="string">14:59:17 </i>
 </generator>
 <incar>
  <i type="string" name="PREC">accurate</i>
  <i type="string" name="ALGO"> Fast</i>
  <i type="int" name="ISPIN">     2</i>
  <i type="int" name="IBRION">     2</i>
  <i name="EDIFF">      0.00010000</i>
  <i type="int" name="NSW">     0</i>
  <i type="int" name="ISIF">     3</i>
  <i name="ENCUT">    500.00000000</i>
  <v name="MAGMOM">      6.00000000      0.50000000      0.50000000      6.00000000      0.50000000      0.50000000</v>
  <i type="string" name="LREAL"> Auto</i>
  <i type="int" name="ISMEAR">     1</i>
  <i name="SIGMA">      0.10000000</i>
  <i type="logical" name="LWAVE"> F  </i>
  <i type="logical" name="LCHARG"> F  </i>
  <i type="logical" name="LVTOT"> T  </i>
  <i type="logical" name="LVHAR"> T  </i>
  <i type="logical" name="LAECHG"> F  </i>
  <v type="int" name="KPOINT_BSE">    -1     0     0     0</v>
  <i type="string" name="GGA"> Bo</i>
  <i name="PARAM1">      0.18333333</i>
  <i name="PARAM2">      0.22000000</i>
  <i type="logical" name="LUSE_VDW"> T  </i>
  <i name="AGGAC">      0.00000000</i>
 </incar>
 <kpoints>
  <generation param="Gamma">
   <v type="int" name="divisions">      13       13        1 </v>
   <v name="usershift">      0.00000000       0.00000000       0.00000000 </v>
   <v name="genvec1">      0.07692308       0.00000000       0.00000000 </v>
   <v name="genvec2">      0.00000000       0.07692308       0.00000000 </v>
   <v name="genvec3">      0.00000000       0.00000000       1.00000000 </v>
   <v name="shift">      0.00000000       0.00000000       0.00000000 </v>
  </generation>
  <varray name="kpointlist" >
   <v>       0.00000000       0.00000000       0.00000000 </v>
   <v>       0.07692308      -0.00000000       0.00000000 </v>
   <v>       0.15384615       0.00000000       0.00000000 </v>
   <v>       0.23076923       0.00000000       0.00000000 </v>
   <v>       0.30769231      -0.00000000       0.00000000 </v>
   <v>       0.38461538       0.00000000       0.00000000 </v>
   <v>       0.46153846       0.00000000       0.00000000 </v>
   <v>       0.07692308       0.07692308       0.00000000 </v>
   <v>       0.15384615       0.07692308       0.00000000 </v>
   <v>       0.23076923       0.07692308       0.00000000 </v>
   <v>       0.30769231       0.07692308       0.00000000 </v>
   <v>       0.38461538       0.07692308       0.00000000 </v>
   <v>       0.46153846       0.07692308       0.00000000 </v>
   <v>      -0.46153846       0.07692308       0.00000000 </v>
   <v>      -0.38461538       0.07692308       0.00000000 </v>
   <v>      -0.30769231       0.07692308       0.00000000 </v>
   <v>      -0.23076923       0.07692308       0.00000000 </v>
   <v>      -0.15384615       0.07692308       0.00000000 </v>
   <v>      -0.07692308       0.07692308       0.00000000 </v>
   <v>       0.15384615       0.15384615       0.00000000 </v>
   <v>       0.23076923       0.15384615       0.00000000 </v>
   <v>       0.30769231       0.15384615       0.00000000 </v>
   <v>       0.38461538       0.15384615       0.00000000 </v>
   <v>       0.46153846       0.15384615       0.00000000 </v>
   <v>      -0.46153846       0.15384615       0.00000000 </v>
   <v>      -0.38461538       0.15384615       0.00000000 </v>
   <v>      -0.30769231       0.15384615       0.00000000 </v>
   <v>      -0.23076923       0.15384615       0.00000000 </v>
   <v>      -0.15384615       0.15384615       0.00000000 </v>
   <v>       0.23076923       0.23076923       0.00000000 </v>
   <v>       0.30769231       0.23076923       0.00000000 </v>
   <v>       0.38461538       0.23076923       0.00000000 </v>
   <v>       0.46153846       0.23076923       0.00000000 </v>
   <v>      -0.46153846       0.23076923       0.00000000 </v>
   <v>      -0.38461538       0.23076923       0.00000000 </v>
   <v>      -0.30769231       0.23076923       0.00000000 </v>
   <v>      -0.23076923       0.23076923       0.00000000 </v>
   <v>       0.30769231       0.30769231       0.00000000 </v>
   <v>       0.38461538       0.30769231       0.00000000 </v>
   <v>       0.46153846       0.30769231       0.00000000 </v>
   <v>      -0.46153846       0.30769231       0.00000000 </v>
   <v>      -0.38461538       0.30769231       0.00000000 </v>
   <v>      -0.30769231       0.30769231       0.00000000 </v>
   <v>       0.38461538       0.38461538       0.00000000 </v>
   <v>       0.46153846       0.38461538       0.00000000 </v>
   <v>      -0.46153846       0.38461538       0.00000000 </v>
   <v>      -0.38461538       0.38461538       0.00000000 </v>
   <v>       0.46153846       0.46153846       0.00000000 </v>
   <v>      -0.46153846       0.46153846       0.00000000 </v>
  </varray>
  <varray name="weights" >
   <v>       0.00591716 </v>
   <v>       0.02366864 </v>
   <v>       0.02366864 </v>
   <v>       0.02366864 </v>
   <v>       0.02366864 </v>
   <v>       0.02366864 </v>
   <v>       0.02366864 </v>
   <v>       0.01183432 </v>
   <v>       0.02366864 </v>
   <v>       0.02366864 </v>
   <v>       0.02366864 </v>
   <v>       0.02366864 </v>
   <v>       0.02366864 </v>
   <v>       0.02366864 </v>
   <v>       0.02366864 </v>
   <v>       0.02366864 </v>
   <v>       0.02366864 </v>
   <v>       0.02366864 </v>
   <v>       0.01183432 </v>
   <v>       0.01183432 </v>
   <v>       0.02366864 </v>
   <v>       0.02366864 </v>
   <v>       0.02366864 </v>
   <v>       0.02366864 </v>
   <v>       0.02366864 </v>
   <v>       0.02366864 </v>
   <v>       0.02366864 </v>
   <v>       0.02366864 </v>
   <v>       0.01183432 </v>
   <v>       0.01183432 </v>
   <v>       0.02366864 </v>
   <v>       0.02366864 </v>
   <v>       0.02366864 </v>
   <v>       0.02366864 </v>
   <v>       0.02366864 </v>
   <v>       0.02366864 </v>
   <v>       0.01183432 </v>
   <v>       0.01183432 </v>
   <v>       0.02366864 </v>
   <v>       0.02366864 </v>
   <v>       0.02366864 </v>
   <v>       0.02366864 </v>
   <v>       0.01183432 </v>
   <v>       0.01183432 </v>
   <v>       0.02366864 </v>
   <v>       0.02366864 </v>
   <v>       0.01183432 </v>
   <v>       0.01183432 </v>
   <v>       0.01183432 </v>
  </varray>
 </kpoints>
 <parameters>
  <separator name="general" >
   <i type="string" name="SYSTEM">unknown system</i>
   <i type="logical" name="LCOMPAT"> F  </i>
  </separator>
  <separator name="electronic" >
   <i type="string" name="PREC">accura</i>
   <i name="ENMAX">    500.00000000</i>
   <i name="ENAUG">    392.42700000</i>
   <i name="EDIFF">      0.00010000</i>
   <i type="int" name="IALGO">    68</i>
   <i type="int" name="IWAVPR">    10</i>
   <i type="int" name="NBANDS">    36</i>
   <i name="NELECT">     48.00000000</i>
   <i type="int" name="TURBO">     0</i>
   <i type="int" name="IRESTART">     0</i>
   <i type="int" name="NREBOOT">     0</i>
   <i type="int" name="NMIN">     0</i>
   <i name="EREF">      0.00000000</i>
   <separator name="electronic smearing" >
    <i type="int" name="ISMEAR">     1</i>
    <i name="SIGMA">      0.10000000</i>
    <i name="KSPACING">      0.50000000</i>
    <i type="logical" name="KGAMMA"> T  </i>
   </separator>
   <separator name="electronic projectors" >
    <i type="logical" name="LREAL"> T  </i>
    <v name="ROPT">     -0.00025000     -0.00025000     -0.00025000     -0.00025000</v>
    <i type="int" name="LMAXPAW">  -100</i>
    <i type="int" name="LMAXMIX">     2</i>
    <i type="logical" name="NLSPLINE"> F  </i>
   </separator>
   <separator name="electronic startup" >
    <i type="int" name="ISTART">     0</i>
    <i type="int" name="ICHARG">     2</i>
    <i type="int" name="INIWAV">     1</i>
   </separator>
   <separator name="electronic spin" >
    <i type="int" name="ISPIN">     2</i>
    <i type="logical" name="LNONCOLLINEAR"> F  </i>
    <v name="MAGMOM">      6.00000000      0.50000000      0.50000000      6.00000000      0.50000000      0.50000000</v>
    <i name="NUPDOWN">     -1.00000000</i>
    <i type="logical" name="LSORBIT"> F  </i>
    <v name="SAXIS">      0.00000000      0.00000000      1.00000000</v>
    <i type="logical" name="LSPIRAL"> F  </i>
    <v name="QSPIRAL">      0.00000000      0.00000000      0.00000000</v>
    <i type="logical" name="LZEROZ"> F  </i>
   </separator>
   <separator name="electronic exchange-correlation" >
    <i type="logical" name="LASPH"> F  </i>
    <i type="logical" name="LMETAGGA"> F  </i>
   </separator>
   <separator name="electronic convergence" >
    <i type="int" name="NELM">    60</i>
    <i type="int" name="NELMDL">     0</i>
    <i type="int" name="NELMIN">     2</i>
    <i name="ENINI">    500.00000000</i>
    <separator name="electronic convergence detail" >
     <i type="logical" name="LDIAG"> T  </i>
     <i type="logical" name="LSUBROT"> F  </i>
     <i name="WEIMIN">      0.00000000</i>
     <i name="EBREAK">      0.00000069</i>
     <i name="DEPER">      0.30000000</i>
     <i type="int" name="NRMM">     4</i>
     <i name="TIME">      0.40000000</i>
    </separator>
   </separator>
   <separator name="electronic mixer" >
    <i name="AMIX">      0.40000000</i>
    <i name="BMIX">      1.00000000</i>
    <i name="AMIN">      0.10000000</i>
    <i name="AMIX_MAG">      1.60000000</i>
    <i name="BMIX_MAG">      1.00000000</i>
    <separator name="electronic mixer details" >
     <i type="int" name="IMIX">     4</i>
     <i type="logical" name="MIXFIRST"> F  </i>
     <i type="int" name="MAXMIX">   -45</i>
     <i name="WC">    100.00000000</i>
     <i type="int" name="INIMIX">     1</i>
     <i type="int" name="MIXPRE">     1</i>
     <i type="int" name="MREMOVE">     5</i>
    </separator>
   </separator>
   <separator name="electronic dipolcorrection" >
    <i type="logical" name="LDIPOL"> F  </i>
    <i type="logical" name="LMONO"> F  </i>
    <i type="int" name="IDIPOL">     0</i>
    <i name="EPSILON">      1.00000000</i>
    <v name="DIPOL">   -100.00000000   -100.00000000   -100.00000000</v>
    <i name="EFIELD">      0.00000000</i>
   </separator>
  </separator>
  <separator name="grids" >
   <i type="int" name="NGX">    24</i>
   <i type="int" name="NGY">    24</i>
   <i type="int" name="NGZ">   180</i>
   <i type="int" name="NGXF">    48</i>
   <i type="int" name="NGYF">    48</i>
   <i type="int" name="NGZF">   360</i>
   <i type="logical" name="ADDGRID"> F  </i>
  </separator>
  <separator name="ionic" >
   <i type="int" name="NSW">     0</i>
   <i type="int" name="IBRION">    -1</i>
   <i type="int" name="ISIF">     3</i>
   <i name="PSTRESS">      0.00000000</i>
   <i name="EDIFFG">      0.00100000</i>
   <i type="int" name="NFREE">     1</i>
   <i name="POTIM">      0.50000000</i>
   <i name="SMASS">     -3.00000000</i>
   <i name="SCALEE">      1.00000000</i>
  </separator>
  <separator name="ionic md" >
   <i name="TEBEG">      0.00010000</i>
   <i name="TEEND">      0.00010000</i>
   <i type="int" name="NBLOCK">     1</i>
   <i type="int" name="KBLOCK">     1</i>
   <i type="int" name="NPACO">   256</i>
   <i name="APACO">     16.00000000</i>
  </separator>
  <separator name="symmetry" >
   <i type="int" name="ISYM">     2</i>
   <i name="SYMPREC">      0.00001000</i>
  </separator>
  <separator name="dos" >
   <i type="logical" name="LORBIT"> F  </i>
   <v name="RWIGS">     -1.00000000     -1.00000000     -1.00000000     -1.00000000</v>
   <i type="int" name="NEDOS">   301</i>
   <i name="EMIN">     10.00000000</i>
   <i name="EMAX">    -10.00000000</i>
   <i name="EFERMI">      0.00000000</i>
  </separator>
  <separator name="writing" >
   <i type="int" name="NWRITE">     2</i>
   <i type="logical" name="LWAVE"> F  </i>
   <i type="logical" name="LCHARG"> F  </i>
   <i type="logical" name="LPARD"> F  </i>
   <i type="logical" name="LVTOT"> F  </i>
   <i type="logical" name="LVHAR"> T  </i>
   <i type="logical" name="LELF"> F  </i>
   <i type="logical" name="LOPTICS"> F  </i>
   <v name="STM">      0.00000000      0.00000000      0.00000000      0.00000000      0.00000000      0.00000000      0.00000000</v>
  </separator>
  <separator name="performance" >
   <i type="int" name="NPAR">     4</i>
   <i type="int" name="NSIM">     4</i>
   <i type="int" name="NBLK">    -1</i>
   <i type="logical" name="LPLANE"> T  </i>
   <i type="logical" name="LSCALAPACK"> T  </i>
   <i type="logical" name="LSCAAWARE"> F  </i>
   <i type="logical" name="LSCALU"> F  </i>
   <i type="logical" name="LASYNC"> F  </i>
   <i type="logical" name="LORBITALREAL"> F  </i>
  </separator>
  <separator name="miscellaneous" >
   <i type="int" name="IDIOT">     3</i>
   <i type="logical" name="LMUSIC"> F  </i>
   <v name="POMASS">     95.94000000     32.06600000     95.94000000     32.06600000</v>
   <v name="DARWINR">      0.00000000      0.00000000      0.00000000      0.00000000</v>
   <v name="DARWINV">      1.00000000      1.00000000      1.00000000      1.00000000</v>
   <i type="logical" name="LCORR"> T  </i>
  </separator>
  <i type="logical" name="GGA_COMPAT"> T  </i>
  <i type="logical" name="LBERRY"> F  </i>
  <i type="int" name="ICORELEVEL">     0</i>
  <i type="logical" name="LDAU"> F  </i>
  <i type="int" name="I_CONSTRAINED_M">     0</i>
  <separator name="electronic exchange-correlation" >
   <i type="string" name="GGA">BO</i>
   <i type="int" name="VOSKOWN">     0</i>
   <i type="logical" name="LHFCALC"> F  </i>
   <i type="string" name="PRECFOCK"></i>
   <i type="logical" name="LSYMGRAD"> F  </i>
   <i type="logical" name="LHFONE"> F  </i>
   <i type="logical" name="LRHFCALC"> F  </i>
   <i type="logical" name="LTHOMAS"> F  </i>
   <i type="logical" name="LMODELHF"> F  </i>
   <i name="ENCUT4O">     -1.00000000</i>
   <i type="int" name="EXXOEP">     0</i>
   <i type="int" name="FOURORBIT">     0</i>
   <i name="AEXX">      0.00000000</i>
   <i name="HFALPHA">      0.00000000</i>
   <i name="MCALPHA">      0.00000000</i>
   <i name="ALDAX">      1.00000000</i>
   <i name="AGGAX">      1.00000000</i>
   <i name="ALDAC">      1.00000000</i>
   <i name="AGGAC">      0.00000000</i>
   <i type="int" name="NKREDX">     1</i>
   <i type="int" name="NKREDY">     1</i>
   <i type="int" name="NKREDZ">     1</i>
   <i type="logical" name="SHIFTRED"> F  </i>
   <i type="logical" name="ODDONLY"> F  </i>
   <i type="logical" name="EVENONLY"> F  </i>
   <i type="int" name="LMAXFOCK">     0</i>
   <i type="int" name="NMAXFOCKAE">     0</i>
   <i type="logical" name="LFOCKAEDFT"> F  </i>
   <i name="HFSCREEN">      0.00000000</i>
   <i name="HFSCREENC">      0.00000000</i>
   <i type="int" name="NBANDSGWLOW">     0</i>
  </separator>
  <separator name="vdW DFT" >
   <i type="logical" name="LUSE_VDW"> T  </i>
   <i name="Zab_VDW">     -0.84910000</i>
   <i name="PARAM1">      0.18333333</i>
   <i name="PARAM2">      0.22000000</i>
   <i name="PARAM3">      0.00000000</i>
  </separator>
  <separator name="model GW" >
   <i type="int" name="MODEL_GW">     0</i>
   <i name="MODEL_EPS0">     20.39722663</i>
   <i name="MODEL_ALPHA">      1.00000000</i>
  </separator>
  <separator name="linear response parameters" >
   <i type="logical" name="LEPSILON"> F  </i>
   <i type="logical" name="LRPA"> F  </i>
   <i type="logical" name="LNABLA"> F  </i>
   <i type="logical" name="LVEL"> F  </i>
   <i type="int" name="KINTER">     0</i>
   <i name="CSHIFT">      0.10000000</i>
   <i name="OMEGAMAX">     -1.00000000</i>
   <i name="DEG_THRESHOLD">      0.00200000</i>
  </separator>
  <separator name="orbital magnetization" >
   <i type="logical" name="NUCIND"> F  </i>
   <v name="MAGPOS">      0.00000000      0.00000000      0.00000000</v>
   <i type="logical" name="LNICSALL"> T  </i>
   <i type="logical" name="ORBITALMAG"> F  </i>
   <i type="logical" name="LMAGBLOCH"> F  </i>
   <i type="logical" name="LCHIMAG"> F  </i>
   <i type="logical" name="LGAUGE"> T  </i>
   <i type="int" name="MAGATOM">     0</i>
   <v name="MAGDIPOL">      0.00000000      0.00000000      0.00000000</v>
   <v name="AVECCONST">      0.00000000      0.00000000      0.00000000</v>
  </separator>
  <separator name="response functions" >
   <i type="logical" name="LADDER"> F  </i>
   <i type="logical" name="LFXC"> F  </i>
   <i type="logical" name="LHARTREE"> T  </i>
   <i type="int" name="IBSE">     0</i>
   <v type="int" name="KPOINT">    -1     0     0     0</v>
   <i type="logical" name="LTCTE"> F  </i>
   <i type="logical" name="LTETE"> F  </i>
   <i type="logical" name="LTRIPLET"> F  </i>
   <i type="logical" name="LFXCEPS"> F  </i>
   <i type="logical" name="LFXHEG"> F  </i>
   <i type="int" name="NATURALO">     0</i>
   <i type="logical" name="L2ORDER"> F  </i>
   <i type="logical" name="LUSEW"> F  </i>
   <i name="ENCUTGW">     -2.00000000</i>
   <i name="ENCUTGWSOFT">     -2.00000000</i>
   <i name="ENCUTLF">     -1.00000000</i>
   <i type="int" name="LMAXMP2">    -1</i>
   <i name="SCISSOR">      0.00000000</i>
   <i type="int" name="NOMEGA">     0</i>
   <i type="int" name="NOMEGAR">     0</i>
   <i type="int" name="NBANDSGW">    -1</i>
   <i type="int" name="NBANDSO">    -1</i>
   <i type="int" name="NBANDSV">    -1</i>
   <i type="int" name="NELM">     1</i>
   <i type="int" name="NELMHF">     1</i>
   <i type="int" name="DIM">     3</i>
   <i type="int" name="ANTIRES">     0</i>
   <i name="OMEGAMAX">    -30.00000000</i>
   <i name="OMEGAMIN">    -30.00000000</i>
   <i name="OMEGATL">   -200.00000000</i>
   <i type="int" name="OMEGAGRID">     0</i>
   <i name="CSHIFT">     -0.10000000</i>
   <i type="logical" name="SELFENERGY"> F  </i>
   <i type="logical" name="LSPECTRAL"> F  </i>
   <i type="logical" name="LSPECTRALGW"> F  </i>
   <i type="logical" name="LSINGLES"> F  </i>
   <i type="logical" name="LFERMIGW"> F  </i>
   <i type="logical" name="ODDONLYGW"> F  </i>
   <i type="logical" name="EVENONLYGW"> F  </i>
   <i type="int" name="NKREDLFX">     1</i>
   <i type="int" name="NKREDLFY">     1</i>
   <i type="int" name="NKREDLFZ">     1</i>
   <i type="int" name="MAXMEM">  1800</i>
   <i type="int" name="TELESCOPE">     0</i>
   <i type="int" name="TAUPAR">     1</i>
   <i type="int" name="OMEGAPAR">    -1</i>
   <i name="LAMBDA">      1.00000000</i>
  </separator>
  <separator name="External order field" >
   <i name="OFIELD_KAPPA">      0.00000000</i>
   <v name="OFIELD_K">      0.00000000      0.00000000      0.00000000</v>
   <i name="OFIELD_Q6_NEAR">      0.00000000</i>
   <i name="OFIELD_Q6_FAR">      0.00000000</i>
   <i name="OFIELD_A">      0.00000000</i>
  </separator>
 </parameters>
 <atominfo>
  <atoms>       6 </atoms>
  <types>       4 </types>
  <array name="atoms" >
   <dimension dim="1">ion</dimension>
   <field type="string">element</field>
   <field type="int">atomtype</field>
   <set>
    <rc><c>Mo</c><c>   1</c></rc>
    <rc><c>S </c><c>   2</c></rc>
    <rc><c>S </c><c>   2</c></rc>
    <rc><c>Mo</c><c>   3</c></rc>
    <rc><c>S </c><c>   4</c></rc>
    <rc><c>S </c><c>   4</c></rc>
   </set>
  </array>
  <array name="atomtypes" >
   <dimension dim="1">type</dimension>
   <field type="int">atomspertype</field>
   <field type="string">element</field>
   <field>mass</field>
   <field>valence</field>
   <field type="string">pseudopotential</field>
   <set>
    <rc><c>   1</c><c>Mo</c><c>     95.94000000</c><c>     12.00000000</c><c> PAW_PBE Mo_pv 08Apr2002                </c></rc>
    <rc><c>   2</c><c>S </c><c>     32.06600000</c><c>      6.00000000</c><c>  PAW_PBE S 17Jan2003                   </c></rc>
    <rc><c>   1</c><c>Mo</c><c>     95.94000000</c><c>     12.00000000</c><c> PAW_PBE Mo_pv 08Apr2002                </c></rc>
    <rc><c>   2</c><c>S </c><c>     32.06600000</c><c>      6.00000000</c><c>  PAW_PBE S 17Jan2003                   </c></rc>
   </set>
  </array>
 </atominfo>
 <structure name="initialpos" >
  <crystal>
   <varray name="basis" >
    <v>       3.19031700       0.00000000       0.00000000 </v>
    <v>      -1.59515800       2.76289700       0.00000000 </v>
    <v>       0.00000000       0.00000000      23.14049200 </v>
   </varray>
   <i name="volume">    203.97226633 </i>
   <varray name="rec_basis" >
    <v>       0.31344848       0.18096941       0.00000000 </v>
    <v>       0.00000000       0.36193894       0.00000000 </v>
    <v>       0.00000000       0.00000000       0.04321429 </v>
   </varray>
  </crystal>
  <varray name="positions" >
   <v>       0.66666700       0.33333300       0.06785900 </v>
   <v>       0.33333300       0.66666700       0.00000000 </v>
   <v>       0.33333300       0.66666700       0.13571500 </v>
   <v>       0.09523843       0.90476157       0.35482300 </v>
   <v>       0.76190443       0.23809557       0.28696500 </v>
   <v>       0.76190443       0.23809557       0.42267900 </v>
  </varray>
 </structure>
 <calculation>
  <scstep>
   <time name="dav">   33.62   33.65</time>
   <time name="total">   43.81   43.85</time>
   <energy>
    <i name="alphaZ">    104.15310261 </i>
    <i name="ewald">   7698.97301422 </i>
    <i name="hartreedc"> -11109.03089613 </i>
    <i name="XCdc">    128.46244833 </i>
    <i name="pawpsdc">   2252.92270536 </i>
    <i name="pawaedc">  -2205.68654582 </i>
    <i name="eentropy">     -0.00076315 </i>
    <i name="bandstr">   -159.99986307 </i>
    <i name="atom">   3688.31848598 </i>
    <i name="e_fr_energy">    398.11168832 </i>
    <i name="e_wo_entrp">    398.11245147 </i>
    <i name="e_0_energy">    398.11194270 </i>
   </energy>
  </scstep>
  <scstep>
   <time name="dav">   36.12   36.14</time>
   <time name="total">   36.12   36.15</time>
   <energy>
    <i name="e_fr_energy">     -1.79928515 </i>
    <i name="e_wo_entrp">     -1.79943402 </i>
    <i name="e_0_energy">     -1.79933477 </i>
   </energy>
  </scstep>
  <scstep>
   <time name="dav">   37.23   37.26</time>
   <time name="total">   37.24   37.27</time>
   <energy>
    <i name="e_fr_energy">    -32.98233977 </i>
    <i name="e_wo_entrp">    -32.98398257 </i>
    <i name="e_0_energy">    -32.98288737 </i>
   </energy>
  </scstep>
  <scstep>
   <time name="dav">   35.63   35.66</time>
   <time name="total">   35.63   35.66</time>
   <energy>
    <i name="e_fr_energy">    -33.85040455 </i>
    <i name="e_wo_entrp">    -33.85181040 </i>
    <i name="e_0_energy">    -33.85087317 </i>
   </energy>
  </scstep>
  <scstep>
   <time name="dav">   37.45   37.48</time>
   <time name="total">   40.32   40.36</time>
   <energy>
    <i name="e_fr_energy">    -33.87722084 </i>
    <i name="e_wo_entrp">    -33.87864995 </i>
    <i name="e_0_energy">    -33.87769721 </i>
   </energy>
  </scstep>
  <scstep>
   <time name="diag">    6.68    6.69</time>
   <time name="diis">   24.50   24.51</time>
   <time name="orth">    0.21    0.21</time>
   <time name="total">   44.11   44.15</time>
   <energy>
    <i name="e_fr_energy">    -30.00030595 </i>
    <i name="e_wo_entrp">    -29.99980758 </i>
    <i name="e_0_energy">    -30.00013983 </i>
   </energy>
  </scstep>
  <scstep>
   <time name="diag">    6.69    6.70</time>
   <time name="diis">   24.52   24.54</time>
   <time name="orth">    0.21    0.21</time>
   <time name="total">   44.10   44.41</time>
   <energy>
    <i name="e_fr_energy">    -32.83488428 </i>
    <i name="e_wo_entrp">    -32.83544741 </i>
    <i name="e_0_energy">    -32.83507199 </i>
   </energy>
  </scstep>
  <scstep>
   <time name="diag">    6.69    6.70</time>
   <time name="diis">   25.66   25.68</time>
   <time name="orth">    0.21    0.21</time>
   <time name="total">   45.27   45.32</time>
   <energy>
    <i name="e_fr_energy">    -34.33239965 </i>
    <i name="e_wo_entrp">    -34.33256605 </i>
    <i name="e_0_energy">    -34.33245512 </i>
   </energy>
  </scstep>
  <scstep>
   <time name="diag">    6.63    6.64</time>
   <time name="diis">   23.69   23.70</time>
   <time name="orth">    0.21    0.21</time>
   <time name="total">   43.10   43.14</time>
   <energy>
    <i name="e_fr_energy">    -37.05402394 </i>
    <i name="e_wo_entrp">    -37.05419188 </i>
    <i name="e_0_energy">    -37.05407992 </i>
   </energy>
  </scstep>
  <scstep>
   <time name="diag">    6.71    6.72</time>
   <time name="diis">   22.37   22.39</time>
   <time name="orth">    0.21    0.21</time>
   <time name="total">   42.04   42.07</time>
   <energy>
    <i name="e_fr_energy">    -39.10513220 </i>
    <i name="e_wo_entrp">    -39.10530030 </i>
    <i name="e_0_energy">    -39.10518823 </i>
   </energy>
  </scstep>
  <scstep>
   <time name="diag">    6.66    6.66</time>
   <time name="diis">   23.92   23.94</time>
   <time name="orth">    0.20    0.21</time>
   <time name="total">   43.46   43.50</time>
   <energy>
    <i name="e_fr_energy">    -39.39252017 </i>
    <i name="e_wo_entrp">    -39.39285439 </i>
    <i name="e_0_energy">    -39.39263158 </i>
   </energy>
  </scstep>
  <scstep>
   <time name="diag">    6.67    6.68</time>
   <time name="diis">   24.50   24.52</time>
   <time name="orth">    0.21    0.21</time>
   <time name="total">   44.06   44.09</time>
   <energy>
    <i name="e_fr_energy">    -39.44722353 </i>
    <i name="e_wo_entrp">    -39.44755442 </i>
    <i name="e_0_energy">    -39.44733383 </i>
   </energy>
  </scstep>
  <scstep>
   <time name="diag">    6.65    6.66</time>
   <time name="diis">   23.51   23.52</time>
   <time name="orth">    0.21    0.21</time>
   <time name="total">   43.05   43.08</time>
   <energy>
    <i name="e_fr_energy">    -39.42224033 </i>
    <i name="e_wo_entrp">    -39.42257468 </i>
    <i name="e_0_energy">    -39.42235178 </i>
   </energy>
  </scstep>
  <scstep>
   <time name="diag">    6.68    6.69</time>
   <time name="diis">   25.01   25.03</time>
   <time name="orth">    0.21    0.21</time>
   <time name="total">   44.57   44.61</time>
   <energy>
    <i name="e_fr_energy">    -39.42725633 </i>
    <i name="e_wo_entrp">    -39.42759160 </i>
    <i name="e_0_energy">    -39.42736809 </i>
   </energy>
  </scstep>
  <scstep>
   <time name="diag">    6.67    6.68</time>
   <time name="diis">   21.15   21.17</time>
   <time name="orth">    0.21    0.21</time>
   <time name="total">   40.71   40.75</time>
   <energy>
    <i name="e_fr_energy">    -39.42766987 </i>
    <i name="e_wo_entrp">    -39.42800513 </i>
    <i name="e_0_energy">    -39.42778162 </i>
   </energy>
  </scstep>
  <scstep>
   <time name="diag">    6.65    6.65</time>
   <time name="diis">   18.04   18.05</time>
   <time name="orth">    0.20    0.21</time>
   <time name="total">   37.59   37.64</time>
   <energy>
    <i name="e_fr_energy">    -39.42715032 </i>
    <i name="e_wo_entrp">    -39.42748562 </i>
    <i name="e_0_energy">    -39.42726209 </i>
   </energy>
  </scstep>
  <scstep>
   <time name="diag">    6.68    6.68</time>
   <time name="diis">   17.27   17.28</time>
   <time name="orth">    0.20    0.21</time>
   <time name="total">   36.78   36.81</time>
   <energy>
    <i name="e_fr_energy">    -39.42732684 </i>
    <i name="e_wo_entrp">    -39.42766213 </i>
    <i name="e_0_energy">    -39.42743861 </i>
   </energy>
  </scstep>
  <scstep>
   <time name="diag">    6.68    6.68</time>
   <time name="diis">   16.60   16.61</time>
   <time name="orth">    0.21    0.21</time>
   <time name="total">   36.12   36.16</time>
   <energy>
    <i name="e_fr_energy">    -39.42760731 </i>
    <i name="e_wo_entrp">    -39.42794258 </i>
    <i name="e_0_energy">    -39.42771907 </i>
   </energy>
  </scstep>
  <scstep>
   <time name="diag">    6.71    6.72</time>
   <time name="diis">   16.10   16.11</time>
   <time name="orth">    0.20    0.20</time>
   <time name="total">   35.69   35.79</time>
   <energy>
    <i name="e_fr_energy">    -39.42807642 </i>
    <i name="e_wo_entrp">    -39.42841166 </i>
    <i name="e_0_energy">    -39.42818817 </i>
   </energy>
  </scstep>
  <scstep>
   <time name="diag">    6.71    6.71</time>
   <time name="diis">   16.01   16.02</time>
   <time name="orth">    0.21    0.21</time>
   <time name="total">   35.64   35.67</time>
   <energy>
    <i name="e_fr_energy">    -39.42829642 </i>
    <i name="e_wo_entrp">    -39.42863163 </i>
    <i name="e_0_energy">    -39.42840816 </i>
   </energy>
  </scstep>
  <scstep>
   <time name="diag">    6.67    6.68</time>
   <time name="diis">   16.14   16.15</time>
   <time name="orth">    0.21    0.21</time>
   <time name="total">   32.73   32.75</time>
   <energy>
    <i name="alphaZ">    104.15310261 </i>
    <i name="ewald">   7698.97301422 </i>
    <i name="hartreedc"> -11092.60904829 </i>
    <i name="XCdc">    122.65682823 </i>
    <i name="pawpsdc">   2399.27327063 </i>
    <i name="pawaedc">  -2361.45749779 </i>
    <i name="eentropy">      0.00033521 </i>
    <i name="bandstr">   -598.73684999 </i>
    <i name="atom">   3688.31848598 </i>
    <i name="e_fr_energy">    -39.42835919 </i>
    <i name="e_wo_entrp">    -39.42869440 </i>
    <i name="e_0_energy">    -39.42847093 </i>
   </energy>
  </scstep>
  <structure>
   <crystal>
    <varray name="basis" >
     <v>       3.19031700       0.00000000       0.00000000 </v>
     <v>      -1.59515800       2.76289700       0.00000000 </v>
     <v>       0.00000000       0.00000000      23.14049200 </v>
    </varray>
    <i name="volume">    203.97226633 </i>
    <varray name="rec_basis" >
     <v>       0.31344848       0.18096941       0.00000000 </v>
     <v>       0.00000000       0.36193894       0.00000000 </v>
     <v>       0.00000000       0.00000000       0.04321429 </v>
    </varray>
   </crystal>
   <varray name="positions" >
    <v>       0.66666700       0.33333300       0.06785900 </v>
    <v>       0.33333300       0.66666700       0.00000000 </v>
    <v>       0.33333300       0.66666700       0.13571500 </v>
    <v>       0.09523843       0.90476157       0.35482300 </v>
    <v>       0.76190443       0.23809557       0.28696500 </v>
    <v>       0.76190443       0.23809557       0.42267900 </v>
   </varray>
  </structure>
  <varray name="forces" >
   <v>       0.00134484      -0.00077644      -0.00251075 </v>
   <v>      -0.00113071       0.00065282      -0.05284762 </v>
   <v>       0.00579247      -0.00334429       0.12768467 </v>
   <v>      -0.00225011       0.00129910       0.00359560 </v>
   <v>      -0.00303440       0.00175191      -0.13414219 </v>
   <v>      -0.00072209       0.00041690       0.05822029 </v>
  </varray>
  <varray name="stress" >
   <v>       3.43827172       0.22942514      -0.21322681 </v>
   <v>       0.22942514       3.70319190       0.12310663 </v>
   <v>      -0.21322689       0.12310668      -0.35754866 </v>
  </varray>
  <energy>
   <i name="e_fr_energy">    -39.42835919 </i>
   <i name="e_wo_entrp">    -39.42847093 </i>
   <i name="e_0_energy">      0.00033521 </i>
  </energy>
  <time name="totalsc">  908.29  909.58</time>
  <eigenvalues>
   <array>
    <dimension dim="1">band</dimension>
    <dimension dim="2">kpoint</dimension>
    <dimension dim="3">spin</dimension>
    <field>eigene</field>
    <field>occ</field>
    <set>
     <set comment="spin 1">
      <set comment="kpoint 1">
       <r>  -34.9978    1.0000 </r>
       <r>  -34.9860    1.0000 </r>
       <r>  -34.8072    1.0000 </r>
       <r>  -34.8071    1.0000 </r>
       <r>  -34.7954    1.0000 </r>
       <r>  -34.7954    1.0000 </r>
       <r>  -13.9757    1.0000 </r>
       <r>  -13.9200    1.0000 </r>
       <r>  -12.7093    1.0000 </r>
       <r>  -12.6169    1.0000 </r>
       <r>   -5.6843    1.0000 </r>
       <r>   -5.4001    1.0000 </r>
       <r>   -2.6275    1.0000 </r>
       <r>   -2.6272    1.0000 </r>
       <r>   -2.6153    1.0000 </r>
       <r>   -2.6148    1.0000 </r>
       <r>   -2.1718    1.0000 </r>
       <r>   -1.5350    1.0000 </r>
       <r>   -1.5334    1.0000 </r>
       <r>   -1.5214    1.0000 </r>
       <r>   -1.5198    1.0000 </r>
       <r>   -1.4787    1.0000 </r>
       <r>   -0.2216    1.0000 </r>
       <r>    0.2076    0.7942 </r>
       <r>    2.6843   -0.0000 </r>
       <r>    2.6976   -0.0000 </r>
       <r>    2.7105   -0.0000 </r>
       <r>    2.7200   -0.0000 </r>
       <r>    2.8654   -0.0000 </r>
       <r>    2.8799   -0.0000 </r>
       <r>    2.8932   -0.0000 </r>
       <r>    2.9116   -0.0000 </r>
       <r>    5.2795    0.0000 </r>
       <r>    5.3974    0.0000 </r>
       <r>    6.3869    0.0000 </r>
       <r>    6.5404    0.0000 </r>
      </set>
      <set comment="kpoint 2">
       <r>  -34.9937    1.0000 </r>
       <r>  -34.9819    1.0000 </r>
       <r>  -34.8284    1.0000 </r>
       <r>  -34.8167    1.0000 </r>
       <r>  -34.8120    1.0000 </r>
       <r>  -34.8002    1.0000 </r>
       <r>  -13.8890    1.0000 </r>
       <r>  -13.8336    1.0000 </r>
       <r>  -12.6725    1.0000 </r>
       <r>  -12.5827    1.0000 </r>
       <r>   -5.5848    1.0000 </r>
       <r>   -5.3015    1.0000 </r>
       <r>   -2.8143    1.0000 </r>
       <r>   -2.8018    1.0000 </r>
       <r>   -2.5365    1.0000 </r>
       <r>   -2.5246    1.0000 </r>
       <r>   -2.4599    1.0000 </r>
       <r>   -2.0749    1.0000 </r>
       <r>   -1.6710    1.0000 </r>
       <r>   -1.6587    1.0000 </r>
       <r>   -1.3535    1.0000 </r>
       <r>   -1.0791    1.0000 </r>
       <r>   -0.2420    1.0000 </r>
       <r>    0.1286    1.0349 </r>
       <r>    2.5910   -0.0000 </r>
       <r>    2.6038   -0.0000 </r>
       <r>    2.6470   -0.0000 </r>
       <r>    2.6919   -0.0000 </r>
       <r>    2.7837   -0.0000 </r>
       <r>    2.8025   -0.0000 </r>
       <r>    2.8451   -0.0000 </r>
       <r>    2.8596   -0.0000 </r>
       <r>    5.4194    0.0000 </r>
       <r>    5.5345    0.0000 </r>
       <r>    6.7486    0.0000 </r>
       <r>    6.9238    0.0000 </r>
      </set>
      <set comment="kpoint 3">
       <r>  -34.9824    1.0000 </r>
       <r>  -34.9705    1.0000 </r>
       <r>  -34.8869    1.0000 </r>
       <r>  -34.8752    1.0000 </r>
       <r>  -34.8254    1.0000 </r>
       <r>  -34.8136    1.0000 </r>
       <r>  -13.6401    1.0000 </r>
       <r>  -13.5860    1.0000 </r>
       <r>  -12.5672    1.0000 </r>
       <r>  -12.4848    1.0000 </r>
       <r>   -5.3239    1.0000 </r>
       <r>   -5.0479    1.0000 </r>
       <r>   -3.2631    1.0000 </r>
       <r>   -3.2508    1.0000 </r>
       <r>   -2.9608    1.0000 </r>
       <r>   -2.6907    1.0000 </r>
       <r>   -2.2810    1.0000 </r>
       <r>   -2.2688    1.0000 </r>
       <r>   -2.0064    1.0000 </r>
       <r>   -1.9934    1.0000 </r>
       <r>   -1.2561    1.0000 </r>
       <r>   -0.9578    1.0000 </r>
       <r>   -0.3694    1.0000 </r>
       <r>   -0.1581    1.0000 </r>
       <r>    2.1864   -0.0000 </r>
       <r>    2.3547   -0.0000 </r>
       <r>    2.4979   -0.0000 </r>
       <r>    2.5513   -0.0000 </r>
       <r>    2.5760   -0.0000 </r>
       <r>    2.6081   -0.0000 </r>
       <r>    3.1904    0.0000 </r>
       <r>    3.2103    0.0000 </r>
       <r>    5.7752    0.0000 </r>
       <r>    5.8829    0.0000 </r>
       <r>    7.4132    0.0000 </r>
       <r>    7.8291    0.0000 </r>
      </set>
      <set comment="kpoint 4">
       <r>  -34.9684    1.0000 </r>
       <r>  -34.9663    1.0000 </r>
       <r>  -34.9566    1.0000 </r>
       <r>  -34.9544    1.0000 </r>
       <r>  -34.8442    1.0000 </r>
       <r>  -34.8325    1.0000 </r>
       <r>  -13.2642    1.0000 </r>
       <r>  -13.2133    1.0000 </r>
       <r>  -12.4088    1.0000 </r>
       <r>  -12.3384    1.0000 </r>
       <r>   -5.0606    1.0000 </r>
       <r>   -4.8308    1.0000 </r>
       <r>   -3.7162    1.0000 </r>
       <r>   -3.6896    1.0000 </r>
       <r>   -3.4903    1.0000 </r>
       <r>   -3.3116    1.0000 </r>
       <r>   -2.4018    1.0000 </r>
       <r>   -2.3881    1.0000 </r>
       <r>   -1.9120    1.0000 </r>
       <r>   -1.8988    1.0000 </r>
       <r>   -1.4131    1.0000 </r>
       <r>   -1.1606    1.0000 </r>
       <r>   -0.6820    1.0000 </r>
       <r>   -0.6140    1.0000 </r>
       <r>    1.9516   -0.0000 </r>
       <r>    2.2314   -0.0000 </r>
       <r>    2.3004   -0.0000 </r>
       <r>    2.3278   -0.0000 </r>
       <r>    2.6959   -0.0000 </r>
       <r>    2.8901   -0.0000 </r>
       <r>    3.5695    0.0000 </r>
       <r>    3.5990    0.0000 </r>
       <r>    6.2889    0.0000 </r>
       <r>    6.3904    0.0000 </r>
       <r>    7.8849    0.0000 </r>
       <r>    8.3132    0.0000 </r>
      </set>
      <set comment="kpoint 5">
       <r>  -35.0537    1.0000 </r>
       <r>  -35.0419    1.0000 </r>
       <r>  -34.9491    1.0000 </r>
       <r>  -34.9373    1.0000 </r>
       <r>  -34.8641    1.0000 </r>
       <r>  -34.8524    1.0000 </r>
       <r>  -12.8225    1.0000 </r>
       <r>  -12.7781    1.0000 </r>
       <r>  -12.2253    1.0000 </r>
       <r>  -12.1707    1.0000 </r>
       <r>   -5.1164    1.0000 </r>
       <r>   -5.0012    1.0000 </r>
       <r>   -4.0526    1.0000 </r>
       <r>   -3.9392    1.0000 </r>
       <r>   -3.8471    1.0000 </r>
       <r>   -3.7705    1.0000 </r>
       <r>   -2.7573    1.0000 </r>
       <r>   -2.7431    1.0000 </r>
       <r>   -1.6707    1.0000 </r>
       <r>   -1.5179    1.0000 </r>
       <r>   -1.5028    1.0000 </r>
       <r>   -1.4735    1.0000 </r>
       <r>   -0.9742    1.0000 </r>
       <r>   -0.9347    1.0000 </r>
       <r>    2.0427   -0.0000 </r>
       <r>    2.1330   -0.0000 </r>
       <r>    2.1571   -0.0000 </r>
       <r>    2.3139   -0.0000 </r>
       <r>    3.1102    0.0000 </r>
       <r>    3.3307    0.0000 </r>
       <r>    3.8690    0.0000 </r>
       <r>    3.9101    0.0000 </r>
       <r>    6.9170    0.0000 </r>
       <r>    6.9973    0.0000 </r>
       <r>    7.9208    0.0000 </r>
       <r>    8.0023    0.0000 </r>
      </set>
      <set comment="kpoint 6">
       <r>  -35.1234    1.0000 </r>
       <r>  -35.1117    1.0000 </r>
       <r>  -34.9349    1.0000 </r>
       <r>  -34.9230    1.0000 </r>
       <r>  -34.8806    1.0000 </r>
       <r>  -34.8688    1.0000 </r>
       <r>  -12.4082    1.0000 </r>
       <r>  -12.3753    1.0000 </r>
       <r>  -12.0572    1.0000 </r>
       <r>  -12.0212    1.0000 </r>
       <r>   -5.4284    1.0000 </r>
       <r>   -5.3788    1.0000 </r>
       <r>   -4.4673    1.0000 </r>
       <r>   -4.4017    1.0000 </r>
       <r>   -3.9180    1.0000 </r>
       <r>   -3.8597    1.0000 </r>
       <r>   -3.0173    1.0000 </r>
       <r>   -3.0028    1.0000 </r>
       <r>   -1.8617    1.0000 </r>
       <r>   -1.7283    1.0000 </r>
       <r>   -1.2015    1.0000 </r>
       <r>   -1.1806    1.0000 </r>
       <r>   -0.9327    1.0000 </r>
       <r>   -0.8685    1.0000 </r>
       <r>    2.0901   -0.0000 </r>
       <r>    2.1080   -0.0000 </r>
       <r>    2.3064   -0.0000 </r>
       <r>    2.4884   -0.0000 </r>
       <r>    3.5223    0.0000 </r>
       <r>    3.6966    0.0000 </r>
       <r>    4.0547    0.0000 </r>
       <r>    4.1060    0.0000 </r>
       <r>    6.9186    0.0000 </r>
       <r>    7.0541    0.0000 </r>
       <r>    7.6072    0.0000 </r>
       <r>    7.8536    0.0000 </r>
      </set>
      <set comment="kpoint 7">
       <r>  -35.1625    1.0000 </r>
       <r>  -35.1507    1.0000 </r>
       <r>  -34.9268    1.0000 </r>
       <r>  -34.9150    1.0000 </r>
       <r>  -34.8898    1.0000 </r>
       <r>  -34.8781    1.0000 </r>
       <r>  -12.1448    1.0000 </r>
       <r>  -12.1267    1.0000 </r>
       <r>  -11.9526    1.0000 </r>
       <r>  -11.9342    1.0000 </r>
       <r>   -5.6611    1.0000 </r>
       <r>   -5.6386    1.0000 </r>
       <r>   -4.7093    1.0000 </r>
       <r>   -4.6774    1.0000 </r>
       <r>   -4.0162    1.0000 </r>
       <r>   -3.9755    1.0000 </r>
       <r>   -3.1533    1.0000 </r>
       <r>   -3.1386    1.0000 </r>
       <r>   -1.9422    1.0000 </r>
       <r>   -1.8646    1.0000 </r>
       <r>   -1.0358    1.0000 </r>
       <r>   -1.0109    1.0000 </r>
       <r>   -0.6985    1.0000 </r>
       <r>   -0.6564    1.0000 </r>
       <r>    2.1174   -0.0000 </r>
       <r>    2.1311   -0.0000 </r>
       <r>    2.5632   -0.0000 </r>
       <r>    2.6306   -0.0000 </r>
       <r>    3.7703    0.0000 </r>
       <r>    3.8617    0.0000 </r>
       <r>    4.1386    0.0000 </r>
       <r>    4.1958    0.0000 </r>
       <r>    6.1908    0.0000 </r>
       <r>    6.3378    0.0000 </r>
       <r>    7.8987    0.0000 </r>
       <r>    8.0249    0.0000 </r>
      </set>
      <set comment="kpoint 8">
       <r>  -34.9860    1.0000 </r>
       <r>  -34.9741    1.0000 </r>
       <r>  -34.8674    1.0000 </r>
       <r>  -34.8556    1.0000 </r>
       <r>  -34.8220    1.0000 </r>
       <r>  -34.8103    1.0000 </r>
       <r>  -13.7210    1.0000 </r>
       <r>  -13.6666    1.0000 </r>
       <r>  -12.6012    1.0000 </r>
       <r>  -12.5167    1.0000 </r>
       <r>   -5.4024    1.0000 </r>
       <r>   -5.1231    1.0000 </r>
       <r>   -3.1281    1.0000 </r>
       <r>   -3.1144    1.0000 </r>
       <r>   -2.7997    1.0000 </r>
       <r>   -2.4872    1.0000 </r>
       <r>   -2.3683    1.0000 </r>
       <r>   -2.3564    1.0000 </r>
       <r>   -1.9838    1.0000 </r>
       <r>   -1.9716    1.0000 </r>
       <r>   -1.1853    1.0000 </r>
       <r>   -0.9038    1.0000 </r>
       <r>   -0.3140    1.0000 </r>
       <r>   -0.0597    1.0001 </r>
       <r>    2.3087   -0.0000 </r>
       <r>    2.4165   -0.0000 </r>
       <r>    2.4637   -0.0000 </r>
       <r>    2.5257   -0.0000 </r>
       <r>    2.6185   -0.0000 </r>
       <r>    2.6360   -0.0000 </r>
       <r>    3.1232    0.0000 </r>
       <r>    3.1402    0.0000 </r>
       <r>    5.6649    0.0000 </r>
       <r>    5.7753    0.0000 </r>
       <r>    7.2637    0.0000 </r>
       <r>    7.5936    0.0000 </r>
      </set>
      <set comment="kpoint 9">
       <r>  -34.9723    1.0000 </r>
       <r>  -34.9604    1.0000 </r>
       <r>  -34.9350    1.0000 </r>
       <r>  -34.9232    1.0000 </r>
       <r>  -34.8405    1.0000 </r>
       <r>  -34.8288    1.0000 </r>
       <r>  -13.4079    1.0000 </r>
       <r>  -13.3559    1.0000 </r>
       <r>  -12.4686    1.0000 </r>
       <r>  -12.3941    1.0000 </r>
       <r>   -5.1228    1.0000 </r>
       <r>   -4.8647    1.0000 </r>
       <r>   -3.5637    1.0000 </r>
       <r>   -3.5519    1.0000 </r>
       <r>   -3.2350    1.0000 </r>
       <r>   -3.0086    1.0000 </r>
       <r>   -2.4663    1.0000 </r>
       <r>   -2.4479    1.0000 </r>
       <r>   -2.0842    1.0000 </r>
       <r>   -2.0717    1.0000 </r>
       <r>   -1.1505    1.0000 </r>
       <r>   -0.9200    1.0000 </r>
       <r>   -0.5401    1.0000 </r>
       <r>   -0.4428    1.0000 </r>
       <r>    1.9620   -0.0000 </r>
       <r>    2.1797   -0.0000 </r>
       <r>    2.3925   -0.0000 </r>
       <r>    2.4100   -0.0000 </r>
       <r>    2.4717   -0.0000 </r>
       <r>    2.6169   -0.0000 </r>
       <r>    3.5305    0.0000 </r>
       <r>    3.5554    0.0000 </r>
       <r>    6.0958    0.0000 </r>
       <r>    6.2053    0.0000 </r>
       <r>    7.8043    0.0000 </r>
       <r>    8.3444    0.0000 </r>
      </set>
      <set comment="kpoint 10">
       <r>  -35.0153    1.0000 </r>
       <r>  -35.0035    1.0000 </r>
       <r>  -34.9556    1.0000 </r>
       <r>  -34.9438    1.0000 </r>
       <r>  -34.8629    1.0000 </r>
       <r>  -34.8512    1.0000 </r>
       <r>  -12.9969    1.0000 </r>
       <r>  -12.9499    1.0000 </r>
       <r>  -12.2957    1.0000 </r>
       <r>  -12.2352    1.0000 </r>
       <r>   -5.0013    1.0000 </r>
       <r>   -4.8334    1.0000 </r>
       <r>   -3.8587    1.0000 </r>
       <r>   -3.7925    1.0000 </r>
       <r>   -3.7164    1.0000 </r>
       <r>   -3.6061    1.0000 </r>
       <r>   -2.8612    1.0000 </r>
       <r>   -2.8101    1.0000 </r>
       <r>   -1.8020    1.0000 </r>
       <r>   -1.7860    1.0000 </r>
       <r>   -1.3464    1.0000 </r>
       <r>   -1.1879    1.0000 </r>
       <r>   -0.8413    1.0000 </r>
       <r>   -0.8208    1.0000 </r>
       <r>    1.8523   -0.0000 </r>
       <r>    2.0552   -0.0000 </r>
       <r>    2.2787   -0.0000 </r>
       <r>    2.3639   -0.0000 </r>
       <r>    2.7527   -0.0000 </r>
       <r>    2.9362   -0.0000 </r>
       <r>    3.8876    0.0000 </r>
       <r>    3.9138    0.0000 </r>
       <r>    6.6917    0.0000 </r>
       <r>    6.7795    0.0000 </r>
       <r>    8.2185    0.0000 </r>
       <r>    8.4912    0.0000 </r>
      </set>
      <set comment="kpoint 11">
       <r>  -35.0899    1.0000 </r>
       <r>  -35.0781    1.0000 </r>
       <r>  -34.9400    1.0000 </r>
       <r>  -34.9281    1.0000 </r>
       <r>  -34.8839    1.0000 </r>
       <r>  -34.8722    1.0000 </r>
       <r>  -12.5637    1.0000 </r>
       <r>  -12.5260    1.0000 </r>
       <r>  -12.1162    1.0000 </r>
       <r>  -12.0730    1.0000 </r>
       <r>   -5.2219    1.0000 </r>
       <r>   -5.1464    1.0000 </r>
       <r>   -4.2876    1.0000 </r>
       <r>   -4.2202    1.0000 </r>
       <r>   -3.8407    1.0000 </r>
       <r>   -3.7745    1.0000 </r>
       <r>   -3.0775    1.0000 </r>
       <r>   -3.0222    1.0000 </r>
       <r>   -1.6478    1.0000 </r>
       <r>   -1.6336    1.0000 </r>
       <r>   -1.6095    1.0000 </r>
       <r>   -1.5254    1.0000 </r>
       <r>   -0.8661    1.0000 </r>
       <r>   -0.8465    1.0000 </r>
       <r>    1.9535   -0.0000 </r>
       <r>    2.0918   -0.0000 </r>
       <r>    2.3205   -0.0000 </r>
       <r>    2.4275   -0.0000 </r>
       <r>    3.1838    0.0000 </r>
       <r>    3.3522    0.0000 </r>
       <r>    4.0994    0.0000 </r>
       <r>    4.1146    0.0000 </r>
       <r>    7.2798    0.0000 </r>
       <r>    7.3736    0.0000 </r>
       <r>    7.5889    0.0000 </r>
       <r>    8.1476    0.0000 </r>
      </set>
      <set comment="kpoint 12">
       <r>  -35.1423    1.0000 </r>
       <r>  -35.1305    1.0000 </r>
       <r>  -34.9288    1.0000 </r>
       <r>  -34.9169    1.0000 </r>
       <r>  -34.8988    1.0000 </r>
       <r>  -34.8871    1.0000 </r>
       <r>  -12.2168    1.0000 </r>
       <r>  -12.1929    1.0000 </r>
       <r>  -11.9753    1.0000 </r>
       <r>  -11.9507    1.0000 </r>
       <r>   -5.4963    1.0000 </r>
       <r>   -5.4620    1.0000 </r>
       <r>   -4.6667    1.0000 </r>
       <r>   -4.6339    1.0000 </r>
       <r>   -3.9352    1.0000 </r>
       <r>   -3.8915    1.0000 </r>
       <r>   -3.1652    1.0000 </r>
       <r>   -3.1296    1.0000 </r>
       <r>   -1.8449    1.0000 </r>
       <r>   -1.7827    1.0000 </r>
       <r>   -1.5002    1.0000 </r>
       <r>   -1.4735    1.0000 </r>
       <r>   -0.6522    1.0000 </r>
       <r>   -0.6199    1.0000 </r>
       <r>    2.0966   -0.0000 </r>
       <r>    2.1587   -0.0000 </r>
       <r>    2.4970   -0.0000 </r>
       <r>    2.5832   -0.0000 </r>
       <r>    3.5928    0.0000 </r>
       <r>    3.7120    0.0000 </r>
       <r>    4.0941    0.0000 </r>
       <r>    4.1491    0.0000 </r>
       <r>    6.5810    0.0000 </r>
       <r>    6.7611    0.0000 </r>
       <r>    8.0102    0.0000 </r>
       <r>    8.2140    0.0000 </r>
      </set>
      <set comment="kpoint 13">
       <r>  -35.1611    1.0000 </r>
       <r>  -35.1493    1.0000 </r>
       <r>  -34.9248    1.0000 </r>
       <r>  -34.9129    1.0000 </r>
       <r>  -34.9042    1.0000 </r>
       <r>  -34.8924    1.0000 </r>
       <r>  -12.0795    1.0000 </r>
       <r>  -12.0653    1.0000 </r>
       <r>  -11.9204    1.0000 </r>
       <r>  -11.9059    1.0000 </r>
       <r>   -5.6080    1.0000 </r>
       <r>   -5.5896    1.0000 </r>
       <r>   -4.8060    1.0000 </r>
       <r>   -4.7842    1.0000 </r>
       <r>   -4.0047    1.0000 </r>
       <r>   -3.9657    1.0000 </r>
       <r>   -3.1799    1.0000 </r>
       <r>   -3.1668    1.0000 </r>
       <r>   -1.9312    1.0000 </r>
       <r>   -1.8714    1.0000 </r>
       <r>   -1.4421    1.0000 </r>
       <r>   -1.3921    1.0000 </r>
       <r>   -0.5105    1.0000 </r>
       <r>   -0.4874    1.0000 </r>
       <r>    2.1402   -0.0000 </r>
       <r>    2.1518   -0.0000 </r>
       <r>    2.6579   -0.0000 </r>
       <r>    2.6812   -0.0000 </r>
       <r>    3.8522    0.0000 </r>
       <r>    3.8907    0.0000 </r>
       <r>    4.0060    0.0000 </r>
       <r>    4.0508    0.0000 </r>
       <r>    6.1873    0.0000 </r>
       <r>    6.3276    0.0000 </r>
       <r>    8.3322    0.0000 </r>
       <r>    8.5163    0.0000 </r>
      </set>
      <set comment="kpoint 14">
       <r>  -35.1423    1.0000 </r>
       <r>  -35.1305    1.0000 </r>
       <r>  -34.9288    1.0000 </r>
       <r>  -34.9169    1.0000 </r>
       <r>  -34.8988    1.0000 </r>
       <r>  -34.8871    1.0000 </r>
       <r>  -12.2182    1.0000 </r>
       <r>  -12.1918    1.0000 </r>
       <r>  -11.9766    1.0000 </r>
       <r>  -11.9491    1.0000 </r>
       <r>   -5.4965    1.0000 </r>
       <r>   -5.4616    1.0000 </r>
       <r>   -4.6690    1.0000 </r>
       <r>   -4.6318    1.0000 </r>
       <r>   -3.9364    1.0000 </r>
       <r>   -3.8898    1.0000 </r>
       <r>   -3.1640    1.0000 </r>
       <r>   -3.1317    1.0000 </r>
       <r>   -1.8622    1.0000 </r>
       <r>   -1.7720    1.0000 </r>
       <r>   -1.5129    1.0000 </r>
       <r>   -1.4513    1.0000 </r>
       <r>   -0.6470    1.0000 </r>
       <r>   -0.6254    1.0000 </r>
       <r>    2.1011   -0.0000 </r>
       <r>    2.1527   -0.0000 </r>
       <r>    2.4945   -0.0000 </r>
       <r>    2.5859   -0.0000 </r>
       <r>    3.5656    0.0000 </r>
       <r>    3.7384    0.0000 </r>
       <r>    4.1146    0.0000 </r>
       <r>    4.1316    0.0000 </r>
       <r>    6.5823    0.0000 </r>
       <r>    6.7600    0.0000 </r>
       <r>    7.9959    0.0000 </r>
       <r>    8.1968    0.0000 </r>
      </set>
      <set comment="kpoint 15">
       <r>  -35.0899    1.0000 </r>
       <r>  -35.0781    1.0000 </r>
       <r>  -34.9400    1.0000 </r>
       <r>  -34.9281    1.0000 </r>
       <r>  -34.8839    1.0000 </r>
       <r>  -34.8722    1.0000 </r>
       <r>  -12.5650    1.0000 </r>
       <r>  -12.5250    1.0000 </r>
       <r>  -12.1175    1.0000 </r>
       <r>  -12.0714    1.0000 </r>
       <r>   -5.2219    1.0000 </r>
       <r>   -5.1461    1.0000 </r>
       <r>   -4.2900    1.0000 </r>
       <r>   -4.2184    1.0000 </r>
       <r>   -3.8451    1.0000 </r>
       <r>   -3.7689    1.0000 </r>
       <r>   -3.0786    1.0000 </r>
       <r>   -3.0230    1.0000 </r>
       <r>   -1.6857    1.0000 </r>
       <r>   -1.6285    1.0000 </r>
       <r>   -1.6023    1.0000 </r>
       <r>   -1.4956    1.0000 </r>
       <r>   -0.8670    1.0000 </r>
       <r>   -0.8450    1.0000 </r>
       <r>    1.9510   -0.0000 </r>
       <r>    2.0912   -0.0000 </r>
       <r>    2.3194   -0.0000 </r>
       <r>    2.4303   -0.0000 </r>
       <r>    3.1619    0.0000 </r>
       <r>    3.3762    0.0000 </r>
       <r>    4.0958    0.0000 </r>
       <r>    4.1167    0.0000 </r>
       <r>    7.2764    0.0000 </r>
       <r>    7.3742    0.0000 </r>
       <r>    7.5970    0.0000 </r>
       <r>    8.0287    0.0000 </r>
      </set>
      <set comment="kpoint 16">
       <r>  -35.0153    1.0000 </r>
       <r>  -35.0035    1.0000 </r>
       <r>  -34.9556    1.0000 </r>
       <r>  -34.9438    1.0000 </r>
       <r>  -34.8629    1.0000 </r>
       <r>  -34.8512    1.0000 </r>
       <r>  -12.9978    1.0000 </r>
       <r>  -12.9492    1.0000 </r>
       <r>  -12.2968    1.0000 </r>
       <r>  -12.2340    1.0000 </r>
       <r>   -5.0013    1.0000 </r>
       <r>   -4.8335    1.0000 </r>
       <r>   -3.8653    1.0000 </r>
       <r>   -3.7865    1.0000 </r>
       <r>   -3.7174    1.0000 </r>
       <r>   -3.6038    1.0000 </r>
       <r>   -2.8643    1.0000 </r>
       <r>   -2.8087    1.0000 </r>
       <r>   -1.8022    1.0000 </r>
       <r>   -1.7874    1.0000 </r>
       <r>   -1.3616    1.0000 </r>
       <r>   -1.1704    1.0000 </r>
       <r>   -0.8457    1.0000 </r>
       <r>   -0.8110    1.0000 </r>
       <r>    1.8465   -0.0000 </r>
       <r>    2.0590   -0.0000 </r>
       <r>    2.2775   -0.0000 </r>
       <r>    2.3666   -0.0000 </r>
       <r>    2.7374   -0.0000 </r>
       <r>    2.9507   -0.0000 </r>
       <r>    3.8854    0.0000 </r>
       <r>    3.9134    0.0000 </r>
       <r>    6.6890    0.0000 </r>
       <r>    6.7796    0.0000 </r>
       <r>    8.1683    0.0000 </r>
       <r>    8.5440    0.0000 </r>
      </set>
      <set comment="kpoint 17">
       <r>  -34.9723    1.0000 </r>
       <r>  -34.9604    1.0000 </r>
       <r>  -34.9349    1.0000 </r>
       <r>  -34.9232    1.0000 </r>
       <r>  -34.8406    1.0000 </r>
       <r>  -34.8288    1.0000 </r>
       <r>  -13.4085    1.0000 </r>
       <r>  -13.3555    1.0000 </r>
       <r>  -12.4695    1.0000 </r>
       <r>  -12.3932    1.0000 </r>
       <r>   -5.1237    1.0000 </r>
       <r>   -4.8640    1.0000 </r>
       <r>   -3.5660    1.0000 </r>
       <r>   -3.5498    1.0000 </r>
       <r>   -3.2335    1.0000 </r>
       <r>   -3.0099    1.0000 </r>
       <r>   -2.4695    1.0000 </r>
       <r>   -2.4453    1.0000 </r>
       <r>   -2.0843    1.0000 </r>
       <r>   -2.0716    1.0000 </r>
       <r>   -1.1671    1.0000 </r>
       <r>   -0.9065    1.0000 </r>
       <r>   -0.5462    1.0000 </r>
       <r>   -0.4249    1.0000 </r>
       <r>    1.9547   -0.0000 </r>
       <r>    2.1781   -0.0000 </r>
       <r>    2.3919   -0.0000 </r>
       <r>    2.4172   -0.0000 </r>
       <r>    2.4608   -0.0000 </r>
       <r>    2.6235   -0.0000 </r>
       <r>    3.5332    0.0000 </r>
       <r>    3.5511    0.0000 </r>
       <r>    6.0965    0.0000 </r>
       <r>    6.2055    0.0000 </r>
       <r>    7.7952    0.0000 </r>
       <r>    8.2600    0.0000 </r>
      </set>
      <set comment="kpoint 18">
       <r>  -34.9860    1.0000 </r>
       <r>  -34.9741    1.0000 </r>
       <r>  -34.8673    1.0000 </r>
       <r>  -34.8556    1.0000 </r>
       <r>  -34.8221    1.0000 </r>
       <r>  -34.8103    1.0000 </r>
       <r>  -13.7213    1.0000 </r>
       <r>  -13.6663    1.0000 </r>
       <r>  -12.6017    1.0000 </r>
       <r>  -12.5162    1.0000 </r>
       <r>   -5.4033    1.0000 </r>
       <r>   -5.1224    1.0000 </r>
       <r>   -3.1274    1.0000 </r>
       <r>   -3.1153    1.0000 </r>
       <r>   -2.7978    1.0000 </r>
       <r>   -2.4888    1.0000 </r>
       <r>   -2.3685    1.0000 </r>
       <r>   -2.3561    1.0000 </r>
       <r>   -1.9841    1.0000 </r>
       <r>   -1.9717    1.0000 </r>
       <r>   -1.2001    1.0000 </r>
       <r>   -0.8916    1.0000 </r>
       <r>   -0.3181    1.0000 </r>
       <r>   -0.0431    1.0002 </r>
       <r>    2.2878   -0.0000 </r>
       <r>    2.4147   -0.0000 </r>
       <r>    2.4543   -0.0000 </r>
       <r>    2.5412   -0.0000 </r>
       <r>    2.6202   -0.0000 </r>
       <r>    2.6402   -0.0000 </r>
       <r>    3.1219    0.0000 </r>
       <r>    3.1418    0.0000 </r>
       <r>    5.6639    0.0000 </r>
       <r>    5.7756    0.0000 </r>
       <r>    7.2604    0.0000 </r>
       <r>    7.5867    0.0000 </r>
      </set>
      <set comment="kpoint 19">
       <r>  -34.9937    1.0000 </r>
       <r>  -34.9819    1.0000 </r>
       <r>  -34.8284    1.0000 </r>
       <r>  -34.8167    1.0000 </r>
       <r>  -34.8120    1.0000 </r>
       <r>  -34.8003    1.0000 </r>
       <r>  -13.8891    1.0000 </r>
       <r>  -13.8335    1.0000 </r>
       <r>  -12.6727    1.0000 </r>
       <r>  -12.5825    1.0000 </r>
       <r>   -5.5851    1.0000 </r>
       <r>   -5.3012    1.0000 </r>
       <r>   -2.8142    1.0000 </r>
       <r>   -2.8020    1.0000 </r>
       <r>   -2.5370    1.0000 </r>
       <r>   -2.5240    1.0000 </r>
       <r>   -2.4589    1.0000 </r>
       <r>   -2.0749    1.0000 </r>
       <r>   -1.6726    1.0000 </r>
       <r>   -1.6571    1.0000 </r>
       <r>   -1.3636    1.0000 </r>
       <r>   -1.0710    1.0000 </r>
       <r>   -0.2434    1.0000 </r>
       <r>    0.1351    1.0327 </r>
       <r>    2.5756   -0.0000 </r>
       <r>    2.6050   -0.0000 </r>
       <r>    2.6340   -0.0000 </r>
       <r>    2.7179   -0.0000 </r>
       <r>    2.7619   -0.0000 </r>
       <r>    2.8106   -0.0000 </r>
       <r>    2.8388   -0.0000 </r>
       <r>    2.8758   -0.0000 </r>
       <r>    5.4191    0.0000 </r>
       <r>    5.5348    0.0000 </r>
       <r>    6.7464    0.0000 </r>
       <r>    6.9223    0.0000 </r>
      </set>
      <set comment="kpoint 20">
       <r>  -34.9971    1.0000 </r>
       <r>  -34.9853    1.0000 </r>
       <r>  -34.9580    1.0000 </r>
       <r>  -34.9461    1.0000 </r>
       <r>  -34.8669    1.0000 </r>
       <r>  -34.8551    1.0000 </r>
       <r>  -13.0583    1.0000 </r>
       <r>  -13.0105    1.0000 </r>
       <r>  -12.3200    1.0000 </r>
       <r>  -12.2574    1.0000 </r>
       <r>   -4.9525    1.0000 </r>
       <r>   -4.7571    1.0000 </r>
       <r>   -3.7975    1.0000 </r>
       <r>   -3.7582    1.0000 </r>
       <r>   -3.5241    1.0000 </r>
       <r>   -3.4023    1.0000 </r>
       <r>   -3.0913    1.0000 </r>
       <r>   -3.0071    1.0000 </r>
       <r>   -1.9551    1.0000 </r>
       <r>   -1.9374    1.0000 </r>
       <r>   -1.1083    1.0000 </r>
       <r>   -0.9734    1.0000 </r>
       <r>   -0.7762    1.0000 </r>
       <r>   -0.7637    1.0000 </r>
       <r>    1.7611   -0.0000 </r>
       <r>    1.9804   -0.0000 </r>
       <r>    2.3224   -0.0000 </r>
       <r>    2.3909   -0.0000 </r>
       <r>    2.5224   -0.0000 </r>
       <r>    2.7023   -0.0000 </r>
       <r>    3.9340    0.0000 </r>
       <r>    3.9667    0.0000 </r>
       <r>    6.6144    0.0000 </r>
       <r>    6.7111    0.0000 </r>
       <r>    8.3127    0.0000 </r>
       <r>    8.6178    0.0000 </r>
      </set>
      <set comment="kpoint 21">
       <r>  -35.0599    1.0000 </r>
       <r>  -35.0481    1.0000 </r>
       <r>  -34.9428    1.0000 </r>
       <r>  -34.9309    1.0000 </r>
       <r>  -34.8972    1.0000 </r>
       <r>  -34.8855    1.0000 </r>
       <r>  -12.6503    1.0000 </r>
       <r>  -12.6101    1.0000 </r>
       <r>  -12.1466    1.0000 </r>
       <r>  -12.0994    1.0000 </r>
       <r>   -5.0304    1.0000 </r>
       <r>   -4.9259    1.0000 </r>
       <r>   -4.1022    1.0000 </r>
       <r>   -4.0666    1.0000 </r>
       <r>   -3.7490    1.0000 </r>
       <r>   -3.6838    1.0000 </r>
       <r>   -3.3141    1.0000 </r>
       <r>   -3.1761    1.0000 </r>
       <r>   -2.0829    1.0000 </r>
       <r>   -2.0568    1.0000 </r>
       <r>   -1.3052    1.0000 </r>
       <r>   -1.2565    1.0000 </r>
       <r>   -0.8471    1.0000 </r>
       <r>   -0.8198    1.0000 </r>
       <r>    1.7830   -0.0000 </r>
       <r>    2.0357   -0.0000 </r>
       <r>    2.3914   -0.0000 </r>
       <r>    2.4357   -0.0000 </r>
       <r>    2.7863   -0.0000 </r>
       <r>    2.9524   -0.0000 </r>
       <r>    4.2084    0.0000 </r>
       <r>    4.2288    0.0000 </r>
       <r>    7.2554    0.0000 </r>
       <r>    7.3382    0.0000 </r>
       <r>    8.1789    0.0000 </r>
       <r>    8.5534    0.0000 </r>
      </set>
      <set comment="kpoint 22">
       <r>  -35.1105    1.0000 </r>
       <r>  -35.0987    1.0000 </r>
       <r>  -34.9302    1.0000 </r>
       <r>  -34.9232    1.0000 </r>
       <r>  -34.9184    1.0000 </r>
       <r>  -34.9114    1.0000 </r>
       <r>  -12.2726    1.0000 </r>
       <r>  -12.2443    1.0000 </r>
       <r>  -11.9868    1.0000 </r>
       <r>  -11.9570    1.0000 </r>
       <r>   -5.2262    1.0000 </r>
       <r>   -5.1697    1.0000 </r>
       <r>   -4.6374    1.0000 </r>
       <r>   -4.6206    1.0000 </r>
       <r>   -3.7621    1.0000 </r>
       <r>   -3.7203    1.0000 </r>
       <r>   -3.2845    1.0000 </r>
       <r>   -3.1749    1.0000 </r>
       <r>   -2.2130    1.0000 </r>
       <r>   -2.1807    1.0000 </r>
       <r>   -1.6374    1.0000 </r>
       <r>   -1.6036    1.0000 </r>
       <r>   -0.6662    1.0000 </r>
       <r>   -0.6488    1.0000 </r>
       <r>    2.0016   -0.0000 </r>
       <r>    2.2097   -0.0000 </r>
       <r>    2.5112   -0.0000 </r>
       <r>    2.5413   -0.0000 </r>
       <r>    3.1486    0.0000 </r>
       <r>    3.2538    0.0000 </r>
       <r>    4.2945    0.0000 </r>
       <r>    4.3171    0.0000 </r>
       <r>    7.2003    0.0000 </r>
       <r>    7.3735    0.0000 </r>
       <r>    8.0982    0.0000 </r>
       <r>    8.3012    0.0000 </r>
      </set>
      <set comment="kpoint 23">
       <r>  -35.1387    1.0000 </r>
       <r>  -35.1269    1.0000 </r>
       <r>  -34.9380    1.0000 </r>
       <r>  -34.9263    1.0000 </r>
       <r>  -34.9231    1.0000 </r>
       <r>  -34.9112    1.0000 </r>
       <r>  -12.0364    1.0000 </r>
       <r>  -12.0215    1.0000 </r>
       <r>  -11.8874    1.0000 </r>
       <r>  -11.8725    1.0000 </r>
       <r>   -5.3479    1.0000 </r>
       <r>   -5.3225    1.0000 </r>
       <r>   -4.9443    1.0000 </r>
       <r>   -4.9295    1.0000 </r>
       <r>   -3.9047    1.0000 </r>
       <r>   -3.8665    1.0000 </r>
       <r>   -3.1836    1.0000 </r>
       <r>   -3.1324    1.0000 </r>
       <r>   -2.2207    1.0000 </r>
       <r>   -2.1625    1.0000 </r>
       <r>   -1.8987    1.0000 </r>
       <r>   -1.8448    1.0000 </r>
       <r>   -0.4330    1.0000 </r>
       <r>   -0.4147    1.0000 </r>
       <r>    2.0569   -0.0000 </r>
       <r>    2.1033   -0.0000 </r>
       <r>    2.7695   -0.0000 </r>
       <r>    2.8331   -0.0000 </r>
       <r>    3.4204    0.0000 </r>
       <r>    3.4602    0.0000 </r>
       <r>    4.2493    0.0000 </r>
       <r>    4.2987    0.0000 </r>
       <r>    6.5347    0.0000 </r>
       <r>    6.7090    0.0000 </r>
       <r>    8.8619    0.0000 </r>
       <r>    9.0520    0.0000 </r>
      </set>
      <set comment="kpoint 24">
       <r>  -35.1386    1.0000 </r>
       <r>  -35.1269    1.0000 </r>
       <r>  -34.9381    1.0000 </r>
       <r>  -34.9263    1.0000 </r>
       <r>  -34.9231    1.0000 </r>
       <r>  -34.9112    1.0000 </r>
       <r>  -12.0389    1.0000 </r>
       <r>  -12.0196    1.0000 </r>
       <r>  -11.8895    1.0000 </r>
       <r>  -11.8700    1.0000 </r>
       <r>   -5.3483    1.0000 </r>
       <r>   -5.3217    1.0000 </r>
       <r>   -4.9456    1.0000 </r>
       <r>   -4.9284    1.0000 </r>
       <r>   -3.9050    1.0000 </r>
       <r>   -3.8663    1.0000 </r>
       <r>   -3.1820    1.0000 </r>
       <r>   -3.1350    1.0000 </r>
       <r>   -2.2360    1.0000 </r>
       <r>   -2.1541    1.0000 </r>
       <r>   -1.8934    1.0000 </r>
       <r>   -1.8406    1.0000 </r>
       <r>   -0.4328    1.0000 </r>
       <r>   -0.4155    1.0000 </r>
       <r>    2.0599   -0.0000 </r>
       <r>    2.1004   -0.0000 </r>
       <r>    2.7703   -0.0000 </r>
       <r>    2.8319   -0.0000 </r>
       <r>    3.3764    0.0000 </r>
       <r>    3.5066    0.0000 </r>
       <r>    4.2514    0.0000 </r>
       <r>    4.2967    0.0000 </r>
       <r>    6.5352    0.0000 </r>
       <r>    6.7064    0.0000 </r>
       <r>    8.7319    0.0000 </r>
       <r>    8.7849    0.0000 </r>
      </set>
      <set comment="kpoint 25">
       <r>  -35.1105    1.0000 </r>
       <r>  -35.0987    1.0000 </r>
       <r>  -34.9302    1.0000 </r>
       <r>  -34.9232    1.0000 </r>
       <r>  -34.9183    1.0000 </r>
       <r>  -34.9114    1.0000 </r>
       <r>  -12.2757    1.0000 </r>
       <r>  -12.2419    1.0000 </r>
       <r>  -11.9897    1.0000 </r>
       <r>  -11.9534    1.0000 </r>
       <r>   -5.2263    1.0000 </r>
       <r>   -5.1689    1.0000 </r>
       <r>   -4.6408    1.0000 </r>
       <r>   -4.6171    1.0000 </r>
       <r>   -3.7710    1.0000 </r>
       <r>   -3.7125    1.0000 </r>
       <r>   -3.2864    1.0000 </r>
       <r>   -3.1753    1.0000 </r>
       <r>   -2.2328    1.0000 </r>
       <r>   -2.1658    1.0000 </r>
       <r>   -1.6497    1.0000 </r>
       <r>   -1.5787    1.0000 </r>
       <r>   -0.6648    1.0000 </r>
       <r>   -0.6518    1.0000 </r>
       <r>    2.0056   -0.0000 </r>
       <r>    2.2031   -0.0000 </r>
       <r>    2.5072   -0.0000 </r>
       <r>    2.5472   -0.0000 </r>
       <r>    3.1098    0.0000 </r>
       <r>    3.2973    0.0000 </r>
       <r>    4.2872    0.0000 </r>
       <r>    4.3226    0.0000 </r>
       <r>    7.2144    0.0000 </r>
       <r>    7.3593    0.0000 </r>
       <r>    8.0931    0.0000 </r>
       <r>    8.3044    0.0000 </r>
      </set>
      <set comment="kpoint 26">
       <r>  -35.0598    1.0000 </r>
       <r>  -35.0481    1.0000 </r>
       <r>  -34.9428    1.0000 </r>
       <r>  -34.9309    1.0000 </r>
       <r>  -34.8972    1.0000 </r>
       <r>  -34.8855    1.0000 </r>
       <r>  -12.6527    1.0000 </r>
       <r>  -12.6082    1.0000 </r>
       <r>  -12.1493    1.0000 </r>
       <r>  -12.0963    1.0000 </r>
       <r>   -5.0295    1.0000 </r>
       <r>   -4.9261    1.0000 </r>
       <r>   -4.1048    1.0000 </r>
       <r>   -4.0614    1.0000 </r>
       <r>   -3.7711    1.0000 </r>
       <r>   -3.6665    1.0000 </r>
       <r>   -3.3178    1.0000 </r>
       <r>   -3.1733    1.0000 </r>
       <r>   -2.0805    1.0000 </r>
       <r>   -2.0604    1.0000 </r>
       <r>   -1.3397    1.0000 </r>
       <r>   -1.2128    1.0000 </r>
       <r>   -0.8389    1.0000 </r>
       <r>   -0.8273    1.0000 </r>
       <r>    1.7809   -0.0000 </r>
       <r>    2.0356   -0.0000 </r>
       <r>    2.3887   -0.0000 </r>
       <r>    2.4414   -0.0000 </r>
       <r>    2.7663   -0.0000 </r>
       <r>    2.9712   -0.0000 </r>
       <r>    4.1917    0.0000 </r>
       <r>    4.2433    0.0000 </r>
       <r>    7.2560    0.0000 </r>
       <r>    7.3382    0.0000 </r>
       <r>    8.2591    0.0000 </r>
       <r>    8.4488    0.0000 </r>
      </set>
      <set comment="kpoint 27">
       <r>  -34.9970    1.0000 </r>
       <r>  -34.9853    1.0000 </r>
       <r>  -34.9580    1.0000 </r>
       <r>  -34.9461    1.0000 </r>
       <r>  -34.8669    1.0000 </r>
       <r>  -34.8552    1.0000 </r>
       <r>  -13.0599    1.0000 </r>
       <r>  -13.0092    1.0000 </r>
       <r>  -12.3221    1.0000 </r>
       <r>  -12.2551    1.0000 </r>
       <r>   -4.9522    1.0000 </r>
       <r>   -4.7579    1.0000 </r>
       <r>   -3.8146    1.0000 </r>
       <r>   -3.7387    1.0000 </r>
       <r>   -3.5259    1.0000 </r>
       <r>   -3.4031    1.0000 </r>
       <r>   -3.0984    1.0000 </r>
       <r>   -3.0010    1.0000 </r>
       <r>   -1.9535    1.0000 </r>
       <r>   -1.9393    1.0000 </r>
       <r>   -1.1475    1.0000 </r>
       <r>   -0.9404    1.0000 </r>
       <r>   -0.7847    1.0000 </r>
       <r>   -0.7362    1.0000 </r>
       <r>    1.7552   -0.0000 </r>
       <r>    1.9815   -0.0000 </r>
       <r>    2.3193   -0.0000 </r>
       <r>    2.3946   -0.0000 </r>
       <r>    2.5131   -0.0000 </r>
       <r>    2.7070   -0.0000 </r>
       <r>    3.9308    0.0000 </r>
       <r>    3.9689    0.0000 </r>
       <r>    6.6135    0.0000 </r>
       <r>    6.7129    0.0000 </r>
       <r>    8.3120    0.0000 </r>
       <r>    8.6101    0.0000 </r>
      </set>
      <set comment="kpoint 28">
       <r>  -34.9723    1.0000 </r>
       <r>  -34.9604    1.0000 </r>
       <r>  -34.9349    1.0000 </r>
       <r>  -34.9232    1.0000 </r>
       <r>  -34.8406    1.0000 </r>
       <r>  -34.8288    1.0000 </r>
       <r>  -13.4089    1.0000 </r>
       <r>  -13.3551    1.0000 </r>
       <r>  -12.4701    1.0000 </r>
       <r>  -12.3925    1.0000 </r>
       <r>   -5.1242    1.0000 </r>
       <r>   -4.8637    1.0000 </r>
       <r>   -3.5725    1.0000 </r>
       <r>   -3.5432    1.0000 </r>
       <r>   -3.2339    1.0000 </r>
       <r>   -3.0086    1.0000 </r>
       <r>   -2.4689    1.0000 </r>
       <r>   -2.4469    1.0000 </r>
       <r>   -2.0849    1.0000 </r>
       <r>   -2.0709    1.0000 </r>
       <r>   -1.1863    1.0000 </r>
       <r>   -0.8922    1.0000 </r>
       <r>   -0.5515    1.0000 </r>
       <r>   -0.4065    1.0000 </r>
       <r>    1.9448   -0.0000 </r>
       <r>    2.1778   -0.0000 </r>
       <r>    2.3968   -0.0000 </r>
       <r>    2.4027   -0.0000 </r>
       <r>    2.4667   -0.0000 </r>
       <r>    2.6270   -0.0000 </r>
       <r>    3.5358    0.0000 </r>
       <r>    3.5501    0.0000 </r>
       <r>    6.0958    0.0000 </r>
       <r>    6.2069    0.0000 </r>
       <r>    7.7922    0.0000 </r>
       <r>    8.2505    0.0000 </r>
      </set>
      <set comment="kpoint 29">
       <r>  -34.9824    1.0000 </r>
       <r>  -34.9705    1.0000 </r>
       <r>  -34.8869    1.0000 </r>
       <r>  -34.8751    1.0000 </r>
       <r>  -34.8254    1.0000 </r>
       <r>  -34.8137    1.0000 </r>
       <r>  -13.6406    1.0000 </r>
       <r>  -13.5856    1.0000 </r>
       <r>  -12.5679    1.0000 </r>
       <r>  -12.4840    1.0000 </r>
       <r>   -5.3251    1.0000 </r>
       <r>   -5.0470    1.0000 </r>
       <r>   -3.2659    1.0000 </r>
       <r>   -3.2482    1.0000 </r>
       <r>   -2.9598    1.0000 </r>
       <r>   -2.6902    1.0000 </r>
       <r>   -2.2819    1.0000 </r>
       <r>   -2.2679    1.0000 </r>
       <r>   -2.0081    1.0000 </r>
       <r>   -1.9917    1.0000 </r>
       <r>   -1.2831    1.0000 </r>
       <r>   -0.9367    1.0000 </r>
       <r>   -0.3760    1.0000 </r>
       <r>   -0.1332    1.0000 </r>
       <r>    2.1592   -0.0000 </r>
       <r>    2.3580   -0.0000 </r>
       <r>    2.4898   -0.0000 </r>
       <r>    2.5383   -0.0000 </r>
       <r>    2.5880   -0.0000 </r>
       <r>    2.6252   -0.0000 </r>
       <r>    3.1787    0.0000 </r>
       <r>    3.2230    0.0000 </r>
       <r>    5.7677    0.0000 </r>
       <r>    5.8841    0.0000 </r>
       <r>    7.4137    0.0000 </r>
       <r>    7.8226    0.0000 </r>
      </set>
      <set comment="kpoint 30">
       <r>  -35.0924    1.0000 </r>
       <r>  -35.0806    1.0000 </r>
       <r>  -34.9388    1.0000 </r>
       <r>  -34.9307    1.0000 </r>
       <r>  -34.9271    1.0000 </r>
       <r>  -34.9188    1.0000 </r>
       <r>  -12.2935    1.0000 </r>
       <r>  -12.2637    1.0000 </r>
       <r>  -11.9900    1.0000 </r>
       <r>  -11.9582    1.0000 </r>
       <r>   -5.0843    1.0000 </r>
       <r>   -5.0120    1.0000 </r>
       <r>   -4.6243    1.0000 </r>
       <r>   -4.6133    1.0000 </r>
       <r>   -3.6102    1.0000 </r>
       <r>   -3.5760    1.0000 </r>
       <r>   -3.3454    1.0000 </r>
       <r>   -3.2039    1.0000 </r>
       <r>   -2.6155    1.0000 </r>
       <r>   -2.5821    1.0000 </r>
       <r>   -1.5364    1.0000 </r>
       <r>   -1.4909    1.0000 </r>
       <r>   -0.7006    1.0000 </r>
       <r>   -0.6695    1.0000 </r>
       <r>    1.9470   -0.0000 </r>
       <r>    2.2196   -0.0000 </r>
       <r>    2.5247   -0.0000 </r>
       <r>    2.5374   -0.0000 </r>
       <r>    2.9337   -0.0000 </r>
       <r>    3.0389    0.0000 </r>
       <r>    4.4028    0.0000 </r>
       <r>    4.4180    0.0000 </r>
       <r>    7.6341    0.0000 </r>
       <r>    7.6895    0.0000 </r>
       <r>    8.0686    0.0000 </r>
       <r>    8.5725    0.0000 </r>
      </set>
      <set comment="kpoint 31">
       <r>  -35.1092    1.0000 </r>
       <r>  -35.0974    1.0000 </r>
       <r>  -34.9743    1.0000 </r>
       <r>  -34.9626    1.0000 </r>
       <r>  -34.9221    1.0000 </r>
       <r>  -34.9102    1.0000 </r>
       <r>  -12.0170    1.0000 </r>
       <r>  -12.0000    1.0000 </r>
       <r>  -11.8662    1.0000 </r>
       <r>  -11.8494    1.0000 </r>
       <r>   -5.0642    1.0000 </r>
       <r>   -5.0436    1.0000 </r>
       <r>   -5.0247    1.0000 </r>
       <r>   -5.0029    1.0000 </r>
       <r>   -3.6971    1.0000 </r>
       <r>   -3.6620    1.0000 </r>
       <r>   -3.1869    1.0000 </r>
       <r>   -3.0824    1.0000 </r>
       <r>   -2.9693    1.0000 </r>
       <r>   -2.9153    1.0000 </r>
       <r>   -1.8890    1.0000 </r>
       <r>   -1.7976    1.0000 </r>
       <r>   -0.4240    1.0000 </r>
       <r>   -0.4088    1.0000 </r>
       <r>    1.9389   -0.0000 </r>
       <r>    2.0174   -0.0000 </r>
       <r>    2.8427   -0.0000 </r>
       <r>    2.9474   -0.0000 </r>
       <r>    3.0957    0.0000 </r>
       <r>    3.1300    0.0000 </r>
       <r>    4.5106    0.0000 </r>
       <r>    4.5319    0.0000 </r>
       <r>    7.0828    0.0000 </r>
       <r>    7.2657    0.0000 </r>
       <r>    8.3055    0.0000 </r>
       <r>    8.6226    0.0000 </r>
      </set>
      <set comment="kpoint 32">
       <r>  -35.1136    1.0000 </r>
       <r>  -35.1018    1.0000 </r>
       <r>  -34.9888    1.0000 </r>
       <r>  -34.9771    1.0000 </r>
       <r>  -34.9190    1.0000 </r>
       <r>  -34.9071    1.0000 </r>
       <r>  -11.9133    1.0000 </r>
       <r>  -11.8991    1.0000 </r>
       <r>  -11.8201    1.0000 </r>
       <r>  -11.8060    1.0000 </r>
       <r>   -5.1993    1.0000 </r>
       <r>   -5.1865    1.0000 </r>
       <r>   -4.9882    1.0000 </r>
       <r>   -4.9721    1.0000 </r>
       <r>   -3.8616    1.0000 </r>
       <r>   -3.8250    1.0000 </r>
       <r>   -3.0630    1.0000 </r>
       <r>   -3.0294    1.0000 </r>
       <r>   -3.0059    1.0000 </r>
       <r>   -2.9489    1.0000 </r>
       <r>   -2.0576    1.0000 </r>
       <r>   -1.9810    1.0000 </r>
       <r>   -0.2497    1.0000 </r>
       <r>   -0.2346    1.0000 </r>
       <r>    1.8258   -0.0000 </r>
       <r>    1.8383   -0.0000 </r>
       <r>    3.0457    0.0000 </r>
       <r>    3.1032    0.0000 </r>
       <r>    3.1789    0.0000 </r>
       <r>    3.2415    0.0000 </r>
       <r>    4.5435    0.0000 </r>
       <r>    4.5790    0.0000 </r>
       <r>    6.7756    0.0000 </r>
       <r>    6.9359    0.0000 </r>
       <r>    8.1650    0.0000 </r>
       <r>    8.6847    0.0000 </r>
      </set>
      <set comment="kpoint 33">
       <r>  -35.1092    1.0000 </r>
       <r>  -35.0974    1.0000 </r>
       <r>  -34.9743    1.0000 </r>
       <r>  -34.9626    1.0000 </r>
       <r>  -34.9221    1.0000 </r>
       <r>  -34.9102    1.0000 </r>
       <r>  -12.0227    1.0000 </r>
       <r>  -11.9958    1.0000 </r>
       <r>  -11.8707    1.0000 </r>
       <r>  -11.8434    1.0000 </r>
       <r>   -5.0641    1.0000 </r>
       <r>   -5.0389    1.0000 </r>
       <r>   -5.0288    1.0000 </r>
       <r>   -5.0020    1.0000 </r>
       <r>   -3.6972    1.0000 </r>
       <r>   -3.6666    1.0000 </r>
       <r>   -3.1927    1.0000 </r>
       <r>   -3.0807    1.0000 </r>
       <r>   -2.9832    1.0000 </r>
       <r>   -2.8992    1.0000 </r>
       <r>   -1.8674    1.0000 </r>
       <r>   -1.8108    1.0000 </r>
       <r>   -0.4237    1.0000 </r>
       <r>   -0.4106    1.0000 </r>
       <r>    1.9411   -0.0000 </r>
       <r>    2.0164   -0.0000 </r>
       <r>    2.8336   -0.0000 </r>
       <r>    2.9559   -0.0000 </r>
       <r>    3.0532    0.0000 </r>
       <r>    3.1787    0.0000 </r>
       <r>    4.4885    0.0000 </r>
       <r>    4.5571    0.0000 </r>
       <r>    7.0893    0.0000 </r>
       <r>    7.2096    0.0000 </r>
       <r>    8.2552    0.0000 </r>
       <r>    8.5614    0.0000 </r>
      </set>
      <set comment="kpoint 34">
       <r>  -35.0923    1.0000 </r>
       <r>  -35.0806    1.0000 </r>
       <r>  -34.9388    1.0000 </r>
       <r>  -34.9307    1.0000 </r>
       <r>  -34.9271    1.0000 </r>
       <r>  -34.9188    1.0000 </r>
       <r>  -12.2985    1.0000 </r>
       <r>  -12.2598    1.0000 </r>
       <r>  -11.9948    1.0000 </r>
       <r>  -11.9522    1.0000 </r>
       <r>   -5.0840    1.0000 </r>
       <r>   -5.0109    1.0000 </r>
       <r>   -4.6256    1.0000 </r>
       <r>   -4.6090    1.0000 </r>
       <r>   -3.6643    1.0000 </r>
       <r>   -3.5370    1.0000 </r>
       <r>   -3.3472    1.0000 </r>
       <r>   -3.1950    1.0000 </r>
       <r>   -2.6056    1.0000 </r>
       <r>   -2.5912    1.0000 </r>
       <r>   -1.5594    1.0000 </r>
       <r>   -1.4585    1.0000 </r>
       <r>   -0.6935    1.0000 </r>
       <r>   -0.6782    1.0000 </r>
       <r>    1.9514   -0.0000 </r>
       <r>    2.2172   -0.0000 </r>
       <r>    2.5216   -0.0000 </r>
       <r>    2.5403   -0.0000 </r>
       <r>    2.9128   -0.0000 </r>
       <r>    3.0644    0.0000 </r>
       <r>    4.3634    0.0000 </r>
       <r>    4.4559    0.0000 </r>
       <r>    7.5705    0.0000 </r>
       <r>    7.7301    0.0000 </r>
       <r>    8.1104    0.0000 </r>
       <r>    8.1900    0.0000 </r>
      </set>
      <set comment="kpoint 35">
       <r>  -35.0598    1.0000 </r>
       <r>  -35.0481    1.0000 </r>
       <r>  -34.9428    1.0000 </r>
       <r>  -34.9309    1.0000 </r>
       <r>  -34.8973    1.0000 </r>
       <r>  -34.8855    1.0000 </r>
       <r>  -12.6539    1.0000 </r>
       <r>  -12.6072    1.0000 </r>
       <r>  -12.1507    1.0000 </r>
       <r>  -12.0946    1.0000 </r>
       <r>   -5.0293    1.0000 </r>
       <r>   -4.9255    1.0000 </r>
       <r>   -4.1046    1.0000 </r>
       <r>   -4.0537    1.0000 </r>
       <r>   -3.8033    1.0000 </r>
       <r>   -3.6499    1.0000 </r>
       <r>   -3.3147    1.0000 </r>
       <r>   -3.1686    1.0000 </r>
       <r>   -2.0798    1.0000 </r>
       <r>   -2.0601    1.0000 </r>
       <r>   -1.3681    1.0000 </r>
       <r>   -1.1875    1.0000 </r>
       <r>   -0.8407    1.0000 </r>
       <r>   -0.8207    1.0000 </r>
       <r>    1.7848   -0.0000 </r>
       <r>    2.0352   -0.0000 </r>
       <r>    2.3858   -0.0000 </r>
       <r>    2.4375   -0.0000 </r>
       <r>    2.7815   -0.0000 </r>
       <r>    2.9542   -0.0000 </r>
       <r>    4.1836    0.0000 </r>
       <r>    4.2544    0.0000 </r>
       <r>    7.2549    0.0000 </r>
       <r>    7.3408    0.0000 </r>
       <r>    8.1489    0.0000 </r>
       <r>    8.5115    0.0000 </r>
      </set>
      <set comment="kpoint 36">
       <r>  -35.0152    1.0000 </r>
       <r>  -35.0035    1.0000 </r>
       <r>  -34.9556    1.0000 </r>
       <r>  -34.9438    1.0000 </r>
       <r>  -34.8630    1.0000 </r>
       <r>  -34.8512    1.0000 </r>
       <r>  -12.9992    1.0000 </r>
       <r>  -12.9480    1.0000 </r>
       <r>  -12.2987    1.0000 </r>
       <r>  -12.2318    1.0000 </r>
       <r>   -5.0007    1.0000 </r>
       <r>   -4.8336    1.0000 </r>
       <r>   -3.8842    1.0000 </r>
       <r>   -3.7638    1.0000 </r>
       <r>   -3.7262    1.0000 </r>
       <r>   -3.5996    1.0000 </r>
       <r>   -2.8633    1.0000 </r>
       <r>   -2.8096    1.0000 </r>
       <r>   -1.8027    1.0000 </r>
       <r>   -1.7855    1.0000 </r>
       <r>   -1.4053    1.0000 </r>
       <r>   -1.1339    1.0000 </r>
       <r>   -0.8562    1.0000 </r>
       <r>   -0.7837    1.0000 </r>
       <r>    1.8465   -0.0000 </r>
       <r>    2.0510   -0.0000 </r>
       <r>    2.2805   -0.0000 </r>
       <r>    2.3589   -0.0000 </r>
       <r>    2.7448   -0.0000 </r>
       <r>    2.9413   -0.0000 </r>
       <r>    3.8955    0.0000 </r>
       <r>    3.9079    0.0000 </r>
       <r>    6.6869    0.0000 </r>
       <r>    6.7850    0.0000 </r>
       <r>    8.1854    0.0000 </r>
       <r>    8.4854    0.0000 </r>
      </set>
      <set comment="kpoint 37">
       <r>  -34.9683    1.0000 </r>
       <r>  -34.9662    1.0000 </r>
       <r>  -34.9567    1.0000 </r>
       <r>  -34.9543    1.0000 </r>
       <r>  -34.8443    1.0000 </r>
       <r>  -34.8325    1.0000 </r>
       <r>  -13.2655    1.0000 </r>
       <r>  -13.2122    1.0000 </r>
       <r>  -12.4107    1.0000 </r>
[...]
       <r>    -2.1932     1.5920    18.4504 </r>
       <r>    -2.0311     3.3761    18.9977 </r>
       <r>    -1.8690     3.7641    19.6079 </r>
       <r>    -1.7068     3.3507    20.1511 </r>
       <r>    -1.5447     2.9761    20.6336 </r>
       <r>    -1.3826     3.1246    21.1402 </r>
       <r>    -1.2205     1.6463    21.4071 </r>
       <r>    -1.0584     2.1374    21.7536 </r>
       <r>    -0.8963     2.0585    22.0873 </r>
       <r>    -0.7341     3.5067    22.6558 </r>
       <r>    -0.5720     2.9191    23.1291 </r>
       <r>    -0.4099     2.2462    23.4932 </r>
       <r>    -0.2478     1.6304    23.7576 </r>
       <r>    -0.0857     1.0348    23.9253 </r>
       <r>     0.0765     0.2374    23.9638 </r>
       <r>     0.2386     0.2209    23.9996 </r>
       <r>     0.4007     0.0028    24.0001 </r>
       <r>     0.5628    -0.0005    24.0000 </r>
       <r>     0.7249    -0.0000    24.0000 </r>
       <r>     0.8871    -0.0000    24.0000 </r>
       <r>     1.0492    -0.0000    24.0000 </r>
       <r>     1.2113    -0.0000    24.0000 </r>
       <r>     1.3734    -0.0000    24.0000 </r>
       <r>     1.5355    -0.0142    23.9977 </r>
       <r>     1.6977     0.2801    24.0431 </r>
       <r>     1.8598     1.3435    24.2609 </r>
       <r>     2.0219     3.1726    24.7753 </r>
       <r>     2.1840     5.2997    25.6345 </r>
       <r>     2.3461     3.4936    26.2008 </r>
       <r>     2.5083     5.0838    27.0250 </r>
       <r>     2.6704     4.7448    27.7942 </r>
       <r>     2.8325     3.2163    28.3157 </r>
       <r>     2.9946     2.8682    28.7807 </r>
       <r>     3.1567     2.7515    29.2267 </r>
       <r>     3.3189     2.2976    29.5992 </r>
       <r>     3.4810     1.5948    29.8578 </r>
       <r>     3.6431     2.0458    30.1895 </r>
       <r>     3.8052     0.8995    30.3353 </r>
       <r>     3.9673     2.1234    30.6795 </r>
       <r>     4.1295     2.2325    31.0415 </r>
       <r>     4.2916     2.8260    31.4996 </r>
       <r>     4.4537     1.3900    31.7250 </r>
       <r>     4.6158     1.1465    31.9108 </r>
       <r>     4.7779     0.5287    31.9965 </r>
       <r>     4.9401     0.0229    32.0002 </r>
       <r>     5.1022    -0.0021    31.9999 </r>
       <r>     5.2643     0.0073    32.0011 </r>
       <r>     5.4264     0.1729    32.0291 </r>
       <r>     5.5885     0.3113    32.0796 </r>
       <r>     5.7507     0.3676    32.1392 </r>
       <r>     5.9128     0.4989    32.2201 </r>
       <r>     6.0749     0.2973    32.2683 </r>
       <r>     6.2370     0.9389    32.4205 </r>
       <r>     6.3991     0.9764    32.5788 </r>
       <r>     6.5613     0.6758    32.6883 </r>
       <r>     6.7234     1.4290    32.9200 </r>
       <r>     6.8855     1.6166    33.1821 </r>
       <r>     7.0476     1.3860    33.4068 </r>
       <r>     7.2097     0.9940    33.5679 </r>
       <r>     7.3719     2.3410    33.9475 </r>
       <r>     7.5340     1.0161    34.1122 </r>
       <r>     7.6961     1.0504    34.2825 </r>
       <r>     7.8582     1.0305    34.4495 </r>
       <r>     8.0203     1.4739    34.6885 </r>
       <r>     8.1825     2.0918    35.0276 </r>
       <r>     8.3446     2.6228    35.4528 </r>
       <r>     8.5067     1.0782    35.6276 </r>
       <r>     8.6688     1.3086    35.8398 </r>
       <r>     8.8309     0.5791    35.9336 </r>
       <r>     8.9931     0.2756    35.9783 </r>
       <r>     9.1552     0.1383    36.0007 </r>
       <r>     9.3173    -0.0044    36.0000 </r>
       <r>     9.4794    -0.0001    36.0000 </r>
       <r>     9.6415    -0.0000    36.0000 </r>
       <r>     9.8037    -0.0000    36.0000 </r>
       <r>     9.9658     0.0000    36.0000 </r>
       <r>    10.1279     0.0000    36.0000 </r>
       <r>    10.2900     0.0000    36.0000 </r>
       <r>    10.4521     0.0000    36.0000 </r>
       <r>    10.6143     0.0000    36.0000 </r>
       <r>    10.7764     0.0000    36.0000 </r>
       <r>    10.9385     0.0000    36.0000 </r>
       <r>    11.1006     0.0000    36.0000 </r>
       <r>    11.2627     0.0000    36.0000 </r>
      </set>
      <set comment="spin 2">
       <r>   -37.3732     0.0000     0.0000 </r>
       <r>   -37.2111     0.0000     0.0000 </r>
       <r>   -37.0490     0.0000     0.0000 </r>
       <r>   -36.8868     0.0000     0.0000 </r>
       <r>   -36.7247     0.0000     0.0000 </r>
       <r>   -36.5626     0.0000     0.0000 </r>
       <r>   -36.4005     0.0000     0.0000 </r>
       <r>   -36.2384     0.0000     0.0000 </r>
       <r>   -36.0762    -0.0000    -0.0000 </r>
       <r>   -35.9141    -0.0000    -0.0000 </r>
       <r>   -35.7520    -0.0000    -0.0000 </r>
       <r>   -35.5899    -0.0000    -0.0000 </r>
       <r>   -35.4278    -0.0007    -0.0001 </r>
       <r>   -35.2656    -0.1825    -0.0297 </r>
       <r>   -35.1035     4.0028     0.6192 </r>
       <r>   -34.9414    14.9465     3.0423 </r>
       <r>   -34.7793    18.1997     5.9929 </r>
       <r>   -34.6172     0.0731     6.0047 </r>
       <r>   -34.4550    -0.0292     6.0000 </r>
       <r>   -34.2929    -0.0000     6.0000 </r>
       <r>   -34.1308    -0.0000     6.0000 </r>
       <r>   -33.9687     0.0000     6.0000 </r>
       <r>   -33.8066     0.0000     6.0000 </r>
       <r>   -33.6444     0.0000     6.0000 </r>
       <r>   -33.4823     0.0000     6.0000 </r>
       <r>   -33.3202     0.0000     6.0000 </r>
       <r>   -33.1581     0.0000     6.0000 </r>
       <r>   -32.9960     0.0000     6.0000 </r>
       <r>   -32.8338     0.0000     6.0000 </r>
       <r>   -32.6717     0.0000     6.0000 </r>
       <r>   -32.5096     0.0000     6.0000 </r>
       <r>   -32.3475     0.0000     6.0000 </r>
       <r>   -32.1854     0.0000     6.0000 </r>
       <r>   -32.0232     0.0000     6.0000 </r>
       <r>   -31.8611     0.0000     6.0000 </r>
       <r>   -31.6990     0.0000     6.0000 </r>
       <r>   -31.5369     0.0000     6.0000 </r>
       <r>   -31.3748     0.0000     6.0000 </r>
       <r>   -31.2126     0.0000     6.0000 </r>
       <r>   -31.0505     0.0000     6.0000 </r>
       <r>   -30.8884     0.0000     6.0000 </r>
       <r>   -30.7263     0.0000     6.0000 </r>
       <r>   -30.5642     0.0000     6.0000 </r>
       <r>   -30.4021     0.0000     6.0000 </r>
       <r>   -30.2399     0.0000     6.0000 </r>
       <r>   -30.0778     0.0000     6.0000 </r>
       <r>   -29.9157     0.0000     6.0000 </r>
       <r>   -29.7536     0.0000     6.0000 </r>
       <r>   -29.5915     0.0000     6.0000 </r>
       <r>   -29.4293     0.0000     6.0000 </r>
       <r>   -29.2672     0.0000     6.0000 </r>
       <r>   -29.1051     0.0000     6.0000 </r>
       <r>   -28.9430     0.0000     6.0000 </r>
       <r>   -28.7809     0.0000     6.0000 </r>
       <r>   -28.6187     0.0000     6.0000 </r>
       <r>   -28.4566     0.0000     6.0000 </r>
       <r>   -28.2945     0.0000     6.0000 </r>
       <r>   -28.1324     0.0000     6.0000 </r>
       <r>   -27.9703     0.0000     6.0000 </r>
       <r>   -27.8081     0.0000     6.0000 </r>
       <r>   -27.6460     0.0000     6.0000 </r>
       <r>   -27.4839     0.0000     6.0000 </r>
       <r>   -27.3218     0.0000     6.0000 </r>
       <r>   -27.1597     0.0000     6.0000 </r>
       <r>   -26.9975     0.0000     6.0000 </r>
       <r>   -26.8354     0.0000     6.0000 </r>
       <r>   -26.6733     0.0000     6.0000 </r>
       <r>   -26.5112     0.0000     6.0000 </r>
       <r>   -26.3491     0.0000     6.0000 </r>
       <r>   -26.1869     0.0000     6.0000 </r>
       <r>   -26.0248     0.0000     6.0000 </r>
       <r>   -25.8627     0.0000     6.0000 </r>
       <r>   -25.7006     0.0000     6.0000 </r>
       <r>   -25.5385     0.0000     6.0000 </r>
       <r>   -25.3763     0.0000     6.0000 </r>
       <r>   -25.2142     0.0000     6.0000 </r>
       <r>   -25.0521     0.0000     6.0000 </r>
       <r>   -24.8900     0.0000     6.0000 </r>
       <r>   -24.7279     0.0000     6.0000 </r>
       <r>   -24.5657     0.0000     6.0000 </r>
       <r>   -24.4036     0.0000     6.0000 </r>
       <r>   -24.2415     0.0000     6.0000 </r>
       <r>   -24.0794     0.0000     6.0000 </r>
       <r>   -23.9173     0.0000     6.0000 </r>
       <r>   -23.7551     0.0000     6.0000 </r>
       <r>   -23.5930     0.0000     6.0000 </r>
       <r>   -23.4309     0.0000     6.0000 </r>
       <r>   -23.2688     0.0000     6.0000 </r>
       <r>   -23.1067     0.0000     6.0000 </r>
       <r>   -22.9445     0.0000     6.0000 </r>
       <r>   -22.7824     0.0000     6.0000 </r>
       <r>   -22.6203     0.0000     6.0000 </r>
       <r>   -22.4582     0.0000     6.0000 </r>
       <r>   -22.2961     0.0000     6.0000 </r>
       <r>   -22.1339     0.0000     6.0000 </r>
       <r>   -21.9718     0.0000     6.0000 </r>
       <r>   -21.8097     0.0000     6.0000 </r>
       <r>   -21.6476     0.0000     6.0000 </r>
       <r>   -21.4855     0.0000     6.0000 </r>
       <r>   -21.3233     0.0000     6.0000 </r>
       <r>   -21.1612     0.0000     6.0000 </r>
       <r>   -20.9991     0.0000     6.0000 </r>
       <r>   -20.8370     0.0000     6.0000 </r>
       <r>   -20.6749     0.0000     6.0000 </r>
       <r>   -20.5127     0.0000     6.0000 </r>
       <r>   -20.3506     0.0000     6.0000 </r>
       <r>   -20.1885     0.0000     6.0000 </r>
       <r>   -20.0264     0.0000     6.0000 </r>
       <r>   -19.8643     0.0000     6.0000 </r>
       <r>   -19.7021     0.0000     6.0000 </r>
       <r>   -19.5400     0.0000     6.0000 </r>
       <r>   -19.3779     0.0000     6.0000 </r>
       <r>   -19.2158     0.0000     6.0000 </r>
       <r>   -19.0537     0.0000     6.0000 </r>
       <r>   -18.8915     0.0000     6.0000 </r>
       <r>   -18.7294     0.0000     6.0000 </r>
       <r>   -18.5673     0.0000     6.0000 </r>
       <r>   -18.4052     0.0000     6.0000 </r>
       <r>   -18.2431     0.0000     6.0000 </r>
       <r>   -18.0809     0.0000     6.0000 </r>
       <r>   -17.9188     0.0000     6.0000 </r>
       <r>   -17.7567     0.0000     6.0000 </r>
       <r>   -17.5946     0.0000     6.0000 </r>
       <r>   -17.4325     0.0000     6.0000 </r>
       <r>   -17.2703     0.0000     6.0000 </r>
       <r>   -17.1082     0.0000     6.0000 </r>
       <r>   -16.9461     0.0000     6.0000 </r>
       <r>   -16.7840     0.0000     6.0000 </r>
       <r>   -16.6219     0.0000     6.0000 </r>
       <r>   -16.4597     0.0000     6.0000 </r>
       <r>   -16.2976     0.0000     6.0000 </r>
       <r>   -16.1355     0.0000     6.0000 </r>
       <r>   -15.9734     0.0000     6.0000 </r>
       <r>   -15.8113     0.0000     6.0000 </r>
       <r>   -15.6492     0.0000     6.0000 </r>
       <r>   -15.4870     0.0000     6.0000 </r>
       <r>   -15.3249     0.0000     6.0000 </r>
       <r>   -15.1628     0.0000     6.0000 </r>
       <r>   -15.0007     0.0000     6.0000 </r>
       <r>   -14.8386    -0.0000     6.0000 </r>
       <r>   -14.6764    -0.0000     6.0000 </r>
       <r>   -14.5143    -0.0000     6.0000 </r>
       <r>   -14.3522    -0.0000     6.0000 </r>
       <r>   -14.1901    -0.0002     6.0000 </r>
       <r>   -14.0280    -0.0058     5.9990 </r>
       <r>   -13.8658     0.2713     6.0430 </r>
       <r>   -13.7037     0.4496     6.1159 </r>
       <r>   -13.5416     0.6323     6.2184 </r>
       <r>   -13.3795     0.4841     6.2969 </r>
       <r>   -13.2174     0.7304     6.4153 </r>
       <r>   -13.0552     0.3236     6.4678 </r>
       <r>   -12.8931     1.1105     6.6478 </r>
       <r>   -12.7310     0.4174     6.7155 </r>
       <r>   -12.5689     1.8076     7.0085 </r>
       <r>   -12.4068     2.2073     7.3664 </r>
       <r>   -12.2446     2.9176     7.8394 </r>
       <r>   -12.0825     3.9104     8.4733 </r>
       <r>   -11.9204     5.6734     9.3931 </r>
       <r>   -11.7583     3.6755     9.9889 </r>
       <r>   -11.5962     0.0765    10.0013 </r>
       <r>   -11.4340    -0.0083    10.0000 </r>
       <r>   -11.2719    -0.0000    10.0000 </r>
       <r>   -11.1098    -0.0000    10.0000 </r>
       <r>   -10.9477     0.0000    10.0000 </r>
       <r>   -10.7856     0.0000    10.0000 </r>
       <r>   -10.6234     0.0000    10.0000 </r>
       <r>   -10.4613     0.0000    10.0000 </r>
       <r>   -10.2992     0.0000    10.0000 </r>
       <r>   -10.1371     0.0000    10.0000 </r>
       <r>    -9.9750     0.0000    10.0000 </r>
       <r>    -9.8128     0.0000    10.0000 </r>
       <r>    -9.6507     0.0000    10.0000 </r>
       <r>    -9.4886     0.0000    10.0000 </r>
       <r>    -9.3265     0.0000    10.0000 </r>
       <r>    -9.1644     0.0000    10.0000 </r>
       <r>    -9.0022     0.0000    10.0000 </r>
       <r>    -8.8401     0.0000    10.0000 </r>
       <r>    -8.6780     0.0000    10.0000 </r>
       <r>    -8.5159     0.0000    10.0000 </r>
       <r>    -8.3538     0.0000    10.0000 </r>
       <r>    -8.1916     0.0000    10.0000 </r>
       <r>    -8.0295     0.0000    10.0000 </r>
       <r>    -7.8674     0.0000    10.0000 </r>
       <r>    -7.7053     0.0000    10.0000 </r>
       <r>    -7.5432     0.0000    10.0000 </r>
       <r>    -7.3810     0.0000    10.0000 </r>
       <r>    -7.2189     0.0000    10.0000 </r>
       <r>    -7.0568     0.0000    10.0000 </r>
       <r>    -6.8947     0.0000    10.0000 </r>
       <r>    -6.7326     0.0000    10.0000 </r>
       <r>    -6.5704    -0.0000    10.0000 </r>
       <r>    -6.4083    -0.0000    10.0000 </r>
       <r>    -6.2462    -0.0000    10.0000 </r>
       <r>    -6.0841    -0.0000    10.0000 </r>
       <r>    -5.9220    -0.0003     9.9999 </r>
       <r>    -5.7598    -0.0232     9.9962 </r>
       <r>    -5.5977     0.7124    10.1117 </r>
       <r>    -5.4356     1.2991    10.3223 </r>
       <r>    -5.2735     2.2370    10.6849 </r>
       <r>    -5.1114     2.9361    11.1609 </r>
       <r>    -4.9492     4.8546    11.9480 </r>
       <r>    -4.7871     2.4891    12.3515 </r>
       <r>    -4.6250     2.5264    12.7611 </r>
       <r>    -4.4629     1.1764    12.9518 </r>
       <r>    -4.3008     0.4499    13.0247 </r>
       <r>    -4.1386     0.7732    13.1501 </r>
       <r>    -3.9765     1.7853    13.4395 </r>
       <r>    -3.8144     4.2986    14.1364 </r>
       <r>    -3.6523     4.8191    14.9176 </r>
       <r>    -3.4902     2.5157    15.3255 </r>
       <r>    -3.3280     1.1279    15.5084 </r>
       <r>    -3.1659     3.8711    16.1359 </r>
       <r>    -3.0038     5.1933    16.9779 </r>
       <r>    -2.8417     2.9131    17.4502 </r>
       <r>    -2.6796     1.5790    17.7061 </r>
       <r>    -2.5174     1.0407    17.8749 </r>
       <r>    -2.3553     1.9578    18.1923 </r>
       <r>    -2.1932     1.5923    18.4504 </r>
       <r>    -2.0311     3.3763    18.9978 </r>
       <r>    -1.8690     3.7646    19.6081 </r>
       <r>    -1.7068     3.3504    20.1512 </r>
       <r>    -1.5447     2.9761    20.6337 </r>
       <r>    -1.3826     3.1246    21.1403 </r>
       <r>    -1.2205     1.6464    21.4072 </r>
       <r>    -1.0584     2.1370    21.7536 </r>
       <r>    -0.8963     2.0588    22.0874 </r>
       <r>    -0.7341     3.5062    22.6558 </r>
       <r>    -0.5720     2.9192    23.1291 </r>
       <r>    -0.4099     2.2462    23.4932 </r>
       <r>    -0.2478     1.6305    23.7576 </r>
       <r>    -0.0857     1.0347    23.9253 </r>
       <r>     0.0765     0.2374    23.9638 </r>
       <r>     0.2386     0.2209    23.9996 </r>
       <r>     0.4007     0.0027    24.0001 </r>
       <r>     0.5628    -0.0005    24.0000 </r>
       <r>     0.7249    -0.0000    24.0000 </r>
       <r>     0.8871    -0.0000    24.0000 </r>
       <r>     1.0492    -0.0000    24.0000 </r>
       <r>     1.2113    -0.0000    24.0000 </r>
       <r>     1.3734    -0.0000    24.0000 </r>
       <r>     1.5355    -0.0142    23.9977 </r>
       <r>     1.6977     0.2802    24.0431 </r>
       <r>     1.8598     1.3436    24.2609 </r>
       <r>     2.0219     3.1730    24.7753 </r>
       <r>     2.1840     5.2996    25.6345 </r>
       <r>     2.3461     3.4938    26.2009 </r>
       <r>     2.5083     5.0837    27.0251 </r>
       <r>     2.6704     4.7446    27.7943 </r>
       <r>     2.8325     3.2163    28.3157 </r>
       <r>     2.9946     2.8683    28.7807 </r>
       <r>     3.1567     2.7516    29.2268 </r>
       <r>     3.3189     2.2973    29.5993 </r>
       <r>     3.4810     1.5948    29.8578 </r>
       <r>     3.6431     2.0457    30.1895 </r>
       <r>     3.8052     0.8995    30.3353 </r>
       <r>     3.9673     2.1234    30.6795 </r>
       <r>     4.1295     2.2328    31.0415 </r>
       <r>     4.2916     2.8259    31.4997 </r>
       <r>     4.4537     1.3898    31.7250 </r>
       <r>     4.6158     1.1465    31.9109 </r>
       <r>     4.7779     0.5286    31.9965 </r>
       <r>     4.9401     0.0228    32.0002 </r>
       <r>     5.1022    -0.0018    32.0000 </r>
       <r>     5.2643     0.0014    32.0002 </r>
       <r>     5.4264     0.1438    32.0235 </r>
       <r>     5.5885     0.3239    32.0760 </r>
       <r>     5.7507     0.3333    32.1300 </r>
       <r>     5.9128     0.5339    32.2166 </r>
       <r>     6.0749     0.2586    32.2585 </r>
       <r>     6.2370     0.9350    32.4101 </r>
       <r>     6.3991     1.0040    32.5729 </r>
       <r>     6.5613     0.6777    32.6827 </r>
       <r>     6.7234     1.2848    32.8910 </r>
       <r>     6.8855     1.7163    33.1693 </r>
       <r>     7.0476     1.2209    33.3672 </r>
       <r>     7.2097     1.0816    33.5426 </r>
       <r>     7.3719     2.3967    33.9311 </r>
       <r>     7.5340     1.0788    34.1060 </r>
       <r>     7.6961     1.0425    34.2750 </r>
       <r>     7.8582     0.9894    34.4354 </r>
       <r>     8.0203     1.5458    34.6860 </r>
       <r>     8.1825     1.8142    34.9801 </r>
       <r>     8.3446     2.6922    35.4166 </r>
       <r>     8.5067     1.1192    35.5981 </r>
       <r>     8.6688     1.0216    35.7637 </r>
       <r>     8.8309     0.5754    35.8569 </r>
       <r>     8.9931     0.7467    35.9780 </r>
       <r>     9.1552     0.1420    36.0010 </r>
       <r>     9.3173    -0.0063    36.0000 </r>
       <r>     9.4794    -0.0000    36.0000 </r>
       <r>     9.6415    -0.0000    36.0000 </r>
       <r>     9.8037     0.0000    36.0000 </r>
       <r>     9.9658     0.0000    36.0000 </r>
       <r>    10.1279     0.0000    36.0000 </r>
       <r>    10.2900     0.0000    36.0000 </r>
       <r>    10.4521     0.0000    36.0000 </r>
       <r>    10.6143     0.0000    36.0000 </r>
       <r>    10.7764     0.0000    36.0000 </r>
       <r>    10.9385     0.0000    36.0000 </r>
       <r>    11.1006     0.0000    36.0000 </r>
       <r>    11.2627     0.0000    36.0000 </r>
      </set>
     </set>
    </array>
   </total>
  </dos>
 </calculation>
 <structure name="finalpos" >
  <crystal>
   <varray name="basis" >
    <v>       3.19031700       0.00000000       0.00000000 </v>
    <v>      -1.59515800       2.76289700       0.00000000 </v>
    <v>       0.00000000       0.00000000      23.14049200 </v>
   </varray>
   <i name="volume">    203.97226633 </i>
   <varray name="rec_basis" >
    <v>       0.31344848       0.18096941       0.00000000 </v>
    <v>       0.00000000       0.36193894       0.00000000 </v>
    <v>       0.00000000       0.00000000       0.04321429 </v>
   </varray>
  </crystal>
  <varray name="positions" >
   <v>       0.66666700       0.33333300       0.06785900 </v>
   <v>       0.33333300       0.66666700       0.00000000 </v>
   <v>       0.33333300       0.66666700       0.13571500 </v>
   <v>       0.09523843       0.90476157       0.35482300 </v>
   <v>       0.76190443       0.23809557       0.28696500 </v>
   <v>       0.76190443       0.23809557       0.42267900 </v>
  </varray>
 </structure>
</modeling>
