<?xml version="1.0" encoding="ISO-8859-1"?>
<modeling>
 <generator>
  <i name="program" type="string">vasp </i>
  <i name="version" type="string">5.3.5  </i>
  <i name="subversion" type="string">31Mar14 (build Oct 29 2014 16:16:03) complex                          parallel </i>
  <i name="platform" type="string">Linux-UFHPC </i>
  <i name="date" type="string">2016 02 09 </i>
  <i name="time" type="string">18:15:01 </i>
 </generator>
 <incar>
  <i type="string" name="PREC">accurate</i>
  <i type="int" name="IBRION">     2</i>
  <i name="EDIFF">      0.00000100</i>
  <i type="int" name="NSW">     0</i>
  <i type="int" name="ISIF">     3</i>
  <i name="ENCUT">    300.00000000</i>
  <i type="string" name="LREAL"> Auto</i>
  <i type="int" name="ISMEAR">     0</i>
  <i name="SIGMA">      0.10000000</i>
  <i type="logical" name="LWAVE"> F  </i>
  <i type="logical" name="LCHARG"> F  </i>
  <i type="logical" name="LAECHG"> F  </i>
  <i type="string" name="GGA"> Bo</i>
  <i name="PARAM1">      0.18333333</i>
  <i name="PARAM2">      0.22000000</i>
  <i type="logical" name="LUSE_VDW"> T  </i>
  <i name="AGGAC">      0.00000000</i>
 </incar>
 <kpoints>
  <generation param="Gamma">
   <v type="int" name="divisions">      13        4        2 </v>
   <v name="usershift">      0.00000000       0.00000000       0.00000000 </v>
   <v name="genvec1">      0.07692308      -0.00000000       0.00000000 </v>
   <v name="genvec2">      0.00000000       0.25000000       0.00000000 </v>
   <v name="genvec3">      0.00000000       0.00000000       0.50000000 </v>
   <v name="shift">      0.00000000       0.00000000       0.00000000 </v>
  </generation>
  <varray name="kpointlist" >
   <v>       0.00000000       0.00000000       0.00000000 </v>
   <v>       0.07692308      -0.00000000       0.00000000 </v>
   <v>       0.15384615      -0.00000000       0.00000000 </v>
   <v>       0.23076923      -0.00000000       0.00000000 </v>
   <v>       0.30769231      -0.00000000       0.00000000 </v>
   <v>       0.38461538      -0.00000000       0.00000000 </v>
   <v>       0.46153846      -0.00000000       0.00000000 </v>
   <v>       0.00000000       0.25000000       0.00000000 </v>
   <v>       0.07692308       0.25000000       0.00000000 </v>
   <v>       0.15384615       0.25000000       0.00000000 </v>
   <v>       0.23076923       0.25000000       0.00000000 </v>
   <v>       0.30769231       0.25000000       0.00000000 </v>
   <v>       0.38461538       0.25000000       0.00000000 </v>
   <v>       0.46153846       0.25000000       0.00000000 </v>
   <v>      -0.46153846       0.25000000       0.00000000 </v>
   <v>      -0.38461538       0.25000000       0.00000000 </v>
   <v>      -0.30769231       0.25000000       0.00000000 </v>
   <v>      -0.23076923       0.25000000       0.00000000 </v>
   <v>      -0.15384615       0.25000000       0.00000000 </v>
   <v>      -0.07692308       0.25000000       0.00000000 </v>
   <v>       0.00000000       0.50000000       0.00000000 </v>
   <v>       0.07692308       0.50000000       0.00000000 </v>
   <v>       0.15384615       0.50000000       0.00000000 </v>
   <v>       0.23076923       0.50000000       0.00000000 </v>
   <v>       0.30769231       0.50000000       0.00000000 </v>
   <v>       0.38461538       0.50000000       0.00000000 </v>
   <v>       0.46153846       0.50000000       0.00000000 </v>
   <v>       0.00000000       0.00000000       0.50000000 </v>
   <v>       0.07692308      -0.00000000       0.50000000 </v>
   <v>       0.15384615      -0.00000000       0.50000000 </v>
   <v>       0.23076923      -0.00000000       0.50000000 </v>
   <v>       0.30769231      -0.00000000       0.50000000 </v>
   <v>       0.38461538      -0.00000000       0.50000000 </v>
   <v>       0.46153846      -0.00000000       0.50000000 </v>
   <v>       0.00000000       0.25000000       0.50000000 </v>
   <v>       0.07692308       0.25000000       0.50000000 </v>
   <v>       0.15384615       0.25000000       0.50000000 </v>
   <v>       0.23076923       0.25000000       0.50000000 </v>
   <v>       0.30769231       0.25000000       0.50000000 </v>
   <v>       0.38461538       0.25000000       0.50000000 </v>
   <v>       0.46153846       0.25000000       0.50000000 </v>
   <v>      -0.46153846       0.25000000       0.50000000 </v>
   <v>      -0.38461538       0.25000000       0.50000000 </v>
   <v>      -0.30769231       0.25000000       0.50000000 </v>
   <v>      -0.23076923       0.25000000       0.50000000 </v>
   <v>      -0.15384615       0.25000000       0.50000000 </v>
   <v>      -0.07692308       0.25000000       0.50000000 </v>
   <v>       0.00000000       0.50000000       0.50000000 </v>
   <v>       0.07692308       0.50000000       0.50000000 </v>
   <v>       0.15384615       0.50000000       0.50000000 </v>
   <v>       0.23076923       0.50000000       0.50000000 </v>
   <v>       0.30769231       0.50000000       0.50000000 </v>
   <v>       0.38461538       0.50000000       0.50000000 </v>
   <v>       0.46153846       0.50000000       0.50000000 </v>
  </varray>
  <varray name="weights" >
   <v>       0.00961538 </v>
   <v>       0.01923077 </v>
   <v>       0.01923077 </v>
   <v>       0.01923077 </v>
   <v>       0.01923077 </v>
   <v>       0.01923077 </v>
   <v>       0.01923077 </v>
   <v>       0.01923077 </v>
   <v>       0.01923077 </v>
   <v>       0.01923077 </v>
   <v>       0.01923077 </v>
   <v>       0.01923077 </v>
   <v>       0.01923077 </v>
   <v>       0.01923077 </v>
   <v>       0.01923077 </v>
   <v>       0.01923077 </v>
   <v>       0.01923077 </v>
   <v>       0.01923077 </v>
   <v>       0.01923077 </v>
   <v>       0.01923077 </v>
   <v>       0.00961538 </v>
   <v>       0.01923077 </v>
   <v>       0.01923077 </v>
   <v>       0.01923077 </v>
   <v>       0.01923077 </v>
   <v>       0.01923077 </v>
   <v>       0.01923077 </v>
   <v>       0.00961538 </v>
   <v>       0.01923077 </v>
   <v>       0.01923077 </v>
   <v>       0.01923077 </v>
   <v>       0.01923077 </v>
   <v>       0.01923077 </v>
   <v>       0.01923077 </v>
   <v>       0.01923077 </v>
   <v>       0.01923077 </v>
   <v>       0.01923077 </v>
   <v>       0.01923077 </v>
   <v>       0.01923077 </v>
   <v>       0.01923077 </v>
   <v>       0.01923077 </v>
   <v>       0.01923077 </v>
   <v>       0.01923077 </v>
   <v>       0.01923077 </v>
   <v>       0.01923077 </v>
   <v>       0.01923077 </v>
   <v>       0.01923077 </v>
   <v>       0.00961538 </v>
   <v>       0.01923077 </v>
   <v>       0.01923077 </v>
   <v>       0.01923077 </v>
   <v>       0.01923077 </v>
   <v>       0.01923077 </v>
   <v>       0.01923077 </v>
  </varray>
 </kpoints>
 <parameters>
  <separator name="general" >
   <i type="string" name="SYSTEM">unknown system</i>
   <i type="logical" name="LCOMPAT"> F  </i>
  </separator>
  <separator name="electronic" >
   <i type="string" name="PREC">accura</i>
   <i name="ENMAX">    300.00000000</i>
   <i name="ENAUG">    342.92400000</i>
   <i name="EDIFF">      0.00000100</i>
   <i type="int" name="IALGO">    38</i>
   <i type="int" name="IWAVPR">    10</i>
   <i type="int" name="NBANDS">    68</i>
   <i name="NELECT">    108.00000000</i>
   <i type="int" name="TURBO">     0</i>
   <i type="int" name="IRESTART">     0</i>
   <i type="int" name="NREBOOT">     0</i>
   <i type="int" name="NMIN">     0</i>
   <i name="EREF">      0.00000000</i>
   <separator name="electronic smearing" >
    <i type="int" name="ISMEAR">     0</i>
    <i name="SIGMA">      0.10000000</i>
    <i name="KSPACING">      0.50000000</i>
    <i type="logical" name="KGAMMA"> T  </i>
   </separator>
   <separator name="electronic projectors" >
    <i type="logical" name="LREAL"> T  </i>
    <v name="ROPT">     -0.00025000     -0.00025000</v>
    <i type="int" name="LMAXPAW">  -100</i>
    <i type="int" name="LMAXMIX">     2</i>
    <i type="logical" name="NLSPLINE"> F  </i>
   </separator>
   <separator name="electronic startup" >
    <i type="int" name="ISTART">     0</i>
    <i type="int" name="ICHARG">     2</i>
    <i type="int" name="INIWAV">     1</i>
   </separator>
   <separator name="electronic spin" >
    <i type="int" name="ISPIN">     1</i>
    <i type="logical" name="LNONCOLLINEAR"> F  </i>
    <v name="MAGMOM">      1.00000000      1.00000000      1.00000000      1.00000000      1.00000000      1.00000000      1.00000000      1.00000000      1.00000000      1.00000000      1.00000000      1.00000000      1.00000000      1.00000000      1.00000000      1.00000000      1.00000000      1.00000000      1.00000000      1.00000000
      1.00000000      1.00000000      1.00000000      1.00000000</v>
    <i name="NUPDOWN">     -1.00000000</i>
    <i type="logical" name="LSORBIT"> F  </i>
    <v name="SAXIS">      0.00000000      0.00000000      1.00000000</v>
    <i type="logical" name="LSPIRAL"> F  </i>
    <v name="QSPIRAL">      0.00000000      0.00000000      0.00000000</v>
    <i type="logical" name="LZEROZ"> F  </i>
   </separator>
   <separator name="electronic exchange-correlation" >
    <i type="logical" name="LASPH"> F  </i>
    <i type="logical" name="LMETAGGA"> F  </i>
   </separator>
   <separator name="electronic convergence" >
    <i type="int" name="NELM">    60</i>
    <i type="int" name="NELMDL">    -5</i>
    <i type="int" name="NELMIN">     2</i>
    <i name="ENINI">    300.00000000</i>
    <separator name="electronic convergence detail" >
     <i type="logical" name="LDIAG"> T  </i>
     <i type="logical" name="LSUBROT"> F  </i>
     <i name="WEIMIN">      0.00000000</i>
     <i name="EBREAK">      0.00000000</i>
     <i name="DEPER">      0.30000000</i>
     <i type="int" name="NRMM">     4</i>
     <i name="TIME">      0.40000000</i>
    </separator>
   </separator>
   <separator name="electronic mixer" >
    <i name="AMIX">      0.40000000</i>
    <i name="BMIX">      1.00000000</i>
    <i name="AMIN">      0.10000000</i>
    <i name="AMIX_MAG">      1.60000000</i>
    <i name="BMIX_MAG">      1.00000000</i>
    <separator name="electronic mixer details" >
     <i type="int" name="IMIX">     4</i>
     <i type="int" name="MAXMIX">   -45</i>
     <i name="WC">    100.00000000</i>
     <i type="int" name="INIMIX">     1</i>
     <i type="int" name="MIXPRE">     1</i>
     <i type="int" name="MREMOVE">     5</i>
    </separator>
   </separator>
   <separator name="electronic dipolcorrection" >
    <i type="logical" name="LDIPOL"> F  </i>
    <i type="logical" name="LMONO"> F  </i>
    <i type="int" name="IDIPOL">     0</i>
    <i name="EPSILON">      1.00000000</i>
    <v name="DIPOL">   -100.00000000   -100.00000000   -100.00000000</v>
    <i name="EFIELD">      0.00000000</i>
   </separator>
  </separator>
  <separator name="grids" >
   <i type="int" name="NGX">    20</i>
   <i type="int" name="NGY">    60</i>
   <i type="int" name="NGZ">   160</i>
   <i type="int" name="NGXF">    40</i>
   <i type="int" name="NGYF">   120</i>
   <i type="int" name="NGZF">   320</i>
   <i type="logical" name="ADDGRID"> F  </i>
  </separator>
  <separator name="ionic" >
   <i type="int" name="NSW">     0</i>
   <i type="int" name="IBRION">    -1</i>
   <i type="int" name="ISIF">     3</i>
   <i name="PSTRESS">      0.00000000</i>
   <i name="EDIFFG">      0.00001000</i>
   <i type="int" name="NFREE">     1</i>
   <i name="POTIM">      0.50000000</i>
   <i name="SMASS">     -3.00000000</i>
   <i name="SCALEE">      1.00000000</i>
  </separator>
  <separator name="ionic md" >
   <i name="TEBEG">      0.00010000</i>
   <i name="TEEND">      0.00010000</i>
   <i type="int" name="NBLOCK">     1</i>
   <i type="int" name="KBLOCK">     1</i>
   <i type="int" name="NPACO">   256</i>
   <i name="APACO">     16.00000000</i>
  </separator>
  <separator name="symmetry" >
   <i type="int" name="ISYM">     2</i>
   <i name="SYMPREC">      0.00001000</i>
  </separator>
  <separator name="dos" >
   <i type="logical" name="LORBIT"> F  </i>
   <v name="RWIGS">     -1.00000000     -1.00000000</v>
   <i type="int" name="NEDOS">   301</i>
   <i name="EMIN">     10.00000000</i>
   <i name="EMAX">    -10.00000000</i>
   <i name="EFERMI">      0.00000000</i>
  </separator>
  <separator name="writing" >
   <i type="int" name="NWRITE">     2</i>
   <i type="logical" name="LWAVE"> F  </i>
   <i type="logical" name="LCHARG"> F  </i>
   <i type="logical" name="LPARD"> F  </i>
   <i type="logical" name="LVTOT"> F  </i>
   <i type="logical" name="LVHAR"> F  </i>
   <i type="logical" name="LELF"> F  </i>
   <i type="logical" name="LOPTICS"> F  </i>
   <v name="STM">      0.00000000      0.00000000      0.00000000      0.00000000      0.00000000      0.00000000      0.00000000</v>
  </separator>
  <separator name="performance" >
   <i type="int" name="NPAR">     4</i>
   <i type="int" name="NSIM">     4</i>
   <i type="int" name="NBLK">    -1</i>
   <i type="logical" name="LPLANE"> T  </i>
   <i type="logical" name="LSCALAPACK"> T  </i>
   <i type="logical" name="LSCAAWARE"> F  </i>
   <i type="logical" name="LSCALU"> F  </i>
   <i type="logical" name="LASYNC"> F  </i>
   <i type="logical" name="LORBITALREAL"> F  </i>
  </separator>
  <separator name="miscellaneous" >
   <i type="int" name="IDIOT">     3</i>
   <i type="logical" name="LMUSIC"> F  </i>
   <v name="POMASS">     30.97400000     28.08500000</v>
   <v name="DARWINR">      0.00000000      0.00000000</v>
   <v name="DARWINV">      1.00000000      1.00000000</v>
   <i type="logical" name="LCORR"> T  </i>
  </separator>
  <i type="logical" name="GGA_COMPAT"> T  </i>
  <i type="logical" name="LBERRY"> F  </i>
  <i type="int" name="ICORELEVEL">     0</i>
  <i type="logical" name="LDAU"> F  </i>
  <i type="int" name="I_CONSTRAINED_M">     0</i>
  <separator name="electronic exchange-correlation" >
   <i type="string" name="GGA">BO</i>
   <i type="int" name="VOSKOWN">     0</i>
   <i type="logical" name="LHFCALC"> F  </i>
   <i type="string" name="PRECFOCK"></i>
   <i type="logical" name="LSYMGRAD"> F  </i>
   <i type="logical" name="LHFONE"> F  </i>
   <i type="logical" name="LRHFCALC"> F  </i>
   <i type="logical" name="LTHOMAS"> F  </i>
   <i type="logical" name="LMODELHF"> F  </i>
   <i name="ENCUT4O">     -1.00000000</i>
   <i type="int" name="EXXOEP">     0</i>
   <i type="int" name="FOURORBIT">     0</i>
   <i name="AEXX">      0.00000000</i>
   <i name="HFALPHA">      0.00000000</i>
   <i name="MCALPHA">      0.00000000</i>
   <i name="ALDAX">      1.00000000</i>
   <i name="AGGAX">      1.00000000</i>
   <i name="ALDAC">      1.00000000</i>
   <i name="AGGAC">      0.00000000</i>
   <i type="int" name="NKREDX">     1</i>
   <i type="int" name="NKREDY">     1</i>
   <i type="int" name="NKREDZ">     1</i>
   <i type="logical" name="SHIFTRED"> F  </i>
   <i type="logical" name="ODDONLY"> F  </i>
   <i type="logical" name="EVENONLY"> F  </i>
   <i type="int" name="LMAXFOCK">     0</i>
   <i type="int" name="NMAXFOCKAE">     0</i>
   <i type="logical" name="LFOCKAEDFT"> F  </i>
   <i name="HFSCREEN">      0.00000000</i>
   <i name="HFSCREENC">      0.00000000</i>
   <i type="int" name="NBANDSGWLOW">     0</i>
  </separator>
  <separator name="vdW DFT" >
   <i type="logical" name="LUSE_VDW"> T  </i>
   <i name="Zab_VDW">     -0.84910000</i>
   <i name="PARAM1">      0.18333333</i>
   <i name="PARAM2">      0.22000000</i>
   <i name="PARAM3">      0.00000000</i>
  </separator>
  <separator name="model GW" >
   <i type="int" name="MODEL_GW">     0</i>
   <i name="MODEL_EPS0">     25.05800243</i>
   <i name="MODEL_ALPHA">      1.00000000</i>
  </separator>
  <separator name="linear response parameters" >
   <i type="logical" name="LEPSILON"> F  </i>
   <i type="logical" name="LRPA"> F  </i>
   <i type="logical" name="LNABLA"> F  </i>
   <i type="logical" name="LVEL"> F  </i>
   <i type="int" name="KINTER">     0</i>
   <i name="CSHIFT">      0.10000000</i>
   <i name="OMEGAMAX">     -1.00000000</i>
   <i name="DEG_THRESHOLD">      0.00200000</i>
  </separator>
  <separator name="orbital magnetization" >
   <i type="logical" name="NUCIND"> F  </i>
   <v name="MAGPOS">      0.00000000      0.00000000      0.00000000</v>
   <i type="logical" name="LNICSALL"> T  </i>
   <i type="logical" name="ORBITALMAG"> F  </i>
   <i type="logical" name="LMAGBLOCH"> F  </i>
   <i type="logical" name="LCHIMAG"> F  </i>
   <i type="logical" name="LGAUGE"> T  </i>
   <i type="int" name="MAGATOM">     0</i>
   <v name="MAGDIPOL">      0.00000000      0.00000000      0.00000000</v>
   <v name="AVECCONST">      0.00000000      0.00000000      0.00000000</v>
  </separator>
  <separator name="response functions" >
   <i type="logical" name="LADDER"> F  </i>
   <i type="logical" name="LFXC"> F  </i>
   <i type="logical" name="LHARTREE"> T  </i>
   <i type="int" name="IBSE">     0</i>
   <i type="logical" name="LTCTE"> F  </i>
   <i type="logical" name="LTETE"> F  </i>
   <i type="logical" name="LTRIPLET"> F  </i>
   <i type="logical" name="LFXCEPS"> F  </i>
   <i type="logical" name="LFXHEG"> F  </i>
   <i type="logical" name="L2ORDER"> F  </i>
   <i type="logical" name="LUSEW"> F  </i>
   <i name="ENCUTGW">     -2.00000000</i>
   <i name="ENCUTGWSOFT">     -2.00000000</i>
   <i name="ENCUTLF">     -1.00000000</i>
   <i type="int" name="LMAXMP2">    -1</i>
   <i name="SCISSOR">      0.00000000</i>
   <i type="int" name="NOMEGA">     0</i>
   <i type="int" name="NOMEGAR">     0</i>
   <i type="int" name="NBANDSGW">    -1</i>
   <i type="int" name="NBANDSO">    -1</i>
   <i type="int" name="NBANDSV">    -1</i>
   <i type="int" name="NELM">     1</i>
   <i type="int" name="DIM">     3</i>
   <i type="int" name="ANTIRES">     0</i>
   <i name="OMEGAMAX">    -30.00000000</i>
   <i name="OMEGAMIN">    -30.00000000</i>
   <i name="OMEGATL">   -200.00000000</i>
   <i type="int" name="OMEGAGRID">     0</i>
   <i name="CSHIFT">     -0.10000000</i>
   <i type="logical" name="SELFENERGY"> F  </i>
   <i type="logical" name="LSPECTRAL"> F  </i>
   <i type="logical" name="ODDONLYGW"> F  </i>
   <i type="logical" name="EVENONLYGW"> F  </i>
   <i type="int" name="NKREDLFX">     1</i>
   <i type="int" name="NKREDLFY">     1</i>
   <i type="int" name="NKREDLFZ">     1</i>
   <i type="int" name="MAXMEM">  1800</i>
   <i type="int" name="TELESCOPE">     0</i>
   <i type="int" name="TAUPAR">     1</i>
  </separator>
  <separator name="External order field" >
   <i name="OFIELD_KAPPA">      0.00000000</i>
   <v name="OFIELD_K">      0.00000000      0.00000000      0.00000000</v>
   <i name="OFIELD_Q6_NEAR">      0.00000000</i>
   <i name="OFIELD_Q6_FAR">      0.00000000</i>
   <i name="OFIELD_A">      0.00000000</i>
  </separator>
 </parameters>
 <atominfo>
  <atoms>      24 </atoms>
  <types>       2 </types>
  <array name="atoms" >
   <dimension dim="1">ion</dimension>
   <field type="string">element</field>
   <field type="int">atomtype</field>
   <set>
    <rc><c>P </c><c>   1</c></rc>
    <rc><c>P </c><c>   1</c></rc>
    <rc><c>P </c><c>   1</c></rc>
    <rc><c>P </c><c>   1</c></rc>
    <rc><c>P </c><c>   1</c></rc>
    <rc><c>P </c><c>   1</c></rc>
    <rc><c>P </c><c>   1</c></rc>
    <rc><c>P </c><c>   1</c></rc>
    <rc><c>P </c><c>   1</c></rc>
    <rc><c>P </c><c>   1</c></rc>
    <rc><c>P </c><c>   1</c></rc>
    <rc><c>P </c><c>   1</c></rc>
    <rc><c>Si</c><c>   2</c></rc>
    <rc><c>Si</c><c>   2</c></rc>
    <rc><c>Si</c><c>   2</c></rc>
    <rc><c>Si</c><c>   2</c></rc>
    <rc><c>Si</c><c>   2</c></rc>
    <rc><c>Si</c><c>   2</c></rc>
    <rc><c>Si</c><c>   2</c></rc>
    <rc><c>Si</c><c>   2</c></rc>
    <rc><c>Si</c><c>   2</c></rc>
    <rc><c>Si</c><c>   2</c></rc>
    <rc><c>Si</c><c>   2</c></rc>
    <rc><c>Si</c><c>   2</c></rc>
   </set>
  </array>
  <array name="atomtypes" >
   <dimension dim="1">type</dimension>
   <field type="int">atomspertype</field>
   <field type="string">element</field>
   <field>mass</field>
   <field>valence</field>
   <field type="string">pseudopotential</field>
   <set>
    <rc><c>  12</c><c>P </c><c>     30.97400000</c><c>      5.00000000</c><c>  PAW_PBE P 17Jan2003                   </c></rc>
    <rc><c>  12</c><c>Si</c><c>     28.08500000</c><c>      4.00000000</c><c> PAW_PBE Si 05Jan2001                   </c></rc>
   </set>
  </array>
 </atominfo>
 <structure name="initialpos" >
  <crystal>
   <varray name="basis" >
    <v>       3.54040000       0.00000000       0.00000000 </v>
    <v>      -1.77020000      10.29434800       0.00000000 </v>
    <v>       0.00000000       0.00000000      27.50142900 </v>
   </varray>
   <i name="volume">   1002.32009712 </i>
   <varray name="rec_basis" >
    <v>       0.28245396       0.04857034       0.00000000 </v>
    <v>       0.00000000       0.09714068       0.00000000 </v>
    <v>       0.00000000       0.00000000       0.03636175 </v>
   </varray>
  </crystal>
  <varray name="positions" >
   <v>       0.11402300       0.22804500       0.23316207 </v>
   <v>       0.71402300       0.32804500       0.51499159 </v>
   <v>       0.45808900       0.91617900       0.20939482 </v>
   <v>       0.05808900       0.01617900       0.49122434 </v>
   <v>       0.31085400       0.62170900       0.08414979 </v>
   <v>       0.31085400       0.62170900       0.36597930 </v>
   <v>       0.99923000       0.99846000       0.08631254 </v>
   <v>       0.99923000       0.99846000       0.36814206 </v>
   <v>       0.65492700       0.30985400       0.06041748 </v>
   <v>       0.65492700       0.30985400       0.34224700 </v>
   <v>       0.76973800       0.53947500       0.20725292 </v>
   <v>       0.36973800       0.63947500       0.48908244 </v>
   <v>       0.93971600       0.87943300       0.15783749 </v>
   <v>       0.53971600       0.97943300       0.43966701 </v>
   <v>       0.20515200       0.41030300       0.18578822 </v>
   <v>       0.80515200       0.51030300       0.46761774 </v>
   <v>       0.20184900       0.40369900       0.09969156 </v>
   <v>       0.20184900       0.40369900       0.38152107 </v>
   <v>       0.56380500       0.12761000       0.10779021 </v>
   <v>       0.56380500       0.12761000       0.38961973 </v>
   <v>       0.56710600       0.13421200       0.19387616 </v>
   <v>       0.16710600       0.23421200       0.47570568 </v>
   <v>       0.82923400       0.65846800       0.13571444 </v>
   <v>       0.42923400       0.75846800       0.41754396 </v>
  </varray>
 </structure>
 <calculation>
  <scstep>
   <time name="dav">   78.26   78.56</time>
   <time name="total">   94.65   95.06</time>
   <energy>
    <i name="alphaZ">     36.80884744 </i>
    <i name="ewald">  11894.46324709 </i>
    <i name="hartreedc"> -14950.22910640 </i>
    <i name="XCdc">    -88.27391121 </i>
    <i name="pawpsdc">   1056.43050070 </i>
    <i name="pawaedc">   -732.41190547 </i>
    <i name="eentropy">     -0.04664612 </i>
    <i name="bandstr">    -85.58946105 </i>
    <i name="atom">   3354.04126044 </i>
    <i name="e_fr_energy">    485.19282544 </i>
    <i name="e_wo_entrp">    485.23947156 </i>
    <i name="e_0_energy">    485.21614850 </i>
   </energy>
  </scstep>
  <scstep>
   <time name="dav">   97.46   97.82</time>
   <time name="total">   97.47   97.83</time>
   <energy>
    <i name="e_fr_energy">    -69.48876730 </i>
    <i name="e_wo_entrp">    -69.46801499 </i>
    <i name="e_0_energy">    -69.47839115 </i>
   </energy>
  </scstep>
  <scstep>
   <time name="dav">   90.27   90.69</time>
   <time name="total">   90.28   90.70</time>
   <energy>
    <i name="e_fr_energy">   -124.76691618 </i>
    <i name="e_wo_entrp">   -124.73965653 </i>
    <i name="e_0_energy">   -124.75328635 </i>
   </energy>
  </scstep>
  <scstep>
   <time name="dav">  105.93  106.30</time>
   <time name="total">  105.94  106.31</time>
   <energy>
    <i name="e_fr_energy">   -127.17827982 </i>
    <i name="e_wo_entrp">   -127.14958489 </i>
    <i name="e_0_energy">   -127.16393235 </i>
   </energy>
  </scstep>
  <scstep>
   <time name="dav">  100.07  100.61</time>
   <time name="total">  105.21  105.76</time>
   <energy>
    <i name="e_fr_energy">   -127.23866099 </i>
    <i name="e_wo_entrp">   -127.20989101 </i>
    <i name="e_0_energy">   -127.22427600 </i>
   </energy>
  </scstep>
  <scstep>
   <time name="dav">   88.85   89.36</time>
   <time name="total">  108.90  109.51</time>
   <energy>
    <i name="e_fr_energy">   -125.34594094 </i>
    <i name="e_wo_entrp">   -125.30774077 </i>
    <i name="e_0_energy">   -125.32684086 </i>
   </energy>
  </scstep>
  <scstep>
   <time name="dav">   92.02   92.62</time>
   <time name="total">  112.08  112.73</time>
   <energy>
    <i name="e_fr_energy">   -125.19829344 </i>
    <i name="e_wo_entrp">   -125.17101171 </i>
    <i name="e_0_energy">   -125.18465258 </i>
   </energy>
  </scstep>
  <scstep>
   <time name="dav">   89.52   89.91</time>
   <time name="total">  109.42  109.97</time>
   <energy>
    <i name="e_fr_energy">   -125.04766239 </i>
    <i name="e_wo_entrp">   -125.00788018 </i>
    <i name="e_0_energy">   -125.02777128 </i>
   </energy>
  </scstep>
  <scstep>
   <time name="dav">   92.51   93.03</time>
   <time name="total">  112.59  113.17</time>
   <energy>
    <i name="e_fr_energy">   -125.03578799 </i>
    <i name="e_wo_entrp">   -124.99272147 </i>
    <i name="e_0_energy">   -125.01425473 </i>
   </energy>
  </scstep>
  <scstep>
   <time name="dav">   89.66   89.96</time>
   <time name="total">  109.57  109.92</time>
   <energy>
    <i name="e_fr_energy">   -125.01281565 </i>
    <i name="e_wo_entrp">   -124.97192357 </i>
    <i name="e_0_energy">   -124.99236961 </i>
   </energy>
  </scstep>
  <scstep>
   <time name="dav">   88.18   88.57</time>
   <time name="total">  108.10  108.65</time>
   <energy>
    <i name="e_fr_energy">   -125.00205540 </i>
    <i name="e_wo_entrp">   -124.96097260 </i>
    <i name="e_0_energy">   -124.98151400 </i>
   </energy>
  </scstep>
  <scstep>
   <time name="dav">   88.34   88.67</time>
   <time name="total">  108.22  108.60</time>
   <energy>
    <i name="e_fr_energy">   -124.99787376 </i>
    <i name="e_wo_entrp">   -124.95660549 </i>
    <i name="e_0_energy">   -124.97723963 </i>
   </energy>
  </scstep>
  <scstep>
   <time name="dav">   88.09   88.56</time>
   <time name="total">  107.98  108.58</time>
   <energy>
    <i name="e_fr_energy">   -124.99509903 </i>
    <i name="e_wo_entrp">   -124.95379516 </i>
    <i name="e_0_energy">   -124.97444710 </i>
   </energy>
  </scstep>
  <scstep>
   <time name="dav">   85.76   85.95</time>
   <time name="total">  105.42  105.63</time>
   <energy>
    <i name="e_fr_energy">   -124.99278568 </i>
    <i name="e_wo_entrp">   -124.95145837 </i>
    <i name="e_0_energy">   -124.97212202 </i>
   </energy>
  </scstep>
  <scstep>
   <time name="dav">   91.73   92.11</time>
   <time name="total">  111.68  112.26</time>
   <energy>
    <i name="e_fr_energy">   -124.99201222 </i>
    <i name="e_wo_entrp">   -124.95067718 </i>
    <i name="e_0_energy">   -124.97134470 </i>
   </energy>
  </scstep>
  <scstep>
   <time name="dav">   84.45   84.85</time>
   <time name="total">  104.64  105.12</time>
   <energy>
    <i name="e_fr_energy">   -124.99187333 </i>
    <i name="e_wo_entrp">   -124.95053626 </i>
    <i name="e_0_energy">   -124.97120479 </i>
   </energy>
  </scstep>
  <scstep>
   <time name="dav">   85.04   85.47</time>
   <time name="total">  105.23  105.69</time>
   <energy>
    <i name="e_fr_energy">   -124.99245662 </i>
    <i name="e_wo_entrp">   -124.95111679 </i>
    <i name="e_0_energy">   -124.97178670 </i>
   </energy>
  </scstep>
  <scstep>
   <time name="dav">   80.52   80.95</time>
   <time name="total">  100.59  101.13</time>
   <energy>
    <i name="e_fr_energy">   -124.99266764 </i>
    <i name="e_wo_entrp">   -124.95132706 </i>
    <i name="e_0_energy">   -124.97199735 </i>
   </energy>
  </scstep>
  <scstep>
   <time name="dav">   75.54   75.67</time>
   <time name="total">   95.64   95.85</time>
   <energy>
    <i name="e_fr_energy">   -124.99266661 </i>
    <i name="e_wo_entrp">   -124.95132711 </i>
    <i name="e_0_energy">   -124.97199686 </i>
   </energy>
  </scstep>
  <scstep>
   <time name="dav">   69.29   69.55</time>
   <time name="total">   89.37   89.77</time>
   <energy>
    <i name="e_fr_energy">   -124.99272536 </i>
    <i name="e_wo_entrp">   -124.95138525 </i>
    <i name="e_0_energy">   -124.97205530 </i>
   </energy>
  </scstep>
  <scstep>
   <time name="dav">   75.92   76.25</time>
   <time name="total">   96.10   96.46</time>
   <energy>
    <i name="e_fr_energy">   -124.99269966 </i>
    <i name="e_wo_entrp">   -124.95135813 </i>
    <i name="e_0_energy">   -124.97202890 </i>
   </energy>
  </scstep>
  <scstep>
   <time name="dav">   71.79   72.19</time>
   <time name="total">   91.96   92.45</time>
   <energy>
    <i name="e_fr_energy">   -124.99268735 </i>
    <i name="e_wo_entrp">   -124.95134701 </i>
    <i name="e_0_energy">   -124.97201718 </i>
   </energy>
  </scstep>
  <scstep>
   <time name="dav">   72.88   73.23</time>
   <time name="total">   92.93   93.42</time>
   <energy>
    <i name="e_fr_energy">   -124.99262449 </i>
    <i name="e_wo_entrp">   -124.95128298 </i>
    <i name="e_0_energy">   -124.97195374 </i>
   </energy>
  </scstep>
  <scstep>
   <time name="dav">   73.31   73.54</time>
   <time name="total">   93.41   93.77</time>
   <energy>
    <i name="e_fr_energy">   -124.99261746 </i>
    <i name="e_wo_entrp">   -124.95127592 </i>
    <i name="e_0_energy">   -124.97194669 </i>
   </energy>
  </scstep>
  <scstep>
   <time name="dav">   72.15   72.49</time>
   <time name="total">   92.30   92.69</time>
   <energy>
    <i name="e_fr_energy">   -124.99259521 </i>
    <i name="e_wo_entrp">   -124.95125389 </i>
    <i name="e_0_energy">   -124.97192455 </i>
   </energy>
  </scstep>
  <scstep>
   <time name="dav">   66.13   66.31</time>
   <time name="total">   86.26   86.54</time>
   <energy>
    <i name="e_fr_energy">   -124.99259638 </i>
    <i name="e_wo_entrp">   -124.95125494 </i>
    <i name="e_0_energy">   -124.97192566 </i>
   </energy>
  </scstep>
  <scstep>
   <time name="dav">   68.31   68.58</time>
   <time name="total">   83.28   83.57</time>
   <energy>
    <i name="alphaZ">     36.80884744 </i>
    <i name="ewald">  11894.46324709 </i>
    <i name="hartreedc"> -15034.79132925 </i>
    <i name="XCdc">    -80.86088714 </i>
    <i name="pawpsdc">   1156.62344295 </i>
    <i name="pawaedc">   -835.38387942 </i>
    <i name="eentropy">     -0.04134143 </i>
    <i name="bandstr">   -615.85195618 </i>
    <i name="atom">   3354.04126044 </i>
    <i name="e_fr_energy">   -124.99259549 </i>
    <i name="e_wo_entrp">   -124.95125406 </i>
    <i name="e_0_energy">   -124.97192478 </i>
   </energy>
  </scstep>
  <structure>
   <crystal>
    <varray name="basis" >
     <v>       3.54040000       0.00000000       0.00000000 </v>
     <v>      -1.77020000      10.29434800       0.00000000 </v>
     <v>       0.00000000       0.00000000      27.50142900 </v>
    </varray>
    <i name="volume">   1002.32009712 </i>
    <varray name="rec_basis" >
     <v>       0.28245396       0.04857034       0.00000000 </v>
     <v>       0.00000000       0.09714068       0.00000000 </v>
     <v>       0.00000000       0.00000000       0.03636175 </v>
    </varray>
   </crystal>
   <varray name="positions" >
    <v>       0.11402300       0.22804500       0.23316207 </v>
    <v>       0.71402300       0.32804500       0.51499159 </v>
    <v>       0.45808900       0.91617900       0.20939482 </v>
    <v>       0.05808900       0.01617900       0.49122434 </v>
    <v>       0.31085400       0.62170900       0.08414979 </v>
    <v>       0.31085400       0.62170900       0.36597930 </v>
    <v>       0.99923000       0.99846000       0.08631254 </v>
    <v>       0.99923000       0.99846000       0.36814206 </v>
    <v>       0.65492700       0.30985400       0.06041748 </v>
    <v>       0.65492700       0.30985400       0.34224700 </v>
    <v>       0.76973800       0.53947500       0.20725292 </v>
    <v>       0.36973800       0.63947500       0.48908244 </v>
    <v>       0.93971600       0.87943300       0.15783749 </v>
    <v>       0.53971600       0.97943300       0.43966701 </v>
    <v>       0.20515200       0.41030300       0.18578822 </v>
    <v>       0.80515200       0.51030300       0.46761774 </v>
    <v>       0.20184900       0.40369900       0.09969156 </v>
    <v>       0.20184900       0.40369900       0.38152107 </v>
    <v>       0.56380500       0.12761000       0.10779021 </v>
    <v>       0.56380500       0.12761000       0.38961973 </v>
    <v>       0.56710600       0.13421200       0.19387616 </v>
    <v>       0.16710600       0.23421200       0.47570568 </v>
    <v>       0.82923400       0.65846800       0.13571444 </v>
    <v>       0.42923400       0.75846800       0.41754396 </v>
   </varray>
  </structure>
  <varray name="forces" >
   <v>      -0.00644949      -0.02834413       0.02853238 </v>
   <v>      -0.04291232      -0.09097604       0.02841186 </v>
   <v>      -0.00072549      -0.01230608       0.10029480 </v>
   <v>      -0.12893771      -0.35603160       1.20479599 </v>
   <v>      -0.00102614      -0.00599437       0.00418858 </v>
   <v>      -0.47115916      -1.44446475      -3.69409623 </v>
   <v>       0.00017936       0.01248038       0.01054172 </v>
   <v>       0.05935645      -0.22105453      -1.50158065 </v>
   <v>       0.00100570      -0.00241894       0.02619939 </v>
   <v>       0.10389052       0.23402788      -0.32566657 </v>
   <v>      -0.00042970       0.00470494       0.09909166 </v>
   <v>       0.17341363       0.22216818       0.47246444 </v>
   <v>       0.00292482      -0.00599667       0.01728191 </v>
   <v>       0.56903687      -2.82229417       3.41425336 </v>
   <v>      -0.00232338       0.04217233       0.05373235 </v>
   <v>       0.12826392      -0.21802347      -0.10310944 </v>
   <v>       0.00000993      -0.00098356      -0.03607722 </v>
   <v>      -0.08449802       0.19789817       1.34997175 </v>
   <v>      -0.00318019       0.00160369      -0.06057769 </v>
   <v>      -0.49011208       3.63146129      -3.53497336 </v>
   <v>       0.00190393      -0.05331674       0.06672202 </v>
   <v>      -0.03224289       0.03898688      -0.53590108 </v>
   <v>       0.00143941       0.00317049       0.00169782 </v>
   <v>       0.22257201       0.87353082       2.91380219 </v>
  </varray>
  <varray name="stress" >
   <v>      -6.79643511      -0.23612946       2.05954716 </v>
   <v>      -0.23612952       7.61086659      -5.37705210 </v>
   <v>       2.05954726      -5.37705212      17.80297233 </v>
  </varray>
  <energy>
   <i name="e_fr_energy">   -124.99259549 </i>
   <i name="e_wo_entrp">   -124.97192478 </i>
   <i name="e_0_energy">     -0.04134143 </i>
  </energy>
  <time name="totalsc"> 2840.69 2853.03</time>
  <eigenvalues>
   <array>
    <dimension dim="1">band</dimension>
    <dimension dim="2">kpoint</dimension>
    <dimension dim="3">spin</dimension>
    <field>eigene</field>
    <field>occ</field>
    <set>
     <set comment="spin 1">
      <set comment="kpoint 1">
       <r>  -13.7284    1.0000 </r>
       <r>  -13.6915    1.0000 </r>
       <r>  -12.9525    1.0000 </r>
       <r>  -12.7048    1.0000 </r>
       <r>  -12.6488    1.0000 </r>
       <r>  -12.3729    1.0000 </r>
       <r>  -12.2337    1.0000 </r>
       <r>  -11.9716    1.0000 </r>
       <r>  -11.5857    1.0000 </r>
       <r>  -11.1610    1.0000 </r>
       <r>  -11.1420    1.0000 </r>
       <r>  -10.6670    1.0000 </r>
       <r>   -8.2021    1.0000 </r>
       <r>   -8.0922    1.0000 </r>
       <r>   -7.9840    1.0000 </r>
       <r>   -7.5379    1.0000 </r>
       <r>   -7.0063    1.0000 </r>
       <r>   -6.6810    1.0000 </r>
       <r>   -6.6459    1.0000 </r>
       <r>   -6.2785    1.0000 </r>
       <r>   -5.9725    1.0000 </r>
       <r>   -5.6620    1.0000 </r>
       <r>   -4.9325    1.0000 </r>
       <r>   -4.7867    1.0000 </r>
       <r>   -4.1033    1.0000 </r>
       <r>   -3.8626    1.0000 </r>
       <r>   -3.8331    1.0000 </r>
       <r>   -3.4492    1.0000 </r>
       <r>   -3.4123    1.0000 </r>
       <r>   -3.2136    1.0000 </r>
       <r>   -3.0901    1.0000 </r>
       <r>   -2.9934    1.0000 </r>
       <r>   -2.9065    1.0000 </r>
       <r>   -2.5930    1.0000 </r>
       <r>   -2.5572    1.0000 </r>
       <r>   -2.5027    1.0000 </r>
       <r>   -2.3590    1.0000 </r>
       <r>   -2.2824    1.0000 </r>
       <r>   -2.2374    1.0000 </r>
       <r>   -2.0181    1.0000 </r>
       <r>   -1.9121    1.0000 </r>
       <r>   -1.8778    1.0000 </r>
       <r>   -1.7980    1.0000 </r>
       <r>   -1.7466    1.0000 </r>
       <r>   -1.6994    1.0000 </r>
       <r>   -1.5853    1.0000 </r>
       <r>   -1.5066    1.0000 </r>
       <r>   -1.2317    1.0000 </r>
       <r>   -1.1997    1.0000 </r>
       <r>   -1.1500    1.0000 </r>
       <r>   -1.0991    1.0000 </r>
       <r>   -0.4661    0.9999 </r>
       <r>   -0.3939    0.9968 </r>
       <r>   -0.2081    0.5414 </r>
       <r>    0.0822    0.0000 </r>
       <r>    0.7454    0.0000 </r>
       <r>    1.0349    0.0000 </r>
       <r>    1.1663    0.0000 </r>
       <r>    1.5134    0.0000 </r>
       <r>    1.5725    0.0000 </r>
       <r>    1.8284    0.0000 </r>
       <r>    1.9035    0.0000 </r>
       <r>    1.9862    0.0000 </r>
       <r>    2.2203    0.0000 </r>
       <r>    2.2770    0.0000 </r>
       <r>    2.3317    0.0000 </r>
       <r>    2.4963    0.0000 </r>
       <r>    2.6269    0.0000 </r>
      </set>
      <set comment="kpoint 2">
       <r>  -13.6658    1.0000 </r>
       <r>  -13.6299    1.0000 </r>
       <r>  -12.9003    1.0000 </r>
       <r>  -12.6544    1.0000 </r>
       <r>  -12.5932    1.0000 </r>
       <r>  -12.3175    1.0000 </r>
       <r>  -12.1721    1.0000 </r>
       <r>  -11.9176    1.0000 </r>
       <r>  -11.5367    1.0000 </r>
       <r>  -11.1152    1.0000 </r>
       <r>  -11.0937    1.0000 </r>
       <r>  -10.6227    1.0000 </r>
       <r>   -8.2328    1.0000 </r>
       <r>   -8.0976    1.0000 </r>
       <r>   -7.9472    1.0000 </r>
       <r>   -7.4731    1.0000 </r>
       <r>   -6.9747    1.0000 </r>
       <r>   -6.7081    1.0000 </r>
       <r>   -6.6415    1.0000 </r>
       <r>   -6.3047    1.0000 </r>
       <r>   -5.9392    1.0000 </r>
       <r>   -5.6735    1.0000 </r>
       <r>   -4.9273    1.0000 </r>
       <r>   -4.7732    1.0000 </r>
       <r>   -4.0922    1.0000 </r>
       <r>   -3.9102    1.0000 </r>
       <r>   -3.8544    1.0000 </r>
       <r>   -3.7650    1.0000 </r>
       <r>   -3.6540    1.0000 </r>
       <r>   -3.4515    1.0000 </r>
       <r>   -3.3801    1.0000 </r>
       <r>   -3.1591    1.0000 </r>
       <r>   -2.9867    1.0000 </r>
       <r>   -2.9136    1.0000 </r>
       <r>   -2.8487    1.0000 </r>
       <r>   -2.6749    1.0000 </r>
       <r>   -2.6188    1.0000 </r>
       <r>   -2.4520    1.0000 </r>
       <r>   -2.3536    1.0000 </r>
       <r>   -2.2090    1.0000 </r>
       <r>   -2.1156    1.0000 </r>
       <r>   -2.1090    1.0000 </r>
       <r>   -1.9958    1.0000 </r>
       <r>   -1.9029    1.0000 </r>
       <r>   -1.7907    1.0000 </r>
       <r>   -1.6634    1.0000 </r>
       <r>   -1.5344    1.0000 </r>
       <r>   -1.4161    1.0000 </r>
       <r>   -1.1831    1.0000 </r>
       <r>   -1.1213    1.0000 </r>
       <r>   -0.9754    1.0000 </r>
       <r>   -0.4261    0.9993 </r>
       <r>   -0.3175    0.9507 </r>
       <r>   -0.1628    0.2959 </r>
       <r>   -0.0477    0.0152 </r>
       <r>    1.0392    0.0000 </r>
       <r>    1.4017    0.0000 </r>
       <r>    1.4481    0.0000 </r>
       <r>    1.6112    0.0000 </r>
       <r>    1.9750    0.0000 </r>
       <r>    2.0530    0.0000 </r>
       <r>    2.1151    0.0000 </r>
       <r>    2.2384    0.0000 </r>
       <r>    2.3370    0.0000 </r>
       <r>    2.4559    0.0000 </r>
       <r>    2.6040    0.0000 </r>
       <r>    2.6379    0.0000 </r>
       <r>    2.8495    0.0000 </r>
      </set>
      <set comment="kpoint 3">
       <r>  -13.4787    1.0000 </r>
       <r>  -13.4462    1.0000 </r>
       <r>  -12.7445    1.0000 </r>
       <r>  -12.5064    1.0000 </r>
       <r>  -12.4284    1.0000 </r>
       <r>  -12.1537    1.0000 </r>
       <r>  -11.9914    1.0000 </r>
       <r>  -11.7592    1.0000 </r>
       <r>  -11.3945    1.0000 </r>
       <r>  -10.9818    1.0000 </r>
       <r>  -10.9551    1.0000 </r>
       <r>  -10.4943    1.0000 </r>
       <r>   -8.3241    1.0000 </r>
       <r>   -8.1020    1.0000 </r>
       <r>   -7.9067    1.0000 </r>
       <r>   -7.3149    1.0000 </r>
       <r>   -6.9801    1.0000 </r>
       <r>   -6.8525    1.0000 </r>
       <r>   -6.6547    1.0000 </r>
       <r>   -6.3859    1.0000 </r>
       <r>   -5.8657    1.0000 </r>
       <r>   -5.7077    1.0000 </r>
       <r>   -5.0219    1.0000 </r>
       <r>   -4.7878    1.0000 </r>
       <r>   -4.3722    1.0000 </r>
       <r>   -4.3632    1.0000 </r>
       <r>   -4.2426    1.0000 </r>
       <r>   -4.1348    1.0000 </r>
       <r>   -4.0183    1.0000 </r>
       <r>   -3.8803    1.0000 </r>
       <r>   -3.6928    1.0000 </r>
       <r>   -3.6181    1.0000 </r>
       <r>   -3.5261    1.0000 </r>
       <r>   -3.3478    1.0000 </r>
       <r>   -3.3215    1.0000 </r>
       <r>   -3.1545    1.0000 </r>
       <r>   -3.1084    1.0000 </r>
       <r>   -2.8942    1.0000 </r>
       <r>   -2.7129    1.0000 </r>
       <r>   -2.5377    1.0000 </r>
       <r>   -2.5179    1.0000 </r>
       <r>   -2.3035    1.0000 </r>
       <r>   -2.1695    1.0000 </r>
       <r>   -2.1039    1.0000 </r>
       <r>   -1.9081    1.0000 </r>
       <r>   -1.8145    1.0000 </r>
       <r>   -1.5320    1.0000 </r>
       <r>   -1.4062    1.0000 </r>
       <r>   -1.2134    1.0000 </r>
       <r>   -1.1749    1.0000 </r>
       <r>   -0.9966    1.0000 </r>
       <r>   -0.7911    1.0000 </r>
       <r>   -0.4962    1.0000 </r>
       <r>   -0.2317    0.6690 </r>
       <r>    0.3383    0.0000 </r>
       <r>    1.0113    0.0000 </r>
       <r>    1.3632    0.0000 </r>
       <r>    1.8081    0.0000 </r>
       <r>    2.1017    0.0000 </r>
       <r>    2.2494    0.0000 </r>
       <r>    2.2672    0.0000 </r>
       <r>    2.4599    0.0000 </r>
       <r>    2.5081    0.0000 </r>
       <r>    2.7508    0.0000 </r>
       <r>    2.7869    0.0000 </r>
       <r>    2.9102    0.0000 </r>
       <r>    3.0328    0.0000 </r>
       <r>    3.1224    0.0000 </r>
      </set>
      <set comment="kpoint 4">
       <r>  -13.1707    1.0000 </r>
       <r>  -13.1433    1.0000 </r>
       <r>  -12.4882    1.0000 </r>
       <r>  -12.2725    1.0000 </r>
       <r>  -12.1615    1.0000 </r>
       <r>  -11.8895    1.0000 </r>
       <r>  -11.7057    1.0000 </r>
       <r>  -11.5100    1.0000 </r>
       <r>  -11.1773    1.0000 </r>
       <r>  -10.7737    1.0000 </r>
       <r>  -10.7521    1.0000 </r>
       <r>  -10.2993    1.0000 </r>
       <r>   -8.5142    1.0000 </r>
       <r>   -8.1968    1.0000 </r>
       <r>   -7.9817    1.0000 </r>
       <r>   -7.4919    1.0000 </r>
       <r>   -7.1533    1.0000 </r>
       <r>   -6.8461    1.0000 </r>
       <r>   -6.7893    1.0000 </r>
       <r>   -6.5688    1.0000 </r>
       <r>   -5.8880    1.0000 </r>
       <r>   -5.7587    1.0000 </r>
       <r>   -5.4916    1.0000 </r>
       <r>   -5.0576    1.0000 </r>
       <r>   -4.9569    1.0000 </r>
       <r>   -4.7638    1.0000 </r>
       <r>   -4.6670    1.0000 </r>
       <r>   -4.5464    1.0000 </r>
       <r>   -4.4451    1.0000 </r>
       <r>   -4.3437    1.0000 </r>
       <r>   -4.2351    1.0000 </r>
       <r>   -3.9939    1.0000 </r>
       <r>   -3.9174    1.0000 </r>
       <r>   -3.6881    1.0000 </r>
       <r>   -3.6208    1.0000 </r>
       <r>   -3.5217    1.0000 </r>
       <r>   -3.2172    1.0000 </r>
       <r>   -3.1300    1.0000 </r>
       <r>   -2.8272    1.0000 </r>
       <r>   -2.7313    1.0000 </r>
       <r>   -2.6719    1.0000 </r>
       <r>   -2.5682    1.0000 </r>
       <r>   -2.3429    1.0000 </r>
       <r>   -2.0582    1.0000 </r>
       <r>   -1.9709    1.0000 </r>
       <r>   -1.8908    1.0000 </r>
       <r>   -1.7787    1.0000 </r>
       <r>   -1.6251    1.0000 </r>
       <r>   -1.5598    1.0000 </r>
       <r>   -1.2637    1.0000 </r>
       <r>   -1.1050    1.0000 </r>
       <r>   -0.9282    1.0000 </r>
       <r>   -0.5778    1.0000 </r>
       <r>   -0.3847    0.9954 </r>
       <r>    0.1702    0.0000 </r>
       <r>    0.7527    0.0000 </r>
       <r>    1.2121    0.0000 </r>
       <r>    1.7139    0.0000 </r>
       <r>    1.8514    0.0000 </r>
       <r>    1.9174    0.0000 </r>
       <r>    2.1045    0.0000 </r>
       <r>    2.2145    0.0000 </r>
       <r>    2.5171    0.0000 </r>
       <r>    2.5664    0.0000 </r>
       <r>    2.7297    0.0000 </r>
       <r>    2.8060    0.0000 </r>
       <r>    3.0385    0.0000 </r>
       <r>    3.1211    0.0000 </r>
      </set>
      <set comment="kpoint 5">
       <r>  -12.7506    1.0000 </r>
       <r>  -12.7263    1.0000 </r>
       <r>  -12.1398    1.0000 </r>
       <r>  -11.9799    1.0000 </r>
       <r>  -11.8096    1.0000 </r>
       <r>  -11.5411    1.0000 </r>
       <r>  -11.3495    1.0000 </r>
       <r>  -11.2008    1.0000 </r>
       <r>  -10.9323    1.0000 </r>
       <r>  -10.5674    1.0000 </r>
       <r>  -10.5150    1.0000 </r>
       <r>  -10.0863    1.0000 </r>
       <r>   -8.8091    1.0000 </r>
       <r>   -8.7364    1.0000 </r>
       <r>   -8.2414    1.0000 </r>
       <r>   -7.8017    1.0000 </r>
       <r>   -7.3044    1.0000 </r>
       <r>   -7.1512    1.0000 </r>
       <r>   -7.0544    1.0000 </r>
       <r>   -6.8185    1.0000 </r>
       <r>   -6.3100    1.0000 </r>
       <r>   -6.1237    1.0000 </r>
       <r>   -6.0868    1.0000 </r>
       <r>   -5.3807    1.0000 </r>
       <r>   -5.3434    1.0000 </r>
       <r>   -4.9787    1.0000 </r>
       <r>   -4.9316    1.0000 </r>
       <r>   -4.8531    1.0000 </r>
       <r>   -4.5904    1.0000 </r>
       <r>   -4.5720    1.0000 </r>
       <r>   -4.4331    1.0000 </r>
       <r>   -4.3519    1.0000 </r>
       <r>   -4.1432    1.0000 </r>
       <r>   -3.6859    1.0000 </r>
       <r>   -3.5431    1.0000 </r>
       <r>   -3.3198    1.0000 </r>
       <r>   -3.2426    1.0000 </r>
       <r>   -3.1777    1.0000 </r>
       <r>   -3.0831    1.0000 </r>
       <r>   -2.9797    1.0000 </r>
       <r>   -2.7768    1.0000 </r>
       <r>   -2.6691    1.0000 </r>
       <r>   -2.3796    1.0000 </r>
       <r>   -2.2547    1.0000 </r>
       <r>   -2.2033    1.0000 </r>
       <r>   -2.0332    1.0000 </r>
       <r>   -2.0042    1.0000 </r>
       <r>   -1.8691    1.0000 </r>
       <r>   -1.8462    1.0000 </r>
       <r>   -1.4505    1.0000 </r>
       <r>   -1.3819    1.0000 </r>
       <r>   -0.9452    1.0000 </r>
       <r>   -0.7229    1.0000 </r>
       <r>   -0.4928    1.0000 </r>
       <r>   -0.1125    0.1060 </r>
       <r>    0.6179    0.0000 </r>
       <r>    1.0282    0.0000 </r>
       <r>    1.2904    0.0000 </r>
       <r>    1.4500    0.0000 </r>
       <r>    1.6370    0.0000 </r>
       <r>    1.8287    0.0000 </r>
       <r>    2.0545    0.0000 </r>
       <r>    2.1515    0.0000 </r>
       <r>    2.2224    0.0000 </r>
       <r>    2.5208    0.0000 </r>
       <r>    2.6564    0.0000 </r>
       <r>    2.8470    0.0000 </r>
       <r>    2.9465    0.0000 </r>
      </set>
      <set comment="kpoint 6">
       <r>  -12.2370    1.0000 </r>
       <r>  -12.2088    1.0000 </r>
       <r>  -11.7207    1.0000 </r>
       <r>  -11.6819    1.0000 </r>
       <r>  -11.4112    1.0000 </r>
       <r>  -11.1469    1.0000 </r>
       <r>  -11.0065    1.0000 </r>
       <r>  -10.9096    1.0000 </r>
       <r>  -10.7767    1.0000 </r>
       <r>  -10.6085    1.0000 </r>
       <r>  -10.2677    1.0000 </r>
       <r>   -9.9855    1.0000 </r>
       <r>   -9.4413    1.0000 </r>
       <r>   -8.9845    1.0000 </r>
       <r>   -8.5336    1.0000 </r>
       <r>   -8.0319    1.0000 </r>
       <r>   -7.6687    1.0000 </r>
       <r>   -7.6119    1.0000 </r>
       <r>   -7.5700    1.0000 </r>
       <r>   -7.0578    1.0000 </r>
       <r>   -6.9080    1.0000 </r>
       <r>   -6.8184    1.0000 </r>
       <r>   -6.6030    1.0000 </r>
       <r>   -5.7972    1.0000 </r>
       <r>   -5.3658    1.0000 </r>
       <r>   -4.9997    1.0000 </r>
       <r>   -4.8130    1.0000 </r>
       <r>   -4.6806    1.0000 </r>
       <r>   -4.5344    1.0000 </r>
       <r>   -4.4403    1.0000 </r>
       <r>   -4.3390    1.0000 </r>
       <r>   -4.2209    1.0000 </r>
       <r>   -3.8499    1.0000 </r>
       <r>   -3.8081    1.0000 </r>
       <r>   -3.6814    1.0000 </r>
       <r>   -3.5859    1.0000 </r>
       <r>   -3.4209    1.0000 </r>
       <r>   -3.3105    1.0000 </r>
       <r>   -3.1441    1.0000 </r>
       <r>   -2.9453    1.0000 </r>
       <r>   -2.8224    1.0000 </r>
       <r>   -2.6903    1.0000 </r>
       <r>   -2.6484    1.0000 </r>
       <r>   -2.4817    1.0000 </r>
       <r>   -2.3970    1.0000 </r>
       <r>   -2.1877    1.0000 </r>
       <r>   -2.1386    1.0000 </r>
       <r>   -2.0671    1.0000 </r>
       <r>   -1.9764    1.0000 </r>
       <r>   -1.7284    1.0000 </r>
       <r>   -1.5443    1.0000 </r>
       <r>   -1.3228    1.0000 </r>
       <r>   -0.7496    1.0000 </r>
       <r>   -0.4269    0.9993 </r>
       <r>   -0.2765    0.8579 </r>
       <r>    0.4145    0.0000 </r>
       <r>    0.8991    0.0000 </r>
       <r>    1.0639    0.0000 </r>
       <r>    1.2694    0.0000 </r>
       <r>    1.5516    0.0000 </r>
       <r>    1.5718    0.0000 </r>
       <r>    1.7622    0.0000 </r>
       <r>    1.9242    0.0000 </r>
       <r>    2.1059    0.0000 </r>
       <r>    2.1406    0.0000 </r>
       <r>    2.5173    0.0000 </r>
       <r>    2.6308    0.0000 </r>
       <r>    2.7245    0.0000 </r>
      </set>
      <set comment="kpoint 7">
       <r>  -11.7041    1.0000 </r>
       <r>  -11.6561    1.0000 </r>
       <r>  -11.4132    1.0000 </r>
       <r>  -11.2973    1.0000 </r>
       <r>  -11.1105    1.0000 </r>
       <r>  -10.9975    1.0000 </r>
       <r>  -10.9646    1.0000 </r>
       <r>  -10.8815    1.0000 </r>
       <r>  -10.7889    1.0000 </r>
       <r>  -10.7591    1.0000 </r>
       <r>  -10.2825    1.0000 </r>
       <r>   -9.9940    1.0000 </r>
       <r>   -9.7503    1.0000 </r>
       <r>   -8.8401    1.0000 </r>
       <r>   -8.5969    1.0000 </r>
       <r>   -8.3525    1.0000 </r>
       <r>   -8.2316    1.0000 </r>
       <r>   -7.7285    1.0000 </r>
       <r>   -7.6839    1.0000 </r>
       <r>   -7.4414    1.0000 </r>
       <r>   -7.3660    1.0000 </r>
       <r>   -7.3274    1.0000 </r>
       <r>   -6.9755    1.0000 </r>
       <r>   -6.0734    1.0000 </r>
       <r>   -5.0708    1.0000 </r>
       <r>   -4.7798    1.0000 </r>
       <r>   -4.6518    1.0000 </r>
       <r>   -4.4798    1.0000 </r>
       <r>   -4.4144    1.0000 </r>
       <r>   -4.2295    1.0000 </r>
       <r>   -4.1371    1.0000 </r>
       <r>   -4.0789    1.0000 </r>
       <r>   -3.9815    1.0000 </r>
       <r>   -3.8657    1.0000 </r>
       <r>   -3.7548    1.0000 </r>
       <r>   -3.6760    1.0000 </r>
       <r>   -3.5235    1.0000 </r>
       <r>   -3.4042    1.0000 </r>
       <r>   -3.2090    1.0000 </r>
       <r>   -3.1691    1.0000 </r>
       <r>   -3.1238    1.0000 </r>
       <r>   -2.8397    1.0000 </r>
       <r>   -2.7724    1.0000 </r>
       <r>   -2.5142    1.0000 </r>
       <r>   -2.3967    1.0000 </r>
       <r>   -2.3077    1.0000 </r>
       <r>   -2.2371    1.0000 </r>
       <r>   -2.1721    1.0000 </r>
       <r>   -1.9298    1.0000 </r>
       <r>   -1.7884    1.0000 </r>
       <r>   -1.6864    1.0000 </r>
       <r>   -1.5636    1.0000 </r>
       <r>   -0.7796    1.0000 </r>
       <r>   -0.4100    0.9985 </r>
       <r>   -0.3140    0.9454 </r>
       <r>    0.1897    0.0000 </r>
       <r>    0.8462    0.0000 </r>
       <r>    1.0855    0.0000 </r>
       <r>    1.2339    0.0000 </r>
       <r>    1.4169    0.0000 </r>
       <r>    1.4822    0.0000 </r>
       <r>    1.5661    0.0000 </r>
       <r>    1.7097    0.0000 </r>
       <r>    1.9257    0.0000 </r>
       <r>    2.2215    0.0000 </r>
       <r>    2.3343    0.0000 </r>
       <r>    2.5447    0.0000 </r>
       <r>    2.6412    0.0000 </r>
      </set>
      <set comment="kpoint 8">
       <r>  -13.7043    1.0000 </r>
       <r>  -13.6388    1.0000 </r>
       <r>  -13.1261    1.0000 </r>
       <r>  -12.8146    1.0000 </r>
       <r>  -12.6470    1.0000 </r>
       <r>  -12.3671    1.0000 </r>
       <r>  -12.0257    1.0000 </r>
       <r>  -11.8295    1.0000 </r>
       <r>  -11.6307    1.0000 </r>
       <r>  -11.2125    1.0000 </r>
       <r>  -11.1515    1.0000 </r>
       <r>  -10.5947    1.0000 </r>
       <r>   -8.6719    1.0000 </r>
       <r>   -8.5750    1.0000 </r>
       <r>   -7.5518    1.0000 </r>
       <r>   -7.0253    1.0000 </r>
       <r>   -6.8265    1.0000 </r>
       <r>   -6.7629    1.0000 </r>
       <r>   -6.6254    1.0000 </r>
       <r>   -6.3738    1.0000 </r>
       <r>   -5.8970    1.0000 </r>
       <r>   -5.6330    1.0000 </r>
       <r>   -4.8097    1.0000 </r>
       <r>   -4.5869    1.0000 </r>
       <r>   -4.2499    1.0000 </r>
       <r>   -4.1491    1.0000 </r>
       <r>   -3.8892    1.0000 </r>
       <r>   -3.5516    1.0000 </r>
       <r>   -3.4396    1.0000 </r>
       <r>   -3.3508    1.0000 </r>
       <r>   -3.2832    1.0000 </r>
       <r>   -3.0391    1.0000 </r>
       <r>   -2.8607    1.0000 </r>
       <r>   -2.5571    1.0000 </r>
       <r>   -2.5173    1.0000 </r>
       <r>   -2.4766    1.0000 </r>
       <r>   -2.3203    1.0000 </r>
       <r>   -2.2829    1.0000 </r>
       <r>   -2.1643    1.0000 </r>
       <r>   -2.1220    1.0000 </r>
       <r>   -2.0331    1.0000 </r>
       <r>   -1.8588    1.0000 </r>
       <r>   -1.7828    1.0000 </r>
       <r>   -1.7286    1.0000 </r>
       <r>   -1.6322    1.0000 </r>
       <r>   -1.5148    1.0000 </r>
       <r>   -1.4019    1.0000 </r>
       <r>   -1.2361    1.0000 </r>
       <r>   -1.1908    1.0000 </r>
       <r>   -1.1090    1.0000 </r>
       <r>   -1.0383    1.0000 </r>
       <r>   -0.7316    1.0000 </r>
       <r>   -0.3362    0.9723 </r>
       <r>   -0.1562    0.2642 </r>
       <r>    0.0662    0.0001 </r>
       <r>    0.7923    0.0000 </r>
       <r>    1.0568    0.0000 </r>
       <r>    1.2360    0.0000 </r>
       <r>    1.5667    0.0000 </r>
       <r>    1.6587    0.0000 </r>
       <r>    1.7181    0.0000 </r>
       <r>    1.9301    0.0000 </r>
       <r>    2.0998    0.0000 </r>
       <r>    2.2900    0.0000 </r>
       <r>    2.4114    0.0000 </r>
       <r>    2.5034    0.0000 </r>
       <r>    2.5295    0.0000 </r>
       <r>    2.8121    0.0000 </r>
      </set>
      <set comment="kpoint 9">
       <r>  -13.6356    1.0000 </r>
       <r>  -13.5624    1.0000 </r>
       <r>  -13.1068    1.0000 </r>
       <r>  -12.7853    1.0000 </r>
       <r>  -12.5899    1.0000 </r>
       <r>  -12.3106    1.0000 </r>
       <r>  -11.9260    1.0000 </r>
       <r>  -11.7489    1.0000 </r>
       <r>  -11.5894    1.0000 </r>
       <r>  -11.1759    1.0000 </r>
       <r>  -11.1074    1.0000 </r>
       <r>  -10.5370    1.0000 </r>
       <r>   -8.7294    1.0000 </r>
       <r>   -8.6168    1.0000 </r>
       <r>   -7.5025    1.0000 </r>
       <r>   -6.9352    1.0000 </r>
       <r>   -6.8339    1.0000 </r>
       <r>   -6.7078    1.0000 </r>
       <r>   -6.6544    1.0000 </r>
       <r>   -6.3402    1.0000 </r>
       <r>   -5.8491    1.0000 </r>
       <r>   -5.6288    1.0000 </r>
       <r>   -4.8460    1.0000 </r>
       <r>   -4.5865    1.0000 </r>
       <r>   -4.3322    1.0000 </r>
       <r>   -4.2075    1.0000 </r>
       <r>   -4.0040    1.0000 </r>
       <r>   -3.8015    1.0000 </r>
       <r>   -3.6828    1.0000 </r>
       <r>   -3.5361    1.0000 </r>
       <r>   -3.3063    1.0000 </r>
       <r>   -3.1790    1.0000 </r>
       <r>   -3.0586    1.0000 </r>
       <r>   -2.9131    1.0000 </r>
       <r>   -2.8295    1.0000 </r>
       <r>   -2.6853    1.0000 </r>
       <r>   -2.6393    1.0000 </r>
       <r>   -2.4504    1.0000 </r>
       <r>   -2.3209    1.0000 </r>
       <r>   -2.2570    1.0000 </r>
       <r>   -2.1737    1.0000 </r>
       <r>   -2.1481    1.0000 </r>
       <r>   -1.9951    1.0000 </r>
       <r>   -1.9183    1.0000 </r>
       <r>   -1.8305    1.0000 </r>
       <r>   -1.5579    1.0000 </r>
       <r>   -1.4079    1.0000 </r>
       <r>   -1.3046    1.0000 </r>
       <r>   -1.1551    1.0000 </r>
       <r>   -1.0643    1.0000 </r>
       <r>   -0.9550    1.0000 </r>
       <r>   -0.7572    1.0000 </r>
       <r>   -0.2036    0.5163 </r>
       <r>   -0.1240    0.1389 </r>
       <r>   -0.0302    0.0079 </r>
       <r>    1.0343    0.0000 </r>
       <r>    1.4522    0.0000 </r>
       <r>    1.6317    0.0000 </r>
       <r>    1.6928    0.0000 </r>
       <r>    1.7944    0.0000 </r>
       <r>    2.0546    0.0000 </r>
       <r>    2.2805    0.0000 </r>
       <r>    2.3548    0.0000 </r>
       <r>    2.4099    0.0000 </r>
       <r>    2.5002    0.0000 </r>
       <r>    2.6701    0.0000 </r>
       <r>    2.8107    0.0000 </r>
       <r>    2.8408    0.0000 </r>
      </set>
      <set comment="kpoint 10">
       <r>  -13.4424    1.0000 </r>
       <r>  -13.3661    1.0000 </r>
       <r>  -12.9701    1.0000 </r>
       <r>  -12.6511    1.0000 </r>
       <r>  -12.4236    1.0000 </r>
       <r>  -12.1458    1.0000 </r>
       <r>  -11.7282    1.0000 </r>
       <r>  -11.5745    1.0000 </r>
       <r>  -11.4499    1.0000 </r>
       <r>  -11.0509    1.0000 </r>
       <r>  -10.9664    1.0000 </r>
       <r>  -10.4011    1.0000 </r>
       <r>   -8.7944    1.0000 </r>
       <r>   -8.5796    1.0000 </r>
       <r>   -7.4698    1.0000 </r>
       <r>   -6.9921    1.0000 </r>
       <r>   -6.8510    1.0000 </r>
       <r>   -6.8108    1.0000 </r>
       <r>   -6.6446    1.0000 </r>
       <r>   -6.2856    1.0000 </r>
       <r>   -5.8036    1.0000 </r>
       <r>   -5.6138    1.0000 </r>
       <r>   -4.9954    1.0000 </r>
       <r>   -4.7081    1.0000 </r>
       <r>   -4.5356    1.0000 </r>
       <r>   -4.5018    1.0000 </r>
       <r>   -4.4346    1.0000 </r>
       <r>   -4.3287    1.0000 </r>
       <r>   -4.1285    1.0000 </r>
       <r>   -3.7977    1.0000 </r>
       <r>   -3.7171    1.0000 </r>
       <r>   -3.5771    1.0000 </r>
       <r>   -3.4904    1.0000 </r>
       <r>   -3.2742    1.0000 </r>
       <r>   -3.2316    1.0000 </r>
       <r>   -3.1122    1.0000 </r>
       <r>   -2.9745    1.0000 </r>
       <r>   -2.8562    1.0000 </r>
       <r>   -2.7625    1.0000 </r>
       <r>   -2.7383    1.0000 </r>
       <r>   -2.6248    1.0000 </r>
       <r>   -2.4650    1.0000 </r>
       <r>   -2.1633    1.0000 </r>
       <r>   -2.0692    1.0000 </r>
       <r>   -2.0194    1.0000 </r>
       <r>   -1.6483    1.0000 </r>
       <r>   -1.4310    1.0000 </r>
       <r>   -1.3356    1.0000 </r>
       <r>   -1.2828    1.0000 </r>
       <r>   -1.1023    1.0000 </r>
       <r>   -1.0368    1.0000 </r>
       <r>   -0.7876    1.0000 </r>
       <r>   -0.5445    1.0000 </r>
       <r>   -0.1921    0.4514 </r>
       <r>    0.2992    0.0000 </r>
       <r>    1.0739    0.0000 </r>
       <r>    1.5123    0.0000 </r>
       <r>    1.6374    0.0000 </r>
       <r>    1.9582    0.0000 </r>
       <r>    2.0233    0.0000 </r>
       <r>    2.1909    0.0000 </r>
       <r>    2.5816    0.0000 </r>
       <r>    2.6707    0.0000 </r>
       <r>    2.7439    0.0000 </r>
       <r>    2.8896    0.0000 </r>
       <r>    2.9541    0.0000 </r>
       <r>    3.0559    0.0000 </r>
       <r>    3.1239    0.0000 </r>
      </set>
      <set comment="kpoint 11">
       <r>  -13.1271    1.0000 </r>
       <r>  -13.0549    1.0000 </r>
       <r>  -12.7183    1.0000 </r>
       <r>  -12.4231    1.0000 </r>
       <r>  -12.1560    1.0000 </r>
       <r>  -11.8804    1.0000 </r>
       <r>  -11.4520    1.0000 </r>
       <r>  -11.3232    1.0000 </r>
       <r>  -11.2280    1.0000 </r>
       <r>  -10.8494    1.0000 </r>
       <r>  -10.7493    1.0000 </r>
       <r>  -10.2072    1.0000 </r>
       <r>   -8.9258    1.0000 </r>
       <r>   -8.5036    1.0000 </r>
       <r>   -7.6436    1.0000 </r>
       <r>   -7.5516    1.0000 </r>
       <r>   -6.9100    1.0000 </r>
       <r>   -6.8519    1.0000 </r>
       <r>   -6.7930    1.0000 </r>
       <r>   -6.3069    1.0000 </r>
       <r>   -5.9713    1.0000 </r>
       <r>   -5.6602    1.0000 </r>
       <r>   -5.3656    1.0000 </r>
       <r>   -5.1821    1.0000 </r>
       <r>   -5.0183    1.0000 </r>
       <r>   -4.8254    1.0000 </r>
       <r>   -4.7670    1.0000 </r>
       <r>   -4.7074    1.0000 </r>
       <r>   -4.4419    1.0000 </r>
       <r>   -4.2888    1.0000 </r>
       <r>   -4.1816    1.0000 </r>
       <r>   -4.1261    1.0000 </r>
       <r>   -3.8871    1.0000 </r>
       <r>   -3.6710    1.0000 </r>
       <r>   -3.4030    1.0000 </r>
       <r>   -3.3413    1.0000 </r>
       <r>   -3.2444    1.0000 </r>
       <r>   -3.1876    1.0000 </r>
       <r>   -2.8558    1.0000 </r>
       <r>   -2.7358    1.0000 </r>
       <r>   -2.6822    1.0000 </r>
       <r>   -2.6235    1.0000 </r>
       <r>   -2.3068    1.0000 </r>
       <r>   -2.1378    1.0000 </r>
       <r>   -2.0442    1.0000 </r>
       <r>   -1.9417    1.0000 </r>
       <r>   -1.9187    1.0000 </r>
       <r>   -1.5427    1.0000 </r>
       <r>   -1.3707    1.0000 </r>
       <r>   -1.2490    1.0000 </r>
       <r>   -1.1568    1.0000 </r>
       <r>   -0.8211    1.0000 </r>
       <r>   -0.6276    1.0000 </r>
       <r>   -0.3824    0.9949 </r>
       <r>    0.0620    0.0001 </r>
       <r>    0.6180    0.0000 </r>
       <r>    1.3045    0.0000 </r>
       <r>    1.4157    0.0000 </r>
       <r>    1.4698    0.0000 </r>
       <r>    1.6743    0.0000 </r>
       <r>    2.0491    0.0000 </r>
       <r>    2.2941    0.0000 </r>
       <r>    2.4213    0.0000 </r>
       <r>    2.5659    0.0000 </r>
       <r>    2.8751    0.0000 </r>
       <r>    3.0392    0.0000 </r>
       <r>    3.0969    0.0000 </r>
       <r>    3.1968    0.0000 </r>
      </set>
      <set comment="kpoint 12">
       <r>  -12.6949    1.0000 </r>
       <r>  -12.6378    1.0000 </r>
       <r>  -12.3587    1.0000 </r>
       <r>  -12.1264    1.0000 </r>
       <r>  -11.8046    1.0000 </r>
       <r>  -11.5311    1.0000 </r>
       <r>  -11.1386    1.0000 </r>
       <r>  -11.0394    1.0000 </r>
       <r>  -10.9642    1.0000 </r>
       <r>  -10.5875    1.0000 </r>
       <r>  -10.5440    1.0000 </r>
       <r>  -10.0099    1.0000 </r>
       <r>   -9.1253    1.0000 </r>
       <r>   -8.7035    1.0000 </r>
       <r>   -8.1698    1.0000 </r>
       <r>   -7.8658    1.0000 </r>
       <r>   -7.2844    1.0000 </r>
       <r>   -7.2587    1.0000 </r>
       <r>   -7.1172    1.0000 </r>
       <r>   -6.5091    1.0000 </r>
       <r>   -6.3377    1.0000 </r>
       <r>   -6.1042    1.0000 </r>
       <r>   -6.0633    1.0000 </r>
       <r>   -5.5325    1.0000 </r>
       <r>   -5.3569    1.0000 </r>
       <r>   -5.0933    1.0000 </r>
       <r>   -4.8817    1.0000 </r>
       <r>   -4.7119    1.0000 </r>
       <r>   -4.5786    1.0000 </r>
       <r>   -4.5628    1.0000 </r>
       <r>   -4.4597    1.0000 </r>
       <r>   -4.1943    1.0000 </r>
       <r>   -4.1497    1.0000 </r>
       <r>   -3.7271    1.0000 </r>
       <r>   -3.4931    1.0000 </r>
       <r>   -3.2514    1.0000 </r>
       <r>   -3.1807    1.0000 </r>
       <r>   -3.1310    1.0000 </r>
       <r>   -3.0311    1.0000 </r>
       <r>   -2.9947    1.0000 </r>
       <r>   -2.7146    1.0000 </r>
       <r>   -2.6101    1.0000 </r>
       <r>   -2.4902    1.0000 </r>
       <r>   -2.4326    1.0000 </r>
       <r>   -2.3139    1.0000 </r>
       <r>   -2.0969    1.0000 </r>
       <r>   -2.0223    1.0000 </r>
       <r>   -1.8918    1.0000 </r>
       <r>   -1.5956    1.0000 </r>
       <r>   -1.4496    1.0000 </r>
       <r>   -1.4226    1.0000 </r>
       <r>   -0.8563    1.0000 </r>
       <r>   -0.7264    1.0000 </r>
       <r>   -0.5567    1.0000 </r>
       <r>   -0.2174    0.5933 </r>
       <r>    0.1699    0.0000 </r>
       <r>    1.0824    0.0000 </r>
       <r>    1.1441    0.0000 </r>
       <r>    1.1899    0.0000 </r>
       <r>    1.3046    0.0000 </r>
       <r>    1.8625    0.0000 </r>
       <r>    2.0326    0.0000 </r>
       <r>    2.1512    0.0000 </r>
       <r>    2.2994    0.0000 </r>
       <r>    2.4628    0.0000 </r>
       <r>    2.7482    0.0000 </r>
       <r>    2.8486    0.0000 </r>
       <r>    2.9812    0.0000 </r>
      </set>
      <set comment="kpoint 13">
       <r>  -12.1614    1.0000 </r>
       <r>  -12.1313    1.0000 </r>
       <r>  -11.9081    1.0000 </r>
       <r>  -11.8128    1.0000 </r>
       <r>  -11.4094    1.0000 </r>
       <r>  -11.1379    1.0000 </r>
       <r>  -10.8792    1.0000 </r>
       <r>  -10.8302    1.0000 </r>
       <r>  -10.7542    1.0000 </r>
       <r>  -10.6210    1.0000 </r>
       <r>  -10.2987    1.0000 </r>
       <r>   -9.9423    1.0000 </r>
       <r>   -9.3820    1.0000 </r>
       <r>   -9.1152    1.0000 </r>
       <r>   -8.2708    1.0000 </r>
       <r>   -8.2123    1.0000 </r>
       <r>   -7.9310    1.0000 </r>
       <r>   -7.7075    1.0000 </r>
       <r>   -7.5142    1.0000 </r>
       <r>   -6.9656    1.0000 </r>
       <r>   -6.8534    1.0000 </r>
       <r>   -6.8084    1.0000 </r>
       <r>   -6.5465    1.0000 </r>
       <r>   -5.9003    1.0000 </r>
       <r>   -5.4955    1.0000 </r>
       <r>   -4.9402    1.0000 </r>
       <r>   -4.7517    1.0000 </r>
       <r>   -4.6827    1.0000 </r>
       <r>   -4.5391    1.0000 </r>
       <r>   -4.4400    1.0000 </r>
       <r>   -4.2679    1.0000 </r>
       <r>   -4.0153    1.0000 </r>
       <r>   -3.8967    1.0000 </r>
       <r>   -3.6513    1.0000 </r>
       <r>   -3.5135    1.0000 </r>
       <r>   -3.5009    1.0000 </r>
       <r>   -3.4311    1.0000 </r>
       <r>   -3.2763    1.0000 </r>
       <r>   -3.2143    1.0000 </r>
       <r>   -3.0786    1.0000 </r>
       <r>   -2.9435    1.0000 </r>
       <r>   -2.8253    1.0000 </r>
       <r>   -2.6496    1.0000 </r>
       <r>   -2.5172    1.0000 </r>
       <r>   -2.4127    1.0000 </r>
       <r>   -2.2205    1.0000 </r>
       <r>   -2.1529    1.0000 </r>
       <r>   -1.9989    1.0000 </r>
       <r>   -1.7988    1.0000 </r>
       <r>   -1.7244    1.0000 </r>
       <r>   -1.5896    1.0000 </r>
       <r>   -1.2819    1.0000 </r>
       <r>   -0.7351    1.0000 </r>
       <r>   -0.5527    1.0000 </r>
       <r>   -0.3690    0.9913 </r>
       <r>    0.0324    0.0005 </r>
       <r>    0.9442    0.0000 </r>
       <r>    1.0619    0.0000 </r>
       <r>    1.1698    0.0000 </r>
       <r>    1.1911    0.0000 </r>
       <r>    1.6242    0.0000 </r>
       <r>    1.6962    0.0000 </r>
       <r>    1.9143    0.0000 </r>
       <r>    2.0023    0.0000 </r>
       <r>    2.4406    0.0000 </r>
       <r>    2.4965    0.0000 </r>
       <r>    2.5887    0.0000 </r>
       <r>    2.7853    0.0000 </r>
      </set>
      <set comment="kpoint 14">
       <r>  -11.6479    1.0000 </r>
       <r>  -11.5901    1.0000 </r>
       <r>  -11.4904    1.0000 </r>
       <r>  -11.4125    1.0000 </r>
       <r>  -11.1218    1.0000 </r>
       <r>  -11.0185    1.0000 </r>
       <r>  -10.9705    1.0000 </r>
       <r>  -10.8510    1.0000 </r>
       <r>  -10.7586    1.0000 </r>
       <r>  -10.7354    1.0000 </r>
       <r>  -10.2332    1.0000 </r>
       <r>   -9.9986    1.0000 </r>
       <r>   -9.7404    1.0000 </r>
       <r>   -8.7072    1.0000 </r>
       <r>   -8.5531    1.0000 </r>
       <r>   -8.4867    1.0000 </r>
       <r>   -8.3879    1.0000 </r>
       <r>   -7.6807    1.0000 </r>
       <r>   -7.6729    1.0000 </r>
       <r>   -7.4717    1.0000 </r>
       <r>   -7.4027    1.0000 </r>
       <r>   -7.2864    1.0000 </r>
       <r>   -6.9226    1.0000 </r>
       <r>   -6.1208    1.0000 </r>
       <r>   -5.1714    1.0000 </r>
       <r>   -4.6352    1.0000 </r>
       <r>   -4.6020    1.0000 </r>
       <r>   -4.4895    1.0000 </r>
       <r>   -4.3619    1.0000 </r>
       <r>   -4.3037    1.0000 </r>
       <r>   -4.2494    1.0000 </r>
       <r>   -4.0898    1.0000 </r>
       <r>   -3.9176    1.0000 </r>
       <r>   -3.8084    1.0000 </r>
       <r>   -3.6797    1.0000 </r>
       <r>   -3.5906    1.0000 </r>
       <r>   -3.4806    1.0000 </r>
       <r>   -3.4098    1.0000 </r>
       <r>   -3.3398    1.0000 </r>
       <r>   -3.1481    1.0000 </r>
       <r>   -3.0507    1.0000 </r>
       <r>   -2.8168    1.0000 </r>
       <r>   -2.7909    1.0000 </r>
       <r>   -2.7471    1.0000 </r>
       <r>   -2.3992    1.0000 </r>
       <r>   -2.2788    1.0000 </r>
       <r>   -2.2006    1.0000 </r>
       <r>   -2.1329    1.0000 </r>
       <r>   -1.8962    1.0000 </r>
       <r>   -1.7810    1.0000 </r>
       <r>   -1.7094    1.0000 </r>
       <r>   -1.5297    1.0000 </r>
       <r>   -0.7639    1.0000 </r>
       <r>   -0.5550    1.0000 </r>
       <r>   -0.2737    0.8489 </r>
       <r>   -0.0354    0.0097 </r>
       <r>    0.9065    0.0000 </r>
       <r>    1.2604    0.0000 </r>
       <r>    1.2818    0.0000 </r>
       <r>    1.3567    0.0000 </r>
       <r>    1.4197    0.0000 </r>
       <r>    1.5004    0.0000 </r>
       <r>    1.6599    0.0000 </r>
       <r>    1.9757    0.0000 </r>
       <r>    2.2939    0.0000 </r>
       <r>    2.3248    0.0000 </r>
       <r>    2.4779    0.0000 </r>
       <r>    2.5449    0.0000 </r>
      </set>
      <set comment="kpoint 15">
       <r>  -11.7413    1.0000 </r>
       <r>  -11.6890    1.0000 </r>
       <r>  -11.3425    1.0000 </r>
       <r>  -11.2211    1.0000 </r>
       <r>  -11.0969    1.0000 </r>
       <r>  -10.9706    1.0000 </r>
       <r>  -10.9587    1.0000 </r>
       <r>  -10.9127    1.0000 </r>
       <r>  -10.8538    1.0000 </r>
       <r>  -10.7664    1.0000 </r>
       <r>  -10.3268    1.0000 </r>
       <r>   -9.9915    1.0000 </r>
       <r>   -9.7519    1.0000 </r>
       <r>   -8.9089    1.0000 </r>
       <r>   -8.5908    1.0000 </r>
       <r>   -8.3375    1.0000 </r>
       <r>   -8.0978    1.0000 </r>
       <r>   -7.7614    1.0000 </r>
       <r>   -7.6630    1.0000 </r>
       <r>   -7.4327    1.0000 </r>
       <r>   -7.3703    1.0000 </r>
       <r>   -7.3543    1.0000 </r>
       <r>   -6.9884    1.0000 </r>
       <r>   -6.0361    1.0000 </r>
       <r>   -4.9112    1.0000 </r>
       <r>   -4.8912    1.0000 </r>
       <r>   -4.7315    1.0000 </r>
       <r>   -4.5273    1.0000 </r>
       <r>   -4.3237    1.0000 </r>
       <r>   -4.2040    1.0000 </r>
       <r>   -4.1577    1.0000 </r>
       <r>   -4.1297    1.0000 </r>
       <r>   -4.0374    1.0000 </r>
       <r>   -3.9247    1.0000 </r>
       <r>   -3.8475    1.0000 </r>
       <r>   -3.7787    1.0000 </r>
       <r>   -3.5187    1.0000 </r>
       <r>   -3.4921    1.0000 </r>
       <r>   -3.1642    1.0000 </r>
       <r>   -2.9491    1.0000 </r>
       <r>   -2.9017    1.0000 </r>
       <r>   -2.8248    1.0000 </r>
       <r>   -2.7941    1.0000 </r>
       <r>   -2.5412    1.0000 </r>
       <r>   -2.4358    1.0000 </r>
       <r>   -2.3440    1.0000 </r>
       <r>   -2.3104    1.0000 </r>
       <r>   -2.1802    1.0000 </r>
       <r>   -1.9181    1.0000 </r>
       <r>   -1.7432    1.0000 </r>
       <r>   -1.6750    1.0000 </r>
       <r>   -1.5758    1.0000 </r>
       <r>   -0.7509    1.0000 </r>
       <r>   -0.4137    0.9987 </r>
       <r>   -0.2604    0.8004 </r>
       <r>    0.1091    0.0000 </r>
       <r>    0.8560    0.0000 </r>
       <r>    1.1559    0.0000 </r>
       <r>    1.2636    0.0000 </r>
       <r>    1.4951    0.0000 </r>
       <r>    1.6058    0.0000 </r>
       <r>    1.6312    0.0000 </r>
       <r>    1.8036    0.0000 </r>
       <r>    2.0780    0.0000 </r>
       <r>    2.2146    0.0000 </r>
       <r>    2.3274    0.0000 </r>
       <r>    2.4130    0.0000 </r>
       <r>    2.4696    0.0000 </r>
      </set>
      <set comment="kpoint 16">
       <r>  -12.2629    1.0000 </r>
       <r>  -12.2337    1.0000 </r>
       <r>  -11.6354    1.0000 </r>
       <r>  -11.6041    1.0000 </r>
       <r>  -11.4098    1.0000 </r>
       <r>  -11.1529    1.0000 </r>
       <r>  -11.0855    1.0000 </r>
       <r>  -10.9788    1.0000 </r>
       <r>  -10.7791    1.0000 </r>
       <r>  -10.6041    1.0000 </r>
       <r>  -10.2572    1.0000 </r>
       <r>   -9.9867    1.0000 </r>
       <r>   -9.4582    1.0000 </r>
       <r>   -8.8955    1.0000 </r>
       <r>   -8.6481    1.0000 </r>
       <r>   -7.9775    1.0000 </r>
       <r>   -7.6350    1.0000 </r>
       <r>   -7.5935    1.0000 </r>
       <r>   -7.4835    1.0000 </r>
       <r>   -7.1181    1.0000 </r>
       <r>   -6.9555    1.0000 </r>
       <r>   -6.8232    1.0000 </r>
       <r>   -6.5822    1.0000 </r>
       <r>   -5.7414    1.0000 </r>
       <r>   -5.2142    1.0000 </r>
       <r>   -5.1766    1.0000 </r>
       <r>   -5.0050    1.0000 </r>
       <r>   -4.5821    1.0000 </r>
       <r>   -4.4960    1.0000 </r>
       <r>   -4.3784    1.0000 </r>
       <r>   -4.2918    1.0000 </r>
       <r>   -4.2305    1.0000 </r>
       <r>   -3.9153    1.0000 </r>
       <r>   -3.8741    1.0000 </r>
       <r>   -3.7643    1.0000 </r>
       <r>   -3.6409    1.0000 </r>
       <r>   -3.5559    1.0000 </r>
       <r>   -3.3266    1.0000 </r>
       <r>   -3.0241    1.0000 </r>
       <r>   -2.8908    1.0000 </r>
       <r>   -2.8601    1.0000 </r>
       <r>   -2.6737    1.0000 </r>
       <r>   -2.5595    1.0000 </r>
       <r>   -2.4526    1.0000 </r>
       <r>   -2.3785    1.0000 </r>
       <r>   -2.2634    1.0000 </r>
       <r>   -2.1155    1.0000 </r>
       <r>   -2.0827    1.0000 </r>
       <r>   -1.9536    1.0000 </r>
       <r>   -1.7193    1.0000 </r>
       <r>   -1.5278    1.0000 </r>
       <r>   -1.3029    1.0000 </r>
       <r>   -0.7483    1.0000 </r>
       <r>   -0.4045    0.9980 </r>
       <r>   -0.2093    0.5479 </r>
       <r>    0.5184    0.0000 </r>
       <r>    0.7236    0.0000 </r>
       <r>    1.1264    0.0000 </r>
       <r>    1.2538    0.0000 </r>
       <r>    1.6247    0.0000 </r>
       <r>    1.7437    0.0000 </r>
       <r>    1.9621    0.0000 </r>
       <r>    2.0695    0.0000 </r>
       <r>    2.1640    0.0000 </r>
       <r>    2.2520    0.0000 </r>
       <r>    2.4273    0.0000 </r>
       <r>    2.4644    0.0000 </r>
       <r>    2.6248    0.0000 </r>
      </set>
      <set comment="kpoint 17">
       <r>  -12.7614    1.0000 </r>
       <r>  -12.7368    1.0000 </r>
       <r>  -12.0981    1.0000 </r>
       <r>  -11.9390    1.0000 </r>
       <r>  -11.8096    1.0000 </r>
       <r>  -11.5419    1.0000 </r>
       <r>  -11.3956    1.0000 </r>
       <r>  -11.2506    1.0000 </r>
       <r>  -10.9240    1.0000 </r>
       <r>  -10.5734    1.0000 </r>
       <r>  -10.4988    1.0000 </r>
       <r>  -10.1017    1.0000 </r>
       <r>   -8.7119    1.0000 </r>
       <r>   -8.6997    1.0000 </r>
       <r>   -8.3438    1.0000 </r>
       <r>   -7.7594    1.0000 </r>
       <r>   -7.3653    1.0000 </r>
       <r>   -7.1571    1.0000 </r>
       <r>   -7.0250    1.0000 </r>
       <r>   -6.8321    1.0000 </r>
       <r>   -6.3026    1.0000 </r>
       <r>   -6.1308    1.0000 </r>
       <r>   -6.0712    1.0000 </r>
       <r>   -5.3338    1.0000 </r>
       <r>   -5.2878    1.0000 </r>
       <r>   -5.0700    1.0000 </r>
       <r>   -5.0306    1.0000 </r>
       <r>   -4.8021    1.0000 </r>
       <r>   -4.6048    1.0000 </r>
       <r>   -4.4882    1.0000 </r>
       <r>   -4.4321    1.0000 </r>
       <r>   -4.3642    1.0000 </r>
       <r>   -4.1303    1.0000 </r>
       <r>   -3.7416    1.0000 </r>
       <r>   -3.6075    1.0000 </r>
       <r>   -3.3148    1.0000 </r>
       <r>   -3.2276    1.0000 </r>
       <r>   -3.1857    1.0000 </r>
       <r>   -3.1117    1.0000 </r>
       <r>   -2.9554    1.0000 </r>
       <r>   -2.7881    1.0000 </r>
       <r>   -2.6759    1.0000 </r>
       <r>   -2.4006    1.0000 </r>
       <r>   -2.2194    1.0000 </r>
       <r>   -2.1696    1.0000 </r>
       <r>   -2.0240    1.0000 </r>
       <r>   -1.9995    1.0000 </r>
       <r>   -1.8687    1.0000 </r>
       <r>   -1.8338    1.0000 </r>
       <r>   -1.4589    1.0000 </r>
       <r>   -1.3819    1.0000 </r>
       <r>   -0.9377    1.0000 </r>
       <r>   -0.7112    1.0000 </r>
       <r>   -0.4750    0.9999 </r>
       <r>   -0.0881    0.0556 </r>
       <r>    0.5516    0.0000 </r>
       <r>    1.1760    0.0000 </r>
       <r>    1.2537    0.0000 </r>
       <r>    1.4836    0.0000 </r>
       <r>    1.7609    0.0000 </r>
       <r>    1.8356    0.0000 </r>
       <r>    2.0909    0.0000 </r>
       <r>    2.1923    0.0000 </r>
       <r>    2.2520    0.0000 </r>
       <r>    2.5095    0.0000 </r>
       <r>    2.5905    0.0000 </r>
       <r>    2.8085    0.0000 </r>
       <r>    2.8861    0.0000 </r>
      </set>
      <set comment="kpoint 18">
       <r>  -13.1688    1.0000 </r>
       <r>  -13.1398    1.0000 </r>
       <r>  -12.5028    1.0000 </r>
       <r>  -12.2775    1.0000 </r>
       <r>  -12.1616    1.0000 </r>
       <r>  -11.8880    1.0000 </r>
       <r>  -11.6888    1.0000 </r>
       <r>  -11.5056    1.0000 </r>
       <r>  -11.1810    1.0000 </r>
       <r>  -10.7785    1.0000 </r>
       <r>  -10.7508    1.0000 </r>
       <r>  -10.2939    1.0000 </r>
       <r>   -8.5544    1.0000 </r>
       <r>   -8.1275    1.0000 </r>
       <r>   -7.9399    1.0000 </r>
       <r>   -7.6594    1.0000 </r>
       <r>   -7.1067    1.0000 </r>
       <r>   -6.8432    1.0000 </r>
       <r>   -6.7928    1.0000 </r>
       <r>   -6.5199    1.0000 </r>
       <r>   -5.8897    1.0000 </r>
       <r>   -5.7448    1.0000 </r>
       <r>   -5.4872    1.0000 </r>
       <r>   -5.0224    1.0000 </r>
       <r>   -4.9653    1.0000 </r>
       <r>   -4.7533    1.0000 </r>
       <r>   -4.6717    1.0000 </r>
       <r>   -4.5658    1.0000 </r>
       <r>   -4.4800    1.0000 </r>
       <r>   -4.3448    1.0000 </r>
       <r>   -4.2450    1.0000 </r>
       <r>   -4.0198    1.0000 </r>
       <r>   -3.9200    1.0000 </r>
       <r>   -3.6357    1.0000 </r>
       <r>   -3.6011    1.0000 </r>
       <r>   -3.5220    1.0000 </r>
       <r>   -3.2130    1.0000 </r>
       <r>   -3.1267    1.0000 </r>
       <r>   -2.8393    1.0000 </r>
       <r>   -2.7148    1.0000 </r>
       <r>   -2.6801    1.0000 </r>
       <r>   -2.5816    1.0000 </r>
       <r>   -2.4140    1.0000 </r>
       <r>   -2.0502    1.0000 </r>
       <r>   -1.9722    1.0000 </r>
       <r>   -1.9013    1.0000 </r>
       <r>   -1.7814    1.0000 </r>
       <r>   -1.6172    1.0000 </r>
       <r>   -1.5233    1.0000 </r>
       <r>   -1.2582    1.0000 </r>
       <r>   -1.1452    1.0000 </r>
       <r>   -0.8767    1.0000 </r>
       <r>   -0.5078    1.0000 </r>
       <r>   -0.4191    0.9990 </r>
       <r>    0.1206    0.0000 </r>
       <r>    0.6960    0.0000 </r>
       <r>    1.3914    0.0000 </r>
       <r>    1.6738    0.0000 </r>
       <r>    1.8258    0.0000 </r>
       <r>    1.8862    0.0000 </r>
       <r>    2.0828    0.0000 </r>
       <r>    2.2120    0.0000 </r>
       <r>    2.3635    0.0000 </r>
       <r>    2.5640    0.0000 </r>
       <r>    2.7673    0.0000 </r>
       <r>    2.8071    0.0000 </r>
       <r>    3.0260    0.0000 </r>
[...]
       <r>    2.7297    0.0000 </r>
      </set>
      <set comment="kpoint 54">
       <r>  -11.7073    1.0000 </r>
       <r>  -11.6451    1.0000 </r>
       <r>  -11.4027    1.0000 </r>
       <r>  -11.3193    1.0000 </r>
       <r>  -11.1132    1.0000 </r>
       <r>  -11.0039    1.0000 </r>
       <r>  -10.9727    1.0000 </r>
       <r>  -10.8743    1.0000 </r>
       <r>  -10.7762    1.0000 </r>
       <r>  -10.7638    1.0000 </r>
       <r>  -10.2764    1.0000 </r>
       <r>   -9.9951    1.0000 </r>
       <r>   -9.7438    1.0000 </r>
       <r>   -8.8171    1.0000 </r>
       <r>   -8.5974    1.0000 </r>
       <r>   -8.3688    1.0000 </r>
       <r>   -8.2714    1.0000 </r>
       <r>   -7.7183    1.0000 </r>
       <r>   -7.6771    1.0000 </r>
       <r>   -7.4462    1.0000 </r>
       <r>   -7.3836    1.0000 </r>
       <r>   -7.3175    1.0000 </r>
       <r>   -6.9365    1.0000 </r>
       <r>   -6.0641    1.0000 </r>
       <r>   -5.0996    1.0000 </r>
       <r>   -4.8294    1.0000 </r>
       <r>   -4.6295    1.0000 </r>
       <r>   -4.4894    1.0000 </r>
       <r>   -4.4413    1.0000 </r>
       <r>   -4.2538    1.0000 </r>
       <r>   -4.1311    1.0000 </r>
       <r>   -4.0728    1.0000 </r>
       <r>   -3.9246    1.0000 </r>
       <r>   -3.9084    1.0000 </r>
       <r>   -3.7279    1.0000 </r>
       <r>   -3.6012    1.0000 </r>
       <r>   -3.5365    1.0000 </r>
       <r>   -3.4065    1.0000 </r>
       <r>   -3.2531    1.0000 </r>
       <r>   -3.1712    1.0000 </r>
       <r>   -3.0340    1.0000 </r>
       <r>   -2.8472    1.0000 </r>
       <r>   -2.8148    1.0000 </r>
       <r>   -2.5313    1.0000 </r>
       <r>   -2.4029    1.0000 </r>
       <r>   -2.3081    1.0000 </r>
       <r>   -2.2186    1.0000 </r>
       <r>   -2.1843    1.0000 </r>
       <r>   -1.9157    1.0000 </r>
       <r>   -1.7704    1.0000 </r>
       <r>   -1.6896    1.0000 </r>
       <r>   -1.5329    1.0000 </r>
       <r>   -0.7394    1.0000 </r>
       <r>   -0.5373    1.0000 </r>
       <r>   -0.2376    0.6987 </r>
       <r>    0.1203    0.0000 </r>
       <r>    0.6780    0.0000 </r>
       <r>    1.1976    0.0000 </r>
       <r>    1.3286    0.0000 </r>
       <r>    1.4403    0.0000 </r>
       <r>    1.4755    0.0000 </r>
       <r>    1.6128    0.0000 </r>
       <r>    1.7303    0.0000 </r>
       <r>    1.9048    0.0000 </r>
       <r>    2.1990    0.0000 </r>
       <r>    2.2935    0.0000 </r>
       <r>    2.4846    0.0000 </r>
       <r>    2.6019    0.0000 </r>
      </set>
     </set>
    </set>
   </array>
  </eigenvalues>
  <separator name="orbital magnetization" >
   <v name="MAGDIPOLOUT">      0.00000000      0.00000000      0.00000000</v>
  </separator>
  <dos>
   <i name="efermi">     -0.20074493 </i>
   <total>
    <array>
     <dimension dim="1">gridpoints</dimension>
     <dimension dim="2">spin</dimension>
     <field>energy</field>
     <field>total</field>
     <field>integrated</field>
     <set>
      <set comment="spin 1">
       <r>   -14.7284     0.0000     0.0000 </r>
       <r>   -14.6653     0.0000     0.0000 </r>
       <r>   -14.6021     0.0000     0.0000 </r>
       <r>   -14.5390     0.0000     0.0000 </r>
       <r>   -14.4758     0.0000     0.0000 </r>
       <r>   -14.4127     0.0000     0.0000 </r>
       <r>   -14.3495     0.0000     0.0000 </r>
       <r>   -14.2864     0.0000     0.0000 </r>
       <r>   -14.2232     0.0000     0.0000 </r>
       <r>   -14.1600     0.0000     0.0000 </r>
       <r>   -14.0969     0.0000     0.0000 </r>
       <r>   -14.0337     0.0000     0.0000 </r>
       <r>   -13.9706     0.0003     0.0000 </r>
       <r>   -13.9074     0.0074     0.0005 </r>
       <r>   -13.8443     0.0843     0.0058 </r>
       <r>   -13.7811     0.5104     0.0381 </r>
       <r>   -13.7180     1.7210     0.1467 </r>
       <r>   -13.6548     3.3671     0.3594 </r>
       <r>   -13.5917     4.0597     0.6158 </r>
       <r>   -13.5285     3.6912     0.8489 </r>
       <r>   -13.4654     3.5752     1.0746 </r>
       <r>   -13.4022     3.4230     1.2908 </r>
       <r>   -13.3391     2.5919     1.4545 </r>
       <r>   -13.2759     1.9178     1.5756 </r>
       <r>   -13.2128     2.2344     1.7167 </r>
       <r>   -13.1496     3.4961     1.9375 </r>
       <r>   -13.0865     4.3267     2.2107 </r>
       <r>   -13.0233     3.8135     2.4516 </r>
       <r>   -12.9602     2.8092     2.6290 </r>
       <r>   -12.8970     2.4019     2.7806 </r>
       <r>   -12.8339     3.1209     2.9777 </r>
       <r>   -12.7707     5.0099     3.2941 </r>
       <r>   -12.7076     6.9950     3.7359 </r>
       <r>   -12.6444     7.3895     4.2025 </r>
       <r>   -12.5813     6.1703     4.5922 </r>
       <r>   -12.5181     4.8218     4.8967 </r>
       <r>   -12.4550     4.6009     5.1872 </r>
       <r>   -12.3918     5.2581     5.5193 </r>
       <r>   -12.3287     5.9285     5.8937 </r>
       <r>   -12.2655     6.6411     6.3131 </r>
       <r>   -12.2024     7.7946     6.8053 </r>
       <r>   -12.1392     8.5776     7.3470 </r>
       <r>   -12.0760     7.1285     7.7972 </r>
       <r>   -12.0129     4.9984     8.1128 </r>
       <r>   -11.9497     4.8689     8.4203 </r>
       <r>   -11.8866     6.2319     8.8139 </r>
       <r>   -11.8234     7.7008     9.3002 </r>
       <r>   -11.7603     8.9479     9.8653 </r>
       <r>   -11.6971     9.9762    10.4953 </r>
       <r>   -11.6340    10.2154    11.1404 </r>
       <r>   -11.5708     9.5474    11.7433 </r>
       <r>   -11.5077     8.8489    12.3021 </r>
       <r>   -11.4445     8.6746    12.8500 </r>
       <r>   -11.3814     8.4215    13.3818 </r>
       <r>   -11.3182     7.2618    13.8404 </r>
       <r>   -11.2551     6.9511    14.2794 </r>
       <r>   -11.1919     9.1820    14.8592 </r>
       <r>   -11.1288    11.8321    15.6064 </r>
       <r>   -11.0656    12.2524    16.3802 </r>
       <r>   -11.0025    11.9815    17.1368 </r>
       <r>   -10.9393    12.1720    17.9055 </r>
       <r>   -10.8762    11.2451    18.6157 </r>
       <r>   -10.8130    10.2562    19.2634 </r>
       <r>   -10.7499     9.7588    19.8796 </r>
       <r>   -10.6867     7.9194    20.3798 </r>
       <r>   -10.6236     6.5802    20.7953 </r>
       <r>   -10.5604     7.1017    21.2438 </r>
       <r>   -10.4973     6.5891    21.6599 </r>
       <r>   -10.4341     4.5540    21.9475 </r>
       <r>   -10.3710     3.4326    22.1643 </r>
       <r>   -10.3078     4.1641    22.4272 </r>
       <r>   -10.2447     4.8230    22.7318 </r>
       <r>   -10.1815     3.8001    22.9718 </r>
       <r>   -10.1184     2.5814    23.1348 </r>
       <r>   -10.0552     2.9465    23.3209 </r>
       <r>    -9.9920     4.1589    23.5835 </r>
       <r>    -9.9289     3.9277    23.8316 </r>
       <r>    -9.8657     2.2377    23.9729 </r>
       <r>    -9.8026     1.3866    24.0605 </r>
       <r>    -9.7394     1.6685    24.1658 </r>
       <r>    -9.6763     1.4658    24.2584 </r>
       <r>    -9.6131     0.6643    24.3003 </r>
       <r>    -9.5500     0.3309    24.3212 </r>
       <r>    -9.4868     0.7483    24.3685 </r>
       <r>    -9.4237     1.4137    24.4578 </r>
       <r>    -9.3605     1.4458    24.5491 </r>
       <r>    -9.2974     0.8052    24.5999 </r>
       <r>    -9.2342     0.3661    24.6230 </r>
       <r>    -9.1711     0.6462    24.6639 </r>
       <r>    -9.1079     1.4110    24.7530 </r>
       <r>    -9.0448     1.9434    24.8757 </r>
       <r>    -8.9816     2.3430    25.0237 </r>
       <r>    -8.9185     3.3427    25.2348 </r>
       <r>    -8.8553     4.3871    25.5118 </r>
       <r>    -8.7922     4.7489    25.8117 </r>
       <r>    -8.7290     5.0800    26.1325 </r>
       <r>    -8.6659     5.8888    26.5044 </r>
       <r>    -8.6027     6.6641    26.9253 </r>
       <r>    -8.5396     6.6927    27.3479 </r>
       <r>    -8.4764     5.6218    27.7029 </r>
       <r>    -8.4133     4.4387    27.9832 </r>
       <r>    -8.3501     4.2478    28.2515 </r>
       <r>    -8.2870     4.7331    28.5504 </r>
       <r>    -8.2238     5.2444    28.8816 </r>
       <r>    -8.1607     5.2287    29.2118 </r>
       <r>    -8.0975     4.5308    29.4979 </r>
       <r>    -8.0344     3.7610    29.7354 </r>
       <r>    -7.9712     3.6660    29.9669 </r>
       <r>    -7.9080     3.7261    30.2023 </r>
       <r>    -7.8449     3.3209    30.4120 </r>
       <r>    -7.7817     3.8944    30.6579 </r>
       <r>    -7.7186     6.1312    31.0451 </r>
       <r>    -7.6554     7.9156    31.5450 </r>
       <r>    -7.5923     7.8151    32.0385 </r>
       <r>    -7.5291     7.4036    32.5061 </r>
       <r>    -7.4660     7.6493    32.9891 </r>
       <r>    -7.4028     7.7724    33.4800 </r>
       <r>    -7.3397     7.3147    33.9419 </r>
       <r>    -7.2765     6.2217    34.3348 </r>
       <r>    -7.2134     4.9728    34.6489 </r>
       <r>    -7.1502     4.7723    34.9502 </r>
       <r>    -7.0871     5.6802    35.3089 </r>
       <r>    -7.0239     7.2111    35.7643 </r>
       <r>    -6.9608     9.3043    36.3519 </r>
       <r>    -6.8976    11.5615    37.0820 </r>
       <r>    -6.8345    13.6032    37.9411 </r>
       <r>    -6.7713    13.1144    38.7693 </r>
       <r>    -6.7082     9.8456    39.3911 </r>
       <r>    -6.6450     7.3278    39.8538 </r>
       <r>    -6.5819     6.1928    40.2449 </r>
       <r>    -6.5187     5.1761    40.5718 </r>
       <r>    -6.4556     4.0835    40.8297 </r>
       <r>    -6.3924     4.1484    41.0917 </r>
       <r>    -6.3293     5.3305    41.4283 </r>
       <r>    -6.2661     5.3545    41.7664 </r>
       <r>    -6.2030     4.2274    42.0334 </r>
       <r>    -6.1398     4.3971    42.3111 </r>
       <r>    -6.0767     5.5374    42.6608 </r>
       <r>    -6.0135     5.4373    43.0041 </r>
       <r>    -5.9504     4.7800    43.3060 </r>
       <r>    -5.8872     5.1362    43.6304 </r>
       <r>    -5.8240     5.6307    43.9860 </r>
       <r>    -5.7609     5.5526    44.3366 </r>
       <r>    -5.6977     5.5220    44.6853 </r>
       <r>    -5.6346     5.3562    45.0236 </r>
       <r>    -5.5714     4.5926    45.3136 </r>
       <r>    -5.5083     4.1991    45.5788 </r>
       <r>    -5.4451     4.5122    45.8637 </r>
       <r>    -5.3820     4.7143    46.1615 </r>
       <r>    -5.3188     4.4946    46.4453 </r>
       <r>    -5.2557     3.7524    46.6823 </r>
       <r>    -5.1925     3.5886    46.9089 </r>
       <r>    -5.1294     4.6021    47.1995 </r>
       <r>    -5.0662     6.4629    47.6077 </r>
       <r>    -5.0031     8.4931    48.1440 </r>
       <r>    -4.9399     9.6455    48.7531 </r>
       <r>    -4.8768    10.2108    49.3980 </r>
       <r>    -4.8136    11.0381    50.0950 </r>
       <r>    -4.7505    11.5549    50.8248 </r>
       <r>    -4.6873    11.2857    51.5375 </r>
       <r>    -4.6242    11.3958    52.2571 </r>
       <r>    -4.5610    12.6510    53.0561 </r>
       <r>    -4.4979    14.0942    53.9461 </r>
       <r>    -4.4347    14.7644    54.8785 </r>
       <r>    -4.3716    14.2652    55.7794 </r>
       <r>    -4.3084    13.4144    56.6265 </r>
       <r>    -4.2453    13.4578    57.4764 </r>
       <r>    -4.1821    14.3416    58.3821 </r>
       <r>    -4.1190    14.2512    59.2821 </r>
       <r>    -4.0558    11.8645    60.0314 </r>
       <r>    -3.9927     9.4892    60.6306 </r>
       <r>    -3.9295     9.8859    61.2549 </r>
       <r>    -3.8664    11.6561    61.9910 </r>
       <r>    -3.8032    12.1414    62.7578 </r>
       <r>    -3.7400    12.4856    63.5462 </r>
       <r>    -3.6769    13.8628    64.4217 </r>
       <r>    -3.6137    14.7197    65.3513 </r>
       <r>    -3.5506    14.7206    66.2809 </r>
       <r>    -3.4874    14.3716    67.1885 </r>
       <r>    -3.4243    13.4768    68.0396 </r>
       <r>    -3.3611    13.3625    68.8834 </r>
       <r>    -3.2980    14.8998    69.8244 </r>
       <r>    -3.2348    16.8486    70.8884 </r>
       <r>    -3.1717    17.7316    72.0082 </r>
       <r>    -3.1085    16.5284    73.0520 </r>
       <r>    -3.0454    14.1703    73.9468 </r>
       <r>    -2.9822    12.6946    74.7485 </r>
       <r>    -2.9191    13.1272    75.5775 </r>
       <r>    -2.8559    15.1753    76.5359 </r>
       <r>    -2.7928    16.7932    77.5964 </r>
       <r>    -2.7296    17.3117    78.6896 </r>
       <r>    -2.6665    17.3177    79.7833 </r>
       <r>    -2.6033    16.0080    80.7942 </r>
       <r>    -2.5402    14.4881    81.7092 </r>
       <r>    -2.4770    14.1344    82.6018 </r>
       <r>    -2.4139    14.4360    83.5134 </r>
       <r>    -2.3507    15.0179    84.4618 </r>
       <r>    -2.2876    15.8122    85.4604 </r>
       <r>    -2.2244    16.8223    86.5227 </r>
       <r>    -2.1613    18.1334    87.6679 </r>
       <r>    -2.0981    18.3921    88.8294 </r>
       <r>    -2.0350    17.1537    89.9127 </r>
       <r>    -1.9718    16.2151    90.9367 </r>
       <r>    -1.9087    16.1290    91.9552 </r>
       <r>    -1.8455    15.4170    92.9288 </r>
       <r>    -1.7824    13.6680    93.7920 </r>
       <r>    -1.7192    11.8471    94.5402 </r>
       <r>    -1.6560    10.6066    95.2100 </r>
       <r>    -1.5929    11.1099    95.9116 </r>
       <r>    -1.5297    12.4634    96.6987 </r>
       <r>    -1.4666    12.3952    97.4815 </r>
       <r>    -1.4034    11.4319    98.2034 </r>
       <r>    -1.3403    10.4900    98.8659 </r>
       <r>    -1.2771     9.9903    99.4968 </r>
       <r>    -1.2140    10.2830   100.1461 </r>
       <r>    -1.1508    10.4907   100.8087 </r>
       <r>    -1.0877     9.9222   101.4353 </r>
       <r>    -1.0245     8.6583   101.9820 </r>
       <r>    -0.9614     7.1300   102.4323 </r>
       <r>    -0.8982     5.9679   102.8092 </r>
       <r>    -0.8351     6.2553   103.2042 </r>
       <r>    -0.7719     8.2669   103.7263 </r>
       <r>    -0.7088     9.0661   104.2988 </r>
       <r>    -0.6456     7.2097   104.7541 </r>
       <r>    -0.5825     6.1431   105.1421 </r>
       <r>    -0.5193     7.0227   105.5856 </r>
       <r>    -0.4562     7.6701   106.0699 </r>
       <r>    -0.3930     7.5050   106.5439 </r>
       <r>    -0.3299     7.0680   106.9903 </r>
       <r>    -0.2667     7.3926   107.4571 </r>
       <r>    -0.2036     8.2271   107.9767 </r>
       <r>    -0.1404     7.7643   108.4670 </r>
       <r>    -0.0773     6.2268   108.8602 </r>
       <r>    -0.0141     5.1662   109.1865 </r>
       <r>     0.0490     5.0029   109.5024 </r>
       <r>     0.1122     5.0291   109.8200 </r>
       <r>     0.1753     4.3392   110.0940 </r>
       <r>     0.2385     3.0647   110.2876 </r>
       <r>     0.3016     2.3241   110.4344 </r>
       <r>     0.3648     2.0065   110.5611 </r>
       <r>     0.4280     1.4870   110.6550 </r>
       <r>     0.4911     1.2919   110.7366 </r>
       <r>     0.5543     1.7499   110.8471 </r>
       <r>     0.6174     2.3294   110.9942 </r>
       <r>     0.6806     2.6677   111.1627 </r>
       <r>     0.7437     2.8647   111.3436 </r>
       <r>     0.8069     2.9457   111.5296 </r>
       <r>     0.8700     3.1930   111.7312 </r>
       <r>     0.9332     3.9098   111.9781 </r>
       <r>     0.9963     5.3544   112.3163 </r>
       <r>     1.0595     7.1192   112.7659 </r>
       <r>     1.1226     8.1139   113.2783 </r>
       <r>     1.1858     8.7265   113.8294 </r>
       <r>     1.2489     9.3625   114.4206 </r>
       <r>     1.3121     9.2892   115.0072 </r>
       <r>     1.3752     9.0867   115.5811 </r>
       <r>     1.4384     9.9457   116.2092 </r>
       <r>     1.5015    10.7059   116.8853 </r>
       <r>     1.5647    10.8991   117.5736 </r>
       <r>     1.6278    11.7121   118.3132 </r>
       <r>     1.6910    12.1832   119.0826 </r>
       <r>     1.7541    11.2418   119.7925 </r>
       <r>     1.8173     9.8271   120.4131 </r>
       <r>     1.8804     9.4898   121.0124 </r>
       <r>     1.9436    10.5621   121.6794 </r>
       <r>     2.0067    11.9547   122.4344 </r>
       <r>     2.0699    12.9234   123.2505 </r>
       <r>     2.1330    13.0676   124.0757 </r>
       <r>     2.1962    12.9000   124.8904 </r>
       <r>     2.2593    13.4359   125.7389 </r>
       <r>     2.3225    13.9289   126.6185 </r>
       <r>     2.3856    13.2586   127.4558 </r>
       <r>     2.4488    13.0481   128.2798 </r>
       <r>     2.5120    14.1501   129.1734 </r>
       <r>     2.5751    14.6073   130.0959 </r>
       <r>     2.6383    13.6335   130.9569 </r>
       <r>     2.7014    12.0674   131.7190 </r>
       <r>     2.7646    11.3408   132.4351 </r>
       <r>     2.8277    11.2348   133.1446 </r>
       <r>     2.8909    10.1020   133.7826 </r>
       <r>     2.9540     8.2667   134.3046 </r>
       <r>     3.0172     7.2929   134.7652 </r>
       <r>     3.0803     6.8963   135.2007 </r>
       <r>     3.1435     5.9196   135.5746 </r>
       <r>     3.2066     4.0632   135.8311 </r>
       <r>     3.2698     1.9574   135.9548 </r>
       <r>     3.3329     0.5984   135.9926 </r>
       <r>     3.3961     0.1071   135.9993 </r>
       <r>     3.4592     0.0104   136.0000 </r>
       <r>     3.5224     0.0005   136.0000 </r>
       <r>     3.5855     0.0000   136.0000 </r>
       <r>     3.6487     0.0000   136.0000 </r>
       <r>     3.7118     0.0000   136.0000 </r>
       <r>     3.7750     0.0000   136.0000 </r>
       <r>     3.8381     0.0000   136.0000 </r>
       <r>     3.9013     0.0000   136.0000 </r>
       <r>     3.9644     0.0000   136.0000 </r>
       <r>     4.0276     0.0000   136.0000 </r>
       <r>     4.0907     0.0000   136.0000 </r>
       <r>     4.1539     0.0000   136.0000 </r>
       <r>     4.2170     0.0000   136.0000 </r>
      </set>
     </set>
    </array>
   </total>
  </dos>
 </calculation>
 <structure name="finalpos" >
  <crystal>
   <varray name="basis" >
    <v>       3.54040000       0.00000000       0.00000000 </v>
    <v>      -1.77020000      10.29434800       0.00000000 </v>
    <v>       0.00000000       0.00000000      27.50142900 </v>
   </varray>
   <i name="volume">   1002.32009712 </i>
   <varray name="rec_basis" >
    <v>       0.28245396       0.04857034       0.00000000 </v>
    <v>       0.00000000       0.09714068       0.00000000 </v>
    <v>       0.00000000       0.00000000       0.03636175 </v>
   </varray>
  </crystal>
  <varray name="positions" >
   <v>       0.11402300       0.22804500       0.23316207 </v>
   <v>       0.71402300       0.32804500       0.51499159 </v>
   <v>       0.45808900       0.91617900       0.20939482 </v>
   <v>       0.05808900       0.01617900       0.49122434 </v>
   <v>       0.31085400       0.62170900       0.08414979 </v>
   <v>       0.31085400       0.62170900       0.36597930 </v>
   <v>       0.99923000       0.99846000       0.08631254 </v>
   <v>       0.99923000       0.99846000       0.36814206 </v>
   <v>       0.65492700       0.30985400       0.06041748 </v>
   <v>       0.65492700       0.30985400       0.34224700 </v>
   <v>       0.76973800       0.53947500       0.20725292 </v>
   <v>       0.36973800       0.63947500       0.48908244 </v>
   <v>       0.93971600       0.87943300       0.15783749 </v>
   <v>       0.53971600       0.97943300       0.43966701 </v>
   <v>       0.20515200       0.41030300       0.18578822 </v>
   <v>       0.80515200       0.51030300       0.46761774 </v>
   <v>       0.20184900       0.40369900       0.09969156 </v>
   <v>       0.20184900       0.40369900       0.38152107 </v>
   <v>       0.56380500       0.12761000       0.10779021 </v>
   <v>       0.56380500       0.12761000       0.38961973 </v>
   <v>       0.56710600       0.13421200       0.19387616 </v>
   <v>       0.16710600       0.23421200       0.47570568 </v>
   <v>       0.82923400       0.65846800       0.13571444 </v>
   <v>       0.42923400       0.75846800       0.41754396 </v>
  </varray>
 </structure>
</modeling>
