<?xml version="1.0" encoding="ISO-8859-1"?>
<modeling>
 <generator>
  <i name="program" type="string">vasp </i>
  <i name="version" type="string">5.4.1  </i>
  <i name="subversion" type="string">24Jun15 (build May 10 2016 14:18:23) complex                          parallel </i>
  <i name="platform" type="string">IFC91_ompi </i>
  <i name="date" type="string">2016 12 09 </i>
  <i name="time" type="string">15:06:28 </i>
 </generator>
 <incar>
  <i type="string" name="PREC">accurate</i>
  <i type="string" name="ALGO"> Fast</i>
  <i type="int" name="ISPIN">     2</i>
  <i type="int" name="IBRION">     2</i>
  <i name="EDIFF">      0.00010000</i>
  <i type="int" name="NSW">     0</i>
  <i type="int" name="ISIF">     3</i>
  <i name="ENCUT">    500.00000000</i>
  <v name="MAGMOM">      6.00000000      0.50000000      0.50000000      6.00000000      0.50000000      0.50000000</v>
  <i type="string" name="LREAL"> Auto</i>
  <i type="int" name="ISMEAR">     1</i>
  <i name="SIGMA">      0.10000000</i>
  <i type="logical" name="LWAVE"> F  </i>
  <i type="logical" name="LCHARG"> F  </i>
  <i type="logical" name="LVTOT"> T  </i>
  <i type="logical" name="LVHAR"> T  </i>
  <i type="logical" name="LAECHG"> F  </i>
  <v type="int" name="KPOINT_BSE">    -1     0     0     0</v>
  <i type="string" name="GGA"> Bo</i>
  <i name="PARAM1">      0.18333333</i>
  <i name="PARAM2">      0.22000000</i>
  <i type="logical" name="LUSE_VDW"> T  </i>
  <i name="AGGAC">      0.00000000</i>
 </incar>
 <kpoints>
  <generation param="Gamma">
   <v type="int" name="divisions">      13       13        1 </v>
   <v name="usershift">      0.00000000       0.00000000       0.00000000 </v>
   <v name="genvec1">      0.07692308       0.00000000       0.00000000 </v>
   <v name="genvec2">      0.00000000       0.07692308       0.00000000 </v>
   <v name="genvec3">      0.00000000       0.00000000       1.00000000 </v>
   <v name="shift">      0.00000000       0.00000000       0.00000000 </v>
  </generation>
  <varray name="kpointlist" >
   <v>       0.00000000       0.00000000       0.00000000 </v>
   <v>       0.07692308      -0.00000000       0.00000000 </v>
   <v>       0.15384615       0.00000000       0.00000000 </v>
   <v>       0.23076923       0.00000000       0.00000000 </v>
   <v>       0.30769231      -0.00000000       0.00000000 </v>
   <v>       0.38461538       0.00000000       0.00000000 </v>
   <v>       0.46153846       0.00000000       0.00000000 </v>
   <v>       0.00000000       0.07692308       0.00000000 </v>
   <v>       0.07692308       0.07692308       0.00000000 </v>
   <v>       0.15384615       0.07692308       0.00000000 </v>
   <v>       0.23076923       0.07692308       0.00000000 </v>
   <v>       0.30769231       0.07692308       0.00000000 </v>
   <v>       0.38461538       0.07692308       0.00000000 </v>
   <v>       0.46153846       0.07692308       0.00000000 </v>
   <v>       0.00000000       0.15384615       0.00000000 </v>
   <v>       0.07692308       0.15384615       0.00000000 </v>
   <v>       0.15384615       0.15384615       0.00000000 </v>
   <v>       0.23076923       0.15384615       0.00000000 </v>
   <v>       0.30769231       0.15384615       0.00000000 </v>
   <v>       0.38461538       0.15384615       0.00000000 </v>
   <v>      -0.07692308       0.15384615       0.00000000 </v>
   <v>       0.00000000       0.23076923       0.00000000 </v>
   <v>       0.07692308       0.23076923       0.00000000 </v>
   <v>       0.15384615       0.23076923       0.00000000 </v>
   <v>       0.23076923       0.23076923       0.00000000 </v>
   <v>       0.30769231       0.23076923       0.00000000 </v>
   <v>       0.38461538       0.23076923       0.00000000 </v>
   <v>      -0.15384615       0.23076923       0.00000000 </v>
   <v>       0.00000000       0.30769231       0.00000000 </v>
   <v>       0.07692308       0.30769231       0.00000000 </v>
   <v>       0.15384615       0.30769231       0.00000000 </v>
   <v>       0.23076923       0.30769231       0.00000000 </v>
   <v>       0.30769231       0.30769231       0.00000000 </v>
   <v>      -0.23076923       0.30769231       0.00000000 </v>
   <v>      -0.15384615       0.30769231       0.00000000 </v>
   <v>       0.00000000       0.38461538       0.00000000 </v>
   <v>       0.07692308       0.38461538       0.00000000 </v>
   <v>       0.15384615       0.38461538       0.00000000 </v>
   <v>       0.23076923       0.38461538       0.00000000 </v>
   <v>       0.30769231       0.38461538       0.00000000 </v>
   <v>      -0.30769231       0.38461538       0.00000000 </v>
   <v>      -0.23076923       0.38461538       0.00000000 </v>
   <v>       0.00000000       0.46153846       0.00000000 </v>
   <v>       0.07692308       0.46153846       0.00000000 </v>
   <v>       0.15384615       0.46153846       0.00000000 </v>
   <v>       0.23076923       0.46153846       0.00000000 </v>
   <v>      -0.38461538       0.46153846       0.00000000 </v>
   <v>      -0.30769231       0.46153846       0.00000000 </v>
   <v>      -0.23076923       0.46153846       0.00000000 </v>
  </varray>
  <varray name="weights" >
   <v>       0.00591716 </v>
   <v>       0.01183432 </v>
   <v>       0.01183432 </v>
   <v>       0.01183432 </v>
   <v>       0.01183432 </v>
   <v>       0.01183432 </v>
   <v>       0.01183432 </v>
   <v>       0.02366864 </v>
   <v>       0.02366864 </v>
   <v>       0.02366864 </v>
   <v>       0.02366864 </v>
   <v>       0.02366864 </v>
   <v>       0.02366864 </v>
   <v>       0.01183432 </v>
   <v>       0.02366864 </v>
   <v>       0.02366864 </v>
   <v>       0.02366864 </v>
   <v>       0.02366864 </v>
   <v>       0.02366864 </v>
   <v>       0.02366864 </v>
   <v>       0.01183432 </v>
   <v>       0.02366864 </v>
   <v>       0.02366864 </v>
   <v>       0.02366864 </v>
   <v>       0.02366864 </v>
   <v>       0.02366864 </v>
   <v>       0.01183432 </v>
   <v>       0.02366864 </v>
   <v>       0.02366864 </v>
   <v>       0.02366864 </v>
   <v>       0.02366864 </v>
   <v>       0.02366864 </v>
   <v>       0.02366864 </v>
   <v>       0.02366864 </v>
   <v>       0.01183432 </v>
   <v>       0.02366864 </v>
   <v>       0.02366864 </v>
   <v>       0.02366864 </v>
   <v>       0.02366864 </v>
   <v>       0.01183432 </v>
   <v>       0.02366864 </v>
   <v>       0.02366864 </v>
   <v>       0.02366864 </v>
   <v>       0.02366864 </v>
   <v>       0.02366864 </v>
   <v>       0.02366864 </v>
   <v>       0.02366864 </v>
   <v>       0.02366864 </v>
   <v>       0.01183432 </v>
  </varray>
 </kpoints>
 <parameters>
  <separator name="general" >
   <i type="string" name="SYSTEM">unknown system</i>
   <i type="logical" name="LCOMPAT"> F  </i>
  </separator>
  <separator name="electronic" >
   <i type="string" name="PREC">accura</i>
   <i name="ENMAX">    500.00000000</i>
   <i name="ENAUG">    392.42700000</i>
   <i name="EDIFF">      0.00010000</i>
   <i type="int" name="IALGO">    68</i>
   <i type="int" name="IWAVPR">    10</i>
   <i type="int" name="NBANDS">    36</i>
   <i name="NELECT">     48.00000000</i>
   <i type="int" name="TURBO">     0</i>
   <i type="int" name="IRESTART">     0</i>
   <i type="int" name="NREBOOT">     0</i>
   <i type="int" name="NMIN">     0</i>
   <i name="EREF">      0.00000000</i>
   <separator name="electronic smearing" >
    <i type="int" name="ISMEAR">     1</i>
    <i name="SIGMA">      0.10000000</i>
    <i name="KSPACING">      0.50000000</i>
    <i type="logical" name="KGAMMA"> T  </i>
   </separator>
   <separator name="electronic projectors" >
    <i type="logical" name="LREAL"> T  </i>
    <v name="ROPT">     -0.00025000     -0.00025000     -0.00025000     -0.00025000</v>
    <i type="int" name="LMAXPAW">  -100</i>
    <i type="int" name="LMAXMIX">     2</i>
    <i type="logical" name="NLSPLINE"> F  </i>
   </separator>
   <separator name="electronic startup" >
    <i type="int" name="ISTART">     0</i>
    <i type="int" name="ICHARG">     2</i>
    <i type="int" name="INIWAV">     1</i>
   </separator>
   <separator name="electronic spin" >
    <i type="int" name="ISPIN">     2</i>
    <i type="logical" name="LNONCOLLINEAR"> F  </i>
    <v name="MAGMOM">      6.00000000      0.50000000      0.50000000      6.00000000      0.50000000      0.50000000</v>
    <i name="NUPDOWN">     -1.00000000</i>
    <i type="logical" name="LSORBIT"> F  </i>
    <v name="SAXIS">      0.00000000      0.00000000      1.00000000</v>
    <i type="logical" name="LSPIRAL"> F  </i>
    <v name="QSPIRAL">      0.00000000      0.00000000      0.00000000</v>
    <i type="logical" name="LZEROZ"> F  </i>
   </separator>
   <separator name="electronic exchange-correlation" >
    <i type="logical" name="LASPH"> F  </i>
    <i type="logical" name="LMETAGGA"> F  </i>
   </separator>
   <separator name="electronic convergence" >
    <i type="int" name="NELM">    60</i>
    <i type="int" name="NELMDL">     0</i>
    <i type="int" name="NELMIN">     2</i>
    <i name="ENINI">    500.00000000</i>
    <separator name="electronic convergence detail" >
     <i type="logical" name="LDIAG"> T  </i>
     <i type="logical" name="LSUBROT"> F  </i>
     <i name="WEIMIN">      0.00000000</i>
     <i name="EBREAK">      0.00000069</i>
     <i name="DEPER">      0.30000000</i>
     <i type="int" name="NRMM">     4</i>
     <i name="TIME">      0.40000000</i>
    </separator>
   </separator>
   <separator name="electronic mixer" >
    <i name="AMIX">      0.40000000</i>
    <i name="BMIX">      1.00000000</i>
    <i name="AMIN">      0.10000000</i>
    <i name="AMIX_MAG">      1.60000000</i>
    <i name="BMIX_MAG">      1.00000000</i>
    <separator name="electronic mixer details" >
     <i type="int" name="IMIX">     4</i>
     <i type="logical" name="MIXFIRST"> F  </i>
     <i type="int" name="MAXMIX">   -45</i>
     <i name="WC">    100.00000000</i>
     <i type="int" name="INIMIX">     1</i>
     <i type="int" name="MIXPRE">     1</i>
     <i type="int" name="MREMOVE">     5</i>
    </separator>
   </separator>
   <separator name="electronic dipolcorrection" >
    <i type="logical" name="LDIPOL"> F  </i>
    <i type="logical" name="LMONO"> F  </i>
    <i type="int" name="IDIPOL">     0</i>
    <i name="EPSILON">      1.00000000</i>
    <v name="DIPOL">   -100.00000000   -100.00000000   -100.00000000</v>
    <i name="EFIELD">      0.00000000</i>
   </separator>
  </separator>
  <separator name="grids" >
   <i type="int" name="NGX">    24</i>
   <i type="int" name="NGY">    24</i>
   <i type="int" name="NGZ">   180</i>
   <i type="int" name="NGXF">    48</i>
   <i type="int" name="NGYF">    48</i>
   <i type="int" name="NGZF">   360</i>
   <i type="logical" name="ADDGRID"> F  </i>
  </separator>
  <separator name="ionic" >
   <i type="int" name="NSW">     0</i>
   <i type="int" name="IBRION">    -1</i>
   <i type="int" name="ISIF">     3</i>
   <i name="PSTRESS">      0.00000000</i>
   <i name="EDIFFG">      0.00100000</i>
   <i type="int" name="NFREE">     1</i>
   <i name="POTIM">      0.50000000</i>
   <i name="SMASS">     -3.00000000</i>
   <i name="SCALEE">      1.00000000</i>
  </separator>
  <separator name="ionic md" >
   <i name="TEBEG">      0.00010000</i>
   <i name="TEEND">      0.00010000</i>
   <i type="int" name="NBLOCK">     1</i>
   <i type="int" name="KBLOCK">     1</i>
   <i type="int" name="NPACO">   256</i>
   <i name="APACO">     16.00000000</i>
  </separator>
  <separator name="symmetry" >
   <i type="int" name="ISYM">     2</i>
   <i name="SYMPREC">      0.00001000</i>
  </separator>
  <separator name="dos" >
   <i type="logical" name="LORBIT"> F  </i>
   <v name="RWIGS">     -1.00000000     -1.00000000     -1.00000000     -1.00000000</v>
   <i type="int" name="NEDOS">   301</i>
   <i name="EMIN">     10.00000000</i>
   <i name="EMAX">    -10.00000000</i>
   <i name="EFERMI">      0.00000000</i>
  </separator>
  <separator name="writing" >
   <i type="int" name="NWRITE">     2</i>
   <i type="logical" name="LWAVE"> F  </i>
   <i type="logical" name="LCHARG"> F  </i>
   <i type="logical" name="LPARD"> F  </i>
   <i type="logical" name="LVTOT"> F  </i>
   <i type="logical" name="LVHAR"> T  </i>
   <i type="logical" name="LELF"> F  </i>
   <i type="logical" name="LOPTICS"> F  </i>
   <v name="STM">      0.00000000      0.00000000      0.00000000      0.00000000      0.00000000      0.00000000      0.00000000</v>
  </separator>
  <separator name="performance" >
   <i type="int" name="NPAR">     4</i>
   <i type="int" name="NSIM">     4</i>
   <i type="int" name="NBLK">    -1</i>
   <i type="logical" name="LPLANE"> T  </i>
   <i type="logical" name="LSCALAPACK"> T  </i>
   <i type="logical" name="LSCAAWARE"> F  </i>
   <i type="logical" name="LSCALU"> F  </i>
   <i type="logical" name="LASYNC"> F  </i>
   <i type="logical" name="LORBITALREAL"> F  </i>
  </separator>
  <separator name="miscellaneous" >
   <i type="int" name="IDIOT">     3</i>
   <i type="logical" name="LMUSIC"> F  </i>
   <v name="POMASS">     95.94000000     32.06600000     95.94000000     32.06600000</v>
   <v name="DARWINR">      0.00000000      0.00000000      0.00000000      0.00000000</v>
   <v name="DARWINV">      1.00000000      1.00000000      1.00000000      1.00000000</v>
   <i type="logical" name="LCORR"> T  </i>
  </separator>
  <i type="logical" name="GGA_COMPAT"> T  </i>
  <i type="logical" name="LBERRY"> F  </i>
  <i type="int" name="ICORELEVEL">     0</i>
  <i type="logical" name="LDAU"> F  </i>
  <i type="int" name="I_CONSTRAINED_M">     0</i>
  <separator name="electronic exchange-correlation" >
   <i type="string" name="GGA">BO</i>
   <i type="int" name="VOSKOWN">     0</i>
   <i type="logical" name="LHFCALC"> F  </i>
   <i type="string" name="PRECFOCK"></i>
   <i type="logical" name="LSYMGRAD"> F  </i>
   <i type="logical" name="LHFONE"> F  </i>
   <i type="logical" name="LRHFCALC"> F  </i>
   <i type="logical" name="LTHOMAS"> F  </i>
   <i type="logical" name="LMODELHF"> F  </i>
   <i name="ENCUT4O">     -1.00000000</i>
   <i type="int" name="EXXOEP">     0</i>
   <i type="int" name="FOURORBIT">     0</i>
   <i name="AEXX">      0.00000000</i>
   <i name="HFALPHA">      0.00000000</i>
   <i name="MCALPHA">      0.00000000</i>
   <i name="ALDAX">      1.00000000</i>
   <i name="AGGAX">      1.00000000</i>
   <i name="ALDAC">      1.00000000</i>
   <i name="AGGAC">      0.00000000</i>
   <i type="int" name="NKREDX">     1</i>
   <i type="int" name="NKREDY">     1</i>
   <i type="int" name="NKREDZ">     1</i>
   <i type="logical" name="SHIFTRED"> F  </i>
   <i type="logical" name="ODDONLY"> F  </i>
   <i type="logical" name="EVENONLY"> F  </i>
   <i type="int" name="LMAXFOCK">     0</i>
   <i type="int" name="NMAXFOCKAE">     0</i>
   <i type="logical" name="LFOCKAEDFT"> F  </i>
   <i name="HFSCREEN">      0.00000000</i>
   <i name="HFSCREENC">      0.00000000</i>
   <i type="int" name="NBANDSGWLOW">     0</i>
  </separator>
  <separator name="vdW DFT" >
   <i type="logical" name="LUSE_VDW"> T  </i>
   <i name="Zab_VDW">     -0.84910000</i>
   <i name="PARAM1">      0.18333333</i>
   <i name="PARAM2">      0.22000000</i>
   <i name="PARAM3">      0.00000000</i>
  </separator>
  <separator name="model GW" >
   <i type="int" name="MODEL_GW">     0</i>
   <i name="MODEL_EPS0">     20.39722663</i>
   <i name="MODEL_ALPHA">      1.00000000</i>
  </separator>
  <separator name="linear response parameters" >
   <i type="logical" name="LEPSILON"> F  </i>
   <i type="logical" name="LRPA"> F  </i>
   <i type="logical" name="LNABLA"> F  </i>
   <i type="logical" name="LVEL"> F  </i>
   <i type="int" name="KINTER">     0</i>
   <i name="CSHIFT">      0.10000000</i>
   <i name="OMEGAMAX">     -1.00000000</i>
   <i name="DEG_THRESHOLD">      0.00200000</i>
  </separator>
  <separator name="orbital magnetization" >
   <i type="logical" name="NUCIND"> F  </i>
   <v name="MAGPOS">      0.00000000      0.00000000      0.00000000</v>
   <i type="logical" name="LNICSALL"> T  </i>
   <i type="logical" name="ORBITALMAG"> F  </i>
   <i type="logical" name="LMAGBLOCH"> F  </i>
   <i type="logical" name="LCHIMAG"> F  </i>
   <i type="logical" name="LGAUGE"> T  </i>
   <i type="int" name="MAGATOM">     0</i>
   <v name="MAGDIPOL">      0.00000000      0.00000000      0.00000000</v>
   <v name="AVECCONST">      0.00000000      0.00000000      0.00000000</v>
  </separator>
  <separator name="response functions" >
   <i type="logical" name="LADDER"> F  </i>
   <i type="logical" name="LFXC"> F  </i>
   <i type="logical" name="LHARTREE"> T  </i>
   <i type="int" name="IBSE">     0</i>
   <v type="int" name="KPOINT">    -1     0     0     0</v>
   <i type="logical" name="LTCTE"> F  </i>
   <i type="logical" name="LTETE"> F  </i>
   <i type="logical" name="LTRIPLET"> F  </i>
   <i type="logical" name="LFXCEPS"> F  </i>
   <i type="logical" name="LFXHEG"> F  </i>
   <i type="int" name="NATURALO">     0</i>
   <i type="logical" name="L2ORDER"> F  </i>
   <i type="logical" name="LUSEW"> F  </i>
   <i name="ENCUTGW">     -2.00000000</i>
   <i name="ENCUTGWSOFT">     -2.00000000</i>
   <i name="ENCUTLF">     -1.00000000</i>
   <i type="int" name="LMAXMP2">    -1</i>
   <i name="SCISSOR">      0.00000000</i>
   <i type="int" name="NOMEGA">     0</i>
   <i type="int" name="NOMEGAR">     0</i>
   <i type="int" name="NBANDSGW">    -1</i>
   <i type="int" name="NBANDSO">    -1</i>
   <i type="int" name="NBANDSV">    -1</i>
   <i type="int" name="NELM">     1</i>
   <i type="int" name="NELMHF">     1</i>
   <i type="int" name="DIM">     3</i>
   <i type="int" name="ANTIRES">     0</i>
   <i name="OMEGAMAX">    -30.00000000</i>
   <i name="OMEGAMIN">    -30.00000000</i>
   <i name="OMEGATL">   -200.00000000</i>
   <i type="int" name="OMEGAGRID">     0</i>
   <i name="CSHIFT">     -0.10000000</i>
   <i type="logical" name="SELFENERGY"> F  </i>
   <i type="logical" name="LSPECTRAL"> F  </i>
   <i type="logical" name="LSPECTRALGW"> F  </i>
   <i type="logical" name="LSINGLES"> F  </i>
   <i type="logical" name="LFERMIGW"> F  </i>
   <i type="logical" name="ODDONLYGW"> F  </i>
   <i type="logical" name="EVENONLYGW"> F  </i>
   <i type="int" name="NKREDLFX">     1</i>
   <i type="int" name="NKREDLFY">     1</i>
   <i type="int" name="NKREDLFZ">     1</i>
   <i type="int" name="MAXMEM">  1800</i>
   <i type="int" name="TELESCOPE">     0</i>
   <i type="int" name="TAUPAR">     1</i>
   <i type="int" name="OMEGAPAR">    -1</i>
   <i name="LAMBDA">      1.00000000</i>
  </separator>
  <separator name="External order field" >
   <i name="OFIELD_KAPPA">      0.00000000</i>
   <v name="OFIELD_K">      0.00000000      0.00000000      0.00000000</v>
   <i name="OFIELD_Q6_NEAR">      0.00000000</i>
   <i name="OFIELD_Q6_FAR">      0.00000000</i>
   <i name="OFIELD_A">      0.00000000</i>
  </separator>
 </parameters>
 <atominfo>
  <atoms>       6 </atoms>
  <types>       4 </types>
  <array name="atoms" >
   <dimension dim="1">ion</dimension>
   <field type="string">element</field>
   <field type="int">atomtype</field>
   <set>
    <rc><c>Mo</c><c>   1</c></rc>
    <rc><c>S </c><c>   2</c></rc>
    <rc><c>S </c><c>   2</c></rc>
    <rc><c>Mo</c><c>   3</c></rc>
    <rc><c>S </c><c>   4</c></rc>
    <rc><c>S </c><c>   4</c></rc>
   </set>
  </array>
  <array name="atomtypes" >
   <dimension dim="1">type</dimension>
   <field type="int">atomspertype</field>
   <field type="string">element</field>
   <field>mass</field>
   <field>valence</field>
   <field type="string">pseudopotential</field>
   <set>
    <rc><c>   1</c><c>Mo</c><c>     95.94000000</c><c>     12.00000000</c><c> PAW_PBE Mo_pv 08Apr2002                </c></rc>
    <rc><c>   2</c><c>S </c><c>     32.06600000</c><c>      6.00000000</c><c>  PAW_PBE S 17Jan2003                   </c></rc>
    <rc><c>   1</c><c>Mo</c><c>     95.94000000</c><c>     12.00000000</c><c> PAW_PBE Mo_pv 08Apr2002                </c></rc>
    <rc><c>   2</c><c>S </c><c>     32.06600000</c><c>      6.00000000</c><c>  PAW_PBE S 17Jan2003                   </c></rc>
   </set>
  </array>
 </atominfo>
 <structure name="initialpos" >
  <crystal>
   <varray name="basis" >
    <v>       3.19031700       0.00000000       0.00000000 </v>
    <v>      -1.59515800       2.76289700       0.00000000 </v>
    <v>       0.00000000       0.00000000      23.14049200 </v>
   </varray>
   <i name="volume">    203.97226633 </i>
   <varray name="rec_basis" >
    <v>       0.31344848       0.18096941       0.00000000 </v>
    <v>       0.00000000       0.36193894       0.00000000 </v>
    <v>       0.00000000       0.00000000       0.04321429 </v>
   </varray>
  </crystal>
  <varray name="positions" >
   <v>       0.66666700       0.33333300       0.06785900 </v>
   <v>       0.33333300       0.66666700       0.00000000 </v>
   <v>       0.33333300       0.66666700       0.13571500 </v>
   <v>       0.38095271       0.19047586       0.35482300 </v>
   <v>       0.04761871       0.52380986       0.28696500 </v>
   <v>       0.04761871       0.52380986       0.42267900 </v>
  </varray>
 </structure>
 <calculation>
  <scstep>
   <time name="dav">   32.37   32.39</time>
   <time name="total">   42.52   42.57</time>
   <energy>
    <i name="alphaZ">    104.15310261 </i>
    <i name="ewald">   7699.20989353 </i>
    <i name="hartreedc"> -11109.25159794 </i>
    <i name="XCdc">    128.46785278 </i>
    <i name="pawpsdc">   2252.92270536 </i>
    <i name="pawaedc">  -2205.68654582 </i>
    <i name="eentropy">     -0.00053426 </i>
    <i name="bandstr">   -160.34021187 </i>
    <i name="atom">   3688.31848598 </i>
    <i name="e_fr_energy">    397.79315038 </i>
    <i name="e_wo_entrp">    397.79368464 </i>
    <i name="e_0_energy">    397.79332847 </i>
   </energy>
  </scstep>
  <scstep>
   <time name="dav">   35.24   35.27</time>
   <time name="total">   35.25   35.28</time>
   <energy>
    <i name="e_fr_energy">     -1.65330460 </i>
    <i name="e_wo_entrp">     -1.65103073 </i>
    <i name="e_0_energy">     -1.65254664 </i>
   </energy>
  </scstep>
  <scstep>
   <time name="dav">   35.84   35.86</time>
   <time name="total">   35.84   35.87</time>
   <energy>
    <i name="e_fr_energy">    -32.96581645 </i>
    <i name="e_wo_entrp">    -32.96649886 </i>
    <i name="e_0_energy">    -32.96604392 </i>
   </energy>
  </scstep>
  <scstep>
   <time name="dav">   34.76   34.78</time>
   <time name="total">   34.76   34.79</time>
   <energy>
    <i name="e_fr_energy">    -33.83546774 </i>
    <i name="e_wo_entrp">    -33.83632981 </i>
    <i name="e_0_energy">    -33.83575509 </i>
   </energy>
  </scstep>
  <scstep>
   <time name="dav">   37.38   37.41</time>
   <time name="total">   40.15   40.18</time>
   <energy>
    <i name="e_fr_energy">    -33.86227435 </i>
    <i name="e_wo_entrp">    -33.86315286 </i>
    <i name="e_0_energy">    -33.86256719 </i>
   </energy>
  </scstep>
  <scstep>
   <time name="diag">    6.91    6.92</time>
   <time name="diis">   24.01   24.03</time>
   <time name="orth">    0.22    0.22</time>
   <time name="total">   43.86   43.89</time>
   <energy>
    <i name="e_fr_energy">    -30.03471873 </i>
    <i name="e_wo_entrp">    -30.03473633 </i>
    <i name="e_0_energy">    -30.03472460 </i>
   </energy>
  </scstep>
  <scstep>
   <time name="diag">    6.87    6.88</time>
   <time name="diis">   24.61   24.63</time>
   <time name="orth">    0.22    0.22</time>
   <time name="total">   44.57   44.60</time>
   <energy>
    <i name="e_fr_energy">    -32.81506782 </i>
    <i name="e_wo_entrp">    -32.81570596 </i>
    <i name="e_0_energy">    -32.81528054 </i>
   </energy>
  </scstep>
  <scstep>
   <time name="diag">    6.89    6.89</time>
   <time name="diis">   25.56   25.57</time>
   <time name="orth">    0.22    0.22</time>
   <time name="total">   45.45   45.49</time>
   <energy>
    <i name="e_fr_energy">    -34.84657692 </i>
    <i name="e_wo_entrp">    -34.84674071 </i>
    <i name="e_0_energy">    -34.84663152 </i>
   </energy>
  </scstep>
  <scstep>
   <time name="diag">    6.85    6.86</time>
   <time name="diis">   22.52   22.54</time>
   <time name="orth">    0.22    0.22</time>
   <time name="total">   42.25   42.28</time>
   <energy>
    <i name="e_fr_energy">    -37.14780162 </i>
    <i name="e_wo_entrp">    -37.14796592 </i>
    <i name="e_0_energy">    -37.14785638 </i>
   </energy>
  </scstep>
  <scstep>
   <time name="diag">    6.89    6.90</time>
   <time name="diis">   21.47   21.49</time>
   <time name="orth">    0.22    0.22</time>
   <time name="total">   41.34   41.40</time>
   <energy>
    <i name="e_fr_energy">    -38.77276777 </i>
    <i name="e_wo_entrp">    -38.77293376 </i>
    <i name="e_0_energy">    -38.77282310 </i>
   </energy>
  </scstep>
  <scstep>
   <time name="diag">    6.93    6.94</time>
   <time name="diis">   24.04   24.06</time>
   <time name="orth">    0.23    0.23</time>
   <time name="total">   43.91   43.94</time>
   <energy>
    <i name="e_fr_energy">    -39.31817747 </i>
    <i name="e_wo_entrp">    -39.31848354 </i>
    <i name="e_0_energy">    -39.31827949 </i>
   </energy>
  </scstep>
  <scstep>
   <time name="diag">    6.88    6.89</time>
   <time name="diis">   24.27   24.29</time>
   <time name="orth">    0.22    0.22</time>
   <time name="total">   44.09   44.13</time>
   <energy>
    <i name="e_fr_energy">    -39.37826884 </i>
    <i name="e_wo_entrp">    -39.37859742 </i>
    <i name="e_0_energy">    -39.37837836 </i>
   </energy>
  </scstep>
  <scstep>
   <time name="diag">    6.96    6.96</time>
   <time name="diis">   25.37   25.39</time>
   <time name="orth">    0.22    0.23</time>
   <time name="total">   45.28   45.31</time>
   <energy>
    <i name="e_fr_energy">    -39.39847343 </i>
    <i name="e_wo_entrp">    -39.39880426 </i>
    <i name="e_0_energy">    -39.39858370 </i>
   </energy>
  </scstep>
  <scstep>
   <time name="diag">    6.88    6.88</time>
   <time name="diis">   23.98   24.00</time>
   <time name="orth">    0.22    0.22</time>
   <time name="total">   43.80   43.88</time>
   <energy>
    <i name="e_fr_energy">    -39.40483374 </i>
    <i name="e_wo_entrp">    -39.40516479 </i>
    <i name="e_0_energy">    -39.40494409 </i>
   </energy>
  </scstep>
  <scstep>
   <time name="diag">    6.89    6.89</time>
   <time name="diis">   21.21   21.23</time>
   <time name="orth">    0.22    0.22</time>
   <time name="total">   41.03   41.06</time>
   <energy>
    <i name="e_fr_energy">    -39.40446797 </i>
    <i name="e_wo_entrp">    -39.40479903 </i>
    <i name="e_0_energy">    -39.40457833 </i>
   </energy>
  </scstep>
  <scstep>
   <time name="diag">    6.92    6.93</time>
   <time name="diis">   18.68   18.69</time>
   <time name="orth">    0.22    0.22</time>
   <time name="total">   35.54   35.57</time>
   <energy>
    <i name="alphaZ">    104.15310261 </i>
    <i name="ewald">   7699.20989353 </i>
    <i name="hartreedc"> -11093.72226231 </i>
    <i name="XCdc">    122.67667265 </i>
    <i name="pawpsdc">   2398.86745132 </i>
    <i name="pawaedc">  -2361.03950179 </i>
    <i name="eentropy">      0.00033112 </i>
    <i name="bandstr">   -597.86856769 </i>
    <i name="atom">   3688.31848598 </i>
    <i name="e_fr_energy">    -39.40439458 </i>
    <i name="e_wo_entrp">    -39.40472571 </i>
    <i name="e_0_energy">    -39.40450496 </i>
   </energy>
  </scstep>
  <structure>
   <crystal>
    <varray name="basis" >
     <v>       3.19031700       0.00000000       0.00000000 </v>
     <v>      -1.59515800       2.76289700       0.00000000 </v>
     <v>       0.00000000       0.00000000      23.14049200 </v>
    </varray>
    <i name="volume">    203.97226633 </i>
    <varray name="rec_basis" >
     <v>       0.31344848       0.18096941       0.00000000 </v>
     <v>       0.00000000       0.36193894       0.00000000 </v>
     <v>       0.00000000       0.00000000       0.04321429 </v>
    </varray>
   </crystal>
   <varray name="positions" >
    <v>       0.66666700       0.33333300       0.06785900 </v>
    <v>       0.33333300       0.66666700       0.00000000 </v>
    <v>       0.33333300       0.66666700       0.13571500 </v>
    <v>       0.38095271       0.19047586       0.35482300 </v>
    <v>       0.04761871       0.52380986       0.28696500 </v>
    <v>       0.04761871       0.52380986       0.42267900 </v>
   </varray>
  </structure>
  <varray name="forces" >
   <v>       0.00534646       0.00308678      -0.01031090 </v>
   <v>      -0.00105125      -0.00060694      -0.05841980 </v>
   <v>       0.03158695       0.01823674       0.07237680 </v>
   <v>      -0.00482390      -0.00278508       0.01103024 </v>
   <v>      -0.02908305      -0.01679111      -0.08041354 </v>
   <v>      -0.00197522      -0.00114039       0.06573719 </v>
  </varray>
  <varray name="stress" >
   <v>       3.44960316       0.11935066      -1.11244535 </v>
   <v>       0.11935066       3.31179304      -0.64227089 </v>
   <v>      -1.11244540      -0.64227092       1.53915726 </v>
  </varray>
  <energy>
   <i name="e_fr_energy">    -39.40439458 </i>
   <i name="e_wo_entrp">    -39.40450496 </i>
   <i name="e_0_energy">      0.00033112 </i>
  </energy>
  <time name="totalsc">  726.55  727.21</time>
  <eigenvalues>
   <array>
    <dimension dim="1">band</dimension>
    <dimension dim="2">kpoint</dimension>
    <dimension dim="3">spin</dimension>
    <field>eigene</field>
    <field>occ</field>
    <set>
     <set comment="spin 1">
      <set comment="kpoint 1">
       <r>  -34.9784    1.0000 </r>
       <r>  -34.9678    1.0000 </r>
       <r>  -34.7870    1.0000 </r>
       <r>  -34.7868    1.0000 </r>
       <r>  -34.7764    1.0000 </r>
       <r>  -34.7763    1.0000 </r>
       <r>  -13.9601    1.0000 </r>
       <r>  -13.9011    1.0000 </r>
       <r>  -12.6950    1.0000 </r>
       <r>  -12.5975    1.0000 </r>
       <r>   -5.6773    1.0000 </r>
       <r>   -5.3778    1.0000 </r>
       <r>   -2.6081    1.0000 </r>
       <r>   -2.6077    1.0000 </r>
       <r>   -2.5968    1.0000 </r>
       <r>   -2.5964    1.0000 </r>
       <r>   -2.1754    1.0000 </r>
       <r>   -1.5154    1.0000 </r>
       <r>   -1.5153    1.0000 </r>
       <r>   -1.5037    1.0000 </r>
       <r>   -1.5025    1.0000 </r>
       <r>   -1.4482    1.0000 </r>
       <r>   -0.2124    1.0000 </r>
       <r>    0.2463    0.8005 </r>
       <r>    2.7073   -0.0000 </r>
       <r>    2.7164   -0.0000 </r>
       <r>    2.7276   -0.0000 </r>
       <r>    2.7346   -0.0000 </r>
       <r>    2.8887   -0.0000 </r>
       <r>    2.8986   -0.0000 </r>
       <r>    2.9102   -0.0000 </r>
       <r>    2.9221   -0.0000 </r>
       <r>    5.3744    0.0000 </r>
       <r>    5.6884    0.0000 </r>
       <r>    6.2577    0.0000 </r>
       <r>    6.5933    0.0000 </r>
      </set>
      <set comment="kpoint 2">
       <r>  -34.9743    1.0000 </r>
       <r>  -34.9637    1.0000 </r>
       <r>  -34.8083    1.0000 </r>
       <r>  -34.7976    1.0000 </r>
       <r>  -34.7917    1.0000 </r>
       <r>  -34.7813    1.0000 </r>
       <r>  -13.8735    1.0000 </r>
       <r>  -13.8145    1.0000 </r>
       <r>  -12.6583    1.0000 </r>
       <r>  -12.5631    1.0000 </r>
       <r>   -5.5782    1.0000 </r>
       <r>   -5.2789    1.0000 </r>
       <r>   -2.7954    1.0000 </r>
       <r>   -2.7831    1.0000 </r>
       <r>   -2.5176    1.0000 </r>
       <r>   -2.5056    1.0000 </r>
       <r>   -2.4554    1.0000 </r>
       <r>   -2.0522    1.0000 </r>
       <r>   -1.6532    1.0000 </r>
       <r>   -1.6396    1.0000 </r>
       <r>   -1.3515    1.0000 </r>
       <r>   -1.0471    1.0000 </r>
       <r>   -0.2332    1.0000 </r>
       <r>    0.1714    1.0340 </r>
       <r>    2.5949   -0.0000 </r>
       <r>    2.6253   -0.0000 </r>
       <r>    2.6558   -0.0000 </r>
       <r>    2.7317   -0.0000 </r>
       <r>    2.7871   -0.0000 </r>
       <r>    2.8251   -0.0000 </r>
       <r>    2.8610   -0.0000 </r>
       <r>    2.8854   -0.0000 </r>
       <r>    5.5056    0.0000 </r>
       <r>    5.8356    0.0000 </r>
       <r>    6.5837    0.0000 </r>
       <r>    6.9659    0.0000 </r>
      </set>
      <set comment="kpoint 3">
       <r>  -34.9629    1.0000 </r>
       <r>  -34.9523    1.0000 </r>
       <r>  -34.8668    1.0000 </r>
       <r>  -34.8560    1.0000 </r>
       <r>  -34.8051    1.0000 </r>
       <r>  -34.7947    1.0000 </r>
       <r>  -13.6250    1.0000 </r>
       <r>  -13.5667    1.0000 </r>
       <r>  -12.5532    1.0000 </r>
       <r>  -12.4647    1.0000 </r>
       <r>   -5.3181    1.0000 </r>
       <r>   -5.0250    1.0000 </r>
       <r>   -3.2490    1.0000 </r>
       <r>   -3.2286    1.0000 </r>
       <r>   -2.9503    1.0000 </r>
       <r>   -2.6691    1.0000 </r>
       <r>   -2.2625    1.0000 </r>
       <r>   -2.2495    1.0000 </r>
       <r>   -1.9890    1.0000 </r>
       <r>   -1.9740    1.0000 </r>
       <r>   -1.2721    1.0000 </r>
       <r>   -0.9157    1.0000 </r>
       <r>   -0.3633    1.0000 </r>
       <r>   -0.1059    1.0000 </r>
       <r>    2.1866   -0.0000 </r>
       <r>    2.3793   -0.0000 </r>
       <r>    2.5076   -0.0000 </r>
       <r>    2.5595   -0.0000 </r>
       <r>    2.6032   -0.0000 </r>
       <r>    2.6411   -0.0000 </r>
       <r>    3.2004    0.0000 </r>
       <r>    3.2366    0.0000 </r>
       <r>    5.8594    0.0000 </r>
       <r>    6.1863    0.0000 </r>
       <r>    6.9973    0.0000 </r>
       <r>    7.8384    0.0000 </r>
      </set>
      <set comment="kpoint 4">
       <r>  -34.9484    1.0000 </r>
       <r>  -34.9467    1.0000 </r>
       <r>  -34.9380    1.0000 </r>
       <r>  -34.9357    1.0000 </r>
       <r>  -34.8239    1.0000 </r>
       <r>  -34.8135    1.0000 </r>
       <r>  -13.2498    1.0000 </r>
       <r>  -13.1934    1.0000 </r>
       <r>  -12.3953    1.0000 </r>
       <r>  -12.3174    1.0000 </r>
       <r>   -5.0532    1.0000 </r>
       <r>   -4.8092    1.0000 </r>
       <r>   -3.7200    1.0000 </r>
       <r>   -3.6532    1.0000 </r>
       <r>   -3.4771    1.0000 </r>
       <r>   -3.2886    1.0000 </r>
       <r>   -2.3848    1.0000 </r>
       <r>   -2.3685    1.0000 </r>
       <r>   -1.8944    1.0000 </r>
       <r>   -1.8788    1.0000 </r>
       <r>   -1.4476    1.0000 </r>
       <r>   -1.1032    1.0000 </r>
       <r>   -0.6813    1.0000 </r>
       <r>   -0.5558    1.0000 </r>
       <r>    1.9562   -0.0000 </r>
       <r>    2.2563   -0.0000 </r>
       <r>    2.3100   -0.0000 </r>
       <r>    2.3542   -0.0000 </r>
       <r>    2.7032   -0.0000 </r>
       <r>    2.9220   -0.0000 </r>
       <r>    3.5768    0.0000 </r>
       <r>    3.6274    0.0000 </r>
       <r>    6.3875    0.0000 </r>
       <r>    6.6769    0.0000 </r>
       <r>    7.3995    0.0000 </r>
       <r>    8.1721    0.0000 </r>
      </set>
      <set comment="kpoint 5">
       <r>  -35.0335    1.0000 </r>
       <r>  -35.0228    1.0000 </r>
       <r>  -34.9297    1.0000 </r>
       <r>  -34.9190    1.0000 </r>
       <r>  -34.8438    1.0000 </r>
       <r>  -34.8334    1.0000 </r>
       <r>  -12.8094    1.0000 </r>
       <r>  -12.7571    1.0000 </r>
       <r>  -12.2127    1.0000 </r>
       <r>  -12.1481    1.0000 </r>
       <r>   -5.1036    1.0000 </r>
       <r>   -4.9806    1.0000 </r>
       <r>   -4.0520    1.0000 </r>
       <r>   -3.9196    1.0000 </r>
       <r>   -3.8526    1.0000 </r>
       <r>   -3.7217    1.0000 </r>
       <r>   -2.7406    1.0000 </r>
       <r>   -2.7233    1.0000 </r>
       <r>   -1.7208    1.0000 </r>
       <r>   -1.5016    1.0000 </r>
       <r>   -1.4798    1.0000 </r>
       <r>   -1.4003    1.0000 </r>
       <r>   -0.9730    1.0000 </r>
       <r>   -0.8806    1.0000 </r>
       <r>    2.0499   -0.0000 </r>
       <r>    2.1448   -0.0000 </r>
       <r>    2.1820   -0.0000 </r>
       <r>    2.3379   -0.0000 </r>
       <r>    3.1116    0.0000 </r>
       <r>    3.3685    0.0000 </r>
       <r>    3.8730    0.0000 </r>
       <r>    3.9414    0.0000 </r>
       <r>    7.0523    0.0000 </r>
       <r>    7.2391    0.0000 </r>
       <r>    7.8200    0.0000 </r>
       <r>    7.9922    0.0000 </r>
      </set>
      <set comment="kpoint 6">
       <r>  -35.1033    1.0000 </r>
       <r>  -35.0926    1.0000 </r>
       <r>  -34.9155    1.0000 </r>
       <r>  -34.9048    1.0000 </r>
       <r>  -34.8603    1.0000 </r>
       <r>  -34.8499    1.0000 </r>
       <r>  -12.3980    1.0000 </r>
       <r>  -12.3522    1.0000 </r>
       <r>  -12.0464    1.0000 </r>
       <r>  -11.9957    1.0000 </r>
       <r>   -5.4170    1.0000 </r>
       <r>   -5.3545    1.0000 </r>
       <r>   -4.4643    1.0000 </r>
       <r>   -4.3736    1.0000 </r>
       <r>   -3.9504    1.0000 </r>
       <r>   -3.7975    1.0000 </r>
       <r>   -3.0007    1.0000 </r>
       <r>   -2.9828    1.0000 </r>
       <r>   -1.9312    1.0000 </r>
       <r>   -1.6312    1.0000 </r>
       <r>   -1.1884    1.0000 </r>
       <r>   -1.1574    1.0000 </r>
       <r>   -0.9344    1.0000 </r>
       <r>   -0.8132    1.0000 </r>
       <r>    2.1055   -0.0000 </r>
       <r>    2.1304   -0.0000 </r>
       <r>    2.3159   -0.0000 </r>
       <r>    2.5112   -0.0000 </r>
       <r>    3.5076    0.0000 </r>
       <r>    3.7488    0.0000 </r>
       <r>    4.0559    0.0000 </r>
       <r>    4.1399    0.0000 </r>
       <r>    6.8211    0.0000 </r>
       <r>    7.2038    0.0000 </r>
       <r>    7.6597    0.0000 </r>
       <r>    7.9174    0.0000 </r>
      </set>
      <set comment="kpoint 7">
       <r>  -35.1423    1.0000 </r>
       <r>  -35.1316    1.0000 </r>
       <r>  -34.9074    1.0000 </r>
       <r>  -34.8967    1.0000 </r>
       <r>  -34.8695    1.0000 </r>
       <r>  -34.8591    1.0000 </r>
       <r>  -12.1396    1.0000 </r>
       <r>  -12.1003    1.0000 </r>
       <r>  -11.9444    1.0000 </r>
       <r>  -11.9041    1.0000 </r>
       <r>   -5.6551    1.0000 </r>
       <r>   -5.6089    1.0000 </r>
       <r>   -4.7125    1.0000 </r>
       <r>   -4.6420    1.0000 </r>
       <r>   -4.0516    1.0000 </r>
       <r>   -3.9111    1.0000 </r>
       <r>   -3.1368    1.0000 </r>
       <r>   -3.1186    1.0000 </r>
       <r>   -2.0327    1.0000 </r>
       <r>   -1.7467    1.0000 </r>
       <r>   -1.0244    1.0000 </r>
       <r>   -0.9862    1.0000 </r>
       <r>   -0.7212    1.0000 </r>
       <r>   -0.5792    1.0000 </r>
       <r>    2.1356   -0.0000 </r>
       <r>    2.1514   -0.0000 </r>
       <r>    2.5739   -0.0000 </r>
       <r>    2.6548   -0.0000 </r>
       <r>    3.7267    0.0000 </r>
       <r>    3.9376    0.0000 </r>
       <r>    4.1382    0.0000 </r>
       <r>    4.2315    0.0000 </r>
       <r>    6.0564    0.0000 </r>
       <r>    6.5030    0.0000 </r>
       <r>    7.8468    0.0000 </r>
       <r>    8.0239    0.0000 </r>
      </set>
      <set comment="kpoint 8">
       <r>  -34.9743    1.0000 </r>
       <r>  -34.9637    1.0000 </r>
       <r>  -34.8081    1.0000 </r>
       <r>  -34.7977    1.0000 </r>
       <r>  -34.7918    1.0000 </r>
       <r>  -34.7812    1.0000 </r>
       <r>  -13.8735    1.0000 </r>
       <r>  -13.8145    1.0000 </r>
       <r>  -12.6584    1.0000 </r>
       <r>  -12.5630    1.0000 </r>
       <r>   -5.5784    1.0000 </r>
       <r>   -5.2788    1.0000 </r>
       <r>   -2.7956    1.0000 </r>
       <r>   -2.7829    1.0000 </r>
       <r>   -2.5173    1.0000 </r>
       <r>   -2.5063    1.0000 </r>
       <r>   -2.4545    1.0000 </r>
       <r>   -2.0522    1.0000 </r>
       <r>   -1.6523    1.0000 </r>
       <r>   -1.6408    1.0000 </r>
       <r>   -1.3563    1.0000 </r>
       <r>   -1.0431    1.0000 </r>
       <r>   -0.2338    1.0000 </r>
       <r>    0.1748    1.0326 </r>
       <r>    2.5807   -0.0000 </r>
       <r>    2.6262   -0.0000 </r>
       <r>    2.6510   -0.0000 </r>
       <r>    2.7452   -0.0000 </r>
       <r>    2.8025   -0.0000 </r>
       <r>    2.8187   -0.0000 </r>
       <r>    2.8631   -0.0000 </r>
       <r>    2.8763   -0.0000 </r>
       <r>    5.5052    0.0000 </r>
       <r>    5.8357    0.0000 </r>
       <r>    6.5817    0.0000 </r>
       <r>    6.9659    0.0000 </r>
      </set>
      <set comment="kpoint 9">
       <r>  -34.9666    1.0000 </r>
       <r>  -34.9559    1.0000 </r>
       <r>  -34.8472    1.0000 </r>
       <r>  -34.8365    1.0000 </r>
       <r>  -34.8018    1.0000 </r>
       <r>  -34.7913    1.0000 </r>
       <r>  -13.7059    1.0000 </r>
       <r>  -13.6472    1.0000 </r>
       <r>  -12.5874    1.0000 </r>
       <r>  -12.4965    1.0000 </r>
       <r>   -5.3968    1.0000 </r>
       <r>   -5.0999    1.0000 </r>
       <r>   -3.1113    1.0000 </r>
       <r>   -3.0945    1.0000 </r>
       <r>   -2.7897    1.0000 </r>
       <r>   -2.4666    1.0000 </r>
       <r>   -2.3495    1.0000 </r>
       <r>   -2.3373    1.0000 </r>
       <r>   -1.9678    1.0000 </r>
       <r>   -1.9513    1.0000 </r>
       <r>   -1.2025    1.0000 </r>
       <r>   -0.8600    1.0000 </r>
       <r>   -0.3084    1.0000 </r>
       <r>   -0.0012    1.0002 </r>
       <r>    2.2948   -0.0000 </r>
       <r>    2.4379   -0.0000 </r>
       <r>    2.4690   -0.0000 </r>
       <r>    2.5743   -0.0000 </r>
       <r>    2.6251   -0.0000 </r>
       <r>    2.6653   -0.0000 </r>
       <r>    3.1327    0.0000 </r>
       <r>    3.1673    0.0000 </r>
       <r>    5.7463    0.0000 </r>
       <r>    6.0802    0.0000 </r>
       <r>    6.9494    0.0000 </r>
       <r>    7.6201    0.0000 </r>
      </set>
      <set comment="kpoint 10">
       <r>  -34.9528    1.0000 </r>
       <r>  -34.9422    1.0000 </r>
       <r>  -34.9148    1.0000 </r>
       <r>  -34.9041    1.0000 </r>
       <r>  -34.8203    1.0000 </r>
       <r>  -34.8098    1.0000 </r>
       <r>  -13.3935    1.0000 </r>
       <r>  -13.3361    1.0000 </r>
       <r>  -12.4553    1.0000 </r>
       <r>  -12.3731    1.0000 </r>
       <r>   -5.1172    1.0000 </r>
       <r>   -4.8419    1.0000 </r>
       <r>   -3.5596    1.0000 </r>
       <r>   -3.5209    1.0000 </r>
       <r>   -3.2217    1.0000 </r>
       <r>   -2.9883    1.0000 </r>
       <r>   -2.4582    1.0000 </r>
       <r>   -2.4205    1.0000 </r>
       <r>   -2.0664    1.0000 </r>
       <r>   -2.0519    1.0000 </r>
       <r>   -1.1858    1.0000 </r>
       <r>   -0.8652    1.0000 </r>
       <r>   -0.5391    1.0000 </r>
       <r>   -0.3738    1.0000 </r>
       <r>    1.9610   -0.0000 </r>
       <r>    2.2055   -0.0000 </r>
       <r>    2.3927   -0.0000 </r>
       <r>    2.4490   -0.0000 </r>
       <r>    2.4749   -0.0000 </r>
       <r>    2.6484   -0.0000 </r>
       <r>    3.5299    0.0000 </r>
       <r>    3.5919    0.0000 </r>
       <r>    6.1864    0.0000 </r>
       <r>    6.5021    0.0000 </r>
       <r>    7.2482    0.0000 </r>
       <r>    8.2732    0.0000 </r>
      </set>
      <set comment="kpoint 11">
       <r>  -34.9951    1.0000 </r>
       <r>  -34.9844    1.0000 </r>
       <r>  -34.9362    1.0000 </r>
       <r>  -34.9255    1.0000 </r>
       <r>  -34.8426    1.0000 </r>
       <r>  -34.8322    1.0000 </r>
       <r>  -12.9836    1.0000 </r>
       <r>  -12.9291    1.0000 </r>
       <r>  -12.2832    1.0000 </r>
       <r>  -12.2128    1.0000 </r>
       <r>   -4.9901    1.0000 </r>
       <r>   -4.8136    1.0000 </r>
       <r>   -3.8745    1.0000 </r>
       <r>   -3.7495    1.0000 </r>
       <r>   -3.7049    1.0000 </r>
       <r>   -3.5786    1.0000 </r>
       <r>   -2.8539    1.0000 </r>
       <r>   -2.7830    1.0000 </r>
       <r>   -1.7874    1.0000 </r>
       <r>   -1.7649    1.0000 </r>
       <r>   -1.3979    1.0000 </r>
       <r>   -1.1114    1.0000 </r>
       <r>   -0.8427    1.0000 </r>
       <r>   -0.7570    1.0000 </r>
       <r>    1.8550   -0.0000 </r>
       <r>    2.0861   -0.0000 </r>
       <r>    2.2814   -0.0000 </r>
       <r>    2.3955   -0.0000 </r>
       <r>    2.7513   -0.0000 </r>
       <r>    2.9740   -0.0000 </r>
       <r>    3.8733    0.0000 </r>
       <r>    3.9633    0.0000 </r>
       <r>    6.8093    0.0000 </r>
       <r>    7.0515    0.0000 </r>
       <r>    7.8114    0.0000 </r>
       <r>    8.3365    0.0000 </r>
      </set>
      <set comment="kpoint 12">
       <r>  -35.0698    1.0000 </r>
       <r>  -35.0591    1.0000 </r>
       <r>  -34.9205    1.0000 </r>
       <r>  -34.9099    1.0000 </r>
       <r>  -34.8637    1.0000 </r>
       <r>  -34.8532    1.0000 </r>
       <r>  -12.5526    1.0000 </r>
       <r>  -12.5035    1.0000 </r>
       <r>  -12.1050    1.0000 </r>
       <r>  -12.0482    1.0000 </r>
       <r>   -5.2083    1.0000 </r>
       <r>   -5.1247    1.0000 </r>
       <r>   -4.2823    1.0000 </r>
       <r>   -4.1940    1.0000 </r>
       <r>   -3.8736    1.0000 </r>
       <r>   -3.7128    1.0000 </r>
       <r>   -3.0678    1.0000 </r>
       <r>   -2.9967    1.0000 </r>
       <r>   -1.7196    1.0000 </r>
       <r>   -1.6151    1.0000 </r>
       <r>   -1.5957    1.0000 </r>
       <r>   -1.4130    1.0000 </r>
       <r>   -0.8659    1.0000 </r>
       <r>   -0.7985    1.0000 </r>
       <r>    1.9614   -0.0000 </r>
       <r>    2.1193   -0.0000 </r>
       <r>    2.3278   -0.0000 </r>
       <r>    2.4543   -0.0000 </r>
       <r>    3.1727    0.0000 </r>
       <r>    3.4017    0.0000 </r>
       <r>    4.0659    0.0000 </r>
       <r>    4.1831    0.0000 </r>
       <r>    7.3538    0.0000 </r>
       <r>    7.5406    0.0000 </r>
       <r>    7.6223    0.0000 </r>
       <r>    8.1223    0.0000 </r>
      </set>
      <set comment="kpoint 13">
       <r>  -35.1222    1.0000 </r>
       <r>  -35.1114    1.0000 </r>
       <r>  -34.9094    1.0000 </r>
       <r>  -34.8987    1.0000 </r>
       <r>  -34.8785    1.0000 </r>
       <r>  -34.8681    1.0000 </r>
       <r>  -12.2098    1.0000 </r>
       <r>  -12.1676    1.0000 </r>
       <r>  -11.9664    1.0000 </r>
       <r>  -11.9220    1.0000 </r>
       <r>   -5.4871    1.0000 </r>
       <r>   -5.4354    1.0000 </r>
       <r>   -4.6655    1.0000 </r>
       <r>   -4.6017    1.0000 </r>
       <r>   -3.9748    1.0000 </r>
       <r>   -3.8255    1.0000 </r>
       <r>   -3.1544    1.0000 </r>
       <r>   -3.1041    1.0000 </r>
       <r>   -1.9392    1.0000 </r>
       <r>   -1.6712    1.0000 </r>
       <r>   -1.4977    1.0000 </r>
       <r>   -1.4205    1.0000 </r>
       <r>   -0.6536    1.0000 </r>
       <r>   -0.5726    1.0000 </r>
       <r>    2.1115   -0.0000 </r>
       <r>    2.1818   -0.0000 </r>
       <r>    2.5074   -0.0000 </r>
       <r>    2.6080   -0.0000 </r>
       <r>    3.5694    0.0000 </r>
       <r>    3.7722    0.0000 </r>
       <r>    4.0635    0.0000 </r>
       <r>    4.2134    0.0000 </r>
       <r>    6.4645    0.0000 </r>
       <r>    6.9134    0.0000 </r>
       <r>    8.0489    0.0000 </r>
       <r>    8.2230    0.0000 </r>
      </set>
      <set comment="kpoint 14">
       <r>  -35.1409    1.0000 </r>
       <r>  -35.1302    1.0000 </r>
       <r>  -34.9053    1.0000 </r>
       <r>  -34.8947    1.0000 </r>
       <r>  -34.8839    1.0000 </r>
       <r>  -34.8734    1.0000 </r>
       <r>  -12.0761    1.0000 </r>
       <r>  -12.0377    1.0000 </r>
       <r>  -11.9128    1.0000 </r>
       <r>  -11.8743    1.0000 </r>
       <r>   -5.6032    1.0000 </r>
       <r>   -5.5588    1.0000 </r>
       <r>   -4.8071    1.0000 </r>
       <r>   -4.7495    1.0000 </r>
       <r>   -4.0424    1.0000 </r>
       <r>   -3.9014    1.0000 </r>
       <r>   -3.1728    1.0000 </r>
       <r>   -3.1366    1.0000 </r>
       <r>   -2.0265    1.0000 </r>
       <r>   -1.7530    1.0000 </r>
       <r>   -1.4342    1.0000 </r>
       <r>   -1.3536    1.0000 </r>
       <r>   -0.5213    1.0000 </r>
       <r>   -0.4294    1.0000 </r>
       <r>    2.1513   -0.0000 </r>
       <r>    2.1795   -0.0000 </r>
       <r>    2.6622   -0.0000 </r>
       <r>    2.7152   -0.0000 </r>
       <r>    3.8424    0.0000 </r>
       <r>    3.9002    0.0000 </r>
       <r>    3.9997    0.0000 </r>
       <r>    4.1221    0.0000 </r>
       <r>    6.0419    0.0000 </r>
       <r>    6.5068    0.0000 </r>
       <r>    8.2985    0.0000 </r>
       <r>    8.4454    0.0000 </r>
      </set>
      <set comment="kpoint 15">
       <r>  -34.9629    1.0000 </r>
       <r>  -34.9523    1.0000 </r>
       <r>  -34.8666    1.0000 </r>
       <r>  -34.8561    1.0000 </r>
       <r>  -34.8052    1.0000 </r>
       <r>  -34.7946    1.0000 </r>
       <r>  -13.6253    1.0000 </r>
       <r>  -13.5665    1.0000 </r>
       <r>  -12.5535    1.0000 </r>
       <r>  -12.4644    1.0000 </r>
       <r>   -5.3187    1.0000 </r>
       <r>   -5.0245    1.0000 </r>
       <r>   -3.2500    1.0000 </r>
       <r>   -3.2277    1.0000 </r>
       <r>   -2.9497    1.0000 </r>
       <r>   -2.6688    1.0000 </r>
       <r>   -2.2616    1.0000 </r>
       <r>   -2.2504    1.0000 </r>
       <r>   -1.9874    1.0000 </r>
       <r>   -1.9759    1.0000 </r>
       <r>   -1.2849    1.0000 </r>
       <r>   -0.9059    1.0000 </r>
       <r>   -0.3659    1.0000 </r>
       <r>   -0.0933    1.0000 </r>
       <r>    2.1705   -0.0000 </r>
       <r>    2.3811   -0.0000 </r>
       <r>    2.5023   -0.0000 </r>
       <r>    2.5739   -0.0000 </r>
       <r>    2.5902   -0.0000 </r>
       <r>    2.6518   -0.0000 </r>
       <r>    3.2107    0.0000 </r>
       <r>    3.2254    0.0000 </r>
       <r>    5.8530    0.0000 </r>
       <r>    6.1867    0.0000 </r>
       <r>    6.9331    0.0000 </r>
       <r>    7.7880    0.0000 </r>
      </set>
      <set comment="kpoint 16">
       <r>  -34.9528    1.0000 </r>
       <r>  -34.9422    1.0000 </r>
       <r>  -34.9147    1.0000 </r>
       <r>  -34.9041    1.0000 </r>
       <r>  -34.8203    1.0000 </r>
       <r>  -34.8098    1.0000 </r>
       <r>  -13.3937    1.0000 </r>
       <r>  -13.3359    1.0000 </r>
       <r>  -12.4556    1.0000 </r>
       <r>  -12.3727    1.0000 </r>
       <r>   -5.1175    1.0000 </r>
       <r>   -4.8418    1.0000 </r>
       <r>   -3.5613    1.0000 </r>
       <r>   -3.5191    1.0000 </r>
       <r>   -3.2219    1.0000 </r>
       <r>   -2.9875    1.0000 </r>
       <r>   -2.4572    1.0000 </r>
       <r>   -2.4221    1.0000 </r>
       <r>   -2.0656    1.0000 </r>
       <r>   -2.0528    1.0000 </r>
       <r>   -1.1946    1.0000 </r>
       <r>   -0.8589    1.0000 </r>
       <r>   -0.5410    1.0000 </r>
       <r>   -0.3649    1.0000 </r>
       <r>    1.9553   -0.0000 </r>
       <r>    2.2056   -0.0000 </r>
       <r>    2.3962   -0.0000 </r>
       <r>    2.4401   -0.0000 </r>
       <r>    2.4785   -0.0000 </r>
       <r>    2.6504   -0.0000 </r>
       <r>    3.5355    0.0000 </r>
       <r>    3.5868    0.0000 </r>
       <r>    6.1871    0.0000 </r>
       <r>    6.5028    0.0000 </r>
       <r>    7.2536    0.0000 </r>
       <r>    8.4085    0.0000 </r>
      </set>
      <set comment="kpoint 17">
       <r>  -34.9769    1.0000 </r>
       <r>  -34.9662    1.0000 </r>
       <r>  -34.9386    1.0000 </r>
       <r>  -34.9279    1.0000 </r>
       <r>  -34.8466    1.0000 </r>
       <r>  -34.8361    1.0000 </r>
       <r>  -13.0452    1.0000 </r>
       <r>  -12.9895    1.0000 </r>
       <r>  -12.3078    1.0000 </r>
       <r>  -12.2347    1.0000 </r>
       <r>   -4.9423    1.0000 </r>
       <r>   -4.7379    1.0000 </r>
       <r>   -3.8158    1.0000 </r>
       <r>   -3.7059    1.0000 </r>
       <r>   -3.5115    1.0000 </r>
       <r>   -3.3828    1.0000 </r>
       <r>   -3.0892    1.0000 </r>
       <r>   -2.9736    1.0000 </r>
       <r>   -1.9383    1.0000 </r>
       <r>   -1.9176    1.0000 </r>
       <r>   -1.1725    1.0000 </r>
       <r>   -0.8992    1.0000 </r>
       <r>   -0.7771    1.0000 </r>
       <r>   -0.6818    1.0000 </r>
       <r>    1.7631   -0.0000 </r>
       <r>    2.0092   -0.0000 </r>
       <r>    2.3247   -0.0000 </r>
       <r>    2.4263   -0.0000 </r>
       <r>    2.5255   -0.0000 </r>
       <r>    2.7293   -0.0000 </r>
       <r>    3.9186    0.0000 </r>
       <r>    4.0187    0.0000 </r>
       <r>    6.7209    0.0000 </r>
       <r>    6.9957    0.0000 </r>
       <r>    7.7522    0.0000 </r>
       <r>    8.7481    0.0000 </r>
      </set>
      <set comment="kpoint 18">
       <r>  -35.0397    1.0000 </r>
       <r>  -35.0290    1.0000 </r>
       <r>  -34.9234    1.0000 </r>
       <r>  -34.9127    1.0000 </r>
       <r>  -34.8769    1.0000 </r>
       <r>  -34.8665    1.0000 </r>
       <r>  -12.6391    1.0000 </r>
       <r>  -12.5876    1.0000 </r>
       <r>  -12.1357    1.0000 </r>
       <r>  -12.0746    1.0000 </r>
       <r>   -5.0150    1.0000 </r>
       <r>   -4.9070    1.0000 </r>
       <r>   -4.0909    1.0000 </r>
       <r>   -4.0396    1.0000 </r>
       <r>   -3.7953    1.0000 </r>
       <r>   -3.6199    1.0000 </r>
       <r>   -3.3064    1.0000 </r>
       <r>   -3.1448    1.0000 </r>
       <r>   -2.0698    1.0000 </r>
       <r>   -2.0348    1.0000 </r>
       <r>   -1.3831    1.0000 </r>
       <r>   -1.1370    1.0000 </r>
       <r>   -0.8343    1.0000 </r>
       <r>   -0.7857    1.0000 </r>
       <r>    1.7908   -0.0000 </r>
       <r>    2.0619   -0.0000 </r>
       <r>    2.3970   -0.0000 </r>
       <r>    2.4691   -0.0000 </r>
       <r>    2.7795   -0.0000 </r>
       <r>    2.9931   -0.0000 </r>
       <r>    4.1673    0.0000 </r>
       <r>    4.3056    0.0000 </r>
       <r>    7.4009    0.0000 </r>
       <r>    7.5824    0.0000 </r>
       <r>    8.0918    0.0000 </r>
       <r>    8.4620    0.0000 </r>
      </set>
      <set comment="kpoint 19">
       <r>  -35.0904    1.0000 </r>
       <r>  -35.0796    1.0000 </r>
       <r>  -34.9108    1.0000 </r>
       <r>  -34.9029    1.0000 </r>
       <r>  -34.9001    1.0000 </r>
       <r>  -34.8925    1.0000 </r>
       <r>  -12.2648    1.0000 </r>
       <r>  -12.2195    1.0000 </r>
       <r>  -11.9776    1.0000 </r>
       <r>  -11.9289    1.0000 </r>
       <r>   -5.2127    1.0000 </r>
       <r>   -5.1475    1.0000 </r>
       <r>   -4.6310    1.0000 </r>
       <r>   -4.5907    1.0000 </r>
       <r>   -3.8169    1.0000 </r>
       <r>   -3.6466    1.0000 </r>
       <r>   -3.2765    1.0000 </r>
       <r>   -3.1456    1.0000 </r>
       <r>   -2.2178    1.0000 </r>
       <r>   -2.1467    1.0000 </r>
       <r>   -1.7147    1.0000 </r>
       <r>   -1.4737    1.0000 </r>
       <r>   -0.6592    1.0000 </r>
       <r>   -0.6168    1.0000 </r>
       <r>    2.0162   -0.0000 </r>
       <r>    2.2316   -0.0000 </r>
       <r>    2.5199   -0.0000 </r>
       <r>    2.5705   -0.0000 </r>
       <r>    3.1214    0.0000 </r>
       <r>    3.3208    0.0000 </r>
       <r>    4.2402    0.0000 </r>
       <r>    4.4061    0.0000 </r>
       <r>    7.0925    0.0000 </r>
       <r>    7.5272    0.0000 </r>
       <r>    8.2107    0.0000 </r>
       <r>    8.5371    0.0000 </r>
      </set>
      <set comment="kpoint 20">
       <r>  -35.1185    1.0000 </r>
       <r>  -35.1078    1.0000 </r>
       <r>  -34.9178    1.0000 </r>
       <r>  -34.9073    1.0000 </r>
       <r>  -34.9036    1.0000 </r>
       <r>  -34.8930    1.0000 </r>
       <r>  -12.0337    1.0000 </r>
       <r>  -11.9938    1.0000 </r>
       <r>  -11.8799    1.0000 </r>
       <r>  -11.8404    1.0000 </r>
       <r>   -5.3404    1.0000 </r>
       <r>   -5.2943    1.0000 </r>
       <r>   -4.9382    1.0000 </r>
       <r>   -4.8997    1.0000 </r>
       <r>   -3.9481    1.0000 </r>
       <r>   -3.8012    1.0000 </r>
       <r>   -3.1804    1.0000 </r>
       <r>   -3.0983    1.0000 </r>
       <r>   -2.2363    1.0000 </r>
       <r>   -2.1337    1.0000 </r>
       <r>   -1.9645    1.0000 </r>
       <r>   -1.7158    1.0000 </r>
       <r>   -0.4300    1.0000 </r>
       <r>   -0.3778    1.0000 </r>
       <r>    2.0717   -0.0000 </r>
       <r>    2.1265   -0.0000 </r>
       <r>    2.7738   -0.0000 </r>
       <r>    2.8707   -0.0000 </r>
       <r>    3.3765    0.0000 </r>
       <r>    3.5418    0.0000 </r>
       <r>    4.1984    0.0000 </r>
       <r>    4.3828    0.0000 </r>
       <r>    6.3929    0.0000 </r>
       <r>    6.8790    0.0000 </r>
       <r>    8.7507    0.0000 </r>
       <r>    8.8986    0.0000 </r>
      </set>
      <set comment="kpoint 21">
       <r>  -34.9666    1.0000 </r>
       <r>  -34.9559    1.0000 </r>
       <r>  -34.8470    1.0000 </r>
       <r>  -34.8366    1.0000 </r>
       <r>  -34.8019    1.0000 </r>
       <r>  -34.7912    1.0000 </r>
       <r>  -13.7061    1.0000 </r>
       <r>  -13.6471    1.0000 </r>
       <r>  -12.5877    1.0000 </r>
       <r>  -12.4963    1.0000 </r>
       <r>   -5.3973    1.0000 </r>
       <r>   -5.0995    1.0000 </r>
       <r>   -3.1110    1.0000 </r>
       <r>   -3.0948    1.0000 </r>
       <r>   -2.7887    1.0000 </r>
       <r>   -2.4675    1.0000 </r>
       <r>   -2.3488    1.0000 </r>
       <r>   -2.3379    1.0000 </r>
       <r>   -1.9675    1.0000 </r>
       <r>   -1.9521    1.0000 </r>
       <r>   -1.2091    1.0000 </r>
       <r>   -0.8547    1.0000 </r>
       <r>   -0.3100    1.0000 </r>
       <r>    0.0074    1.0003 </r>
       <r>    2.2822   -0.0000 </r>
       <r>    2.4364   -0.0000 </r>
       <r>    2.4666   -0.0000 </r>
       <r>    2.5844   -0.0000 </r>
       <r>    2.6314   -0.0000 </r>
       <r>    2.6603   -0.0000 </r>
       <r>    3.1403    0.0000 </r>
       <r>    3.1587    0.0000 </r>
       <r>    5.7464    0.0000 </r>
       <r>    6.0804    0.0000 </r>
       <r>    6.9064    0.0000 </r>
       <r>    7.6177    0.0000 </r>
      </set>
      <set comment="kpoint 22">
       <r>  -34.9482    1.0000 </r>
       <r>  -34.9468    1.0000 </r>
       <r>  -34.9377    1.0000 </r>
       <r>  -34.9360    1.0000 </r>
       <r>  -34.8241    1.0000 </r>
       <r>  -34.8134    1.0000 </r>
       <r>  -13.2505    1.0000 </r>
       <r>  -13.1928    1.0000 </r>
       <r>  -12.3962    1.0000 </r>
       <r>  -12.3164    1.0000 </r>
       <r>   -5.0536    1.0000 </r>
       <r>   -4.8090    1.0000 </r>
       <r>   -3.7264    1.0000 </r>
       <r>   -3.6472    1.0000 </r>
       <r>   -3.4780    1.0000 </r>
       <r>   -3.2863    1.0000 </r>
       <r>   -2.3825    1.0000 </r>
       <r>   -2.3708    1.0000 </r>
       <r>   -1.8925    1.0000 </r>
       <r>   -1.8811    1.0000 </r>
       <r>   -1.4697    1.0000 </r>
       <r>   -1.0854    1.0000 </r>
       <r>   -0.6860    1.0000 </r>
       <r>   -0.5379    1.0000 </r>
       <r>    1.9454   -0.0000 </r>
       <r>    2.2561   -0.0000 </r>
       <r>    2.3255   -0.0000 </r>
       <r>    2.3399   -0.0000 </r>
       <r>    2.6983   -0.0000 </r>
       <r>    2.9271   -0.0000 </r>
       <r>    3.5935    0.0000 </r>
       <r>    3.6101    0.0000 </r>
       <r>    6.3855    0.0000 </r>
       <r>    6.6802    0.0000 </r>
       <r>    7.3939    0.0000 </r>
       <r>    8.1465    0.0000 </r>
      </set>
      <set comment="kpoint 23">
       <r>  -34.9950    1.0000 </r>
       <r>  -34.9845    1.0000 </r>
       <r>  -34.9362    1.0000 </r>
       <r>  -34.9256    1.0000 </r>
       <r>  -34.8427    1.0000 </r>
       <r>  -34.8321    1.0000 </r>
       <r>  -12.9844    1.0000 </r>
       <r>  -12.9285    1.0000 </r>
       <r>  -12.2841    1.0000 </r>
       <r>  -12.2117    1.0000 </r>
       <r>   -4.9897    1.0000 </r>
       <r>   -4.8138    1.0000 </r>
       <r>   -3.8820    1.0000 </r>
       <r>   -3.7414    1.0000 </r>
       <r>   -3.7077    1.0000 </r>
       <r>   -3.5767    1.0000 </r>
       <r>   -2.8529    1.0000 </r>
       <r>   -2.7840    1.0000 </r>
       <r>   -1.7848    1.0000 </r>
       <r>   -1.7671    1.0000 </r>
       <r>   -1.4161    1.0000 </r>
       <r>   -1.0970    1.0000 </r>
       <r>   -0.8453    1.0000 </r>
       <r>   -0.7449    1.0000 </r>
       <r>    1.8550   -0.0000 </r>
       <r>    2.0822   -0.0000 </r>
       <r>    2.2830   -0.0000 </r>
       <r>    2.3910   -0.0000 </r>
       <r>    2.7556   -0.0000 </r>
       <r>    2.9686   -0.0000 </r>
       <r>    3.8826    0.0000 </r>
       <r>    3.9558    0.0000 </r>
       <r>    6.8068    0.0000 </r>
       <r>    7.0561    0.0000 </r>
       <r>    7.8056    0.0000 </r>
       <r>    8.4908    0.0000 </r>
      </set>
      <set comment="kpoint 24">
       <r>  -35.0397    1.0000 </r>
       <r>  -35.0291    1.0000 </r>
       <r>  -34.9234    1.0000 </r>
       <r>  -34.9127    1.0000 </r>
       <r>  -34.8770    1.0000 </r>
       <r>  -34.8664    1.0000 </r>
       <r>  -12.6398    1.0000 </r>
       <r>  -12.5871    1.0000 </r>
       <r>  -12.1364    1.0000 </r>
       <r>  -12.0738    1.0000 </r>
       <r>   -5.0148    1.0000 </r>
       <r>   -4.9067    1.0000 </r>
       <r>   -4.0920    1.0000 </r>
       <r>   -4.0331    1.0000 </r>
       <r>   -3.8105    1.0000 </r>
       <r>   -3.6143    1.0000 </r>
       <r>   -3.3046    1.0000 </r>
       <r>   -3.1422    1.0000 </r>
       <r>   -2.0683    1.0000 </r>
       <r>   -2.0360    1.0000 </r>
       <r>   -1.3929    1.0000 </r>
       <r>   -1.1291    1.0000 </r>
       <r>   -0.8341    1.0000 </r>
       <r>   -0.7831    1.0000 </r>
       <r>    1.7931   -0.0000 </r>
       <r>    2.0617   -0.0000 </r>
       <r>    2.3955   -0.0000 </r>
       <r>    2.4667   -0.0000 </r>
       <r>    2.7879   -0.0000 </r>
       <r>    2.9839   -0.0000 </r>
       <r>    4.1666    0.0000 </r>
       <r>    4.3077    0.0000 </r>
       <r>    7.4019    0.0000 </r>
       <r>    7.5837    0.0000 </r>
       <r>    8.0582    0.0000 </r>
       <r>    8.5628    0.0000 </r>
      </set>
      <set comment="kpoint 25">
       <r>  -35.0722    1.0000 </r>
       <r>  -35.0615    1.0000 </r>
       <r>  -34.9185    1.0000 </r>
       <r>  -34.9113    1.0000 </r>
       <r>  -34.9081    1.0000 </r>
       <r>  -34.9006    1.0000 </r>
       <r>  -12.2862    1.0000 </r>
       <r>  -12.2385    1.0000 </r>
       <r>  -11.9814    1.0000 </r>
       <r>  -11.9295    1.0000 </r>
       <r>   -5.0686    1.0000 </r>
       <r>   -4.9919    1.0000 </r>
       <r>   -4.6142    1.0000 </r>
       <r>   -4.5842    1.0000 </r>
       <r>   -3.6960    1.0000 </r>
       <r>   -3.4839    1.0000 </r>
       <r>   -3.3375    1.0000 </r>
       <r>   -3.1667    1.0000 </r>
       <r>   -2.6007    1.0000 </r>
       <r>   -2.5600    1.0000 </r>
       <r>   -1.6093    1.0000 </r>
       <r>   -1.3685    1.0000 </r>
       <r>   -0.6835    1.0000 </r>
       <r>   -0.6502    1.0000 </r>
       <r>    1.9619   -0.0000 </r>
       <r>    2.2433   -0.0000 </r>
       <r>    2.5343   -0.0000 </r>
       <r>    2.5646   -0.0000 </r>
       <r>    2.9129   -0.0000 </r>
       <r>    3.1000    0.0000 </r>
       <r>    4.3406    0.0000 </r>
       <r>    4.5173    0.0000 </r>
       <r>    7.4868    0.0000 </r>
       <r>    7.8875    0.0000 </r>
       <r>    8.1866    0.0000 </r>
       <r>    8.5220    0.0000 </r>
      </set>
      <set comment="kpoint 26">
       <r>  -35.0890    1.0000 </r>
       <r>  -35.0783    1.0000 </r>
       <r>  -34.9541    1.0000 </r>
       <r>  -34.9436    1.0000 </r>
       <r>  -34.9027    1.0000 </r>
       <r>  -34.8920    1.0000 </r>
       <r>  -12.0148    1.0000 </r>
       <r>  -11.9722    1.0000 </r>
       <r>  -11.8588    1.0000 </r>
       <r>  -11.8167    1.0000 </r>
       <r>   -5.0569    1.0000 </r>
       <r>   -5.0200    1.0000 </r>
       <r>   -5.0057    1.0000 </r>
       <r>   -4.9797    1.0000 </r>
       <r>   -3.7510    1.0000 </r>
       <r>   -3.5916    1.0000 </r>
       <r>   -3.1886    1.0000 </r>
       <r>   -3.0528    1.0000 </r>
       <r>   -2.9697    1.0000 </r>
       <r>   -2.8737    1.0000 </r>
       <r>   -1.9420    1.0000 </r>
       <r>   -1.6932    1.0000 </r>
       <r>   -0.4131    1.0000 </r>
       <r>   -0.3842    1.0000 </r>
       <r>    1.9557   -0.0000 </r>
       <r>    2.0391   -0.0000 </r>
       <r>    2.8408   -0.0000 </r>
       <r>    2.9808   -0.0000 </r>
       <r>    3.0522    0.0000 </r>
       <r>    3.2214    0.0000 </r>
       <r>    4.4567    0.0000 </r>
       <r>    4.6308    0.0000 </r>
       <r>    6.9310    0.0000 </r>
       <r>    7.4202    0.0000 </r>
       <r>    8.2069    0.0000 </r>
       <r>    8.6986    0.0000 </r>
      </set>
      <set comment="kpoint 27">
       <r>  -35.0935    1.0000 </r>
       <r>  -35.0827    1.0000 </r>
       <r>  -34.9685    1.0000 </r>
       <r>  -34.9581    1.0000 </r>
       <r>  -34.8996    1.0000 </r>
       <r>  -34.8889    1.0000 </r>
       <r>  -11.9125    1.0000 </r>
       <r>  -11.8721    1.0000 </r>
       <r>  -11.8105    1.0000 </r>
       <r>  -11.7733    1.0000 </r>
       <r>   -5.1906    1.0000 </r>
       <r>   -5.1595    1.0000 </r>
       <r>   -4.9815    1.0000 </r>
       <r>   -4.9421    1.0000 </r>
       <r>   -3.8966    1.0000 </r>
       <r>   -3.7690    1.0000 </r>
       <r>   -3.0660    1.0000 </r>
       <r>   -3.0361    1.0000 </r>
       <r>   -2.9630    1.0000 </r>
       <r>   -2.9161    1.0000 </r>
       <r>   -2.1271    1.0000 </r>
       <r>   -1.8630    1.0000 </r>
       <r>   -0.2402    1.0000 </r>
       <r>   -0.2072    1.0000 </r>
       <r>    1.8411   -0.0000 </r>
       <r>    1.8607   -0.0000 </r>
       <r>    3.0275    0.0000 </r>
       <r>    3.1019    0.0000 </r>
       <r>    3.2440    0.0000 </r>
       <r>    3.2726    0.0000 </r>
       <r>    4.5027    0.0000 </r>
       <r>    4.6676    0.0000 </r>
       <r>    6.6259    0.0000 </r>
       <r>    7.1073    0.0000 </r>
       <r>    8.1023    0.0000 </r>
       <r>    8.7444    0.0000 </r>
      </set>
      <set comment="kpoint 28">
       <r>  -34.9528    1.0000 </r>
       <r>  -34.9422    1.0000 </r>
       <r>  -34.9146    1.0000 </r>
       <r>  -34.9042    1.0000 </r>
       <r>  -34.8204    1.0000 </r>
       <r>  -34.8097    1.0000 </r>
       <r>  -13.3940    1.0000 </r>
       <r>  -13.3357    1.0000 </r>
       <r>  -12.4560    1.0000 </r>
       <r>  -12.3723    1.0000 </r>
       <r>   -5.1179    1.0000 </r>
       <r>   -4.8415    1.0000 </r>
       <r>   -3.5617    1.0000 </r>
       <r>   -3.5189    1.0000 </r>
       <r>   -3.2210    1.0000 </r>
       <r>   -2.9882    1.0000 </r>
       <r>   -2.4585    1.0000 </r>
       <r>   -2.4212    1.0000 </r>
       <r>   -2.0650    1.0000 </r>
       <r>   -2.0535    1.0000 </r>
       <r>   -1.2005    1.0000 </r>
       <r>   -0.8546    1.0000 </r>
       <r>   -0.5423    1.0000 </r>
       <r>   -0.3570    1.0000 </r>
       <r>    1.9510   -0.0000 </r>
       <r>    2.2048   -0.0000 </r>
       <r>    2.3994   -0.0000 </r>
       <r>    2.4410   -0.0000 </r>
       <r>    2.4726   -0.0000 </r>
       <r>    2.6538   -0.0000 </r>
       <r>    3.5403    0.0000 </r>
       <r>    3.5808    0.0000 </r>
       <r>    6.1862    0.0000 </r>
       <r>    6.5033    0.0000 </r>
       <r>    7.2433    0.0000 </r>
       <r>    8.2405    0.0000 </r>
      </set>
      <set comment="kpoint 29">
       <r>  -35.0334    1.0000 </r>
       <r>  -35.0229    1.0000 </r>
       <r>  -34.9297    1.0000 </r>
       <r>  -34.9190    1.0000 </r>
       <r>  -34.8440    1.0000 </r>
       <r>  -34.8333    1.0000 </r>
       <r>  -12.8110    1.0000 </r>
       <r>  -12.7558    1.0000 </r>
       <r>  -12.2145    1.0000 </r>
       <r>  -12.1460    1.0000 </r>
       <r>   -5.1036    1.0000 </r>
       <r>   -4.9793    1.0000 </r>
       <r>   -4.0607    1.0000 </r>
       <r>   -3.9062    1.0000 </r>
       <r>   -3.8733    1.0000 </r>
       <r>   -3.7061    1.0000 </r>
       <r>   -2.7378    1.0000 </r>
       <r>   -2.7261    1.0000 </r>
       <r>   -1.7514    1.0000 </r>
       <r>   -1.4975    1.0000 </r>
       <r>   -1.4846    1.0000 </r>
       <r>   -1.3718    1.0000 </r>
       <r>   -0.9780    1.0000 </r>
       <r>   -0.8647    1.0000 </r>
       <r>    2.0432   -0.0000 </r>
       <r>    2.1564   -0.0000 </r>
       <r>    2.1707   -0.0000 </r>
       <r>    2.3373   -0.0000 </r>
       <r>    3.1014    0.0000 </r>
       <r>    3.3779    0.0000 </r>
       <r>    3.8974    0.0000 </r>
       <r>    3.9167    0.0000 </r>
       <r>    7.0528    0.0000 </r>
       <r>    7.2479    0.0000 </r>
       <r>    7.7976    0.0000 </r>
       <r>    8.0207    0.0000 </r>
      </set>
      <set comment="kpoint 30">
       <r>  -35.0697    1.0000 </r>
       <r>  -35.0591    1.0000 </r>
       <r>  -34.9205    1.0000 </r>
       <r>  -34.9099    1.0000 </r>
       <r>  -34.8638    1.0000 </r>
       <r>  -34.8531    1.0000 </r>
       <r>  -12.5546    1.0000 </r>
       <r>  -12.5020    1.0000 </r>
       <r>  -12.1070    1.0000 </r>
       <r>  -12.0458    1.0000 </r>
       <r>   -5.2095    1.0000 </r>
       <r>   -5.1219    1.0000 </r>
       <r>   -4.2888    1.0000 </r>
       <r>   -4.1837    1.0000 </r>
       <r>   -3.8973    1.0000 </r>
       <r>   -3.6956    1.0000 </r>
       <r>   -3.0665    1.0000 </r>
       <r>   -2.9966    1.0000 </r>
       <r>   -1.7361    1.0000 </r>
       <r>   -1.6165    1.0000 </r>
       <r>   -1.6001    1.0000 </r>
       <r>   -1.3914    1.0000 </r>
       <r>   -0.8679    1.0000 </r>
       <r>   -0.7897    1.0000 </r>
       <r>    1.9656   -0.0000 </r>
       <r>    2.1168   -0.0000 </r>
       <r>    2.3249   -0.0000 </r>
       <r>    2.4521   -0.0000 </r>
       <r>    3.1779    0.0000 </r>
       <r>    3.3908    0.0000 </r>
       <r>    4.0747    0.0000 </r>
       <r>    4.1791    0.0000 </r>
       <r>    7.3280    0.0000 </r>
       <r>    7.5629    0.0000 </r>
       <r>    7.6076    0.0000 </r>
       <r>    8.1855    0.0000 </r>
      </set>
      <set comment="kpoint 31">
       <r>  -35.0903    1.0000 </r>
       <r>  -35.0797    1.0000 </r>
       <r>  -34.9108    1.0000 </r>
       <r>  -34.9030    1.0000 </r>
       <r>  -34.9002    1.0000 </r>
       <r>  -34.8924    1.0000 </r>
       <r>  -12.2669    1.0000 </r>
       <r>  -12.2181    1.0000 </r>
       <r>  -11.9794    1.0000 </r>
       <r>  -11.9266    1.0000 </r>
       <r>   -5.2148    1.0000 </r>
       <r>   -5.1441    1.0000 </r>
       <r>   -4.6345    1.0000 </r>
       <r>   -4.5842    1.0000 </r>
       <r>   -3.8424    1.0000 </r>
       <r>   -3.6310    1.0000 </r>
       <r>   -3.2757    1.0000 </r>
       <r>   -3.1399    1.0000 </r>
       <r>   -2.2086    1.0000 </r>
       <r>   -2.1534    1.0000 </r>
       <r>   -1.7321    1.0000 </r>
       <r>   -1.4597    1.0000 </r>
       <r>   -0.6603    1.0000 </r>
       <r>   -0.6127    1.0000 </r>
       <r>    2.0171   -0.0000 </r>
       <r>    2.2355   -0.0000 </r>
       <r>    2.5172   -0.0000 </r>
       <r>    2.5703   -0.0000 </r>
       <r>    3.1401    0.0000 </r>
       <r>    3.2997    0.0000 </r>
       <r>    4.2275    0.0000 </r>
       <r>    4.4200    0.0000 </r>
       <r>    7.0227    0.0000 </r>
       <r>    7.5705    0.0000 </r>
       <r>    8.1969    0.0000 </r>
       <r>    8.5585    0.0000 </r>
      </set>
      <set comment="kpoint 32">
       <r>  -35.0890    1.0000 </r>
       <r>  -35.0784    1.0000 </r>
       <r>  -34.9541    1.0000 </r>
       <r>  -34.9436    1.0000 </r>
       <r>  -34.9027    1.0000 </r>
       <r>  -34.8920    1.0000 </r>
       <r>  -12.0164    1.0000 </r>
       <r>  -11.9713    1.0000 </r>
       <r>  -11.8597    1.0000 </r>
       <r>  -11.8151    1.0000 </r>
       <r>   -5.0623    1.0000 </r>
       <r>   -5.0200    1.0000 </r>
       <r>   -5.0036    1.0000 </r>
       <r>   -4.9741    1.0000 </r>
       <r>   -3.7716    1.0000 </r>
       <r>   -3.5771    1.0000 </r>
       <r>   -3.1893    1.0000 </r>
       <r>   -3.0494    1.0000 </r>
       <r>   -2.9597    1.0000 </r>
       <r>   -2.8805    1.0000 </r>
       <r>   -1.9486    1.0000 </r>
       <r>   -1.6884    1.0000 </r>
       <r>   -0.4150    1.0000 </r>
       <r>   -0.3816    1.0000 </r>
       <r>    1.9555   -0.0000 </r>
       <r>    2.0399   -0.0000 </r>
       <r>    2.8373   -0.0000 </r>
       <r>    2.9850   -0.0000 </r>
       <r>    3.0609    0.0000 </r>
       <r>    3.2163    0.0000 </r>
       <r>    4.4439    0.0000 </r>
       <r>    4.6434    0.0000 </r>
       <r>    6.8541    0.0000 </r>
       <r>    7.4688    0.0000 </r>
       <r>    8.2640    0.0000 </r>
       <r>    8.7114    0.0000 </r>
      </set>
      <set comment="kpoint 33">
       <r>  -35.0689    1.0000 </r>
       <r>  -35.0583    1.0000 </r>
       <r>  -35.0024    1.0000 </r>
       <r>  -34.9919    1.0000 </r>
       <r>  -34.8981    1.0000 </r>
       <r>  -34.8875    1.0000 </r>
       <r>  -11.8714    1.0000 </r>
       <r>  -11.8284    1.0000 </r>
       <r>  -11.7837    1.0000 </r>
       <r>  -11.7456    1.0000 </r>
       <r>   -5.2880    1.0000 </r>
       <r>   -5.2602    1.0000 </r>
       <r>   -4.6972    1.0000 </r>
       <r>   -4.6462    1.0000 </r>
       <r>   -3.8478    1.0000 </r>
       <r>   -3.7799    1.0000 </r>
       <r>   -3.5487    1.0000 </r>
       <r>   -3.3525    1.0000 </r>
       <r>   -2.9540    1.0000 </r>
       <r>   -2.8549    1.0000 </r>
       <r>   -2.2317    1.0000 </r>
       <r>   -1.9521    1.0000 </r>
       <r>   -0.1432    1.0000 </r>
       <r>   -0.1144    1.0000 </r>
       <r>    1.6915   -0.0000 </r>
       <r>    1.7094   -0.0000 </r>
       <r>    2.9051   -0.0000 </r>
       <r>    3.0973    0.0000 </r>
       <r>    3.2653    0.0000 </r>
       <r>    3.4307    0.0000 </r>
       <r>    4.6464    0.0000 </r>
       <r>    4.8109    0.0000 </r>
       <r>    6.9211    0.0000 </r>
       <r>    7.3416    0.0000 </r>
       <r>    7.6066    0.0000 </r>
       <r>    8.1327    0.0000 </r>
      </set>
      <set comment="kpoint 34">
       <r>  -34.9950    1.0000 </r>
       <r>  -34.9845    1.0000 </r>
       <r>  -34.9362    1.0000 </r>
       <r>  -34.9256    1.0000 </r>
       <r>  -34.8428    1.0000 </r>
       <r>  -34.8321    1.0000 </r>
       <r>  -12.9848    1.0000 </r>
       <r>  -12.9282    1.0000 </r>
       <r>  -12.2846    1.0000 </r>
       <r>  -12.2111    1.0000 </r>
       <r>   -4.9897    1.0000 </r>
       <r>   -4.8138    1.0000 </r>
       <r>   -3.8840    1.0000 </r>
       <r>   -3.7392    1.0000 </r>
       <r>   -3.7089    1.0000 </r>
       <r>   -3.5754    1.0000 </r>
       <r>   -2.8545    1.0000 </r>
       <r>   -2.7834    1.0000 </r>
       <r>   -1.7836    1.0000 </r>
       <r>   -1.7695    1.0000 </r>
       <r>   -1.4191    1.0000 </r>
       <r>   -1.0929    1.0000 </r>
       <r>   -0.8449    1.0000 </r>
       <r>   -0.7418    1.0000 </r>
       <r>    1.8517   -0.0000 </r>
       <r>    2.0842   -0.0000 </r>
       <r>    2.2833   -0.0000 </r>
       <r>    2.3918   -0.0000 </r>
       <r>    2.7473   -0.0000 </r>
       <r>    2.9764   -0.0000 </r>
       <r>    3.8850    0.0000 </r>
       <r>    3.9519    0.0000 </r>
       <r>    6.8031    0.0000 </r>
       <r>    7.0561    0.0000 </r>
       <r>    7.7869    0.0000 </r>
       <r>    8.2915    0.0000 </r>
      </set>
      <set comment="kpoint 35">
       <r>  -34.9767    1.0000 </r>
       <r>  -34.9663    1.0000 </r>
       <r>  -34.9386    1.0000 </r>
       <r>  -34.9279    1.0000 </r>
       <r>  -34.8468    1.0000 </r>
       <r>  -34.8361    1.0000 </r>
       <r>  -13.0460    1.0000 </r>
       <r>  -12.9889    1.0000 </r>
       <r>  -12.3088    1.0000 </r>
       <r>  -12.2336    1.0000 </r>
       <r>   -4.9421    1.0000 </r>
       <r>   -4.7384    1.0000 </r>
       <r>   -3.8200    1.0000 </r>
       <r>   -3.7003    1.0000 </r>
       <r>   -3.5126    1.0000 </r>
       <r>   -3.3832    1.0000 </r>
       <r>   -3.0920    1.0000 </r>
       <r>   -2.9714    1.0000 </r>
       <r>   -1.9354    1.0000 </r>
       <r>   -1.9209    1.0000 </r>
       <r>   -1.1835    1.0000 </r>
       <r>   -0.8929    1.0000 </r>
       <r>   -0.7760    1.0000 </r>
       <r>   -0.6711    1.0000 </r>
       <r>    1.7596   -0.0000 </r>
       <r>    2.0100   -0.0000 </r>
       <r>    2.3246   -0.0000 </r>
       <r>    2.4276   -0.0000 </r>
       <r>    2.5198   -0.0000 </r>
       <r>    2.7319   -0.0000 </r>
       <r>    3.9225    0.0000 </r>
       <r>    4.0139    0.0000 </r>
       <r>    6.7209    0.0000 </r>
       <r>    6.9974    0.0000 </r>
       <r>    7.7541    0.0000 </r>
       <r>    8.8031    0.0000 </r>
      </set>
      <set comment="kpoint 36">
       <r>  -35.1032    1.0000 </r>
       <r>  -35.0926    1.0000 </r>
       <r>  -34.9155    1.0000 </r>
       <r>  -34.9048    1.0000 </r>
       <r>  -34.8604    1.0000 </r>
       <r>  -34.8498    1.0000 </r>
       <r>  -12.4013    1.0000 </r>
       <r>  -12.3498    1.0000 </r>
       <r>  -12.0493    1.0000 </r>
       <r>  -11.9919    1.0000 </r>
       <r>   -5.4208    1.0000 </r>
       <r>   -5.3486    1.0000 </r>
       <r>   -4.4752    1.0000 </r>
       <r>   -4.3608    1.0000 </r>
       <r>   -3.9754    1.0000 </r>
       <r>   -3.7757    1.0000 </r>
       <r>   -2.9976    1.0000 </r>
       <r>   -2.9859    1.0000 </r>
       <r>   -1.9674    1.0000 </r>
       <r>   -1.5969    1.0000 </r>
       <r>   -1.1794    1.0000 </r>
       <r>   -1.1664    1.0000 </r>
       <r>   -0.9381    1.0000 </r>
       <r>   -0.7984    1.0000 </r>
       <r>    2.1120   -0.0000 </r>
       <r>    2.1240   -0.0000 </r>
       <r>    2.3113   -0.0000 </r>
       <r>    2.5107   -0.0000 </r>
       <r>    3.4829    0.0000 </r>
       <r>    3.7732    0.0000 </r>
       <r>    4.0867    0.0000 </r>
       <r>    4.1086    0.0000 </r>
       <r>    6.7615    0.0000 </r>
       <r>    7.2414    0.0000 </r>
       <r>    7.6635    0.0000 </r>
       <r>    7.9284    0.0000 </r>
      </set>
      <set comment="kpoint 37">
       <r>  -35.1220    1.0000 </r>
       <r>  -35.1115    1.0000 </r>
       <r>  -34.9094    1.0000 </r>
       <r>  -34.8987    1.0000 </r>
       <r>  -34.8786    1.0000 </r>
       <r>  -34.8680    1.0000 </r>
       <r>  -12.2138    1.0000 </r>
       <r>  -12.1649    1.0000 </r>
       <r>  -11.9694    1.0000 </r>
       <r>  -11.9177    1.0000 </r>
       <r>   -5.4925    1.0000 </r>
       <r>   -5.4279    1.0000 </r>
       <r>   -4.6751    1.0000 </r>
       <r>   -4.5897    1.0000 </r>
       <r>   -4.0014    1.0000 </r>
       <r>   -3.8048    1.0000 </r>
       <r>   -3.1537    1.0000 </r>
       <r>   -3.1030    1.0000 </r>
       <r>   -1.9690    1.0000 </r>
       <r>   -1.6417    1.0000 </r>
       <r>   -1.4897    1.0000 </r>
       <r>   -1.4281    1.0000 </r>
       <r>   -0.6585    1.0000 </r>
       <r>   -0.5602    1.0000 </r>
       <r>    2.1128   -0.0000 </r>
       <r>    2.1831   -0.0000 </r>
       <r>    2.5030   -0.0000 </r>
       <r>    2.6098   -0.0000 </r>
       <r>    3.5714    0.0000 </r>
       <r>    3.7573    0.0000 </r>
       <r>    4.0673    0.0000 </r>
       <r>    4.2191    0.0000 </r>
       <r>    6.3872    0.0000 </r>
       <r>    6.9778    0.0000 </r>
       <r>    8.1087    0.0000 </r>
       <r>    8.2229    0.0000 </r>
      </set>
      <set comment="kpoint 38">
       <r>  -35.1184    1.0000 </r>
       <r>  -35.1079    1.0000 </r>
       <r>  -34.9179    1.0000 </r>
       <r>  -34.9073    1.0000 </r>
       <r>  -34.9036    1.0000 </r>
       <r>  -34.8929    1.0000 </r>
       <r>  -12.0381    1.0000 </r>
       <r>  -11.9914    1.0000 </r>
       <r>  -11.8824    1.0000 </r>
       <r>  -11.8361    1.0000 </r>
       <r>   -5.3469    1.0000 </r>
       <r>   -5.2861    1.0000 </r>
       <r>   -4.9427    1.0000 </r>
       <r>   -4.8925    1.0000 </r>
       <r>   -3.9757    1.0000 </r>
       <r>   -3.7822    1.0000 </r>
       <r>   -3.1867    1.0000 </r>
       <r>   -3.0873    1.0000 </r>
       <r>   -2.2283    1.0000 </r>
       <r>   -2.1362    1.0000 </r>
       <r>   -1.9870    1.0000 </r>
       <r>   -1.6984    1.0000 </r>
       <r>   -0.4362    1.0000 </r>
[...]
       <r>    -2.2862     1.7180    18.2620 </r>
       <r>    -2.1246     2.2001    18.6175 </r>
       <r>    -1.9630     4.1788    19.2926 </r>
       <r>    -1.8015     2.6181    19.7156 </r>
       <r>    -1.6399     3.7029    20.3138 </r>
       <r>    -1.4783     2.5099    20.7193 </r>
       <r>    -1.3168     3.4386    21.2749 </r>
       <r>    -1.1552     1.4658    21.5117 </r>
       <r>    -0.9937     1.7822    21.7996 </r>
       <r>    -0.8321     2.6890    22.2341 </r>
       <r>    -0.6705     3.3596    22.7769 </r>
       <r>    -0.5090     2.5878    23.1950 </r>
       <r>    -0.3474     2.4724    23.5944 </r>
       <r>    -0.1858     1.3065    23.8055 </r>
       <r>    -0.0243     0.7987    23.9345 </r>
       <r>     0.1373     0.2027    23.9673 </r>
       <r>     0.2989     0.2061    24.0006 </r>
       <r>     0.4604    -0.0033    24.0000 </r>
       <r>     0.6220    -0.0002    24.0000 </r>
       <r>     0.7835    -0.0000    24.0000 </r>
       <r>     0.9451    -0.0000    24.0000 </r>
       <r>     1.1067    -0.0000    24.0000 </r>
       <r>     1.2682    -0.0000    24.0000 </r>
       <r>     1.4298    -0.0002    24.0000 </r>
       <r>     1.5914    -0.0212    23.9965 </r>
       <r>     1.7529     0.5549    24.0862 </r>
       <r>     1.9145     1.6152    24.3471 </r>
       <r>     2.0761     3.7392    24.9513 </r>
       <r>     2.2376     5.0100    25.7607 </r>
       <r>     2.3992     3.7407    26.3651 </r>
       <r>     2.5607     5.2115    27.2071 </r>
       <r>     2.7223     4.3536    27.9104 </r>
       <r>     2.8839     3.1957    28.4267 </r>
       <r>     3.0454     2.6752    28.8590 </r>
       <r>     3.2070     2.8121    29.3133 </r>
       <r>     3.3686     2.0278    29.6409 </r>
       <r>     3.5301     1.7405    29.9221 </r>
       <r>     3.6917     1.8105    30.2146 </r>
       <r>     3.8533     1.0704    30.3876 </r>
       <r>     4.0148     2.1260    30.7311 </r>
       <r>     4.1764     2.6637    31.1614 </r>
       <r>     4.3379     2.2025    31.5173 </r>
       <r>     4.4995     1.5933    31.7747 </r>
       <r>     4.6611     0.8087    31.9054 </r>
       <r>     4.8226     0.5087    31.9876 </r>
       <r>     4.9842     0.0811    32.0007 </r>
       <r>     5.1458    -0.0042    32.0000 </r>
       <r>     5.3073     0.0001    32.0000 </r>
       <r>     5.4689     0.0839    32.0136 </r>
       <r>     5.6305     0.1737    32.0416 </r>
       <r>     5.7920     0.2682    32.0849 </r>
       <r>     5.9536     0.5519    32.1741 </r>
       <r>     6.1151     0.5014    32.2551 </r>
       <r>     6.2767     0.8116    32.3862 </r>
       <r>     6.4383     0.8607    32.5253 </r>
       <r>     6.5998     1.2607    32.7290 </r>
       <r>     6.7614     0.7776    32.8546 </r>
       <r>     6.9230     1.5488    33.1048 </r>
       <r>     7.0845     2.3150    33.4788 </r>
       <r>     7.2461     0.8835    33.6216 </r>
       <r>     7.4077     1.5221    33.8675 </r>
       <r>     7.5692     1.7730    34.1540 </r>
       <r>     7.7308     1.6506    34.4206 </r>
       <r>     7.8923     1.2867    34.6285 </r>
       <r>     8.0539     0.9044    34.7746 </r>
       <r>     8.2155     2.6570    35.2039 </r>
       <r>     8.3770     1.5939    35.4614 </r>
       <r>     8.5386     1.0847    35.6367 </r>
       <r>     8.7002     0.9537    35.7908 </r>
       <r>     8.8617     1.0334    35.9577 </r>
       <r>     9.0233     0.2748    36.0021 </r>
       <r>     9.1849    -0.0132    36.0000 </r>
       <r>     9.3464    -0.0001    36.0000 </r>
       <r>     9.5080    -0.0000    36.0000 </r>
       <r>     9.6695    -0.0000    36.0000 </r>
       <r>     9.8311     0.0000    36.0000 </r>
       <r>     9.9927     0.0000    36.0000 </r>
       <r>    10.1542     0.0000    36.0000 </r>
       <r>    10.3158     0.0000    36.0000 </r>
       <r>    10.4774     0.0000    36.0000 </r>
       <r>    10.6389     0.0000    36.0000 </r>
       <r>    10.8005     0.0000    36.0000 </r>
       <r>    10.9621     0.0000    36.0000 </r>
       <r>    11.1236     0.0000    36.0000 </r>
      </set>
      <set comment="spin 2">
       <r>   -37.3455     0.0000     0.0000 </r>
       <r>   -37.1839     0.0000     0.0000 </r>
       <r>   -37.0224     0.0000     0.0000 </r>
       <r>   -36.8608     0.0000     0.0000 </r>
       <r>   -36.6992     0.0000     0.0000 </r>
       <r>   -36.5377     0.0000     0.0000 </r>
       <r>   -36.3761     0.0000     0.0000 </r>
       <r>   -36.2145     0.0000     0.0000 </r>
       <r>   -36.0530    -0.0000    -0.0000 </r>
       <r>   -35.8914    -0.0000    -0.0000 </r>
       <r>   -35.7298    -0.0000    -0.0000 </r>
       <r>   -35.5683    -0.0000    -0.0000 </r>
       <r>   -35.4067    -0.0008    -0.0001 </r>
       <r>   -35.2452    -0.1849    -0.0300 </r>
       <r>   -35.0836     4.0264     0.6205 </r>
       <r>   -34.9220    14.9932     3.0429 </r>
       <r>   -34.7605    18.2383     5.9895 </r>
       <r>   -34.5989     0.0956     6.0050 </r>
       <r>   -34.4373    -0.0307     6.0000 </r>
       <r>   -34.2758    -0.0000     6.0000 </r>
       <r>   -34.1142    -0.0000     6.0000 </r>
       <r>   -33.9526     0.0000     6.0000 </r>
       <r>   -33.7911     0.0000     6.0000 </r>
       <r>   -33.6295     0.0000     6.0000 </r>
       <r>   -33.4680     0.0000     6.0000 </r>
       <r>   -33.3064     0.0000     6.0000 </r>
       <r>   -33.1448     0.0000     6.0000 </r>
       <r>   -32.9833     0.0000     6.0000 </r>
       <r>   -32.8217     0.0000     6.0000 </r>
       <r>   -32.6601     0.0000     6.0000 </r>
       <r>   -32.4986     0.0000     6.0000 </r>
       <r>   -32.3370     0.0000     6.0000 </r>
       <r>   -32.1754     0.0000     6.0000 </r>
       <r>   -32.0139     0.0000     6.0000 </r>
       <r>   -31.8523     0.0000     6.0000 </r>
       <r>   -31.6907     0.0000     6.0000 </r>
       <r>   -31.5292     0.0000     6.0000 </r>
       <r>   -31.3676     0.0000     6.0000 </r>
       <r>   -31.2061     0.0000     6.0000 </r>
       <r>   -31.0445     0.0000     6.0000 </r>
       <r>   -30.8829     0.0000     6.0000 </r>
       <r>   -30.7214     0.0000     6.0000 </r>
       <r>   -30.5598     0.0000     6.0000 </r>
       <r>   -30.3982     0.0000     6.0000 </r>
       <r>   -30.2367     0.0000     6.0000 </r>
       <r>   -30.0751     0.0000     6.0000 </r>
       <r>   -29.9135     0.0000     6.0000 </r>
       <r>   -29.7520     0.0000     6.0000 </r>
       <r>   -29.5904     0.0000     6.0000 </r>
       <r>   -29.4289     0.0000     6.0000 </r>
       <r>   -29.2673     0.0000     6.0000 </r>
       <r>   -29.1057     0.0000     6.0000 </r>
       <r>   -28.9442     0.0000     6.0000 </r>
       <r>   -28.7826     0.0000     6.0000 </r>
       <r>   -28.6210     0.0000     6.0000 </r>
       <r>   -28.4595     0.0000     6.0000 </r>
       <r>   -28.2979     0.0000     6.0000 </r>
       <r>   -28.1363     0.0000     6.0000 </r>
       <r>   -27.9748     0.0000     6.0000 </r>
       <r>   -27.8132     0.0000     6.0000 </r>
       <r>   -27.6517     0.0000     6.0000 </r>
       <r>   -27.4901     0.0000     6.0000 </r>
       <r>   -27.3285     0.0000     6.0000 </r>
       <r>   -27.1670     0.0000     6.0000 </r>
       <r>   -27.0054     0.0000     6.0000 </r>
       <r>   -26.8438     0.0000     6.0000 </r>
       <r>   -26.6823     0.0000     6.0000 </r>
       <r>   -26.5207     0.0000     6.0000 </r>
       <r>   -26.3591     0.0000     6.0000 </r>
       <r>   -26.1976     0.0000     6.0000 </r>
       <r>   -26.0360     0.0000     6.0000 </r>
       <r>   -25.8745     0.0000     6.0000 </r>
       <r>   -25.7129     0.0000     6.0000 </r>
       <r>   -25.5513     0.0000     6.0000 </r>
       <r>   -25.3898     0.0000     6.0000 </r>
       <r>   -25.2282     0.0000     6.0000 </r>
       <r>   -25.0666     0.0000     6.0000 </r>
       <r>   -24.9051     0.0000     6.0000 </r>
       <r>   -24.7435     0.0000     6.0000 </r>
       <r>   -24.5819     0.0000     6.0000 </r>
       <r>   -24.4204     0.0000     6.0000 </r>
       <r>   -24.2588     0.0000     6.0000 </r>
       <r>   -24.0973     0.0000     6.0000 </r>
       <r>   -23.9357     0.0000     6.0000 </r>
       <r>   -23.7741     0.0000     6.0000 </r>
       <r>   -23.6126     0.0000     6.0000 </r>
       <r>   -23.4510     0.0000     6.0000 </r>
       <r>   -23.2894     0.0000     6.0000 </r>
       <r>   -23.1279     0.0000     6.0000 </r>
       <r>   -22.9663     0.0000     6.0000 </r>
       <r>   -22.8047     0.0000     6.0000 </r>
       <r>   -22.6432     0.0000     6.0000 </r>
       <r>   -22.4816     0.0000     6.0000 </r>
       <r>   -22.3201     0.0000     6.0000 </r>
       <r>   -22.1585     0.0000     6.0000 </r>
       <r>   -21.9969     0.0000     6.0000 </r>
       <r>   -21.8354     0.0000     6.0000 </r>
       <r>   -21.6738     0.0000     6.0000 </r>
       <r>   -21.5122     0.0000     6.0000 </r>
       <r>   -21.3507     0.0000     6.0000 </r>
       <r>   -21.1891     0.0000     6.0000 </r>
       <r>   -21.0275     0.0000     6.0000 </r>
       <r>   -20.8660     0.0000     6.0000 </r>
       <r>   -20.7044     0.0000     6.0000 </r>
       <r>   -20.5429     0.0000     6.0000 </r>
       <r>   -20.3813     0.0000     6.0000 </r>
       <r>   -20.2197     0.0000     6.0000 </r>
       <r>   -20.0582     0.0000     6.0000 </r>
       <r>   -19.8966     0.0000     6.0000 </r>
       <r>   -19.7350     0.0000     6.0000 </r>
       <r>   -19.5735     0.0000     6.0000 </r>
       <r>   -19.4119     0.0000     6.0000 </r>
       <r>   -19.2503     0.0000     6.0000 </r>
       <r>   -19.0888     0.0000     6.0000 </r>
       <r>   -18.9272     0.0000     6.0000 </r>
       <r>   -18.7657     0.0000     6.0000 </r>
       <r>   -18.6041     0.0000     6.0000 </r>
       <r>   -18.4425     0.0000     6.0000 </r>
       <r>   -18.2810     0.0000     6.0000 </r>
       <r>   -18.1194     0.0000     6.0000 </r>
       <r>   -17.9578     0.0000     6.0000 </r>
       <r>   -17.7963     0.0000     6.0000 </r>
       <r>   -17.6347     0.0000     6.0000 </r>
       <r>   -17.4731     0.0000     6.0000 </r>
       <r>   -17.3116     0.0000     6.0000 </r>
       <r>   -17.1500     0.0000     6.0000 </r>
       <r>   -16.9885     0.0000     6.0000 </r>
       <r>   -16.8269     0.0000     6.0000 </r>
       <r>   -16.6653     0.0000     6.0000 </r>
       <r>   -16.5038     0.0000     6.0000 </r>
       <r>   -16.3422     0.0000     6.0000 </r>
       <r>   -16.1806     0.0000     6.0000 </r>
       <r>   -16.0191     0.0000     6.0000 </r>
       <r>   -15.8575     0.0000     6.0000 </r>
       <r>   -15.6959     0.0000     6.0000 </r>
       <r>   -15.5344     0.0000     6.0000 </r>
       <r>   -15.3728     0.0000     6.0000 </r>
       <r>   -15.2113     0.0000     6.0000 </r>
       <r>   -15.0497     0.0000     6.0000 </r>
       <r>   -14.8881    -0.0000     6.0000 </r>
       <r>   -14.7266    -0.0000     6.0000 </r>
       <r>   -14.5650    -0.0000     6.0000 </r>
       <r>   -14.4034    -0.0000     6.0000 </r>
       <r>   -14.2419    -0.0000     6.0000 </r>
       <r>   -14.0803    -0.0034     5.9995 </r>
       <r>   -13.9187     0.0738     6.0114 </r>
       <r>   -13.7572     0.4418     6.0828 </r>
       <r>   -13.5956     0.6399     6.1861 </r>
       <r>   -13.4341     0.3204     6.2379 </r>
       <r>   -13.2725     0.8576     6.3765 </r>
       <r>   -13.1109     0.3711     6.4364 </r>
       <r>   -12.9494     0.8903     6.5803 </r>
       <r>   -12.7878     0.6339     6.6827 </r>
       <r>   -12.6262     0.8649     6.8224 </r>
       <r>   -12.4647     2.4910     7.2249 </r>
       <r>   -12.3031     2.1060     7.5651 </r>
       <r>   -12.1415     3.8041     8.1797 </r>
       <r>   -11.9800     4.6617     8.9329 </r>
       <r>   -11.8184     5.3646     9.7996 </r>
       <r>   -11.6569     1.2927    10.0085 </r>
       <r>   -11.4953    -0.0520    10.0001 </r>
       <r>   -11.3337    -0.0004    10.0000 </r>
       <r>   -11.1722    -0.0000    10.0000 </r>
       <r>   -11.0106    -0.0000    10.0000 </r>
       <r>   -10.8490     0.0000    10.0000 </r>
       <r>   -10.6875     0.0000    10.0000 </r>
       <r>   -10.5259     0.0000    10.0000 </r>
       <r>   -10.3643     0.0000    10.0000 </r>
       <r>   -10.2028     0.0000    10.0000 </r>
       <r>   -10.0412     0.0000    10.0000 </r>
       <r>    -9.8797     0.0000    10.0000 </r>
       <r>    -9.7181     0.0000    10.0000 </r>
       <r>    -9.5565     0.0000    10.0000 </r>
       <r>    -9.3950     0.0000    10.0000 </r>
       <r>    -9.2334     0.0000    10.0000 </r>
       <r>    -9.0718     0.0000    10.0000 </r>
       <r>    -8.9103     0.0000    10.0000 </r>
       <r>    -8.7487     0.0000    10.0000 </r>
       <r>    -8.5871     0.0000    10.0000 </r>
       <r>    -8.4256     0.0000    10.0000 </r>
       <r>    -8.2640     0.0000    10.0000 </r>
       <r>    -8.1025     0.0000    10.0000 </r>
       <r>    -7.9409     0.0000    10.0000 </r>
       <r>    -7.7793     0.0000    10.0000 </r>
       <r>    -7.6178     0.0000    10.0000 </r>
       <r>    -7.4562     0.0000    10.0000 </r>
       <r>    -7.2946     0.0000    10.0000 </r>
       <r>    -7.1331     0.0000    10.0000 </r>
       <r>    -6.9715     0.0000    10.0000 </r>
       <r>    -6.8099     0.0000    10.0000 </r>
       <r>    -6.6484     0.0000    10.0000 </r>
       <r>    -6.4868    -0.0000    10.0000 </r>
       <r>    -6.3253    -0.0000    10.0000 </r>
       <r>    -6.1637    -0.0000    10.0000 </r>
       <r>    -6.0021    -0.0000    10.0000 </r>
       <r>    -5.8406    -0.0051     9.9992 </r>
       <r>    -5.6790     0.0926    10.0141 </r>
       <r>    -5.5174     1.0862    10.1896 </r>
       <r>    -5.3559     1.5801    10.4449 </r>
       <r>    -5.1943     2.4812    10.8458 </r>
       <r>    -5.0327     3.6865    11.4414 </r>
       <r>    -4.8712     4.3442    12.1433 </r>
       <r>    -4.7096     1.9874    12.4643 </r>
       <r>    -4.5481     2.6616    12.8944 </r>
       <r>    -4.3865     0.4657    12.9696 </r>
       <r>    -4.2249     0.6220    13.0701 </r>
       <r>    -4.0634     1.1591    13.2574 </r>
       <r>    -3.9018     2.6555    13.6864 </r>
       <r>    -3.7402     4.7758    14.4580 </r>
       <r>    -3.5787     3.6654    15.0502 </r>
       <r>    -3.4171     2.0478    15.3810 </r>
       <r>    -3.2555     1.6554    15.6485 </r>
       <r>    -3.0940     5.0046    16.4571 </r>
       <r>    -2.9324     4.4283    17.1725 </r>
       <r>    -2.7709     2.4152    17.5627 </r>
       <r>    -2.6093     1.1123    17.7424 </r>
       <r>    -2.4477     1.5002    17.9848 </r>
       <r>    -2.2862     1.7172    18.2622 </r>
       <r>    -2.1246     2.2050    18.6185 </r>
       <r>    -1.9630     4.1793    19.2937 </r>
       <r>    -1.8015     2.6138    19.7160 </r>
       <r>    -1.6399     3.7098    20.3154 </r>
       <r>    -1.4783     2.5063    20.7203 </r>
       <r>    -1.3168     3.4345    21.2752 </r>
       <r>    -1.1552     1.4688    21.5125 </r>
       <r>    -0.9937     1.7813    21.8003 </r>
       <r>    -0.8321     2.6939    22.2355 </r>
       <r>    -0.6705     3.3530    22.7772 </r>
       <r>    -0.5090     2.5877    23.1953 </r>
       <r>    -0.3474     2.4719    23.5947 </r>
       <r>    -0.1858     1.3057    23.8057 </r>
       <r>    -0.0243     0.7972    23.9345 </r>
       <r>     0.1373     0.2029    23.9672 </r>
       <r>     0.2989     0.2063    24.0006 </r>
       <r>     0.4604    -0.0033    24.0000 </r>
       <r>     0.6220    -0.0002    24.0000 </r>
       <r>     0.7835    -0.0000    24.0000 </r>
       <r>     0.9451    -0.0000    24.0000 </r>
       <r>     1.1067    -0.0000    24.0000 </r>
       <r>     1.2682    -0.0000    24.0000 </r>
       <r>     1.4298    -0.0002    24.0000 </r>
       <r>     1.5914    -0.0211    23.9966 </r>
       <r>     1.7529     0.5536    24.0860 </r>
       <r>     1.9145     1.6135    24.3467 </r>
       <r>     2.0761     3.7456    24.9518 </r>
       <r>     2.2376     5.0104    25.7613 </r>
       <r>     2.3992     3.7437    26.3662 </r>
       <r>     2.5607     5.2061    27.2073 </r>
       <r>     2.7223     4.3523    27.9104 </r>
       <r>     2.8839     3.1956    28.4267 </r>
       <r>     3.0454     2.6764    28.8591 </r>
       <r>     3.2070     2.8122    29.3135 </r>
       <r>     3.3686     2.0268    29.6410 </r>
       <r>     3.5301     1.7404    29.9221 </r>
       <r>     3.6917     1.8104    30.2146 </r>
       <r>     3.8533     1.0701    30.3875 </r>
       <r>     4.0148     2.1267    30.7311 </r>
       <r>     4.1764     2.6633    31.1614 </r>
       <r>     4.3379     2.2032    31.5174 </r>
       <r>     4.4995     1.5927    31.7747 </r>
       <r>     4.6611     0.8093    31.9054 </r>
       <r>     4.8226     0.5082    31.9876 </r>
       <r>     4.9842     0.0811    32.0007 </r>
       <r>     5.1458    -0.0042    32.0000 </r>
       <r>     5.3073    -0.0001    32.0000 </r>
       <r>     5.4689     0.0833    32.0134 </r>
       <r>     5.6305     0.1718    32.0412 </r>
       <r>     5.7920     0.2143    32.0758 </r>
       <r>     5.9536     0.5489    32.1645 </r>
       <r>     6.1151     0.4017    32.2294 </r>
       <r>     6.2767     0.8655    32.3692 </r>
       <r>     6.4383     1.0735    32.5427 </r>
       <r>     6.5998     1.0084    32.7056 </r>
       <r>     6.7614     0.9515    32.8593 </r>
       <r>     6.9230     1.7996    33.1501 </r>
       <r>     7.0845     1.6634    33.4188 </r>
       <r>     7.2461     1.3998    33.6450 </r>
       <r>     7.4077     1.3623    33.8651 </r>
       <r>     7.5692     1.5345    34.1130 </r>
       <r>     7.7308     2.4387    34.5070 </r>
       <r>     7.8923     0.6630    34.6141 </r>
       <r>     8.0539     0.9105    34.7612 </r>
       <r>     8.2155     2.5575    35.1744 </r>
       <r>     8.3770     2.4604    35.5719 </r>
       <r>     8.5386     0.7021    35.6854 </r>
       <r>     8.7002     0.6843    35.7959 </r>
       <r>     8.8617     1.0123    35.9595 </r>
       <r>     9.0233     0.2620    36.0018 </r>
       <r>     9.1849    -0.0111    36.0000 </r>
       <r>     9.3464    -0.0001    36.0000 </r>
       <r>     9.5080    -0.0000    36.0000 </r>
       <r>     9.6695    -0.0000    36.0000 </r>
       <r>     9.8311     0.0000    36.0000 </r>
       <r>     9.9927     0.0000    36.0000 </r>
       <r>    10.1542     0.0000    36.0000 </r>
       <r>    10.3158     0.0000    36.0000 </r>
       <r>    10.4774     0.0000    36.0000 </r>
       <r>    10.6389     0.0000    36.0000 </r>
       <r>    10.8005     0.0000    36.0000 </r>
       <r>    10.9621     0.0000    36.0000 </r>
       <r>    11.1236     0.0000    36.0000 </r>
      </set>
     </set>
    </array>
   </total>
  </dos>
 </calculation>
 <structure name="finalpos" >
  <crystal>
   <varray name="basis" >
    <v>       3.19031700       0.00000000       0.00000000 </v>
    <v>      -1.59515800       2.76289700       0.00000000 </v>
    <v>       0.00000000       0.00000000      23.14049200 </v>
   </varray>
   <i name="volume">    203.97226633 </i>
   <varray name="rec_basis" >
    <v>       0.31344848       0.18096941       0.00000000 </v>
    <v>       0.00000000       0.36193894       0.00000000 </v>
    <v>       0.00000000       0.00000000       0.04321429 </v>
   </varray>
  </crystal>
  <varray name="positions" >
   <v>       0.66666700       0.33333300       0.06785900 </v>
   <v>       0.33333300       0.66666700       0.00000000 </v>
   <v>       0.33333300       0.66666700       0.13571500 </v>
   <v>       0.38095271       0.19047586       0.35482300 </v>
   <v>       0.04761871       0.52380986       0.28696500 </v>
   <v>       0.04761871       0.52380986       0.42267900 </v>
  </varray>
 </structure>
</modeling>
