<?xml version="1.0" encoding="ISO-8859-1"?>
<modeling>
 <generator>
  <i name="program" type="string">vasp </i>
  <i name="version" type="string">5.3.5  </i>
  <i name="subversion" type="string">31Mar14 (build Oct 29 2014 16:16:03) complex                          parallel </i>
  <i name="platform" type="string">Linux-UFHPC </i>
  <i name="date" type="string">2016 02 09 </i>
  <i name="time" type="string">18:11:41 </i>
 </generator>
 <incar>
  <i type="string" name="PREC">accurate</i>
  <i type="int" name="IBRION">     2</i>
  <i name="EDIFF">      0.00000100</i>
  <i type="int" name="NSW">     0</i>
  <i type="int" name="ISIF">     3</i>
  <i name="ENCUT">    300.00000000</i>
  <i type="string" name="LREAL"> Auto</i>
  <i type="int" name="ISMEAR">     0</i>
  <i name="SIGMA">      0.10000000</i>
  <i type="logical" name="LWAVE"> F  </i>
  <i type="logical" name="LCHARG"> F  </i>
  <i type="logical" name="LAECHG"> F  </i>
  <i type="string" name="GGA"> Bo</i>
  <i name="PARAM1">      0.18333333</i>
  <i name="PARAM2">      0.22000000</i>
  <i type="logical" name="LUSE_VDW"> T  </i>
  <i name="AGGAC">      0.00000000</i>
 </incar>
 <kpoints>
  <generation param="Gamma">
   <v type="int" name="divisions">      13        4        2 </v>
   <v name="usershift">      0.00000000       0.00000000       0.00000000 </v>
   <v name="genvec1">      0.07692308      -0.00000000       0.00000000 </v>
   <v name="genvec2">      0.00000000       0.25000000       0.00000000 </v>
   <v name="genvec3">      0.00000000       0.00000000       0.50000000 </v>
   <v name="shift">      0.00000000       0.00000000       0.00000000 </v>
  </generation>
  <varray name="kpointlist" >
   <v>       0.00000000       0.00000000       0.00000000 </v>
   <v>       0.07692308      -0.00000000       0.00000000 </v>
   <v>       0.15384615      -0.00000000       0.00000000 </v>
   <v>       0.23076923      -0.00000000       0.00000000 </v>
   <v>       0.30769231      -0.00000000       0.00000000 </v>
   <v>       0.38461538      -0.00000000       0.00000000 </v>
   <v>       0.46153846      -0.00000000       0.00000000 </v>
   <v>       0.00000000       0.25000000       0.00000000 </v>
   <v>       0.07692308       0.25000000       0.00000000 </v>
   <v>       0.15384615       0.25000000       0.00000000 </v>
   <v>       0.23076923       0.25000000       0.00000000 </v>
   <v>       0.30769231       0.25000000       0.00000000 </v>
   <v>       0.38461538       0.25000000       0.00000000 </v>
   <v>       0.46153846       0.25000000       0.00000000 </v>
   <v>      -0.46153846       0.25000000       0.00000000 </v>
   <v>      -0.38461538       0.25000000       0.00000000 </v>
   <v>      -0.30769231       0.25000000       0.00000000 </v>
   <v>      -0.23076923       0.25000000       0.00000000 </v>
   <v>      -0.15384615       0.25000000       0.00000000 </v>
   <v>      -0.07692308       0.25000000       0.00000000 </v>
   <v>       0.00000000       0.50000000       0.00000000 </v>
   <v>       0.07692308       0.50000000       0.00000000 </v>
   <v>       0.15384615       0.50000000       0.00000000 </v>
   <v>       0.23076923       0.50000000       0.00000000 </v>
   <v>       0.30769231       0.50000000       0.00000000 </v>
   <v>       0.38461538       0.50000000       0.00000000 </v>
   <v>       0.46153846       0.50000000       0.00000000 </v>
   <v>       0.00000000       0.00000000       0.50000000 </v>
   <v>       0.07692308      -0.00000000       0.50000000 </v>
   <v>       0.15384615      -0.00000000       0.50000000 </v>
   <v>       0.23076923      -0.00000000       0.50000000 </v>
   <v>       0.30769231      -0.00000000       0.50000000 </v>
   <v>       0.38461538      -0.00000000       0.50000000 </v>
   <v>       0.46153846      -0.00000000       0.50000000 </v>
   <v>       0.00000000       0.25000000       0.50000000 </v>
   <v>       0.07692308       0.25000000       0.50000000 </v>
   <v>       0.15384615       0.25000000       0.50000000 </v>
   <v>       0.23076923       0.25000000       0.50000000 </v>
   <v>       0.30769231       0.25000000       0.50000000 </v>
   <v>       0.38461538       0.25000000       0.50000000 </v>
   <v>       0.46153846       0.25000000       0.50000000 </v>
   <v>      -0.46153846       0.25000000       0.50000000 </v>
   <v>      -0.38461538       0.25000000       0.50000000 </v>
   <v>      -0.30769231       0.25000000       0.50000000 </v>
   <v>      -0.23076923       0.25000000       0.50000000 </v>
   <v>      -0.15384615       0.25000000       0.50000000 </v>
   <v>      -0.07692308       0.25000000       0.50000000 </v>
   <v>       0.00000000       0.50000000       0.50000000 </v>
   <v>       0.07692308       0.50000000       0.50000000 </v>
   <v>       0.15384615       0.50000000       0.50000000 </v>
   <v>       0.23076923       0.50000000       0.50000000 </v>
   <v>       0.30769231       0.50000000       0.50000000 </v>
   <v>       0.38461538       0.50000000       0.50000000 </v>
   <v>       0.46153846       0.50000000       0.50000000 </v>
  </varray>
  <varray name="weights" >
   <v>       0.00961538 </v>
   <v>       0.01923077 </v>
   <v>       0.01923077 </v>
   <v>       0.01923077 </v>
   <v>       0.01923077 </v>
   <v>       0.01923077 </v>
   <v>       0.01923077 </v>
   <v>       0.01923077 </v>
   <v>       0.01923077 </v>
   <v>       0.01923077 </v>
   <v>       0.01923077 </v>
   <v>       0.01923077 </v>
   <v>       0.01923077 </v>
   <v>       0.01923077 </v>
   <v>       0.01923077 </v>
   <v>       0.01923077 </v>
   <v>       0.01923077 </v>
   <v>       0.01923077 </v>
   <v>       0.01923077 </v>
   <v>       0.01923077 </v>
   <v>       0.00961538 </v>
   <v>       0.01923077 </v>
   <v>       0.01923077 </v>
   <v>       0.01923077 </v>
   <v>       0.01923077 </v>
   <v>       0.01923077 </v>
   <v>       0.01923077 </v>
   <v>       0.00961538 </v>
   <v>       0.01923077 </v>
   <v>       0.01923077 </v>
   <v>       0.01923077 </v>
   <v>       0.01923077 </v>
   <v>       0.01923077 </v>
   <v>       0.01923077 </v>
   <v>       0.01923077 </v>
   <v>       0.01923077 </v>
   <v>       0.01923077 </v>
   <v>       0.01923077 </v>
   <v>       0.01923077 </v>
   <v>       0.01923077 </v>
   <v>       0.01923077 </v>
   <v>       0.01923077 </v>
   <v>       0.01923077 </v>
   <v>       0.01923077 </v>
   <v>       0.01923077 </v>
   <v>       0.01923077 </v>
   <v>       0.01923077 </v>
   <v>       0.00961538 </v>
   <v>       0.01923077 </v>
   <v>       0.01923077 </v>
   <v>       0.01923077 </v>
   <v>       0.01923077 </v>
   <v>       0.01923077 </v>
   <v>       0.01923077 </v>
  </varray>
 </kpoints>
 <parameters>
  <separator name="general" >
   <i type="string" name="SYSTEM">unknown system</i>
   <i type="logical" name="LCOMPAT"> F  </i>
  </separator>
  <separator name="electronic" >
   <i type="string" name="PREC">accura</i>
   <i name="ENMAX">    300.00000000</i>
   <i name="ENAUG">    342.92400000</i>
   <i name="EDIFF">      0.00000100</i>
   <i type="int" name="IALGO">    38</i>
   <i type="int" name="IWAVPR">    10</i>
   <i type="int" name="NBANDS">    68</i>
   <i name="NELECT">    108.00000000</i>
   <i type="int" name="TURBO">     0</i>
   <i type="int" name="IRESTART">     0</i>
   <i type="int" name="NREBOOT">     0</i>
   <i type="int" name="NMIN">     0</i>
   <i name="EREF">      0.00000000</i>
   <separator name="electronic smearing" >
    <i type="int" name="ISMEAR">     0</i>
    <i name="SIGMA">      0.10000000</i>
    <i name="KSPACING">      0.50000000</i>
    <i type="logical" name="KGAMMA"> T  </i>
   </separator>
   <separator name="electronic projectors" >
    <i type="logical" name="LREAL"> T  </i>
    <v name="ROPT">     -0.00025000     -0.00025000</v>
    <i type="int" name="LMAXPAW">  -100</i>
    <i type="int" name="LMAXMIX">     2</i>
    <i type="logical" name="NLSPLINE"> F  </i>
   </separator>
   <separator name="electronic startup" >
    <i type="int" name="ISTART">     0</i>
    <i type="int" name="ICHARG">     2</i>
    <i type="int" name="INIWAV">     1</i>
   </separator>
   <separator name="electronic spin" >
    <i type="int" name="ISPIN">     1</i>
    <i type="logical" name="LNONCOLLINEAR"> F  </i>
    <v name="MAGMOM">      1.00000000      1.00000000      1.00000000      1.00000000      1.00000000      1.00000000      1.00000000      1.00000000      1.00000000      1.00000000      1.00000000      1.00000000      1.00000000      1.00000000      1.00000000      1.00000000      1.00000000      1.00000000      1.00000000      1.00000000
      1.00000000      1.00000000      1.00000000      1.00000000</v>
    <i name="NUPDOWN">     -1.00000000</i>
    <i type="logical" name="LSORBIT"> F  </i>
    <v name="SAXIS">      0.00000000      0.00000000      1.00000000</v>
    <i type="logical" name="LSPIRAL"> F  </i>
    <v name="QSPIRAL">      0.00000000      0.00000000      0.00000000</v>
    <i type="logical" name="LZEROZ"> F  </i>
   </separator>
   <separator name="electronic exchange-correlation" >
    <i type="logical" name="LASPH"> F  </i>
    <i type="logical" name="LMETAGGA"> F  </i>
   </separator>
   <separator name="electronic convergence" >
    <i type="int" name="NELM">    60</i>
    <i type="int" name="NELMDL">    -5</i>
    <i type="int" name="NELMIN">     2</i>
    <i name="ENINI">    300.00000000</i>
    <separator name="electronic convergence detail" >
     <i type="logical" name="LDIAG"> T  </i>
     <i type="logical" name="LSUBROT"> F  </i>
     <i name="WEIMIN">      0.00000000</i>
     <i name="EBREAK">      0.00000000</i>
     <i name="DEPER">      0.30000000</i>
     <i type="int" name="NRMM">     4</i>
     <i name="TIME">      0.40000000</i>
    </separator>
   </separator>
   <separator name="electronic mixer" >
    <i name="AMIX">      0.40000000</i>
    <i name="BMIX">      1.00000000</i>
    <i name="AMIN">      0.10000000</i>
    <i name="AMIX_MAG">      1.60000000</i>
    <i name="BMIX_MAG">      1.00000000</i>
    <separator name="electronic mixer details" >
     <i type="int" name="IMIX">     4</i>
     <i type="int" name="MAXMIX">   -45</i>
     <i name="WC">    100.00000000</i>
     <i type="int" name="INIMIX">     1</i>
     <i type="int" name="MIXPRE">     1</i>
     <i type="int" name="MREMOVE">     5</i>
    </separator>
   </separator>
   <separator name="electronic dipolcorrection" >
    <i type="logical" name="LDIPOL"> F  </i>
    <i type="logical" name="LMONO"> F  </i>
    <i type="int" name="IDIPOL">     0</i>
    <i name="EPSILON">      1.00000000</i>
    <v name="DIPOL">   -100.00000000   -100.00000000   -100.00000000</v>
    <i name="EFIELD">      0.00000000</i>
   </separator>
  </separator>
  <separator name="grids" >
   <i type="int" name="NGX">    20</i>
   <i type="int" name="NGY">    60</i>
   <i type="int" name="NGZ">   160</i>
   <i type="int" name="NGXF">    40</i>
   <i type="int" name="NGYF">   120</i>
   <i type="int" name="NGZF">   320</i>
   <i type="logical" name="ADDGRID"> F  </i>
  </separator>
  <separator name="ionic" >
   <i type="int" name="NSW">     0</i>
   <i type="int" name="IBRION">    -1</i>
   <i type="int" name="ISIF">     3</i>
   <i name="PSTRESS">      0.00000000</i>
   <i name="EDIFFG">      0.00001000</i>
   <i type="int" name="NFREE">     1</i>
   <i name="POTIM">      0.50000000</i>
   <i name="SMASS">     -3.00000000</i>
   <i name="SCALEE">      1.00000000</i>
  </separator>
  <separator name="ionic md" >
   <i name="TEBEG">      0.00010000</i>
   <i name="TEEND">      0.00010000</i>
   <i type="int" name="NBLOCK">     1</i>
   <i type="int" name="KBLOCK">     1</i>
   <i type="int" name="NPACO">   256</i>
   <i name="APACO">     16.00000000</i>
  </separator>
  <separator name="symmetry" >
   <i type="int" name="ISYM">     2</i>
   <i name="SYMPREC">      0.00001000</i>
  </separator>
  <separator name="dos" >
   <i type="logical" name="LORBIT"> F  </i>
   <v name="RWIGS">     -1.00000000     -1.00000000</v>
   <i type="int" name="NEDOS">   301</i>
   <i name="EMIN">     10.00000000</i>
   <i name="EMAX">    -10.00000000</i>
   <i name="EFERMI">      0.00000000</i>
  </separator>
  <separator name="writing" >
   <i type="int" name="NWRITE">     2</i>
   <i type="logical" name="LWAVE"> F  </i>
   <i type="logical" name="LCHARG"> F  </i>
   <i type="logical" name="LPARD"> F  </i>
   <i type="logical" name="LVTOT"> F  </i>
   <i type="logical" name="LVHAR"> F  </i>
   <i type="logical" name="LELF"> F  </i>
   <i type="logical" name="LOPTICS"> F  </i>
   <v name="STM">      0.00000000      0.00000000      0.00000000      0.00000000      0.00000000      0.00000000      0.00000000</v>
  </separator>
  <separator name="performance" >
   <i type="int" name="NPAR">     4</i>
   <i type="int" name="NSIM">     4</i>
   <i type="int" name="NBLK">    -1</i>
   <i type="logical" name="LPLANE"> T  </i>
   <i type="logical" name="LSCALAPACK"> T  </i>
   <i type="logical" name="LSCAAWARE"> F  </i>
   <i type="logical" name="LSCALU"> F  </i>
   <i type="logical" name="LASYNC"> F  </i>
   <i type="logical" name="LORBITALREAL"> F  </i>
  </separator>
  <separator name="miscellaneous" >
   <i type="int" name="IDIOT">     3</i>
   <i type="logical" name="LMUSIC"> F  </i>
   <v name="POMASS">     30.97400000     28.08500000</v>
   <v name="DARWINR">      0.00000000      0.00000000</v>
   <v name="DARWINV">      1.00000000      1.00000000</v>
   <i type="logical" name="LCORR"> T  </i>
  </separator>
  <i type="logical" name="GGA_COMPAT"> T  </i>
  <i type="logical" name="LBERRY"> F  </i>
  <i type="int" name="ICORELEVEL">     0</i>
  <i type="logical" name="LDAU"> F  </i>
  <i type="int" name="I_CONSTRAINED_M">     0</i>
  <separator name="electronic exchange-correlation" >
   <i type="string" name="GGA">BO</i>
   <i type="int" name="VOSKOWN">     0</i>
   <i type="logical" name="LHFCALC"> F  </i>
   <i type="string" name="PRECFOCK"></i>
   <i type="logical" name="LSYMGRAD"> F  </i>
   <i type="logical" name="LHFONE"> F  </i>
   <i type="logical" name="LRHFCALC"> F  </i>
   <i type="logical" name="LTHOMAS"> F  </i>
   <i type="logical" name="LMODELHF"> F  </i>
   <i name="ENCUT4O">     -1.00000000</i>
   <i type="int" name="EXXOEP">     0</i>
   <i type="int" name="FOURORBIT">     0</i>
   <i name="AEXX">      0.00000000</i>
   <i name="HFALPHA">      0.00000000</i>
   <i name="MCALPHA">      0.00000000</i>
   <i name="ALDAX">      1.00000000</i>
   <i name="AGGAX">      1.00000000</i>
   <i name="ALDAC">      1.00000000</i>
   <i name="AGGAC">      0.00000000</i>
   <i type="int" name="NKREDX">     1</i>
   <i type="int" name="NKREDY">     1</i>
   <i type="int" name="NKREDZ">     1</i>
   <i type="logical" name="SHIFTRED"> F  </i>
   <i type="logical" name="ODDONLY"> F  </i>
   <i type="logical" name="EVENONLY"> F  </i>
   <i type="int" name="LMAXFOCK">     0</i>
   <i type="int" name="NMAXFOCKAE">     0</i>
   <i type="logical" name="LFOCKAEDFT"> F  </i>
   <i name="HFSCREEN">      0.00000000</i>
   <i name="HFSCREENC">      0.00000000</i>
   <i type="int" name="NBANDSGWLOW">     0</i>
  </separator>
  <separator name="vdW DFT" >
   <i type="logical" name="LUSE_VDW"> T  </i>
   <i name="Zab_VDW">     -0.84910000</i>
   <i name="PARAM1">      0.18333333</i>
   <i name="PARAM2">      0.22000000</i>
   <i name="PARAM3">      0.00000000</i>
  </separator>
  <separator name="model GW" >
   <i type="int" name="MODEL_GW">     0</i>
   <i name="MODEL_EPS0">     25.05800243</i>
   <i name="MODEL_ALPHA">      1.00000000</i>
  </separator>
  <separator name="linear response parameters" >
   <i type="logical" name="LEPSILON"> F  </i>
   <i type="logical" name="LRPA"> F  </i>
   <i type="logical" name="LNABLA"> F  </i>
   <i type="logical" name="LVEL"> F  </i>
   <i type="int" name="KINTER">     0</i>
   <i name="CSHIFT">      0.10000000</i>
   <i name="OMEGAMAX">     -1.00000000</i>
   <i name="DEG_THRESHOLD">      0.00200000</i>
  </separator>
  <separator name="orbital magnetization" >
   <i type="logical" name="NUCIND"> F  </i>
   <v name="MAGPOS">      0.00000000      0.00000000      0.00000000</v>
   <i type="logical" name="LNICSALL"> T  </i>
   <i type="logical" name="ORBITALMAG"> F  </i>
   <i type="logical" name="LMAGBLOCH"> F  </i>
   <i type="logical" name="LCHIMAG"> F  </i>
   <i type="logical" name="LGAUGE"> T  </i>
   <i type="int" name="MAGATOM">     0</i>
   <v name="MAGDIPOL">      0.00000000      0.00000000      0.00000000</v>
   <v name="AVECCONST">      0.00000000      0.00000000      0.00000000</v>
  </separator>
  <separator name="response functions" >
   <i type="logical" name="LADDER"> F  </i>
   <i type="logical" name="LFXC"> F  </i>
   <i type="logical" name="LHARTREE"> T  </i>
   <i type="int" name="IBSE">     0</i>
   <i type="logical" name="LTCTE"> F  </i>
   <i type="logical" name="LTETE"> F  </i>
   <i type="logical" name="LTRIPLET"> F  </i>
   <i type="logical" name="LFXCEPS"> F  </i>
   <i type="logical" name="LFXHEG"> F  </i>
   <i type="logical" name="L2ORDER"> F  </i>
   <i type="logical" name="LUSEW"> F  </i>
   <i name="ENCUTGW">     -2.00000000</i>
   <i name="ENCUTGWSOFT">     -2.00000000</i>
   <i name="ENCUTLF">     -1.00000000</i>
   <i type="int" name="LMAXMP2">    -1</i>
   <i name="SCISSOR">      0.00000000</i>
   <i type="int" name="NOMEGA">     0</i>
   <i type="int" name="NOMEGAR">     0</i>
   <i type="int" name="NBANDSGW">    -1</i>
   <i type="int" name="NBANDSO">    -1</i>
   <i type="int" name="NBANDSV">    -1</i>
   <i type="int" name="NELM">     1</i>
   <i type="int" name="DIM">     3</i>
   <i type="int" name="ANTIRES">     0</i>
   <i name="OMEGAMAX">    -30.00000000</i>
   <i name="OMEGAMIN">    -30.00000000</i>
   <i name="OMEGATL">   -200.00000000</i>
   <i type="int" name="OMEGAGRID">     0</i>
   <i name="CSHIFT">     -0.10000000</i>
   <i type="logical" name="SELFENERGY"> F  </i>
   <i type="logical" name="LSPECTRAL"> F  </i>
   <i type="logical" name="ODDONLYGW"> F  </i>
   <i type="logical" name="EVENONLYGW"> F  </i>
   <i type="int" name="NKREDLFX">     1</i>
   <i type="int" name="NKREDLFY">     1</i>
   <i type="int" name="NKREDLFZ">     1</i>
   <i type="int" name="MAXMEM">  1800</i>
   <i type="int" name="TELESCOPE">     0</i>
   <i type="int" name="TAUPAR">     1</i>
  </separator>
  <separator name="External order field" >
   <i name="OFIELD_KAPPA">      0.00000000</i>
   <v name="OFIELD_K">      0.00000000      0.00000000      0.00000000</v>
   <i name="OFIELD_Q6_NEAR">      0.00000000</i>
   <i name="OFIELD_Q6_FAR">      0.00000000</i>
   <i name="OFIELD_A">      0.00000000</i>
  </separator>
 </parameters>
 <atominfo>
  <atoms>      24 </atoms>
  <types>       2 </types>
  <array name="atoms" >
   <dimension dim="1">ion</dimension>
   <field type="string">element</field>
   <field type="int">atomtype</field>
   <set>
    <rc><c>P </c><c>   1</c></rc>
    <rc><c>P </c><c>   1</c></rc>
    <rc><c>P </c><c>   1</c></rc>
    <rc><c>P </c><c>   1</c></rc>
    <rc><c>P </c><c>   1</c></rc>
    <rc><c>P </c><c>   1</c></rc>
    <rc><c>P </c><c>   1</c></rc>
    <rc><c>P </c><c>   1</c></rc>
    <rc><c>P </c><c>   1</c></rc>
    <rc><c>P </c><c>   1</c></rc>
    <rc><c>P </c><c>   1</c></rc>
    <rc><c>P </c><c>   1</c></rc>
    <rc><c>Si</c><c>   2</c></rc>
    <rc><c>Si</c><c>   2</c></rc>
    <rc><c>Si</c><c>   2</c></rc>
    <rc><c>Si</c><c>   2</c></rc>
    <rc><c>Si</c><c>   2</c></rc>
    <rc><c>Si</c><c>   2</c></rc>
    <rc><c>Si</c><c>   2</c></rc>
    <rc><c>Si</c><c>   2</c></rc>
    <rc><c>Si</c><c>   2</c></rc>
    <rc><c>Si</c><c>   2</c></rc>
    <rc><c>Si</c><c>   2</c></rc>
    <rc><c>Si</c><c>   2</c></rc>
   </set>
  </array>
  <array name="atomtypes" >
   <dimension dim="1">type</dimension>
   <field type="int">atomspertype</field>
   <field type="string">element</field>
   <field>mass</field>
   <field>valence</field>
   <field type="string">pseudopotential</field>
   <set>
    <rc><c>  12</c><c>P </c><c>     30.97400000</c><c>      5.00000000</c><c>  PAW_PBE P 17Jan2003                   </c></rc>
    <rc><c>  12</c><c>Si</c><c>     28.08500000</c><c>      4.00000000</c><c> PAW_PBE Si 05Jan2001                   </c></rc>
   </set>
  </array>
 </atominfo>
 <structure name="initialpos" >
  <crystal>
   <varray name="basis" >
    <v>       3.54040000       0.00000000       0.00000000 </v>
    <v>      -1.77020000      10.29434800       0.00000000 </v>
    <v>       0.00000000       0.00000000      27.50142900 </v>
   </varray>
   <i name="volume">   1002.32009712 </i>
   <varray name="rec_basis" >
    <v>       0.28245396       0.04857034       0.00000000 </v>
    <v>       0.00000000       0.09714068       0.00000000 </v>
    <v>       0.00000000       0.00000000       0.03636175 </v>
   </varray>
  </crystal>
  <varray name="positions" >
   <v>       0.11402300       0.22804500       0.23316207 </v>
   <v>       0.61402300       0.12804500       0.51499159 </v>
   <v>       0.45808900       0.91617900       0.20939482 </v>
   <v>       0.95808900       0.81617900       0.49122434 </v>
   <v>       0.31085400       0.62170900       0.08414979 </v>
   <v>       0.31085400       0.62170900       0.36597930 </v>
   <v>       0.99923000       0.99846000       0.08631254 </v>
   <v>       0.99923000       0.99846000       0.36814206 </v>
   <v>       0.65492700       0.30985400       0.06041748 </v>
   <v>       0.65492700       0.30985400       0.34224700 </v>
   <v>       0.76973800       0.53947500       0.20725292 </v>
   <v>       0.26973800       0.43947500       0.48908244 </v>
   <v>       0.93971600       0.87943300       0.15783749 </v>
   <v>       0.43971600       0.77943300       0.43966701 </v>
   <v>       0.20515200       0.41030300       0.18578822 </v>
   <v>       0.70515200       0.31030300       0.46761774 </v>
   <v>       0.20184900       0.40369900       0.09969156 </v>
   <v>       0.20184900       0.40369900       0.38152107 </v>
   <v>       0.56380500       0.12761000       0.10779021 </v>
   <v>       0.56380500       0.12761000       0.38961973 </v>
   <v>       0.56710600       0.13421200       0.19387616 </v>
   <v>       0.06710600       0.03421200       0.47570568 </v>
   <v>       0.82923400       0.65846800       0.13571444 </v>
   <v>       0.32923400       0.55846800       0.41754396 </v>
  </varray>
 </structure>
 <calculation>
  <scstep>
   <time name="dav">   60.09   60.12</time>
   <time name="total">   76.08   76.12</time>
   <energy>
    <i name="alphaZ">     36.80884744 </i>
    <i name="ewald">  11939.57897476 </i>
    <i name="hartreedc"> -14973.47198028 </i>
    <i name="XCdc">    -87.71229030 </i>
    <i name="pawpsdc">   1056.43050070 </i>
    <i name="pawaedc">   -732.41190547 </i>
    <i name="eentropy">     -0.04088495 </i>
    <i name="bandstr">    -92.60557998 </i>
    <i name="atom">   3354.04126044 </i>
    <i name="e_fr_energy">    500.61694238 </i>
    <i name="e_wo_entrp">    500.65782733 </i>
    <i name="e_0_energy">    500.63738485 </i>
   </energy>
  </scstep>
  <scstep>
   <time name="dav">   75.02   75.06</time>
   <time name="total">   75.03   75.07</time>
   <energy>
    <i name="e_fr_energy">    -60.71621161 </i>
    <i name="e_wo_entrp">    -60.68981073 </i>
    <i name="e_0_energy">    -60.70301117 </i>
   </energy>
  </scstep>
  <scstep>
   <time name="dav">   73.12   73.16</time>
   <time name="total">   73.13   73.43</time>
   <energy>
    <i name="e_fr_energy">   -118.67335057 </i>
    <i name="e_wo_entrp">   -118.64092142 </i>
    <i name="e_0_energy">   -118.65713600 </i>
   </energy>
  </scstep>
  <scstep>
   <time name="dav">   83.12   83.15</time>
   <time name="total">   83.13   83.93</time>
   <energy>
    <i name="e_fr_energy">   -121.37150741 </i>
    <i name="e_wo_entrp">   -121.33607801 </i>
    <i name="e_0_energy">   -121.35379271 </i>
   </energy>
  </scstep>
  <scstep>
   <time name="dav">   77.73   77.75</time>
   <time name="total">   81.69   81.72</time>
   <energy>
    <i name="e_fr_energy">   -121.44406761 </i>
    <i name="e_wo_entrp">   -121.40850991 </i>
    <i name="e_0_energy">   -121.42628876 </i>
   </energy>
  </scstep>
  <scstep>
   <time name="dav">   69.15   69.16</time>
   <time name="total">   87.71   87.72</time>
   <energy>
    <i name="e_fr_energy">   -116.65168143 </i>
    <i name="e_wo_entrp">   -116.62336381 </i>
    <i name="e_0_energy">   -116.63752262 </i>
   </energy>
  </scstep>
  <scstep>
   <time name="dav">   67.73   67.76</time>
   <time name="total">   86.17   86.23</time>
   <energy>
    <i name="e_fr_energy">   -116.51415790 </i>
    <i name="e_wo_entrp">   -116.47965184 </i>
    <i name="e_0_energy">   -116.49690487 </i>
   </energy>
  </scstep>
  <scstep>
   <time name="dav">   70.48   70.52</time>
   <time name="total">   88.86   88.91</time>
   <energy>
    <i name="e_fr_energy">   -116.53073479 </i>
    <i name="e_wo_entrp">   -116.49576409 </i>
    <i name="e_0_energy">   -116.51324944 </i>
   </energy>
  </scstep>
  <scstep>
   <time name="dav">   67.62   67.65</time>
   <time name="total">   86.10   86.15</time>
   <energy>
    <i name="e_fr_energy">   -116.53154225 </i>
    <i name="e_wo_entrp">   -116.49749523 </i>
    <i name="e_0_energy">   -116.51451874 </i>
   </energy>
  </scstep>
  <scstep>
   <time name="dav">   76.67   76.71</time>
   <time name="total">   95.09   95.14</time>
   <energy>
    <i name="e_fr_energy">   -116.52759833 </i>
    <i name="e_wo_entrp">   -116.49332607 </i>
    <i name="e_0_energy">   -116.51046220 </i>
   </energy>
  </scstep>
  <scstep>
   <time name="dav">   68.82   68.86</time>
   <time name="total">   87.18   87.23</time>
   <energy>
    <i name="e_fr_energy">   -116.52113338 </i>
    <i name="e_wo_entrp">   -116.48667975 </i>
    <i name="e_0_energy">   -116.50390657 </i>
   </energy>
  </scstep>
  <scstep>
   <time name="dav">   69.83   69.86</time>
   <time name="total">   88.24   88.28</time>
   <energy>
    <i name="e_fr_energy">   -116.51340931 </i>
    <i name="e_wo_entrp">   -116.47916265 </i>
    <i name="e_0_energy">   -116.49628598 </i>
   </energy>
  </scstep>
  <scstep>
   <time name="dav">   67.40   67.48</time>
   <time name="total">   85.82   85.92</time>
   <energy>
    <i name="e_fr_energy">   -116.50977916 </i>
    <i name="e_wo_entrp">   -116.47557034 </i>
    <i name="e_0_energy">   -116.49267475 </i>
   </energy>
  </scstep>
  <scstep>
   <time name="dav">   69.62   69.67</time>
   <time name="total">   88.07   88.12</time>
   <energy>
    <i name="e_fr_energy">   -116.50864383 </i>
    <i name="e_wo_entrp">   -116.47443766 </i>
    <i name="e_0_energy">   -116.49154075 </i>
   </energy>
  </scstep>
  <scstep>
   <time name="dav">   67.06   67.10</time>
   <time name="total">   85.53   85.58</time>
   <energy>
    <i name="e_fr_energy">   -116.50781028 </i>
    <i name="e_wo_entrp">   -116.47362860 </i>
    <i name="e_0_energy">   -116.49071944 </i>
   </energy>
  </scstep>
  <scstep>
   <time name="dav">   67.26   67.30</time>
   <time name="total">   85.94   85.98</time>
   <energy>
    <i name="e_fr_energy">   -116.50791963 </i>
    <i name="e_wo_entrp">   -116.47373752 </i>
    <i name="e_0_energy">   -116.49082858 </i>
   </energy>
  </scstep>
  <scstep>
   <time name="dav">   67.31   67.34</time>
   <time name="total">   86.08   86.14</time>
   <energy>
    <i name="e_fr_energy">   -116.50846005 </i>
    <i name="e_wo_entrp">   -116.47427755 </i>
    <i name="e_0_energy">   -116.49136880 </i>
   </energy>
  </scstep>
  <scstep>
   <time name="dav">   60.20   60.23</time>
   <time name="total">   78.93   78.97</time>
   <energy>
    <i name="e_fr_energy">   -116.50862437 </i>
    <i name="e_wo_entrp">   -116.47443917 </i>
    <i name="e_0_energy">   -116.49153177 </i>
   </energy>
  </scstep>
  <scstep>
   <time name="dav">   62.02   62.03</time>
   <time name="total">   81.22   81.23</time>
   <energy>
    <i name="e_fr_energy">   -116.50867434 </i>
    <i name="e_wo_entrp">   -116.47448938 </i>
    <i name="e_0_energy">   -116.49158186 </i>
   </energy>
  </scstep>
  <scstep>
   <time name="dav">   59.46   59.48</time>
   <time name="total">   78.49   78.52</time>
   <energy>
    <i name="e_fr_energy">   -116.50870221 </i>
    <i name="e_wo_entrp">   -116.47451705 </i>
    <i name="e_0_energy">   -116.49160963 </i>
   </energy>
  </scstep>
  <scstep>
   <time name="dav">   56.99   57.00</time>
   <time name="total">   75.51   75.54</time>
   <energy>
    <i name="e_fr_energy">   -116.50867297 </i>
    <i name="e_wo_entrp">   -116.47448906 </i>
    <i name="e_0_energy">   -116.49158101 </i>
   </energy>
  </scstep>
  <scstep>
   <time name="dav">   54.70   54.72</time>
   <time name="total">   73.19   73.23</time>
   <energy>
    <i name="e_fr_energy">   -116.50864398 </i>
    <i name="e_wo_entrp">   -116.47446014 </i>
    <i name="e_0_energy">   -116.49155206 </i>
   </energy>
  </scstep>
  <scstep>
   <time name="dav">   57.20   57.21</time>
   <time name="total">   75.78   75.79</time>
   <energy>
    <i name="e_fr_energy">   -116.50859121 </i>
    <i name="e_wo_entrp">   -116.47440761 </i>
    <i name="e_0_energy">   -116.49149941 </i>
   </energy>
  </scstep>
  <scstep>
   <time name="dav">   55.63   55.66</time>
   <time name="total">   74.16   74.21</time>
   <energy>
    <i name="e_fr_energy">   -116.50858001 </i>
    <i name="e_wo_entrp">   -116.47439645 </i>
    <i name="e_0_energy">   -116.49148823 </i>
   </energy>
  </scstep>
  <scstep>
   <time name="dav">   53.57   53.59</time>
   <time name="total">   72.09   72.13</time>
   <energy>
    <i name="e_fr_energy">   -116.50856731 </i>
    <i name="e_wo_entrp">   -116.47438366 </i>
    <i name="e_0_energy">   -116.49147549 </i>
   </energy>
  </scstep>
  <scstep>
   <time name="dav">   59.27   59.30</time>
   <time name="total">   77.97   78.02</time>
   <energy>
    <i name="e_fr_energy">   -116.50856598 </i>
    <i name="e_wo_entrp">   -116.47438236 </i>
    <i name="e_0_energy">   -116.49147417 </i>
   </energy>
  </scstep>
  <scstep>
   <time name="dav">   55.68   55.71</time>
   <time name="total">   74.92   74.96</time>
   <energy>
    <i name="e_fr_energy">   -116.50856488 </i>
    <i name="e_wo_entrp">   -116.47438126 </i>
    <i name="e_0_energy">   -116.49147307 </i>
   </energy>
  </scstep>
  <scstep>
   <time name="dav">   52.50   52.53</time>
   <time name="total">   67.24   67.29</time>
   <energy>
    <i name="alphaZ">     36.80884744 </i>
    <i name="ewald">  11939.57897476 </i>
    <i name="hartreedc"> -15073.42614018 </i>
    <i name="XCdc">    -79.67978670 </i>
    <i name="pawpsdc">   1183.54036103 </i>
    <i name="pawaedc">   -863.14174938 </i>
    <i name="eentropy">     -0.03418369 </i>
    <i name="bandstr">   -614.19614902 </i>
    <i name="atom">   3354.04126044 </i>
    <i name="e_fr_energy">   -116.50856529 </i>
    <i name="e_wo_entrp">   -116.47438160 </i>
    <i name="e_0_energy">   -116.49147344 </i>
   </energy>
  </scstep>
  <structure>
   <crystal>
    <varray name="basis" >
     <v>       3.54040000       0.00000000       0.00000000 </v>
     <v>      -1.77020000      10.29434800       0.00000000 </v>
     <v>       0.00000000       0.00000000      27.50142900 </v>
    </varray>
    <i name="volume">   1002.32009712 </i>
    <varray name="rec_basis" >
     <v>       0.28245396       0.04857034       0.00000000 </v>
     <v>       0.00000000       0.09714068       0.00000000 </v>
     <v>       0.00000000       0.00000000       0.03636175 </v>
    </varray>
   </crystal>
   <varray name="positions" >
    <v>       0.11402300       0.22804500       0.23316207 </v>
    <v>       0.61402300       0.12804500       0.51499159 </v>
    <v>       0.45808900       0.91617900       0.20939482 </v>
    <v>       0.95808900       0.81617900       0.49122434 </v>
    <v>       0.31085400       0.62170900       0.08414979 </v>
    <v>       0.31085400       0.62170900       0.36597930 </v>
    <v>       0.99923000       0.99846000       0.08631254 </v>
    <v>       0.99923000       0.99846000       0.36814206 </v>
    <v>       0.65492700       0.30985400       0.06041748 </v>
    <v>       0.65492700       0.30985400       0.34224700 </v>
    <v>       0.76973800       0.53947500       0.20725292 </v>
    <v>       0.26973800       0.43947500       0.48908244 </v>
    <v>       0.93971600       0.87943300       0.15783749 </v>
    <v>       0.43971600       0.77943300       0.43966701 </v>
    <v>       0.20515200       0.41030300       0.18578822 </v>
    <v>       0.70515200       0.31030300       0.46761774 </v>
    <v>       0.20184900       0.40369900       0.09969156 </v>
    <v>       0.20184900       0.40369900       0.38152107 </v>
    <v>       0.56380500       0.12761000       0.10779021 </v>
    <v>       0.56380500       0.12761000       0.38961973 </v>
    <v>       0.56710600       0.13421200       0.19387616 </v>
    <v>       0.06710600       0.03421200       0.47570568 </v>
    <v>       0.82923400       0.65846800       0.13571444 </v>
    <v>       0.32923400       0.55846800       0.41754396 </v>
   </varray>
  </structure>
  <varray name="forces" >
   <v>      -0.01533223      -0.03482705       0.06097800 </v>
   <v>       0.20535060      -0.24125376       0.51470930 </v>
   <v>      -0.00148404      -0.00781767       0.07722520 </v>
   <v>       0.07277852      -0.09229940       0.17865048 </v>
   <v>       0.00090319      -0.00226436       0.00498193 </v>
   <v>      -3.64259585      13.24290282     -28.97299263 </v>
   <v>      -0.00290004      -0.00721186      -0.00215449 </v>
   <v>      -0.31575082       0.68819650       1.44835090 </v>
   <v>       0.00089439      -0.00156499       0.01472203 </v>
   <v>      -0.17230143       0.55376065      -0.61273624 </v>
   <v>      -0.00040976       0.00662232       0.09687832 </v>
   <v>       0.25140307      -0.22404749       1.08698957 </v>
   <v>       0.00289102      -0.00660210       0.00304758 </v>
   <v>       0.16594290       0.87912362       0.59959538 </v>
   <v>      -0.00223394       0.01472762       0.07616112 </v>
   <v>       0.05533762      -1.00056592      -0.36717584 </v>
   <v>      -0.00098149      -0.00151238      -0.02299907 </v>
   <v>      -1.06180043      -8.82916362      -6.63741886 </v>
   <v>      -0.00502252      -0.01632802      -0.00918612 </v>
   <v>       0.02957484       0.51470348      -0.42934399 </v>
   <v>       0.00309712      -0.01187192      -0.00699316 </v>
   <v>       0.08452664      -0.59371148      -0.34584273 </v>
   <v>       0.00073393       0.00721486      -0.00141806 </v>
   <v>       4.34737873      -4.83620985      33.24597141 </v>
  </varray>
  <varray name="stress" >
   <v>      -0.80464764      -0.18091633      13.74647332 </v>
   <v>      -0.18091653      38.10301388     -24.26017185 </v>
   <v>      13.74647315     -24.26017193      76.32653706 </v>
  </varray>
  <energy>
   <i name="e_fr_energy">   -116.50856529 </i>
   <i name="e_wo_entrp">   -116.49147344 </i>
   <i name="e_0_energy">     -0.03418369 </i>
  </energy>
  <time name="totalsc"> 2375.23 2377.49</time>
  <eigenvalues>
   <array>
    <dimension dim="1">band</dimension>
    <dimension dim="2">kpoint</dimension>
    <dimension dim="3">spin</dimension>
    <field>eigene</field>
    <field>occ</field>
    <set>
     <set comment="spin 1">
      <set comment="kpoint 1">
       <r>  -14.6103    1.0000 </r>
       <r>  -13.5391    1.0000 </r>
       <r>  -13.0001    1.0000 </r>
       <r>  -12.8018    1.0000 </r>
       <r>  -12.4861    1.0000 </r>
       <r>  -12.3635    1.0000 </r>
       <r>  -12.2090    1.0000 </r>
       <r>  -12.0749    1.0000 </r>
       <r>  -11.4329    1.0000 </r>
       <r>  -11.4163    1.0000 </r>
       <r>  -11.0179    1.0000 </r>
       <r>  -10.9760    1.0000 </r>
       <r>   -8.3625    1.0000 </r>
       <r>   -8.0285    1.0000 </r>
       <r>   -7.8264    1.0000 </r>
       <r>   -7.1796    1.0000 </r>
       <r>   -6.9319    1.0000 </r>
       <r>   -6.7778    1.0000 </r>
       <r>   -6.5319    1.0000 </r>
       <r>   -6.4876    1.0000 </r>
       <r>   -5.8307    1.0000 </r>
       <r>   -5.6772    1.0000 </r>
       <r>   -4.7532    1.0000 </r>
       <r>   -4.6131    1.0000 </r>
       <r>   -4.0595    1.0000 </r>
       <r>   -3.7183    1.0000 </r>
       <r>   -3.6840    1.0000 </r>
       <r>   -3.5581    1.0000 </r>
       <r>   -3.2980    1.0000 </r>
       <r>   -3.2238    1.0000 </r>
       <r>   -3.0522    1.0000 </r>
       <r>   -2.8851    1.0000 </r>
       <r>   -2.8457    1.0000 </r>
       <r>   -2.7425    1.0000 </r>
       <r>   -2.5183    1.0000 </r>
       <r>   -2.4570    1.0000 </r>
       <r>   -2.3873    1.0000 </r>
       <r>   -2.2815    1.0000 </r>
       <r>   -2.2314    1.0000 </r>
       <r>   -2.0461    1.0000 </r>
       <r>   -1.8476    1.0000 </r>
       <r>   -1.7703    1.0000 </r>
       <r>   -1.7308    1.0000 </r>
       <r>   -1.6389    1.0000 </r>
       <r>   -1.5851    1.0000 </r>
       <r>   -1.5752    1.0000 </r>
       <r>   -1.4862    1.0000 </r>
       <r>   -1.4317    1.0000 </r>
       <r>   -1.2022    1.0000 </r>
       <r>   -1.1628    1.0000 </r>
       <r>   -0.9992    1.0000 </r>
       <r>   -0.8767    1.0000 </r>
       <r>   -0.1766    1.0000 </r>
       <r>    0.1204    0.7937 </r>
       <r>    0.3594    0.0052 </r>
       <r>    0.8861    0.0000 </r>
       <r>    1.1558    0.0000 </r>
       <r>    1.2307    0.0000 </r>
       <r>    1.3199    0.0000 </r>
       <r>    1.5517    0.0000 </r>
       <r>    1.7287    0.0000 </r>
       <r>    1.7940    0.0000 </r>
       <r>    1.9875    0.0000 </r>
       <r>    2.1590    0.0000 </r>
       <r>    2.4194    0.0000 </r>
       <r>    2.4474    0.0000 </r>
       <r>    2.6518    0.0000 </r>
       <r>    2.7894    0.0000 </r>
      </set>
      <set comment="kpoint 2">
       <r>  -14.5762    1.0000 </r>
       <r>  -13.4778    1.0000 </r>
       <r>  -12.9473    1.0000 </r>
       <r>  -12.7496    1.0000 </r>
       <r>  -12.4305    1.0000 </r>
       <r>  -12.3083    1.0000 </r>
       <r>  -12.1525    1.0000 </r>
       <r>  -12.0131    1.0000 </r>
       <r>  -11.3842    1.0000 </r>
       <r>  -11.3693    1.0000 </r>
       <r>  -10.9670    1.0000 </r>
       <r>  -10.9267    1.0000 </r>
       <r>   -8.3509    1.0000 </r>
       <r>   -8.0660    1.0000 </r>
       <r>   -7.7890    1.0000 </r>
       <r>   -7.1739    1.0000 </r>
       <r>   -6.8958    1.0000 </r>
       <r>   -6.7483    1.0000 </r>
       <r>   -6.5108    1.0000 </r>
       <r>   -6.4799    1.0000 </r>
       <r>   -5.7970    1.0000 </r>
       <r>   -5.6540    1.0000 </r>
       <r>   -4.7537    1.0000 </r>
       <r>   -4.5836    1.0000 </r>
       <r>   -4.0560    1.0000 </r>
       <r>   -3.7787    1.0000 </r>
       <r>   -3.7177    1.0000 </r>
       <r>   -3.6714    1.0000 </r>
       <r>   -3.6060    1.0000 </r>
       <r>   -3.4766    1.0000 </r>
       <r>   -3.2911    1.0000 </r>
       <r>   -3.2206    1.0000 </r>
       <r>   -3.0453    1.0000 </r>
       <r>   -2.9359    1.0000 </r>
       <r>   -2.7338    1.0000 </r>
       <r>   -2.6264    1.0000 </r>
       <r>   -2.5296    1.0000 </r>
       <r>   -2.4742    1.0000 </r>
       <r>   -2.2955    1.0000 </r>
       <r>   -2.1964    1.0000 </r>
       <r>   -2.1019    1.0000 </r>
       <r>   -2.0335    1.0000 </r>
       <r>   -1.9672    1.0000 </r>
       <r>   -1.9299    1.0000 </r>
       <r>   -1.8353    1.0000 </r>
       <r>   -1.7398    1.0000 </r>
       <r>   -1.6587    1.0000 </r>
       <r>   -1.5086    1.0000 </r>
       <r>   -1.3216    1.0000 </r>
       <r>   -1.1370    1.0000 </r>
       <r>   -0.9393    1.0000 </r>
       <r>   -0.8090    1.0000 </r>
       <r>   -0.0677    0.9997 </r>
       <r>    0.1929    0.4181 </r>
       <r>    0.4438    0.0001 </r>
       <r>    1.1551    0.0000 </r>
       <r>    1.4212    0.0000 </r>
       <r>    1.5682    0.0000 </r>
       <r>    1.6975    0.0000 </r>
       <r>    1.7782    0.0000 </r>
       <r>    2.1326    0.0000 </r>
       <r>    2.2023    0.0000 </r>
       <r>    2.2234    0.0000 </r>
       <r>    2.3091    0.0000 </r>
       <r>    2.6052    0.0000 </r>
       <r>    2.6596    0.0000 </r>
       <r>    2.7692    0.0000 </r>
       <r>    2.9052    0.0000 </r>
      </set>
      <set comment="kpoint 3">
       <r>  -14.4783    1.0000 </r>
       <r>  -13.2948    1.0000 </r>
       <r>  -12.7897    1.0000 </r>
       <r>  -12.5939    1.0000 </r>
       <r>  -12.2659    1.0000 </r>
       <r>  -12.1452    1.0000 </r>
       <r>  -11.9866    1.0000 </r>
       <r>  -11.8318    1.0000 </r>
       <r>  -11.2432    1.0000 </r>
       <r>  -11.2325    1.0000 </r>
       <r>  -10.8201    1.0000 </r>
       <r>  -10.7829    1.0000 </r>
       <r>   -8.3337    1.0000 </r>
       <r>   -8.1633    1.0000 </r>
       <r>   -7.7470    1.0000 </r>
       <r>   -7.1678    1.0000 </r>
       <r>   -6.8184    1.0000 </r>
       <r>   -6.6884    1.0000 </r>
       <r>   -6.4997    1.0000 </r>
       <r>   -6.4530    1.0000 </r>
       <r>   -5.7224    1.0000 </r>
       <r>   -5.6252    1.0000 </r>
       <r>   -4.8671    1.0000 </r>
       <r>   -4.7246    1.0000 </r>
       <r>   -4.4155    1.0000 </r>
       <r>   -4.2362    1.0000 </r>
       <r>   -4.1488    1.0000 </r>
       <r>   -4.0780    1.0000 </r>
       <r>   -3.9856    1.0000 </r>
       <r>   -3.8806    1.0000 </r>
       <r>   -3.6837    1.0000 </r>
       <r>   -3.5799    1.0000 </r>
       <r>   -3.4773    1.0000 </r>
       <r>   -3.2722    1.0000 </r>
       <r>   -3.1503    1.0000 </r>
       <r>   -3.0540    1.0000 </r>
       <r>   -2.9733    1.0000 </r>
       <r>   -2.9603    1.0000 </r>
       <r>   -2.7646    1.0000 </r>
       <r>   -2.7357    1.0000 </r>
       <r>   -2.4429    1.0000 </r>
       <r>   -2.3619    1.0000 </r>
       <r>   -2.2698    1.0000 </r>
       <r>   -2.1479    1.0000 </r>
       <r>   -2.1083    1.0000 </r>
       <r>   -1.9321    1.0000 </r>
       <r>   -1.7522    1.0000 </r>
       <r>   -1.6490    1.0000 </r>
       <r>   -1.2803    1.0000 </r>
       <r>   -1.1788    1.0000 </r>
       <r>   -0.9534    1.0000 </r>
       <r>   -0.7699    1.0000 </r>
       <r>    0.0074    0.9922 </r>
       <r>    0.2288    0.2375 </r>
       <r>    0.5378    0.0000 </r>
       <r>    1.2623    0.0000 </r>
       <r>    1.5092    0.0000 </r>
       <r>    1.9304    0.0000 </r>
       <r>    1.9977    0.0000 </r>
       <r>    2.2576    0.0000 </r>
       <r>    2.4156    0.0000 </r>
       <r>    2.4876    0.0000 </r>
       <r>    2.6298    0.0000 </r>
       <r>    2.6705    0.0000 </r>
       <r>    2.7881    0.0000 </r>
       <r>    2.9325    0.0000 </r>
       <r>    3.0033    0.0000 </r>
       <r>    3.0638    0.0000 </r>
      </set>
      <set comment="kpoint 4">
       <r>  -14.3325    1.0000 </r>
       <r>  -12.9938    1.0000 </r>
       <r>  -12.5300    1.0000 </r>
       <r>  -12.3376    1.0000 </r>
       <r>  -11.9991    1.0000 </r>
       <r>  -11.8832    1.0000 </r>
       <r>  -11.7234    1.0000 </r>
       <r>  -11.5452    1.0000 </r>
       <r>  -11.0292    1.0000 </r>
       <r>  -11.0211    1.0000 </r>
       <r>  -10.6060    1.0000 </r>
       <r>  -10.5552    1.0000 </r>
       <r>   -8.3734    1.0000 </r>
       <r>   -8.3507    1.0000 </r>
       <r>   -7.8214    1.0000 </r>
       <r>   -7.2248    1.0000 </r>
       <r>   -6.8239    1.0000 </r>
       <r>   -6.6901    1.0000 </r>
       <r>   -6.6313    1.0000 </r>
       <r>   -6.4304    1.0000 </r>
       <r>   -5.8058    1.0000 </r>
       <r>   -5.7364    1.0000 </r>
       <r>   -5.4288    1.0000 </r>
       <r>   -5.3359    1.0000 </r>
       <r>   -4.9064    1.0000 </r>
       <r>   -4.8111    1.0000 </r>
       <r>   -4.6059    1.0000 </r>
       <r>   -4.5108    1.0000 </r>
       <r>   -4.2687    1.0000 </r>
       <r>   -4.2207    1.0000 </r>
       <r>   -4.1328    1.0000 </r>
       <r>   -4.0138    1.0000 </r>
       <r>   -3.8394    1.0000 </r>
       <r>   -3.7787    1.0000 </r>
       <r>   -3.5853    1.0000 </r>
       <r>   -3.4676    1.0000 </r>
       <r>   -3.2502    1.0000 </r>
       <r>   -3.1298    1.0000 </r>
       <r>   -2.9863    1.0000 </r>
       <r>   -2.8729    1.0000 </r>
       <r>   -2.6608    1.0000 </r>
       <r>   -2.5185    1.0000 </r>
       <r>   -2.4459    1.0000 </r>
       <r>   -2.3379    1.0000 </r>
       <r>   -2.1928    1.0000 </r>
       <r>   -1.9030    1.0000 </r>
       <r>   -1.8220    1.0000 </r>
       <r>   -1.7199    1.0000 </r>
       <r>   -1.4632    1.0000 </r>
       <r>   -1.1717    1.0000 </r>
       <r>   -1.0912    1.0000 </r>
       <r>   -0.7796    1.0000 </r>
       <r>   -0.0760    0.9998 </r>
       <r>    0.1488    0.6619 </r>
       <r>    0.5168    0.0000 </r>
       <r>    1.0860    0.0000 </r>
       <r>    1.1831    0.0000 </r>
       <r>    1.5158    0.0000 </r>
       <r>    1.8677    0.0000 </r>
       <r>    2.0244    0.0000 </r>
       <r>    2.0822    0.0000 </r>
       <r>    2.2613    0.0000 </r>
       <r>    2.3725    0.0000 </r>
       <r>    2.5304    0.0000 </r>
       <r>    2.6861    0.0000 </r>
       <r>    2.8507    0.0000 </r>
       <r>    2.8885    0.0000 </r>
       <r>    2.9740    0.0000 </r>
      </set>
      <set comment="kpoint 5">
       <r>  -14.1661    1.0000 </r>
       <r>  -12.5820    1.0000 </r>
       <r>  -12.1756    1.0000 </r>
       <r>  -11.9894    1.0000 </r>
       <r>  -11.6468    1.0000 </r>
       <r>  -11.5442    1.0000 </r>
       <r>  -11.3871    1.0000 </r>
       <r>  -11.1877    1.0000 </r>
       <r>  -10.7908    1.0000 </r>
       <r>  -10.7797    1.0000 </r>
       <r>  -10.4150    1.0000 </r>
       <r>  -10.2662    1.0000 </r>
       <r>   -8.6526    1.0000 </r>
       <r>   -8.5285    1.0000 </r>
       <r>   -8.0824    1.0000 </r>
       <r>   -7.4714    1.0000 </r>
       <r>   -7.0855    1.0000 </r>
       <r>   -6.9911    1.0000 </r>
       <r>   -6.9013    1.0000 </r>
       <r>   -6.5892    1.0000 </r>
       <r>   -6.3002    1.0000 </r>
       <r>   -6.1635    1.0000 </r>
       <r>   -5.9678    1.0000 </r>
       <r>   -5.9266    1.0000 </r>
       <r>   -5.2103    1.0000 </r>
       <r>   -5.1770    1.0000 </r>
       <r>   -4.8000    1.0000 </r>
       <r>   -4.7018    1.0000 </r>
       <r>   -4.6874    1.0000 </r>
       <r>   -4.5771    1.0000 </r>
       <r>   -4.3161    1.0000 </r>
       <r>   -4.2404    1.0000 </r>
       <r>   -4.2088    1.0000 </r>
       <r>   -3.9259    1.0000 </r>
       <r>   -3.6503    1.0000 </r>
       <r>   -3.3910    1.0000 </r>
       <r>   -3.1416    1.0000 </r>
       <r>   -3.1013    1.0000 </r>
       <r>   -3.0404    1.0000 </r>
       <r>   -2.8896    1.0000 </r>
       <r>   -2.8312    1.0000 </r>
       <r>   -2.7347    1.0000 </r>
       <r>   -2.6171    1.0000 </r>
       <r>   -2.3766    1.0000 </r>
       <r>   -2.3056    1.0000 </r>
       <r>   -2.0576    1.0000 </r>
       <r>   -1.8849    1.0000 </r>
       <r>   -1.8653    1.0000 </r>
       <r>   -1.7135    1.0000 </r>
       <r>   -1.3097    1.0000 </r>
       <r>   -1.0948    1.0000 </r>
       <r>   -0.7959    1.0000 </r>
       <r>   -0.3217    1.0000 </r>
       <r>   -0.0215    0.9976 </r>
       <r>    0.3549    0.0062 </r>
       <r>    0.5706    0.0000 </r>
       <r>    0.9129    0.0000 </r>
       <r>    1.1433    0.0000 </r>
       <r>    1.6012    0.0000 </r>
       <r>    1.7199    0.0000 </r>
       <r>    1.8619    0.0000 </r>
       <r>    1.9929    0.0000 </r>
       <r>    2.2149    0.0000 </r>
       <r>    2.2559    0.0000 </r>
       <r>    2.3750    0.0000 </r>
       <r>    2.6284    0.0000 </r>
       <r>    2.7135    0.0000 </r>
       <r>    2.8193    0.0000 </r>
      </set>
      <set comment="kpoint 6">
       <r>  -14.0175    1.0000 </r>
       <r>  -12.0736    1.0000 </r>
       <r>  -11.7447    1.0000 </r>
       <r>  -11.5703    1.0000 </r>
       <r>  -11.2472    1.0000 </r>
       <r>  -11.1836    1.0000 </r>
       <r>  -11.0263    1.0000 </r>
       <r>  -10.8455    1.0000 </r>
       <r>  -10.6472    1.0000 </r>
       <r>  -10.6265    1.0000 </r>
       <r>  -10.4541    1.0000 </r>
       <r>   -9.9858    1.0000 </r>
       <r>   -8.8294    1.0000 </r>
       <r>   -8.7682    1.0000 </r>
       <r>   -8.3749    1.0000 </r>
       <r>   -7.8282    1.0000 </r>
       <r>   -7.5257    1.0000 </r>
       <r>   -7.4577    1.0000 </r>
       <r>   -7.4090    1.0000 </r>
       <r>   -7.0923    1.0000 </r>
       <r>   -6.7654    1.0000 </r>
       <r>   -6.7606    1.0000 </r>
       <r>   -6.6563    1.0000 </r>
       <r>   -6.1221    1.0000 </r>
       <r>   -5.3132    1.0000 </r>
       <r>   -5.2117    1.0000 </r>
       <r>   -5.1478    1.0000 </r>
       <r>   -4.6746    1.0000 </r>
       <r>   -4.5522    1.0000 </r>
       <r>   -4.5187    1.0000 </r>
       <r>   -4.2437    1.0000 </r>
       <r>   -4.1638    1.0000 </r>
       <r>   -4.0627    1.0000 </r>
       <r>   -3.7177    1.0000 </r>
       <r>   -3.6560    1.0000 </r>
       <r>   -3.4739    1.0000 </r>
       <r>   -3.2672    1.0000 </r>
       <r>   -3.2167    1.0000 </r>
       <r>   -3.1575    1.0000 </r>
       <r>   -3.0031    1.0000 </r>
       <r>   -2.8536    1.0000 </r>
       <r>   -2.7881    1.0000 </r>
       <r>   -2.6520    1.0000 </r>
       <r>   -2.5258    1.0000 </r>
       <r>   -2.4040    1.0000 </r>
       <r>   -2.2736    1.0000 </r>
       <r>   -2.0697    1.0000 </r>
       <r>   -2.0222    1.0000 </r>
       <r>   -1.8421    1.0000 </r>
       <r>   -1.4281    1.0000 </r>
       <r>   -1.0791    1.0000 </r>
       <r>   -0.8664    1.0000 </r>
       <r>   -0.4623    1.0000 </r>
       <r>   -0.2663    1.0000 </r>
       <r>    0.1275    0.7636 </r>
       <r>    0.2377    0.2004 </r>
       <r>    0.5747    0.0000 </r>
       <r>    0.8372    0.0000 </r>
       <r>    1.4076    0.0000 </r>
       <r>    1.6197    0.0000 </r>
       <r>    1.7310    0.0000 </r>
       <r>    1.7672    0.0000 </r>
       <r>    2.0648    0.0000 </r>
       <r>    2.2215    0.0000 </r>
       <r>    2.2573    0.0000 </r>
       <r>    2.2723    0.0000 </r>
       <r>    2.3664    0.0000 </r>
       <r>    2.7389    0.0000 </r>
      </set>
      <set comment="kpoint 7">
       <r>  -13.9286    1.0000 </r>
       <r>  -11.4999    1.0000 </r>
       <r>  -11.2880    1.0000 </r>
       <r>  -11.1483    1.0000 </r>
       <r>  -10.9753    1.0000 </r>
       <r>  -10.9403    1.0000 </r>
       <r>  -10.8444    1.0000 </r>
       <r>  -10.7923    1.0000 </r>
       <r>  -10.7303    1.0000 </r>
       <r>  -10.6788    1.0000 </r>
       <r>  -10.6311    1.0000 </r>
       <r>   -9.8284    1.0000 </r>
       <r>   -8.8988    1.0000 </r>
       <r>   -8.6875    1.0000 </r>
       <r>   -8.4376    1.0000 </r>
       <r>   -8.0779    1.0000 </r>
       <r>   -8.0447    1.0000 </r>
       <r>   -7.7901    1.0000 </r>
       <r>   -7.5671    1.0000 </r>
       <r>   -7.4852    1.0000 </r>
       <r>   -7.2846    1.0000 </r>
       <r>   -7.2631    1.0000 </r>
       <r>   -7.1803    1.0000 </r>
       <r>   -6.0500    1.0000 </r>
       <r>   -5.5252    1.0000 </r>
       <r>   -5.2944    1.0000 </r>
       <r>   -4.9149    1.0000 </r>
       <r>   -4.5016    1.0000 </r>
       <r>   -4.3293    1.0000 </r>
       <r>   -4.2047    1.0000 </r>
       <r>   -4.0613    1.0000 </r>
       <r>   -3.9849    1.0000 </r>
       <r>   -3.9032    1.0000 </r>
       <r>   -3.8318    1.0000 </r>
       <r>   -3.6996    1.0000 </r>
       <r>   -3.5792    1.0000 </r>
       <r>   -3.4236    1.0000 </r>
       <r>   -3.3629    1.0000 </r>
       <r>   -3.2550    1.0000 </r>
       <r>   -3.0824    1.0000 </r>
       <r>   -2.9979    1.0000 </r>
       <r>   -2.8435    1.0000 </r>
       <r>   -2.7332    1.0000 </r>
       <r>   -2.6810    1.0000 </r>
       <r>   -2.4680    1.0000 </r>
       <r>   -2.3536    1.0000 </r>
       <r>   -2.1893    1.0000 </r>
       <r>   -2.0912    1.0000 </r>
       <r>   -1.7192    1.0000 </r>
       <r>   -1.5310    1.0000 </r>
       <r>   -1.1261    1.0000 </r>
       <r>   -0.9617    1.0000 </r>
       <r>   -0.5285    1.0000 </r>
       <r>   -0.2674    1.0000 </r>
       <r>   -0.1491    1.0000 </r>
       <r>    0.1256    0.7721 </r>
       <r>    0.3648    0.0042 </r>
       <r>    0.6420    0.0000 </r>
       <r>    1.3699    0.0000 </r>
       <r>    1.5553    0.0000 </r>
       <r>    1.6560    0.0000 </r>
       <r>    1.7195    0.0000 </r>
       <r>    1.8610    0.0000 </r>
       <r>    1.9881    0.0000 </r>
       <r>    2.0813    0.0000 </r>
       <r>    2.3470    0.0000 </r>
       <r>    2.4116    0.0000 </r>
       <r>    2.5079    0.0000 </r>
      </set>
      <set comment="kpoint 8">
       <r>  -14.6063    1.0000 </r>
       <r>  -13.4835    1.0000 </r>
       <r>  -13.0517    1.0000 </r>
       <r>  -12.9752    1.0000 </r>
       <r>  -12.4847    1.0000 </r>
       <r>  -12.3304    1.0000 </r>
       <r>  -12.1478    1.0000 </r>
       <r>  -11.8691    1.0000 </r>
       <r>  -11.4771    1.0000 </r>
       <r>  -11.4488    1.0000 </r>
       <r>  -11.0182    1.0000 </r>
       <r>  -10.9819    1.0000 </r>
       <r>   -8.5175    1.0000 </r>
       <r>   -8.3333    1.0000 </r>
       <r>   -7.5412    1.0000 </r>
       <r>   -7.3777    1.0000 </r>
       <r>   -6.7876    1.0000 </r>
       <r>   -6.6686    1.0000 </r>
       <r>   -6.5896    1.0000 </r>
       <r>   -6.2679    1.0000 </r>
       <r>   -5.7516    1.0000 </r>
       <r>   -5.5806    1.0000 </r>
       <r>   -4.6475    1.0000 </r>
       <r>   -4.4402    1.0000 </r>
       <r>   -4.1590    1.0000 </r>
       <r>   -4.0155    1.0000 </r>
       <r>   -3.7101    1.0000 </r>
       <r>   -3.6400    1.0000 </r>
       <r>   -3.3517    1.0000 </r>
       <r>   -3.3163    1.0000 </r>
       <r>   -3.1252    1.0000 </r>
       <r>   -2.9444    1.0000 </r>
       <r>   -2.7100    1.0000 </r>
       <r>   -2.6796    1.0000 </r>
       <r>   -2.6330    1.0000 </r>
       <r>   -2.3888    1.0000 </r>
       <r>   -2.3648    1.0000 </r>
       <r>   -2.3208    1.0000 </r>
       <r>   -2.2252    1.0000 </r>
       <r>   -2.1300    1.0000 </r>
       <r>   -1.9749    1.0000 </r>
       <r>   -1.8959    1.0000 </r>
       <r>   -1.8750    1.0000 </r>
       <r>   -1.6251    1.0000 </r>
       <r>   -1.5495    1.0000 </r>
       <r>   -1.5210    1.0000 </r>
       <r>   -1.4162    1.0000 </r>
       <r>   -1.3635    1.0000 </r>
       <r>   -1.1652    1.0000 </r>
       <r>   -1.1420    1.0000 </r>
       <r>   -1.0807    1.0000 </r>
       <r>   -0.9373    1.0000 </r>
       <r>   -0.0277    0.9982 </r>
       <r>    0.3855    0.0017 </r>
       <r>    0.4762    0.0000 </r>
       <r>    0.9065    0.0000 </r>
       <r>    1.2040    0.0000 </r>
       <r>    1.2368    0.0000 </r>
       <r>    1.3908    0.0000 </r>
       <r>    1.5630    0.0000 </r>
       <r>    1.7381    0.0000 </r>
       <r>    1.7460    0.0000 </r>
       <r>    1.8855    0.0000 </r>
       <r>    2.2596    0.0000 </r>
       <r>    2.5116    0.0000 </r>
       <r>    2.5677    0.0000 </r>
       <r>    2.6468    0.0000 </r>
       <r>    2.6826    0.0000 </r>
      </set>
      <set comment="kpoint 9">
       <r>  -14.5715    1.0000 </r>
       <r>  -13.4066    1.0000 </r>
       <r>  -13.0070    1.0000 </r>
       <r>  -12.9560    1.0000 </r>
       <r>  -12.4276    1.0000 </r>
       <r>  -12.2694    1.0000 </r>
       <r>  -12.0831    1.0000 </r>
       <r>  -11.7698    1.0000 </r>
       <r>  -11.4355    1.0000 </r>
       <r>  -11.4044    1.0000 </r>
       <r>  -10.9706    1.0000 </r>
       <r>  -10.9358    1.0000 </r>
       <r>   -8.5751    1.0000 </r>
       <r>   -8.3137    1.0000 </r>
       <r>   -7.5769    1.0000 </r>
       <r>   -7.3295    1.0000 </r>
       <r>   -6.7500    1.0000 </r>
       <r>   -6.6745    1.0000 </r>
       <r>   -6.5235    1.0000 </r>
       <r>   -6.1950    1.0000 </r>
       <r>   -5.7024    1.0000 </r>
       <r>   -5.5391    1.0000 </r>
       <r>   -4.6910    1.0000 </r>
       <r>   -4.4492    1.0000 </r>
       <r>   -4.1984    1.0000 </r>
       <r>   -4.0818    1.0000 </r>
       <r>   -3.7838    1.0000 </r>
       <r>   -3.6806    1.0000 </r>
       <r>   -3.5881    1.0000 </r>
       <r>   -3.5442    1.0000 </r>
       <r>   -3.3850    1.0000 </r>
       <r>   -3.0878    1.0000 </r>
       <r>   -3.0286    1.0000 </r>
       <r>   -2.9258    1.0000 </r>
       <r>   -2.7274    1.0000 </r>
       <r>   -2.6800    1.0000 </r>
       <r>   -2.5879    1.0000 </r>
       <r>   -2.4859    1.0000 </r>
       <r>   -2.3576    1.0000 </r>
       <r>   -2.2848    1.0000 </r>
       <r>   -2.2213    1.0000 </r>
       <r>   -2.1389    1.0000 </r>
       <r>   -2.0051    1.0000 </r>
       <r>   -1.9023    1.0000 </r>
       <r>   -1.8347    1.0000 </r>
       <r>   -1.7484    1.0000 </r>
       <r>   -1.6109    1.0000 </r>
       <r>   -1.4012    1.0000 </r>
       <r>   -1.3198    1.0000 </r>
       <r>   -1.0882    1.0000 </r>
       <r>   -1.0063    1.0000 </r>
       <r>   -0.8809    1.0000 </r>
       <r>    0.0499    0.9653 </r>
       <r>    0.4473    0.0001 </r>
       <r>    0.5879    0.0000 </r>
       <r>    1.2408    0.0000 </r>
       <r>    1.4323    0.0000 </r>
       <r>    1.5789    0.0000 </r>
       <r>    1.7234    0.0000 </r>
       <r>    1.8388    0.0000 </r>
       <r>    1.9541    0.0000 </r>
       <r>    2.1110    0.0000 </r>
       <r>    2.2297    0.0000 </r>
       <r>    2.5091    0.0000 </r>
       <r>    2.6557    0.0000 </r>
       <r>    2.7560    0.0000 </r>
       <r>    2.9384    0.0000 </r>
       <r>    2.9824    0.0000 </r>
      </set>
      <set comment="kpoint 10">
       <r>  -14.4739    1.0000 </r>
       <r>  -13.2099    1.0000 </r>
       <r>  -12.8495    1.0000 </r>
       <r>  -12.8193    1.0000 </r>
       <r>  -12.2613    1.0000 </r>
       <r>  -12.1034    1.0000 </r>
       <r>  -11.9216    1.0000 </r>
       <r>  -11.5721    1.0000 </r>
       <r>  -11.2958    1.0000 </r>
       <r>  -11.2622    1.0000 </r>
       <r>  -10.8262    1.0000 </r>
       <r>  -10.7934    1.0000 </r>
       <r>   -8.6399    1.0000 </r>
       <r>   -8.2839    1.0000 </r>
       <r>   -7.5702    1.0000 </r>
       <r>   -7.2998    1.0000 </r>
       <r>   -6.6756    1.0000 </r>
       <r>   -6.6430    1.0000 </r>
       <r>   -6.4907    1.0000 </r>
       <r>   -6.1479    1.0000 </r>
       <r>   -5.6550    1.0000 </r>
       <r>   -5.5763    1.0000 </r>
       <r>   -4.8427    1.0000 </r>
       <r>   -4.7983    1.0000 </r>
       <r>   -4.3867    1.0000 </r>
       <r>   -4.3532    1.0000 </r>
       <r>   -4.2878    1.0000 </r>
       <r>   -4.1753    1.0000 </r>
       <r>   -3.9721    1.0000 </r>
       <r>   -3.7410    1.0000 </r>
       <r>   -3.6706    1.0000 </r>
       <r>   -3.6211    1.0000 </r>
       <r>   -3.4481    1.0000 </r>
       <r>   -3.2745    1.0000 </r>
       <r>   -3.1260    1.0000 </r>
       <r>   -3.0789    1.0000 </r>
       <r>   -2.9620    1.0000 </r>
       <r>   -2.8393    1.0000 </r>
       <r>   -2.7577    1.0000 </r>
       <r>   -2.6464    1.0000 </r>
       <r>   -2.5986    1.0000 </r>
       <r>   -2.5714    1.0000 </r>
       <r>   -2.3223    1.0000 </r>
       <r>   -2.2553    1.0000 </r>
       <r>   -2.0999    1.0000 </r>
       <r>   -1.9205    1.0000 </r>
       <r>   -1.8759    1.0000 </r>
       <r>   -1.4903    1.0000 </r>
       <r>   -1.3389    1.0000 </r>
       <r>   -1.1382    1.0000 </r>
       <r>   -0.9568    1.0000 </r>
       <r>   -0.8657    1.0000 </r>
       <r>    0.0566    0.9574 </r>
       <r>    0.3711    0.0032 </r>
       <r>    0.6605    0.0000 </r>
       <r>    1.2939    0.0000 </r>
       <r>    1.5481    0.0000 </r>
       <r>    1.7076    0.0000 </r>
       <r>    2.0403    0.0000 </r>
       <r>    2.1227    0.0000 </r>
       <r>    2.3042    0.0000 </r>
       <r>    2.3896    0.0000 </r>
       <r>    2.7156    0.0000 </r>
       <r>    2.7742    0.0000 </r>
       <r>    2.8663    0.0000 </r>
       <r>    2.9529    0.0000 </r>
       <r>    3.0621    0.0000 </r>
       <r>    3.1098    0.0000 </r>
      </set>
      <set comment="kpoint 11">
       <r>  -14.3292    1.0000 </r>
       <r>  -12.8984    1.0000 </r>
       <r>  -12.5823    1.0000 </r>
       <r>  -12.5675    1.0000 </r>
       <r>  -11.9935    1.0000 </r>
       <r>  -11.8424    1.0000 </r>
       <r>  -11.6740    1.0000 </r>
       <r>  -11.2957    1.0000 </r>
       <r>  -11.0739    1.0000 </r>
       <r>  -11.0398    1.0000 </r>
       <r>  -10.6034    1.0000 </r>
       <r>  -10.5706    1.0000 </r>
       <r>   -8.7706    1.0000 </r>
       <r>   -8.3003    1.0000 </r>
       <r>   -7.5739    1.0000 </r>
       <r>   -7.3895    1.0000 </r>
       <r>   -6.6942    1.0000 </r>
       <r>   -6.6600    1.0000 </r>
       <r>   -6.5851    1.0000 </r>
       <r>   -6.2412    1.0000 </r>
       <r>   -5.9833    1.0000 </r>
       <r>   -5.8204    1.0000 </r>
       <r>   -5.4480    1.0000 </r>
       <r>   -5.2035    1.0000 </r>
       <r>   -5.0300    1.0000 </r>
       <r>   -4.6970    1.0000 </r>
       <r>   -4.6633    1.0000 </r>
       <r>   -4.5510    1.0000 </r>
       <r>   -4.3449    1.0000 </r>
       <r>   -4.3152    1.0000 </r>
       <r>   -4.0540    1.0000 </r>
       <r>   -3.9823    1.0000 </r>
       <r>   -3.7398    1.0000 </r>
       <r>   -3.6771    1.0000 </r>
       <r>   -3.4488    1.0000 </r>
       <r>   -3.2461    1.0000 </r>
       <r>   -3.2001    1.0000 </r>
       <r>   -3.1829    1.0000 </r>
       <r>   -3.0914    1.0000 </r>
       <r>   -2.8464    1.0000 </r>
       <r>   -2.6774    1.0000 </r>
       <r>   -2.6090    1.0000 </r>
       <r>   -2.5285    1.0000 </r>
       <r>   -2.3005    1.0000 </r>
       <r>   -2.2646    1.0000 </r>
       <r>   -1.9798    1.0000 </r>
       <r>   -1.8765    1.0000 </r>
       <r>   -1.7701    1.0000 </r>
       <r>   -1.3898    1.0000 </r>
       <r>   -1.2424    1.0000 </r>
       <r>   -1.0468    1.0000 </r>
       <r>   -0.8803    1.0000 </r>
       <r>   -0.0848    0.9999 </r>
       <r>    0.1421    0.6956 </r>
       <r>    0.5539    0.0000 </r>
       <r>    0.9936    0.0000 </r>
       <r>    1.2146    0.0000 </r>
       <r>    1.4646    0.0000 </r>
       <r>    1.5342    0.0000 </r>
       <r>    1.6208    0.0000 </r>
       <r>    1.8861    0.0000 </r>
       <r>    2.2168    0.0000 </r>
       <r>    2.4906    0.0000 </r>
       <r>    2.5900    0.0000 </r>
       <r>    2.7040    0.0000 </r>
       <r>    2.9066    0.0000 </r>
       <r>    3.0424    0.0000 </r>
       <r>    3.2342    0.0000 </r>
      </set>
      <set comment="kpoint 12">
       <r>  -14.1642    1.0000 </r>
       <r>  -12.4815    1.0000 </r>
       <r>  -12.2149    1.0000 </r>
       <r>  -12.2073    1.0000 </r>
       <r>  -11.6418    1.0000 </r>
       <r>  -11.5112    1.0000 </r>
       <r>  -11.3562    1.0000 </r>
       <r>  -10.9821    1.0000 </r>
       <r>  -10.8101    1.0000 </r>
       <r>  -10.7925    1.0000 </r>
       <r>  -10.3914    1.0000 </r>
       <r>  -10.2927    1.0000 </r>
       <r>   -8.9694    1.0000 </r>
       <r>   -8.4387    1.0000 </r>
       <r>   -7.7115    1.0000 </r>
       <r>   -7.7004    1.0000 </r>
       <r>   -7.1126    1.0000 </r>
       <r>   -6.9582    1.0000 </r>
       <r>   -6.8363    1.0000 </r>
       <r>   -6.6016    1.0000 </r>
       <r>   -6.4731    1.0000 </r>
       <r>   -6.1877    1.0000 </r>
       <r>   -5.9889    1.0000 </r>
       <r>   -5.9119    1.0000 </r>
       <r>   -5.3805    1.0000 </r>
       <r>   -5.0597    1.0000 </r>
       <r>   -4.9356    1.0000 </r>
       <r>   -4.7427    1.0000 </r>
       <r>   -4.6030    1.0000 </r>
       <r>   -4.4196    1.0000 </r>
       <r>   -4.3356    1.0000 </r>
       <r>   -4.2416    1.0000 </r>
       <r>   -4.0116    1.0000 </r>
       <r>   -3.8038    1.0000 </r>
       <r>   -3.4657    1.0000 </r>
       <r>   -3.3376    1.0000 </r>
       <r>   -3.2224    1.0000 </r>
       <r>   -3.0500    1.0000 </r>
       <r>   -2.9848    1.0000 </r>
       <r>   -2.8679    1.0000 </r>
       <r>   -2.8034    1.0000 </r>
       <r>   -2.7273    1.0000 </r>
       <r>   -2.5534    1.0000 </r>
       <r>   -2.4367    1.0000 </r>
       <r>   -2.3276    1.0000 </r>
       <r>   -2.2126    1.0000 </r>
       <r>   -1.9536    1.0000 </r>
       <r>   -1.8765    1.0000 </r>
       <r>   -1.7472    1.0000 </r>
       <r>   -1.3163    1.0000 </r>
       <r>   -1.1120    1.0000 </r>
       <r>   -0.9184    1.0000 </r>
       <r>   -0.3281    1.0000 </r>
       <r>   -0.1520    1.0000 </r>
       <r>    0.3158    0.0259 </r>
       <r>    0.5135    0.0000 </r>
       <r>    0.7775    0.0000 </r>
       <r>    1.0733    0.0000 </r>
       <r>    1.2442    0.0000 </r>
       <r>    1.2948    0.0000 </r>
       <r>    1.6476    0.0000 </r>
       <r>    2.1558    0.0000 </r>
       <r>    2.2245    0.0000 </r>
       <r>    2.3217    0.0000 </r>
       <r>    2.4563    0.0000 </r>
       <r>    2.6217    0.0000 </r>
       <r>    2.8059    0.0000 </r>
       <r>    2.9322    0.0000 </r>
      </set>
      <set comment="kpoint 13">
       <r>  -14.0167    1.0000 </r>
       <r>  -11.9779    1.0000 </r>
       <r>  -11.7657    1.0000 </r>
       <r>  -11.7589    1.0000 </r>
       <r>  -11.2459    1.0000 </r>
       <r>  -11.1673    1.0000 </r>
       <r>  -11.0042    1.0000 </r>
       <r>  -10.7243    1.0000 </r>
       <r>  -10.6592    1.0000 </r>
       <r>  -10.5986    1.0000 </r>
       <r>  -10.4670    1.0000 </r>
       <r>  -10.0022    1.0000 </r>
       <r>   -8.9596    1.0000 </r>
       <r>   -8.6961    1.0000 </r>
       <r>   -8.1092    1.0000 </r>
       <r>   -7.9173    1.0000 </r>
       <r>   -7.7787    1.0000 </r>
       <r>   -7.4547    1.0000 </r>
       <r>   -7.3509    1.0000 </r>
       <r>   -7.0938    1.0000 </r>
       <r>   -6.8342    1.0000 </r>
       <r>   -6.6925    1.0000 </r>
       <r>   -6.6605    1.0000 </r>
       <r>   -6.2046    1.0000 </r>
       <r>   -5.3456    1.0000 </r>
       <r>   -5.3265    1.0000 </r>
       <r>   -5.0686    1.0000 </r>
       <r>   -4.7859    1.0000 </r>
       <r>   -4.6485    1.0000 </r>
       <r>   -4.4239    1.0000 </r>
       <r>   -4.1502    1.0000 </r>
       <r>   -4.0645    1.0000 </r>
       <r>   -3.8597    1.0000 </r>
       <r>   -3.6510    1.0000 </r>
       <r>   -3.4554    1.0000 </r>
       <r>   -3.3528    1.0000 </r>
       <r>   -3.2836    1.0000 </r>
       <r>   -3.1958    1.0000 </r>
       <r>   -3.1272    1.0000 </r>
       <r>   -2.9441    1.0000 </r>
       <r>   -2.9177    1.0000 </r>
       <r>   -2.8840    1.0000 </r>
       <r>   -2.7064    1.0000 </r>
       <r>   -2.5519    1.0000 </r>
       <r>   -2.3703    1.0000 </r>
       <r>   -2.2870    1.0000 </r>
       <r>   -2.0911    1.0000 </r>
       <r>   -2.0621    1.0000 </r>
       <r>   -1.8569    1.0000 </r>
       <r>   -1.4873    1.0000 </r>
       <r>   -1.1701    1.0000 </r>
       <r>   -0.9274    1.0000 </r>
       <r>   -0.4656    1.0000 </r>
       <r>   -0.3284    1.0000 </r>
       <r>   -0.0491    0.9993 </r>
       <r>    0.3032    0.0387 </r>
       <r>    0.4050    0.0007 </r>
       <r>    0.7895    0.0000 </r>
       <r>    1.2031    0.0000 </r>
       <r>    1.3145    0.0000 </r>
       <r>    1.5318    0.0000 </r>
       <r>    1.8224    0.0000 </r>
       <r>    2.0180    0.0000 </r>
       <r>    2.0854    0.0000 </r>
       <r>    2.2094    0.0000 </r>
       <r>    2.5955    0.0000 </r>
       <r>    2.6392    0.0000 </r>
       <r>    2.6821    0.0000 </r>
      </set>
      <set comment="kpoint 14">
       <r>  -13.9284    1.0000 </r>
       <r>  -11.4284    1.0000 </r>
       <r>  -11.2934    1.0000 </r>
       <r>  -11.2653    1.0000 </r>
       <r>  -10.9686    1.0000 </r>
       <r>  -10.9533    1.0000 </r>
       <r>  -10.8644    1.0000 </r>
       <r>  -10.7948    1.0000 </r>
       <r>  -10.7020    1.0000 </r>
       <r>  -10.6797    1.0000 </r>
       <r>  -10.5773    1.0000 </r>
       <r>   -9.8225    1.0000 </r>
       <r>   -8.9039    1.0000 </r>
       <r>   -8.5539    1.0000 </r>
       <r>   -8.3990    1.0000 </r>
       <r>   -8.3255    1.0000 </r>
       <r>   -7.9919    1.0000 </r>
       <r>   -7.7943    1.0000 </r>
       <r>   -7.5463    1.0000 </r>
       <r>   -7.5094    1.0000 </r>
       <r>   -7.3117    1.0000 </r>
       <r>   -7.2499    1.0000 </r>
       <r>   -7.1423    1.0000 </r>
       <r>   -6.0991    1.0000 </r>
       <r>   -5.5720    1.0000 </r>
       <r>   -5.2133    1.0000 </r>
       <r>   -5.0173    1.0000 </r>
       <r>   -4.4742    1.0000 </r>
       <r>   -4.3237    1.0000 </r>
       <r>   -4.1624    1.0000 </r>
       <r>   -4.1310    1.0000 </r>
       <r>   -3.9351    1.0000 </r>
       <r>   -3.8839    1.0000 </r>
       <r>   -3.7069    1.0000 </r>
       <r>   -3.6605    1.0000 </r>
       <r>   -3.5362    1.0000 </r>
       <r>   -3.4912    1.0000 </r>
       <r>   -3.3161    1.0000 </r>
       <r>   -3.2581    1.0000 </r>
       <r>   -3.0226    1.0000 </r>
       <r>   -2.9859    1.0000 </r>
       <r>   -2.8623    1.0000 </r>
       <r>   -2.6811    1.0000 </r>
       <r>   -2.6335    1.0000 </r>
       <r>   -2.5985    1.0000 </r>
       <r>   -2.4351    1.0000 </r>
       <r>   -2.1481    1.0000 </r>
       <r>   -2.1156    1.0000 </r>
       <r>   -1.7123    1.0000 </r>
       <r>   -1.5622    1.0000 </r>
       <r>   -1.2078    1.0000 </r>
       <r>   -0.9555    1.0000 </r>
       <r>   -0.4809    1.0000 </r>
       <r>   -0.3029    1.0000 </r>
       <r>   -0.2121    1.0000 </r>
       <r>    0.1918    0.4246 </r>
       <r>    0.2817    0.0718 </r>
       <r>    0.6410    0.0000 </r>
       <r>    1.4223    0.0000 </r>
       <r>    1.4553    0.0000 </r>
       <r>    1.5208    0.0000 </r>
       <r>    1.6061    0.0000 </r>
       <r>    1.7808    0.0000 </r>
       <r>    1.9624    0.0000 </r>
       <r>    2.1725    0.0000 </r>
       <r>    2.4276    0.0000 </r>
       <r>    2.4642    0.0000 </r>
       <r>    2.4919    0.0000 </r>
      </set>
      <set comment="kpoint 15">
       <r>  -13.9287    1.0000 </r>
       <r>  -11.5337    1.0000 </r>
       <r>  -11.2859    1.0000 </r>
       <r>  -11.0722    1.0000 </r>
       <r>  -10.9769    1.0000 </r>
       <r>  -10.9270    1.0000 </r>
       <r>  -10.8080    1.0000 </r>
       <r>  -10.7899    1.0000 </r>
       <r>  -10.7549    1.0000 </r>
       <r>  -10.7052    1.0000 </r>
       <r>  -10.6752    1.0000 </r>
       <r>   -9.8308    1.0000 </r>
       <r>   -8.9148    1.0000 </r>
       <r>   -8.7559    1.0000 </r>
       <r>   -8.4314    1.0000 </r>
       <r>   -8.0468    1.0000 </r>
       <r>   -7.9427    1.0000 </r>
       <r>   -7.8227    1.0000 </r>
       <r>   -7.5999    1.0000 </r>
       <r>   -7.4045    1.0000 </r>
       <r>   -7.2825    1.0000 </r>
       <r>   -7.2749    1.0000 </r>
       <r>   -7.2156    1.0000 </r>
       <r>   -6.0311    1.0000 </r>
       <r>   -5.6214    1.0000 </r>
       <r>   -5.2092    1.0000 </r>
       <r>   -4.7337    1.0000 </r>
       <r>   -4.5765    1.0000 </r>
       <r>   -4.3715    1.0000 </r>
       <r>   -4.2022    1.0000 </r>
       <r>   -4.0921    1.0000 </r>
       <r>   -3.9940    1.0000 </r>
       <r>   -3.9592    1.0000 </r>
       <r>   -3.8846    1.0000 </r>
       <r>   -3.6856    1.0000 </r>
       <r>   -3.6425    1.0000 </r>
       <r>   -3.5333    1.0000 </r>
       <r>   -3.3516    1.0000 </r>
       <r>   -3.2801    1.0000 </r>
       <r>   -3.0104    1.0000 </r>
       <r>   -2.8765    1.0000 </r>
       <r>   -2.8291    1.0000 </r>
       <r>   -2.7886    1.0000 </r>
       <r>   -2.6837    1.0000 </r>
       <r>   -2.4971    1.0000 </r>
       <r>   -2.3774    1.0000 </r>
       <r>   -2.1668    1.0000 </r>
       <r>   -2.1097    1.0000 </r>
       <r>   -1.7058    1.0000 </r>
       <r>   -1.5098    1.0000 </r>
       <r>   -1.1190    1.0000 </r>
       <r>   -0.8924    1.0000 </r>
       <r>   -0.4715    1.0000 </r>
       <r>   -0.2626    1.0000 </r>
       <r>   -0.1910    1.0000 </r>
       <r>    0.2208    0.2738 </r>
       <r>    0.4241    0.0003 </r>
       <r>    0.6675    0.0000 </r>
       <r>    1.3654    0.0000 </r>
       <r>    1.5762    0.0000 </r>
       <r>    1.6634    0.0000 </r>
       <r>    1.7599    0.0000 </r>
       <r>    1.7940    0.0000 </r>
       <r>    1.9107    0.0000 </r>
       <r>    2.2307    0.0000 </r>
       <r>    2.3655    0.0000 </r>
       <r>    2.4431    0.0000 </r>
       <r>    2.5777    0.0000 </r>
      </set>
      <set comment="kpoint 16">
       <r>  -14.0178    1.0000 </r>
       <r>  -12.1002    1.0000 </r>
       <r>  -11.7360    1.0000 </r>
       <r>  -11.4861    1.0000 </r>
       <r>  -11.2451    1.0000 </r>
       <r>  -11.1881    1.0000 </r>
       <r>  -11.0346    1.0000 </r>
       <r>  -10.9222    1.0000 </r>
       <r>  -10.6500    1.0000 </r>
       <r>  -10.6298    1.0000 </r>
       <r>  -10.4495    1.0000 </r>
       <r>   -9.9834    1.0000 </r>
       <r>   -8.7709    1.0000 </r>
       <r>   -8.7398    1.0000 </r>
       <r>   -8.4883    1.0000 </r>
       <r>   -7.8453    1.0000 </r>
       <r>   -7.5614    1.0000 </r>
       <r>   -7.4353    1.0000 </r>
       <r>   -7.3277    1.0000 </r>
       <r>   -7.0163    1.0000 </r>
       <r>   -6.8118    1.0000 </r>
       <r>   -6.7524    1.0000 </r>
       <r>   -6.6589    1.0000 </r>
       <r>   -6.0967    1.0000 </r>
       <r>   -5.3979    1.0000 </r>
       <r>   -5.1019    1.0000 </r>
       <r>   -5.0453    1.0000 </r>
       <r>   -4.8462    1.0000 </r>
       <r>   -4.5259    1.0000 </r>
       <r>   -4.3960    1.0000 </r>
       <r>   -4.3033    1.0000 </r>
       <r>   -4.2467    1.0000 </r>
       <r>   -4.0818    1.0000 </r>
       <r>   -3.7227    1.0000 </r>
       <r>   -3.6783    1.0000 </r>
       <r>   -3.5288    1.0000 </r>
       <r>   -3.4011    1.0000 </r>
       <r>   -3.1936    1.0000 </r>
       <r>   -3.1733    1.0000 </r>
       <r>   -2.9624    1.0000 </r>
       <r>   -2.9231    1.0000 </r>
       <r>   -2.7564    1.0000 </r>
       <r>   -2.6729    1.0000 </r>
       <r>   -2.5432    1.0000 </r>
       <r>   -2.4301    1.0000 </r>
       <r>   -2.2391    1.0000 </r>
       <r>   -2.0572    1.0000 </r>
       <r>   -1.9443    1.0000 </r>
       <r>   -1.8198    1.0000 </r>
       <r>   -1.4116    1.0000 </r>
       <r>   -1.0554    1.0000 </r>
       <r>   -0.8182    1.0000 </r>
       <r>   -0.3822    1.0000 </r>
       <r>   -0.1788    1.0000 </r>
       <r>   -0.0365    0.9988 </r>
       <r>    0.3477    0.0083 </r>
       <r>    0.7049    0.0000 </r>
       <r>    0.8893    0.0000 </r>
       <r>    1.3947    0.0000 </r>
       <r>    1.6304    0.0000 </r>
       <r>    1.7953    0.0000 </r>
       <r>    1.9017    0.0000 </r>
       <r>    1.9952    0.0000 </r>
       <r>    2.1311    0.0000 </r>
       <r>    2.2658    0.0000 </r>
       <r>    2.3991    0.0000 </r>
       <r>    2.4426    0.0000 </r>
       <r>    2.6119    0.0000 </r>
      </set>
      <set comment="kpoint 17">
       <r>  -14.1665    1.0000 </r>
       <r>  -12.5943    1.0000 </r>
       <r>  -12.1681    1.0000 </r>
       <r>  -11.9479    1.0000 </r>
       <r>  -11.6465    1.0000 </r>
       <r>  -11.5504    1.0000 </r>
       <r>  -11.3917    1.0000 </r>
       <r>  -11.2323    1.0000 </r>
       <r>  -10.7932    1.0000 </r>
       <r>  -10.7719    1.0000 </r>
       <r>  -10.4212    1.0000 </r>
       <r>  -10.2659    1.0000 </r>
       <r>   -8.5542    1.0000 </r>
       <r>   -8.5097    1.0000 </r>
       <r>   -8.1847    1.0000 </r>
       <r>   -7.4881    1.0000 </r>
       <r>   -7.1117    1.0000 </r>
       <r>   -6.9962    1.0000 </r>
       <r>   -6.8728    1.0000 </r>
       <r>   -6.5854    1.0000 </r>
       <r>   -6.2297    1.0000 </r>
       <r>   -6.1574    1.0000 </r>
       <r>   -5.9771    1.0000 </r>
       <r>   -5.9390    1.0000 </r>
       <r>   -5.1945    1.0000 </r>
       <r>   -5.1472    1.0000 </r>
       <r>   -4.8889    1.0000 </r>
       <r>   -4.7434    1.0000 </r>
       <r>   -4.6454    1.0000 </r>
       <r>   -4.4891    1.0000 </r>
       <r>   -4.3349    1.0000 </r>
       <r>   -4.2856    1.0000 </r>
       <r>   -4.2352    1.0000 </r>
       <r>   -3.9085    1.0000 </r>
       <r>   -3.6798    1.0000 </r>
       <r>   -3.4546    1.0000 </r>
       <r>   -3.1261    1.0000 </r>
       <r>   -3.0869    1.0000 </r>
       <r>   -3.0492    1.0000 </r>
       <r>   -2.9444    1.0000 </r>
       <r>   -2.8150    1.0000 </r>
       <r>   -2.7075    1.0000 </r>
       <r>   -2.6266    1.0000 </r>
       <r>   -2.3810    1.0000 </r>
       <r>   -2.3099    1.0000 </r>
       <r>   -2.0224    1.0000 </r>
       <r>   -1.8696    1.0000 </r>
       <r>   -1.8633    1.0000 </r>
       <r>   -1.7068    1.0000 </r>
       <r>   -1.3099    1.0000 </r>
       <r>   -1.0905    1.0000 </r>
       <r>   -0.7875    1.0000 </r>
       <r>   -0.2545    1.0000 </r>
       <r>    0.0173    0.9886 </r>
       <r>    0.2441    0.1760 </r>
       <r>    0.6501    0.0000 </r>
       <r>    0.9410    0.0000 </r>
       <r>    1.1794    0.0000 </r>
       <r>    1.6437    0.0000 </r>
       <r>    1.7419    0.0000 </r>
       <r>    1.9235    0.0000 </r>
       <r>    1.9931    0.0000 </r>
       <r>    2.2270    0.0000 </r>
       <r>    2.2668    0.0000 </r>
       <r>    2.3867    0.0000 </r>
       <r>    2.6392    0.0000 </r>
       <r>    2.6997    0.0000 </r>
       <r>    2.7659    0.0000 </r>
      </set>
      <set comment="kpoint 18">
       <r>  -14.3323    1.0000 </r>
       <r>  -12.9895    1.0000 </r>
       <r>  -12.5329    1.0000 </r>
       <r>  -12.3522    1.0000 </r>
       <r>  -11.9992    1.0000 </r>
       <r>  -11.8812    1.0000 </r>
       <r>  -11.7182    1.0000 </r>
       <r>  -11.5284    1.0000 </r>
       <r>  -11.0327    1.0000 </r>
       <r>  -11.0248    1.0000 </r>
       <r>  -10.6049    1.0000 </r>
       <r>  -10.5572    1.0000 </r>
       <r>   -8.3998    1.0000 </r>
       <r>   -8.3409    1.0000 </r>
       <r>   -7.7797    1.0000 </r>
       <r>   -7.2947    1.0000 </r>
       <r>   -6.7649    1.0000 </r>
       <r>   -6.6879    1.0000 </r>
       <r>   -6.6353    1.0000 </r>
       <r>   -6.4694    1.0000 </r>
       <r>   -5.7795    1.0000 </r>
       <r>   -5.7368    1.0000 </r>
       <r>   -5.4207    1.0000 </r>
       <r>   -5.3312    1.0000 </r>
       <r>   -4.8845    1.0000 </r>
       <r>   -4.8318    1.0000 </r>
       <r>   -4.5993    1.0000 </r>
       <r>   -4.5144    1.0000 </r>
       <r>   -4.3168    1.0000 </r>
       <r>   -4.2305    1.0000 </r>
       <r>   -4.1450    1.0000 </r>
       <r>   -4.0148    1.0000 </r>
       <r>   -3.8041    1.0000 </r>
       <r>   -3.7682    1.0000 </r>
       <r>   -3.5609    1.0000 </r>
       <r>   -3.4478    1.0000 </r>
       <r>   -3.2480    1.0000 </r>
       <r>   -3.0870    1.0000 </r>
       <r>   -2.9870    1.0000 </r>
       <r>   -2.9291    1.0000 </r>
       <r>   -2.6741    1.0000 </r>
       <r>   -2.5068    1.0000 </r>
       <r>   -2.4445    1.0000 </r>
       <r>   -2.3549    1.0000 </r>
       <r>   -2.1988    1.0000 </r>
       <r>   -1.8945    1.0000 </r>
       <r>   -1.8220    1.0000 </r>
       <r>   -1.7344    1.0000 </r>
       <r>   -1.4581    1.0000 </r>
       <r>   -1.1895    1.0000 </r>
       <r>   -1.0880    1.0000 </r>
       <r>   -0.7726    1.0000 </r>
       <r>   -0.0466    0.9993 </r>
       <r>    0.1661    0.5687 </r>
       <r>    0.4751    0.0000 </r>
       <r>    1.0127    0.0000 </r>
       <r>    1.2185    0.0000 </r>
       <r>    1.5243    0.0000 </r>
       <r>    1.8334    0.0000 </r>
[...]
       <r>    2.6793    0.0000 </r>
      </set>
      <set comment="kpoint 54">
       <r>  -13.9285    1.0000 </r>
       <r>  -11.4884    1.0000 </r>
       <r>  -11.2916    1.0000 </r>
       <r>  -11.1703    1.0000 </r>
       <r>  -10.9701    1.0000 </r>
       <r>  -10.9431    1.0000 </r>
       <r>  -10.8499    1.0000 </r>
       <r>  -10.7905    1.0000 </r>
       <r>  -10.7238    1.0000 </r>
       <r>  -10.6813    1.0000 </r>
       <r>  -10.6180    1.0000 </r>
       <r>   -9.8248    1.0000 </r>
       <r>   -8.9195    1.0000 </r>
       <r>   -8.6646    1.0000 </r>
       <r>   -8.4380    1.0000 </r>
       <r>   -8.1179    1.0000 </r>
       <r>   -8.0017    1.0000 </r>
       <r>   -7.8227    1.0000 </r>
       <r>   -7.5563    1.0000 </r>
       <r>   -7.4525    1.0000 </r>
       <r>   -7.2892    1.0000 </r>
       <r>   -7.2737    1.0000 </r>
       <r>   -7.1710    1.0000 </r>
       <r>   -6.0667    1.0000 </r>
       <r>   -5.6184    1.0000 </r>
       <r>   -5.2056    1.0000 </r>
       <r>   -4.9439    1.0000 </r>
       <r>   -4.4778    1.0000 </r>
       <r>   -4.3256    1.0000 </r>
       <r>   -4.1938    1.0000 </r>
       <r>   -4.0827    1.0000 </r>
       <r>   -3.9803    1.0000 </r>
       <r>   -3.9130    1.0000 </r>
       <r>   -3.7702    1.0000 </r>
       <r>   -3.6792    1.0000 </r>
       <r>   -3.5630    1.0000 </r>
       <r>   -3.4247    1.0000 </r>
       <r>   -3.3369    1.0000 </r>
       <r>   -3.2598    1.0000 </r>
       <r>   -3.1168    1.0000 </r>
       <r>   -3.0191    1.0000 </r>
       <r>   -2.8785    1.0000 </r>
       <r>   -2.7629    1.0000 </r>
       <r>   -2.6858    1.0000 </r>
       <r>   -2.4329    1.0000 </r>
       <r>   -2.3683    1.0000 </r>
       <r>   -2.1810    1.0000 </r>
       <r>   -2.0962    1.0000 </r>
       <r>   -1.7217    1.0000 </r>
       <r>   -1.5399    1.0000 </r>
       <r>   -1.2001    1.0000 </r>
       <r>   -0.8552    1.0000 </r>
       <r>   -0.4278    1.0000 </r>
       <r>   -0.3337    1.0000 </r>
       <r>   -0.2153    1.0000 </r>
       <r>    0.2376    0.2010 </r>
       <r>    0.3211    0.0217 </r>
       <r>    0.6693    0.0000 </r>
       <r>    1.3495    0.0000 </r>
       <r>    1.5096    0.0000 </r>
       <r>    1.6263    0.0000 </r>
       <r>    1.6598    0.0000 </r>
       <r>    1.8443    0.0000 </r>
       <r>    1.9264    0.0000 </r>
       <r>    2.0547    0.0000 </r>
       <r>    2.3496    0.0000 </r>
       <r>    2.4595    0.0000 </r>
       <r>    2.5064    0.0000 </r>
      </set>
     </set>
    </set>
   </array>
  </eigenvalues>
  <separator name="orbital magnetization" >
   <v name="MAGDIPOLOUT">      0.00000000      0.00000000      0.00000000</v>
  </separator>
  <dos>
   <i name="efermi">      0.17831983 </i>
   <total>
    <array>
     <dimension dim="1">gridpoints</dimension>
     <dimension dim="2">spin</dimension>
     <field>energy</field>
     <field>total</field>
     <field>integrated</field>
     <set>
      <set comment="spin 1">
       <r>   -15.6103     0.0000     0.0000 </r>
       <r>   -15.5442     0.0000     0.0000 </r>
       <r>   -15.4780     0.0000     0.0000 </r>
       <r>   -15.4118     0.0000     0.0000 </r>
       <r>   -15.3457     0.0000     0.0000 </r>
       <r>   -15.2795     0.0000     0.0000 </r>
       <r>   -15.2133     0.0000     0.0000 </r>
       <r>   -15.1472     0.0000     0.0000 </r>
       <r>   -15.0810     0.0000     0.0000 </r>
       <r>   -15.0148     0.0000     0.0000 </r>
       <r>   -14.9487     0.0000     0.0000 </r>
       <r>   -14.8825     0.0001     0.0000 </r>
       <r>   -14.8163     0.0047     0.0003 </r>
       <r>   -14.7502     0.0722     0.0051 </r>
       <r>   -14.6840     0.5138     0.0391 </r>
       <r>   -14.6178     1.7355     0.1539 </r>
       <r>   -14.5516     3.0074     0.3529 </r>
       <r>   -14.4855     3.1596     0.5620 </r>
       <r>   -14.4193     2.5484     0.7306 </r>
       <r>   -14.3531     2.1502     0.8729 </r>
       <r>   -14.2870     2.0188     1.0065 </r>
       <r>   -14.2208     1.8010     1.1256 </r>
       <r>   -14.1546     1.9635     1.2556 </r>
       <r>   -14.0885     2.0906     1.3939 </r>
       <r>   -14.0223     2.3835     1.5516 </r>
       <r>   -13.9561     2.8391     1.7395 </r>
       <r>   -13.8900     2.4100     1.8989 </r>
       <r>   -13.8238     1.1912     1.9778 </r>
       <r>   -13.7576     0.3000     1.9976 </r>
       <r>   -13.6915     0.0470     2.0007 </r>
       <r>   -13.6253     0.1079     2.0079 </r>
       <r>   -13.5591     0.4932     2.0405 </r>
       <r>   -13.4930     1.2644     2.1242 </r>
       <r>   -13.4268     1.9092     2.2505 </r>
       <r>   -13.3606     1.9997     2.3828 </r>
       <r>   -13.2944     1.9023     2.5087 </r>
       <r>   -13.2283     1.8388     2.6303 </r>
       <r>   -13.1621     1.8705     2.7541 </r>
       <r>   -13.0959     2.3403     2.9090 </r>
       <r>   -13.0298     3.5164     3.1416 </r>
       <r>   -12.9636     4.7456     3.4556 </r>
       <r>   -12.8974     5.0635     3.7907 </r>
       <r>   -12.8313     4.5681     4.0930 </r>
       <r>   -12.7651     3.4409     4.3206 </r>
       <r>   -12.6989     2.3701     4.4775 </r>
       <r>   -12.6328     2.7626     4.6603 </r>
       <r>   -12.5666     4.4009     4.9515 </r>
       <r>   -12.5004     5.2650     5.2998 </r>
       <r>   -12.4343     4.9405     5.6267 </r>
       <r>   -12.3681     4.6360     5.9335 </r>
       <r>   -12.3019     5.3646     6.2885 </r>
       <r>   -12.2358     6.6435     6.7280 </r>
       <r>   -12.1696     7.4204     7.2190 </r>
       <r>   -12.1034     7.7308     7.7306 </r>
       <r>   -12.0372     7.7116     8.2408 </r>
       <r>   -11.9711     7.3885     8.7297 </r>
       <r>   -11.9049     6.5775     9.1649 </r>
       <r>   -11.8387     5.8650     9.5530 </r>
       <r>   -11.7726     5.9187     9.9447 </r>
       <r>   -11.7064     6.5080    10.3753 </r>
       <r>   -11.6402     6.7417    10.8214 </r>
       <r>   -11.5741     6.9457    11.2810 </r>
       <r>   -11.5079     8.1114    11.8177 </r>
       <r>   -11.4417     9.2472    12.4295 </r>
       <r>   -11.3756     9.4395    13.0541 </r>
       <r>   -11.3094     9.8775    13.7077 </r>
       <r>   -11.2432    10.7072    14.4162 </r>
       <r>   -11.1771     9.4580    15.0420 </r>
       <r>   -11.1109     7.6545    15.5485 </r>
       <r>   -11.0447     9.5117    16.1779 </r>
       <r>   -10.9786    13.0854    17.0437 </r>
       <r>   -10.9124    13.2677    17.9216 </r>
       <r>   -10.8462    12.3930    18.7416 </r>
       <r>   -10.7801    13.4648    19.6326 </r>
       <r>   -10.7139    13.0478    20.4959 </r>
       <r>   -10.6477    11.5265    21.2586 </r>
       <r>   -10.5815     9.9282    21.9156 </r>
       <r>   -10.5154     6.9898    22.3781 </r>
       <r>   -10.4492     4.6888    22.6883 </r>
       <r>   -10.3830     3.7420    22.9359 </r>
       <r>   -10.3169     2.8992    23.1278 </r>
       <r>   -10.2507     2.1827    23.2722 </r>
       <r>   -10.1845     1.2690    23.3562 </r>
       <r>   -10.1184     0.5507    23.3926 </r>
       <r>   -10.0522     0.8165    23.4466 </r>
       <r>    -9.9860     1.6178    23.5537 </r>
       <r>    -9.9199     1.8197    23.6741 </r>
       <r>    -9.8537     1.7898    23.7925 </r>
       <r>    -9.7875     1.7765    23.9101 </r>
       <r>    -9.7214     1.0404    23.9789 </r>
       <r>    -9.6552     0.2828    23.9976 </r>
       <r>    -9.5890     0.0341    23.9999 </r>
       <r>    -9.5229     0.0018    24.0000 </r>
       <r>    -9.4567     0.0000    24.0000 </r>
       <r>    -9.3905     0.0000    24.0000 </r>
       <r>    -9.3243     0.0000    24.0000 </r>
       <r>    -9.2582     0.0000    24.0000 </r>
       <r>    -9.1920     0.0018    24.0001 </r>
       <r>    -9.1258     0.0335    24.0023 </r>
       <r>    -9.0597     0.3012    24.0223 </r>
       <r>    -8.9935     1.3293    24.1102 </r>
       <r>    -8.9273     3.0007    24.3088 </r>
       <r>    -8.8612     3.9326    24.5690 </r>
       <r>    -8.7950     4.3894    24.8594 </r>
       <r>    -8.7288     5.3014    25.2102 </r>
       <r>    -8.6627     5.2548    25.5579 </r>
       <r>    -8.5965     4.2911    25.8418 </r>
       <r>    -8.5303     4.2317    26.1218 </r>
       <r>    -8.4642     5.4398    26.4818 </r>
       <r>    -8.3980     7.3045    26.9651 </r>
       <r>    -8.3318     8.5410    27.5303 </r>
       <r>    -8.2657     7.6485    28.0363 </r>
       <r>    -8.1995     5.3043    28.3873 </r>
       <r>    -8.1333     3.8808    28.6441 </r>
       <r>    -8.0671     3.9664    28.9066 </r>
       <r>    -8.0010     4.0029    29.1714 </r>
       <r>    -7.9348     3.6024    29.4098 </r>
       <r>    -7.8686     4.1659    29.6854 </r>
       <r>    -7.8025     5.9853    30.0815 </r>
       <r>    -7.7363     6.5978    30.5180 </r>
       <r>    -7.6701     5.4523    30.8788 </r>
       <r>    -7.6040     5.5373    31.2452 </r>
       <r>    -7.5378     7.3509    31.7316 </r>
       <r>    -7.4716     8.4919    32.2935 </r>
       <r>    -7.4055     8.4896    32.8552 </r>
       <r>    -7.3393     8.5575    33.4215 </r>
       <r>    -7.2731     8.8761    34.0088 </r>
       <r>    -7.2070     8.2323    34.5535 </r>
       <r>    -7.1408     6.7387    34.9994 </r>
       <r>    -7.0746     5.4578    35.3605 </r>
       <r>    -7.0085     4.6988    35.6714 </r>
       <r>    -6.9423     4.7208    35.9838 </r>
       <r>    -6.8761     5.6676    36.3588 </r>
       <r>    -6.8099     7.8134    36.8758 </r>
       <r>    -6.7438    10.8681    37.5950 </r>
       <r>    -6.6776    13.4661    38.4860 </r>
       <r>    -6.6114    13.4813    39.3780 </r>
       <r>    -6.5453    10.7138    40.0869 </r>
       <r>    -6.4791     7.8224    40.6045 </r>
       <r>    -6.4129     5.8145    40.9893 </r>
       <r>    -6.3468     4.4586    41.2843 </r>
       <r>    -6.2806     4.2912    41.5682 </r>
       <r>    -6.2144     5.0793    41.9043 </r>
       <r>    -6.1483     5.7780    42.2866 </r>
       <r>    -6.0821     5.8321    42.6725 </r>
       <r>    -6.0159     5.8460    43.0594 </r>
       <r>    -5.9498     5.7428    43.4393 </r>
       <r>    -5.8836     4.9767    43.7686 </r>
       <r>    -5.8174     4.5221    44.0679 </r>
       <r>    -5.7513     5.1645    44.4096 </r>
       <r>    -5.6851     6.0487    44.8098 </r>
       <r>    -5.6189     6.7603    45.2571 </r>
       <r>    -5.5528     6.5812    45.6926 </r>
       <r>    -5.4866     5.1979    46.0365 </r>
       <r>    -5.4204     4.8173    46.3553 </r>
       <r>    -5.3542     5.8497    46.7424 </r>
       <r>    -5.2881     6.2367    47.1550 </r>
       <r>    -5.2219     6.0234    47.5536 </r>
       <r>    -5.1557     5.9737    47.9489 </r>
       <r>    -5.0896     5.6314    48.3215 </r>
       <r>    -5.0234     5.3812    48.6776 </r>
       <r>    -4.9572     5.4241    49.0365 </r>
       <r>    -4.8911     6.3341    49.4556 </r>
       <r>    -4.8249     7.6288    49.9604 </r>
       <r>    -4.7587     8.8775    50.5478 </r>
       <r>    -4.6926    10.5958    51.2489 </r>
       <r>    -4.6264    11.4407    52.0059 </r>
       <r>    -4.5602    10.5909    52.7067 </r>
       <r>    -4.4941    10.0315    53.3704 </r>
       <r>    -4.4279    10.5356    54.0676 </r>
       <r>    -4.3617    11.6064    54.8355 </r>
       <r>    -4.2956    12.8166    55.6836 </r>
       <r>    -4.2294    13.5177    56.5780 </r>
       <r>    -4.1632    13.9820    57.5032 </r>
       <r>    -4.0970    14.4241    58.4576 </r>
       <r>    -4.0309    14.5284    59.4189 </r>
       <r>    -3.9647    13.3632    60.3032 </r>
       <r>    -3.8985    11.2350    61.0466 </r>
       <r>    -3.8324    10.2943    61.7277 </r>
       <r>    -3.7662    11.7381    62.5044 </r>
       <r>    -3.7000    14.8822    63.4891 </r>
       <r>    -3.6339    16.6597    64.5915 </r>
       <r>    -3.5677    15.4524    65.6139 </r>
       <r>    -3.5015    13.9410    66.5364 </r>
       <r>    -3.4354    13.2092    67.4104 </r>
       <r>    -3.3692    12.5123    68.2384 </r>
       <r>    -3.3030    13.0754    69.1035 </r>
       <r>    -3.2369    15.0448    70.0990 </r>
       <r>    -3.1707    16.4124    71.1850 </r>
       <r>    -3.1045    17.4976    72.3428 </r>
       <r>    -3.0384    18.2831    73.5525 </r>
       <r>    -2.9722    18.2842    74.7624 </r>
       <r>    -2.9060    18.0626    75.9576 </r>
       <r>    -2.8398    17.2998    77.1023 </r>
       <r>    -2.7737    16.6139    78.2016 </r>
       <r>    -2.7075    17.7224    79.3742 </r>
       <r>    -2.6413    18.6298    80.6069 </r>
       <r>    -2.5752    17.3482    81.7548 </r>
       <r>    -2.5090    15.6650    82.7914 </r>
       <r>    -2.4428    15.3091    83.8043 </r>
       <r>    -2.3767    16.6775    84.9079 </r>
       <r>    -2.3105    17.6927    86.0786 </r>
       <r>    -2.2443    16.6432    87.1798 </r>
       <r>    -2.1782    15.0254    88.1740 </r>
       <r>    -2.1120    14.6352    89.1424 </r>
       <r>    -2.0458    14.1077    90.0759 </r>
       <r>    -1.9797    13.3410    90.9586 </r>
       <r>    -1.9135    14.5341    91.9203 </r>
       <r>    -1.8473    15.6242    92.9542 </r>
       <r>    -1.7812    14.1911    93.8932 </r>
       <r>    -1.7150    12.1549    94.6974 </r>
       <r>    -1.6488     9.9665    95.3569 </r>
       <r>    -1.5827     8.1693    95.8975 </r>
       <r>    -1.5165     8.0941    96.4330 </r>
       <r>    -1.4503     9.0287    97.0304 </r>
       <r>    -1.3841     9.3391    97.6484 </r>
       <r>    -1.3180     8.9226    98.2388 </r>
       <r>    -1.2518     8.4911    98.8006 </r>
       <r>    -1.1856     9.2167    99.4105 </r>
       <r>    -1.1195    11.0407   100.1410 </r>
       <r>    -1.0533    11.0352   100.8712 </r>
       <r>    -0.9871    10.0215   101.5343 </r>
       <r>    -0.9210    10.8978   102.2554 </r>
       <r>    -0.8548    11.2906   103.0025 </r>
       <r>    -0.7886     8.6766   103.5766 </r>
       <r>    -0.7225     4.5956   103.8807 </r>
       <r>    -0.6563     1.5704   103.9846 </r>
       <r>    -0.5901     0.6634   104.0285 </r>
       <r>    -0.5240     1.4179   104.1223 </r>
       <r>    -0.4578     2.7901   104.3069 </r>
       <r>    -0.3916     3.7677   104.5562 </r>
       <r>    -0.3255     4.7011   104.8673 </r>
       <r>    -0.2593     5.7135   105.2453 </r>
       <r>    -0.1931     5.8714   105.6338 </r>
       <r>    -0.1269     5.5979   106.0042 </r>
       <r>    -0.0608     5.9486   106.3978 </r>
       <r>     0.0054     6.5122   106.8287 </r>
       <r>     0.0716     6.6862   107.2712 </r>
       <r>     0.1377     6.8076   107.7216 </r>
       <r>     0.2039     6.8385   108.1741 </r>
       <r>     0.2701     6.7078   108.6180 </r>
       <r>     0.3362     6.8468   109.0710 </r>
       <r>     0.4024     7.1470   109.5439 </r>
       <r>     0.4686     7.2029   110.0205 </r>
       <r>     0.5347     7.4802   110.5155 </r>
       <r>     0.6009     7.3370   111.0009 </r>
       <r>     0.6671     6.4300   111.4264 </r>
       <r>     0.7332     5.1259   111.7656 </r>
       <r>     0.7994     4.0042   112.0305 </r>
       <r>     0.8656     3.6794   112.2740 </r>
       <r>     0.9317     3.5504   112.5089 </r>
       <r>     0.9979     3.1187   112.7153 </r>
       <r>     1.0641     3.1822   112.9258 </r>
       <r>     1.1303     4.7542   113.2404 </r>
       <r>     1.1964     7.5132   113.7375 </r>
       <r>     1.2626     9.1254   114.3414 </r>
       <r>     1.3288     8.4849   114.9028 </r>
       <r>     1.3949     8.0251   115.4338 </r>
       <r>     1.4611     9.1879   116.0417 </r>
       <r>     1.5273    11.3402   116.7921 </r>
       <r>     1.5934    13.1470   117.6620 </r>
       <r>     1.6596    13.1772   118.5339 </r>
       <r>     1.7258    12.5478   119.3642 </r>
       <r>     1.7919    12.2044   120.1717 </r>
       <r>     1.8581    11.5453   120.9357 </r>
       <r>     1.9243    10.7562   121.6474 </r>
       <r>     1.9904    10.7479   122.3586 </r>
       <r>     2.0566    11.3634   123.1105 </r>
       <r>     2.1228    11.8021   123.8914 </r>
       <r>     2.1889    13.0249   124.7532 </r>
       <r>     2.2551    14.7133   125.7268 </r>
       <r>     2.3213    14.0407   126.6558 </r>
       <r>     2.3874    12.8155   127.5038 </r>
       <r>     2.4536    13.2164   128.3783 </r>
       <r>     2.5198    13.2379   129.2543 </r>
       <r>     2.5860    12.6791   130.0932 </r>
       <r>     2.6521    13.5752   130.9915 </r>
       <r>     2.7183    14.4769   131.9494 </r>
       <r>     2.7845    13.2070   132.8232 </r>
       <r>     2.8506    11.0794   133.5564 </r>
       <r>     2.9168     9.9756   134.2164 </r>
       <r>     2.9830     9.0234   134.8135 </r>
       <r>     3.0491     7.0862   135.2824 </r>
       <r>     3.1153     4.9430   135.6094 </r>
       <r>     3.1815     3.0148   135.8089 </r>
       <r>     3.2476     1.6951   135.9211 </r>
       <r>     3.3138     0.8622   135.9781 </r>
       <r>     3.3800     0.2815   135.9968 </r>
       <r>     3.4461     0.0456   135.9998 </r>
       <r>     3.5123     0.0033   136.0000 </r>
       <r>     3.5785     0.0001   136.0000 </r>
       <r>     3.6446     0.0000   136.0000 </r>
       <r>     3.7108     0.0000   136.0000 </r>
       <r>     3.7770     0.0000   136.0000 </r>
       <r>     3.8432     0.0000   136.0000 </r>
       <r>     3.9093     0.0000   136.0000 </r>
       <r>     3.9755     0.0000   136.0000 </r>
       <r>     4.0417     0.0000   136.0000 </r>
       <r>     4.1078     0.0000   136.0000 </r>
       <r>     4.1740     0.0000   136.0000 </r>
       <r>     4.2402     0.0000   136.0000 </r>
      </set>
     </set>
    </array>
   </total>
  </dos>
 </calculation>
 <structure name="finalpos" >
  <crystal>
   <varray name="basis" >
    <v>       3.54040000       0.00000000       0.00000000 </v>
    <v>      -1.77020000      10.29434800       0.00000000 </v>
    <v>       0.00000000       0.00000000      27.50142900 </v>
   </varray>
   <i name="volume">   1002.32009712 </i>
   <varray name="rec_basis" >
    <v>       0.28245396       0.04857034       0.00000000 </v>
    <v>       0.00000000       0.09714068       0.00000000 </v>
    <v>       0.00000000       0.00000000       0.03636175 </v>
   </varray>
  </crystal>
  <varray name="positions" >
   <v>       0.11402300       0.22804500       0.23316207 </v>
   <v>       0.61402300       0.12804500       0.51499159 </v>
   <v>       0.45808900       0.91617900       0.20939482 </v>
   <v>       0.95808900       0.81617900       0.49122434 </v>
   <v>       0.31085400       0.62170900       0.08414979 </v>
   <v>       0.31085400       0.62170900       0.36597930 </v>
   <v>       0.99923000       0.99846000       0.08631254 </v>
   <v>       0.99923000       0.99846000       0.36814206 </v>
   <v>       0.65492700       0.30985400       0.06041748 </v>
   <v>       0.65492700       0.30985400       0.34224700 </v>
   <v>       0.76973800       0.53947500       0.20725292 </v>
   <v>       0.26973800       0.43947500       0.48908244 </v>
   <v>       0.93971600       0.87943300       0.15783749 </v>
   <v>       0.43971600       0.77943300       0.43966701 </v>
   <v>       0.20515200       0.41030300       0.18578822 </v>
   <v>       0.70515200       0.31030300       0.46761774 </v>
   <v>       0.20184900       0.40369900       0.09969156 </v>
   <v>       0.20184900       0.40369900       0.38152107 </v>
   <v>       0.56380500       0.12761000       0.10779021 </v>
   <v>       0.56380500       0.12761000       0.38961973 </v>
   <v>       0.56710600       0.13421200       0.19387616 </v>
   <v>       0.06710600       0.03421200       0.47570568 </v>
   <v>       0.82923400       0.65846800       0.13571444 </v>
   <v>       0.32923400       0.55846800       0.41754396 </v>
  </varray>
 </structure>
</modeling>
