   24   24    1    1
  0.4176334E+02  0.3540400E-09  0.1044544E-08  0.2750143E-08  0.5000000E-15
  1.000000000000000E-004
  CAR 
 unknown system                          
    108     54     68
 
  0.0000000E+00  0.0000000E+00  0.0000000E+00  0.9615385E-02
    1      -14.031746
    2      -13.607864
    3      -12.867241
    4      -12.735064
    5      -12.563821
    6      -12.397899
    7      -12.151270
    8      -11.945400
    9      -11.499122
   10      -11.339598
   11      -11.057392
   12      -10.617391
   13       -8.228221
   14       -8.092935
   15       -7.896013
   16       -7.717826
   17       -6.933708
   18       -6.712967
   19       -6.560230
   20       -6.287692
   21       -5.892400
   22       -5.742565
   23       -4.959987
   24       -4.781839
   25       -4.131790
   26       -3.857966
   27       -3.752094
   28       -3.405505
   29       -3.303861
   30       -3.124161
   31       -3.023088
   32       -2.942631
   33       -2.909425
   34       -2.859502
   35       -2.512271
   36       -2.463044
   37       -2.444813
   38       -2.378215
   39       -2.236575
   40       -2.148558
   41       -1.938601
   42       -1.795036
   43       -1.751828
   44       -1.709173
   45       -1.636956
   46       -1.612240
   47       -1.498584
   48       -1.416371
   49       -1.221003
   50       -1.165210
   51       -1.076058
   52       -0.636997
   53       -0.334575
   54        0.210121
   55        0.275524
   56        0.928181
   57        1.095299
   58        1.249984
   59        1.338705
   60        1.468948
   61        1.655383
   62        1.910333
   63        1.934077
   64        2.042856
   65        2.362000
   66        2.398461
   67        2.574467
   68        2.715941
 
  0.7692308E-01 -0.1387779E-16  0.0000000E+00  0.1923077E-01
    1      -13.971581
    2      -13.546514
    3      -12.815086
    4      -12.681315
    5      -12.508092
    6      -12.342642
    7      -12.089346
    8      -11.892661
    9      -11.450178
   10      -11.293274
   11      -11.009021
   12      -10.577693
   13       -8.219644
   14       -8.127967
   15       -7.859503
   16       -7.686195
   17       -6.903180
   18       -6.708889
   19       -6.554438
   20       -6.310029
   21       -5.859283
   22       -5.732164
   23       -4.947102
   24       -4.785721
   25       -4.143857
   26       -3.899524
   27       -3.771979
   28       -3.715064
   29       -3.580002
   30       -3.381479
   31       -3.307418
   32       -3.237767
   33       -3.051143
   34       -2.897464
   35       -2.797949
   36       -2.770112
   37       -2.571953
   38       -2.528476
   39       -2.340123
   40       -2.268047
   41       -2.136589
   42       -2.031428
   43       -2.012535
   44       -1.919358
   45       -1.818881
   46       -1.710708
   47       -1.562499
   48       -1.378401
   49       -1.160203
   50       -1.123362
   51       -1.042378
   52       -0.647693
   53       -0.348290
   54       -0.035450
   55        0.381898
   56        1.045329
   57        1.475125
   58        1.523283
   59        1.692759
   60        1.786133
   61        2.061957
   62        2.138293
   63        2.183274
   64        2.257711
   65        2.540408
   66        2.577915
   67        2.698936
   68        2.921879
 
  0.1538462E+00 -0.2775558E-16  0.0000000E+00  0.1923077E-01
    1      -13.792370
    2      -13.363534
    3      -12.659333
    4      -12.522092
    5      -12.342911
    6      -12.179175
    7      -11.907865
    8      -11.739276
    9      -11.308169
   10      -11.160330
   11      -10.870231
   12      -10.465273
   13       -8.242079
   14       -8.173056
   15       -7.818027
   16       -7.652380
   17       -6.865021
   18       -6.745833
   19       -6.566621
   20       -6.373825
   21       -5.786696
   22       -5.725258
   23       -4.974318
   24       -4.903947
   25       -4.521417
   26       -4.283710
   27       -4.158268
   28       -4.061327
   29       -4.000022
   30       -3.844384
   31       -3.767947
   32       -3.617769
   33       -3.606354
   34       -3.292583
   35       -3.266950
   36       -3.104094
   37       -3.028796
   38       -2.969314
   39       -2.758974
   40       -2.586915
   41       -2.451903
   42       -2.439135
   43       -2.218283
   44       -2.038341
   45       -1.855348
   46       -1.778836
   47       -1.668127
   48       -1.396581
   49       -1.250393
   50       -1.123008
   51       -1.053554
   52       -0.827085
   53       -0.602614
   54       -0.213008
   55        0.525959
   56        1.069644
   57        1.688082
   58        1.881490
   59        2.136959
   60        2.198615
   61        2.276194
   62        2.374384
   63        2.555049
   64        2.598192
   65        2.844181
   66        2.926008
   67        2.987394
   68        3.050855
 
  0.2307692E+00 -0.4163336E-16  0.0000000E+00  0.1923077E-01
    1      -13.498562
    2      -13.062501
    3      -12.403049
    4      -12.264582
    5      -12.075408
    6      -11.915638
    7      -11.622182
    8      -11.502965
    9      -11.091247
   10      -10.963650
   11      -10.667140
   12      -10.304227
   13       -8.426874
   14       -8.180726
   15       -7.891664
   16       -7.808477
   17       -7.058548
   18       -6.761947
   19       -6.700558
   20       -6.453698
   21       -5.809705
   22       -5.794008
   23       -5.405260
   24       -5.234777
   25       -4.896034
   26       -4.856916
   27       -4.672883
   28       -4.579825
   29       -4.424282
   30       -4.338375
   31       -4.253281
   32       -4.110248
   33       -3.850292
   34       -3.696884
   35       -3.543569
   36       -3.517856
   37       -3.230483
   38       -3.056868
   39       -2.856747
   40       -2.756074
   41       -2.700619
   42       -2.577366
   43       -2.463405
   44       -1.983136
   45       -1.916980
   46       -1.861906
   47       -1.830591
   48       -1.703831
   49       -1.527508
   50       -1.226352
   51       -1.184156
   52       -0.989239
   53       -0.663418
   54       -0.217559
   55        0.117074
   56        0.908140
   57        1.572104
   58        1.793579
   59        1.852246
   60        1.956059
   61        2.084925
   62        2.206872
   63        2.312915
   64        2.606441
   65        2.764725
   66        2.830620
   67        2.901220
   68        3.165788
 
  0.3076923E+00 -0.5551115E-16  0.0000000E+00  0.1923077E-01
    1      -13.100226
    2      -12.650718
    3      -12.054688
    4      -11.925306
    5      -11.722270
    6      -11.572322
    7      -11.274481
    8      -11.222267
    9      -10.846762
   10      -10.763203
   11      -10.481203
   12      -10.146778
   13       -8.721288
   14       -8.488481
   15       -8.152129
   16       -7.984137
   17       -7.385951
   18       -7.063591
   19       -6.967239
   20       -6.656901
   21       -6.227660
   22       -6.167857
   23       -6.031626
   24       -5.608765
   25       -5.291235
   26       -5.272661
   27       -4.871869
   28       -4.771177
   29       -4.685975
   30       -4.475581
   31       -4.383963
   32       -4.290863
   33       -4.268611
   34       -3.726366
   35       -3.530234
   36       -3.459866
   37       -3.242530
   38       -3.142864
   39       -3.050999
   40       -2.943359
   41       -2.814380
   42       -2.691214
   43       -2.480214
   44       -2.252838
   45       -2.124335
   46       -1.959995
   47       -1.938436
   48       -1.911599
   49       -1.763935
   50       -1.474897
   51       -1.361361
   52       -1.148152
   53       -0.636153
   54       -0.336958
   55       -0.134491
   56        0.542119
   57        1.289230
   58        1.372195
   59        1.525677
   60        1.713469
   61        1.874243
   62        1.973616
   63        2.161525
   64        2.287452
   65        2.490897
   66        2.664372
   67        2.749002
   68        2.852252
 
  0.3846154E+00 -0.8326673E-16  0.0000000E+00  0.1923077E-01
    1      -12.621855
    2      -12.142386
    3      -11.635454
    4      -11.542424
    5      -11.322484
    6      -11.228951
    7      -11.029059
    8      -10.913785
    9      -10.692053
   10      -10.679907
   11      -10.521439
   12      -10.056262
   13       -8.898395
   14       -8.889041
   15       -8.444496
   16       -8.055916
   17       -7.749881
   18       -7.525222
   19       -7.482264
   20       -7.093164
   21       -6.824707
   22       -6.729406
   23       -6.654916
   24       -6.119609
   25       -5.279385
   26       -5.275557
   27       -4.764506
   28       -4.608836
   29       -4.587855
   30       -4.336078
   31       -4.294360
   32       -4.145619
   33       -4.098161
   34       -3.955692
   35       -3.722030
   36       -3.566092
   37       -3.336048
   38       -3.241134
   39       -3.213363
   40       -3.036225
   41       -2.868377
   42       -2.698060
   43       -2.532721
   44       -2.444587
   45       -2.353557
   46       -2.215808
   47       -2.107674
   48       -2.073004
   49       -1.895539
   50       -1.641122
   51       -1.464760
   52       -1.338069
   53       -0.789400
   54       -0.414663
   55       -0.178441
   56        0.289245
   57        0.853743
   58        1.217682
   59        1.345192
   60        1.637205
   61        1.655609
   62        1.913728
   63        1.994826
   64        2.190242
   65        2.207883
   66        2.302875
   67        2.543633
   68        2.724169
 
  0.4615385E+00 -0.8326673E-16  0.0000000E+00  0.1923077E-01
    1      -12.153759
    2      -11.568965
    3      -11.305713
    4      -11.213193
    5      -11.199952
    6      -11.016995
    7      -10.909696
    8      -10.821640
    9      -10.795815
   10      -10.701659
   11      -10.680062
   12      -10.060570
   13       -9.039215
   14       -8.753901
   15       -8.507516
   16       -8.246341
   17       -8.144283
   18       -7.711223
   19       -7.637637
   20       -7.498419
   21       -7.352640
   22       -7.245217
   23       -7.170300
   24       -6.334305
   25       -5.096741
   26       -4.983066
   27       -4.644434
   28       -4.568630
   29       -4.380171
   30       -4.223720
   31       -4.118481
   32       -4.013155
   33       -3.970140
   34       -3.898521
   35       -3.811309
   36       -3.646079
   37       -3.566353
   38       -3.405365
   39       -3.320023
   40       -3.118761
   41       -3.056733
   42       -2.862893
   43       -2.753390
   44       -2.540486
   45       -2.430201
   46       -2.309829
   47       -2.240018
   48       -2.131990
   49       -1.795846
   50       -1.623746
   51       -1.592813
   52       -1.393028
   53       -1.007283
   54       -0.455321
   55       -0.250606
   56        0.298402
   57        0.605702
   58        1.144467
   59        1.310521
   60        1.513599
   61        1.586859
   62        1.757354
   63        1.953347
   64        2.006121
   65        2.127119
   66        2.308970
   67        2.398869
   68        2.483458
 
  0.0000000E+00  0.2500000E+00  0.0000000E+00  0.1923077E-01
    1      -14.020609
    2      -13.552682
    3      -13.040915
    4      -12.813763
    5      -12.561736
    6      -12.398335
    7      -11.942791
    8      -11.835478
    9      -11.544243
   10      -11.352710
   11      -11.066194
   12      -10.558253
   13       -8.730281
   14       -8.581980
   15       -7.466113
   16       -7.145447
   17       -6.740834
   18       -6.700380
   19       -6.613525
   20       -6.466222
   21       -5.820958
   22       -5.718748
   23       -4.760592
   24       -4.628914
   25       -4.294372
   26       -4.084227
   27       -3.849716
   28       -3.569236
   29       -3.438779
   30       -3.196177
   31       -3.149541
   32       -2.964308
   33       -2.908531
   34       -2.775146
   35       -2.464759
   36       -2.441699
   37       -2.377791
   38       -2.322581
   39       -2.211804
   40       -2.183797
   41       -2.046652
   42       -1.947715
   43       -1.735482
   44       -1.694448
   45       -1.651833
   46       -1.533615
   47       -1.429009
   48       -1.341212
   49       -1.162452
   50       -1.126568
   51       -1.028774
   52       -0.801964
   53       -0.210764
   54        0.206847
   55        0.328581
   56        0.935656
   57        1.131346
   58        1.297309
   59        1.446233
   60        1.514043
   61        1.669718
   62        1.751833
   63        2.009978
   64        2.186182
   65        2.401758
   66        2.498773
   67        2.585151
   68        2.783596
 
  0.7692308E-01  0.2500000E+00  0.0000000E+00  0.1923077E-01
    1      -13.958197
    2      -13.475902
    3      -13.021736
    4      -12.773823
    5      -12.504508
    6      -12.341992
    7      -11.844890
    8      -11.764676
    9      -11.502944
   10      -11.306626
   11      -11.021875
   12      -10.508962
   13       -8.758302
   14       -8.640564
   15       -7.415834
   16       -7.077720
   17       -6.747619
   18       -6.703034
   19       -6.588262
   20       -6.450357
   21       -5.771187
   22       -5.662972
   23       -4.778911
   24       -4.656560
   25       -4.359945
   26       -4.145331
   27       -3.942320
   28       -3.742373
   29       -3.645255
   30       -3.458334
   31       -3.380008
   32       -3.130350
   33       -3.069805
   34       -2.978720
   35       -2.790523
   36       -2.722804
   37       -2.562667
   38       -2.508155
   39       -2.373014
   40       -2.312391
   41       -2.219567
   42       -2.081439
   43       -2.023375
   44       -1.911041
   45       -1.832710
   46       -1.692824
   47       -1.474355
   48       -1.298034
   49       -1.122697
   50       -1.040842
   51       -0.993205
   52       -0.775582
   53       -0.270034
   54       -0.009926
   55        0.427741
   56        1.043764
   57        1.502824
   58        1.686125
   59        1.753183
   60        1.841200
   61        1.877351
   62        2.140190
   63        2.249011
   64        2.442717
   65        2.541857
   66        2.586870
   67        2.860603
   68        2.907639
 
  0.1538462E+00  0.2500000E+00  0.0000000E+00  0.1923077E-01
    1      -13.777293
    2      -13.279437
    3      -12.885105
    4      -12.623912
    5      -12.337855
    6      -12.177381
    7      -11.651694
    8      -11.596214
    9      -11.363530
   10      -11.174796
   11      -10.880619
   12      -10.392377
   13       -8.724099
   14       -8.703342
   15       -7.381317
   16       -7.112042
   17       -6.826572
   18       -6.723710
   19       -6.565326
   20       -6.393451
   21       -5.721738
   22       -5.599616
   23       -4.916995
   24       -4.862223
   25       -4.581714
   26       -4.448406
   27       -4.385310
   28       -4.294023
   29       -4.046046
   30       -3.850875
   31       -3.711409
   32       -3.603665
   33       -3.515439
   34       -3.312969
   35       -3.185327
   36       -3.027847
   37       -2.980100
   38       -2.866633
   39       -2.829340
   40       -2.674272
   41       -2.603739
   42       -2.382014
   43       -2.319915
   44       -2.059800
   45       -1.961089
   46       -1.743618
   47       -1.564509
   48       -1.367516
   49       -1.207509
   50       -1.133986
   51       -0.999747
   52       -0.863542
   53       -0.551666
   54       -0.195927
   55        0.548802
   56        1.128586
   57        1.570963
   58        1.644526
   59        2.023586
   60        2.073434
   61        2.278003
   62        2.415197
   63        2.665753
   64        2.728333
   65        2.841540
   66        2.932648
   67        3.001336
   68        3.118585
 
  0.2307692E+00  0.2500000E+00  0.0000000E+00  0.1923077E-01
    1      -13.482424
    2      -12.968152
    3      -12.633552
    4      -12.371270
    5      -12.069573
    6      -11.912778
    7      -11.387752
    8      -11.342291
    9      -11.141747
   10      -10.980924
   11      -10.663279
   12      -10.238200
   13       -8.838704
   14       -8.650010
   15       -7.539224
   16       -7.460245
   17       -6.948563
   18       -6.763758
   19       -6.710529
   20       -6.375597
   21       -5.887957
   22       -5.716875
   23       -5.278826
   24       -5.220686
   25       -5.095276
   26       -4.975136
   27       -4.731444
   28       -4.630987
   29       -4.506341
   30       -4.411033
   31       -4.150337
   32       -4.063672
   33       -3.807915
   34       -3.743855
   35       -3.392163
   36       -3.277068
   37       -3.205675
   38       -3.157903
   39       -2.879699
   40       -2.741453
   41       -2.604608
   42       -2.591517
   43       -2.499002
   44       -2.067156
   45       -2.010357
   46       -1.908998
   47       -1.833476
   48       -1.715904
   49       -1.461101
   50       -1.320951
   51       -1.136955
   52       -0.941755
   53       -0.637876
   54       -0.258140
   55        0.170007
   56        0.740814
   57        1.215062
   58        1.387277
   59        1.530955
   60        1.766874
   61        2.134487
   62        2.396471
   63        2.496447
   64        2.656208
   65        2.692551
   66        2.984865
   67        3.170309
   68        3.225626
 
  0.3076923E+00  0.2500000E+00  0.0000000E+00  0.1923077E-01
    1      -13.083751
    2      -12.551582
    3      -12.274267
    4      -12.033084
    5      -11.717212
    6      -11.568244
    7      -11.103271
    8      -11.040941
    9      -10.878021
   10      -10.782194
   11      -10.457670
   12      -10.111741
   13       -9.037797
   14       -8.650201
   15       -8.034062
   16       -7.775308
   17       -7.285840
   18       -7.178005
   19       -7.028677
   20       -6.521402
   21       -6.259708
   22       -6.238014
   23       -5.985261
   24       -5.762054
   25       -5.446476
   26       -5.074084
   27       -4.995680
   28       -4.710840
   29       -4.593656
   30       -4.475954
   31       -4.427501
   32       -4.302029
   33       -4.075304
   34       -3.834818
   35       -3.408197
   36       -3.299109
   37       -3.166945
   38       -3.059159
   39       -3.010678
   40       -2.929973
   41       -2.737513
   42       -2.592862
   43       -2.512819
   44       -2.383197
   45       -2.304165
   46       -2.020286
   47       -1.980794
   48       -1.916425
   49       -1.801562
   50       -1.491940
   51       -1.372712
   52       -1.123957
   53       -0.675492
   54       -0.327558
   55       -0.159019
   56        0.261452
   57        0.909356
   58        1.163582
   59        1.217233
   60        1.349005
   61        2.064370
   62        2.138605
   63        2.248211
   64        2.371093
   65        2.463640
   66        2.583003
   67        2.891140
   68        3.061678
 
  0.3846154E+00  0.2500000E+00  0.0000000E+00  0.1923077E-01
    1      -12.606196
    2      -12.048271
    3      -11.823969
    4      -11.649202
    5      -11.320858
    6      -11.208937
    7      -10.928625
    8      -10.790098
    9      -10.679471
   10      -10.665073
   11      -10.534122
   12      -10.064364
   13       -9.027736
   14       -8.852218
   15       -8.189468
   16       -8.166333
   17       -7.845846
   18       -7.713875
   19       -7.424630
   20       -7.027926
   21       -6.769250
   22       -6.725484
   23       -6.712526
   24       -6.269213
   25       -5.410285
   26       -5.029746
   27       -4.852665
   28       -4.678175
   29       -4.506935
   30       -4.405073
   31       -4.201577
   32       -4.135969
   33       -3.928313
   34       -3.884274
   35       -3.438978
   36       -3.414021
   37       -3.342917
   38       -3.275101
   39       -3.190876
   40       -3.008234
   41       -2.942757
   42       -2.777216
   43       -2.628608
   44       -2.508563
   45       -2.378698
   46       -2.233444
   47       -2.133961
   48       -2.076424
   49       -1.902392
   50       -1.648259
   51       -1.529829
   52       -1.345691
   53       -0.793953
   54       -0.445965
   55       -0.353075
   56        0.221336
   57        0.800278
   58        0.973889
   59        1.141390
   60        1.288348
   61        1.743021
   62        1.884110
   63        1.973458
   64        2.155405
   65        2.210665
   66        2.540981
   67        2.610195
   68        2.834051
 
  0.4615385E+00  0.2500000E+00  0.0000000E+00  0.1923077E-01
    1      -12.143041
    2      -11.499271
    3      -11.357153
    4      -11.328681
    5      -11.196308
    6      -11.028700
    7      -10.930744
    8      -10.805461
    9      -10.766092
   10      -10.653799
   11      -10.646163
   12      -10.062008
   13       -9.013774
   14       -8.620669
   15       -8.466025
   16       -8.396912
   17       -8.246266
   18       -7.732470
   19       -7.584370
   20       -7.490698
   21       -7.382579
   22       -7.209695
   23       -7.200193
   24       -6.429152
   25       -5.086787
   26       -4.903255
   27       -4.598040
   28       -4.535376
   29       -4.304813
   30       -4.221584
   31       -4.129276
   32       -4.051374
   33       -3.993362
   34       -3.860876
   35       -3.726577
   36       -3.654789
   37       -3.559530
   38       -3.430245
   39       -3.327391
   40       -3.082684
   41       -3.028277
   42       -2.906821
   43       -2.707423
   44       -2.666925
   45       -2.417555
   46       -2.323162
   47       -2.195017
   48       -2.153194
   49       -1.779352
   50       -1.747581
   51       -1.616244
   52       -1.402816
   53       -1.005167
   54       -0.511776
   55       -0.280625
   56        0.353922
   57        0.682652
   58        0.952937
   59        1.360305
   60        1.442267
   61        1.501455
   62        1.678723
   63        1.901386
   64        2.044235
   65        2.139774
   66        2.374198
   67        2.426839
   68        2.514685
 
 -0.4615385E+00  0.2500000E+00  0.0000000E+00  0.1923077E-01
    1      -12.155252
    2      -11.602490
    3      -11.334557
    4      -11.150375
    5      -11.136142
    6      -11.003853
    7      -10.872895
    8      -10.826043
    9      -10.808385
   10      -10.768073
   11      -10.716317
   12      -10.059253
   13       -9.056048
   14       -8.822535
   15       -8.501491
   16       -8.209541
   17       -8.010358
   18       -7.681338
   19       -7.662160
   20       -7.502925
   21       -7.346122
   22       -7.284612
   23       -7.245877
   24       -6.361405
   25       -4.930020
   26       -4.806629
   27       -4.645288
   28       -4.550350
   29       -4.456990
   30       -4.377369
   31       -4.079235
   32       -4.069476
   33       -3.971274
   34       -3.946852
   35       -3.790421
   36       -3.702485
   37       -3.694722
   38       -3.420943
   39       -3.327382
   40       -3.214057
   41       -2.906913
   42       -2.863079
   43       -2.745366
   44       -2.460105
   45       -2.367134
   46       -2.337343
   47       -2.231131
   48       -2.158266
   49       -1.815180
   50       -1.685016
   51       -1.579365
   52       -1.431755
   53       -1.027995
   54       -0.411919
   55       -0.181891
   56        0.425863
   57        0.660654
   58        1.111153
   59        1.311166
   60        1.582108
   61        1.681268
   62        1.704560
   63        1.825885
   64        2.095917
   65        2.206751
   66        2.322499
   67        2.453898
   68        2.522899
 
 -0.3846154E+00  0.2500000E+00  0.0000000E+00  0.1923077E-01
    1      -12.624459
    2      -12.168857
    3      -11.550891
    4      -11.538875
    5      -11.320848
    6      -11.226669
    7      -11.019590
    8      -10.975869
    9      -10.702876
   10      -10.693998
   11      -10.516902
   12      -10.072742
   13       -8.951331
   14       -8.808278
   15       -8.558879
   16       -7.957399
   17       -7.614238
   18       -7.504758
   19       -7.397119
   20       -7.249144
   21       -6.873651
   22       -6.738252
   23       -6.725332
   24       -6.094560
   25       -5.165749
   26       -5.118496
   27       -4.920123
   28       -4.694689
   29       -4.465354
   30       -4.355771
   31       -4.296083
   32       -4.162272
   33       -4.111545
   34       -3.917147
   35       -3.788939
   36       -3.603749
   37       -3.470292
   38       -3.344676
   39       -3.244438
   40       -2.999753
   41       -2.829887
   42       -2.694226
   43       -2.547483
   44       -2.390412
   45       -2.327052
   46       -2.241026
   47       -2.072707
   48       -2.005008
   49       -1.873444
   50       -1.661099
   51       -1.466112
   52       -1.413430
   53       -0.762674
   54       -0.473717
   55       -0.067813
   56        0.507463
   57        0.886029
   58        1.208558
   59        1.329763
   60        1.702706
   61        1.818655
   62        1.874934
   63        2.041730
   64        2.153031
   65        2.216731
   66        2.395035
   67        2.497005
   68        2.625777
 
 -0.3076923E+00  0.2500000E+00  0.0000000E+00  0.1923077E-01
    1      -13.100807
    2      -12.662982
    3      -12.013138
    4      -11.925435
    5      -11.721990
    6      -11.577922
    7      -11.312035
    8      -11.214825
    9      -10.838434
   10      -10.761330
   11      -10.487308
   12      -10.157051
   13       -8.644915
   14       -8.621358
   15       -8.255000
   16       -7.700357
   17       -7.319353
   18       -7.068728
   19       -6.940757
   20       -6.879574
   21       -6.220631
   22       -6.184527
   23       -6.040299
   24       -5.727037
   25       -5.216841
   26       -5.066604
   27       -4.958883
   28       -4.744773
   29       -4.686937
   30       -4.466844
   31       -4.372496
   32       -4.326603
   33       -4.274065
   34       -3.790387
   35       -3.524071
   36       -3.511943
   37       -3.233352
   38       -3.137191
   39       -3.100839
   40       -2.934335
   41       -2.762340
   42       -2.701806
   43       -2.460343
   44       -2.235527
   45       -2.087109
   46       -1.951433
   47       -1.933205
   48       -1.885881
   49       -1.765316
   50       -1.485593
   51       -1.358713
   52       -1.284510
   53       -0.664945
   54       -0.348584
   55       -0.035988
   56        0.653842
   57        1.180698
   58        1.370286
   59        1.571597
   60        1.844211
   61        1.915398
   62        2.151398
   63        2.250037
   64        2.300458
   65        2.390982
   66        2.612665
   67        2.682155
   68        2.761935
 
 -0.2307692E+00  0.2500000E+00  0.0000000E+00  0.1923077E-01
    1      -13.496265
    2      -13.058281
    3      -12.417710
    4      -12.283382
    5      -12.075397
    6      -11.919426
    7      -11.604356
    8      -11.469956
    9      -11.094945
   10      -10.967020
   11      -10.665743
   12      -10.294298
   13       -8.469090
   14       -8.440581
   15       -7.851395
   16       -7.429861
   17       -7.033348
   18       -6.762218
   19       -6.704261
   20       -6.565638
   21       -5.886512
   22       -5.802043
   23       -5.400933
   24       -5.322062
   25       -4.899058
   26       -4.761118
   27       -4.665332
   28       -4.584134
   29       -4.427107
   30       -4.308658
   31       -4.252418
   32       -4.108322
   33       -3.856182
   34       -3.730401
   35       -3.529029
   36       -3.508130
   37       -3.277918
   38       -3.057840
   39       -2.876455
   40       -2.769343
   41       -2.606559
   42       -2.505890
   43       -2.437159
   44       -1.986478
   45       -1.928250
   46       -1.878728
   47       -1.813496
   48       -1.673836
   49       -1.524954
   50       -1.305207
   51       -1.161325
   52       -1.083311
   53       -0.724761
   54       -0.165214
   55        0.249537
   56        0.727560
   57        1.455646
   58        1.723474
   59        1.813127
   60        1.937421
   61        2.162277
   62        2.304961
   63        2.621381
   64        2.648377
   65        2.713418
   66        2.848355
   67        2.914210
   68        3.032084
 
 -0.1538462E+00  0.2500000E+00  0.0000000E+00  0.1923077E-01
    1      -13.786966
    2      -13.342115
    3      -12.732936
    4      -12.562424
    5      -12.342619
    6      -12.181678
    7      -11.820016
    8      -11.678721
    9      -11.327540
   10      -11.169655
   11      -10.868225
   12      -10.435926
   13       -8.508067
   14       -8.443683
   15       -7.609838
   16       -7.257857
   17       -6.785923
   18       -6.712971
   19       -6.619501
   20       -6.446515
   21       -5.817349
   22       -5.747215
   23       -4.946417
   24       -4.883738
   25       -4.541798
   26       -4.354253
   27       -4.227798
   28       -4.120605
   29       -3.999438
   30       -3.840110
   31       -3.769059
   32       -3.618714
   33       -3.506897
   34       -3.402616
   35       -3.261369
   36       -3.089976
   37       -2.990860
   38       -2.952181
   39       -2.749938
   40       -2.611281
   41       -2.553338
   42       -2.258651
   43       -2.229147
   44       -2.026448
   45       -1.852086
   46       -1.715123
   47       -1.644378
   48       -1.435683
   49       -1.305576
   50       -1.191378
   51       -0.999917
   52       -0.830808
   53       -0.660070
   54       -0.111988
   55        0.551762
   56        0.925896
   57        1.611187
   58        1.743555
   59        2.106412
   60        2.168812
   61        2.338918
   62        2.388687
   63        2.611268
   64        2.715292
   65        2.868067
   66        3.035157
   67        3.062537
   68        3.170406
 
 -0.7692308E-01  0.2500000E+00  0.0000000E+00  0.1923077E-01
    1      -13.963166
    2      -13.507930
    3      -12.943374
    4      -12.742254
    5      -12.507132