 running on    8 total cores
 distrk:  each k-point on    8 cores,    1 groups
 distr:  one band on    2 cores,    4 groups
 using from now: INCAR     
 vasp.5.3.5 31Mar14 (build Oct 29 2014 16:16:03) complex                        
  
 POSCAR found type information on POSCAR  P  Si
 POSCAR found :  2 types and      24 ions
 scaLAPACK will be used

 ----------------------------------------------------------------------------- 
|                                                                             |
|  ADVICE TO THIS USER RUNNING 'VASP/VAMP'   (HEAR YOUR MASTER'S VOICE ...):  |
|                                                                             |
|      You have switched on vdW-DFT.                                          |
|      This routine was written and supplied by Jiri Klimes.                  |
|      We recommed that you carefully read and cite the following             |
|      publication                                                            |
|      J. Klimes, D.R. Bowler, A. Michelides                                  |
|        J. Phys.: Cond Matt. 22 022201 (2010)                                |
|      J. Klimes, D.R. Bowler, A. Michelides                                  |
|        Phys. Rev. B. 83, 195131 (2011)                                      |
|      and references therein.                                                |
|                                                                             |
 ----------------------------------------------------------------------------- 


 ----------------------------------------------------------------------------- 
|                                                                             |
|  ADVICE TO THIS USER RUNNING 'VASP/VAMP'   (HEAR YOUR MASTER'S VOICE ...):  |
|                                                                             |
|      You enforced a specific xc-type in the INCAR file,                     |
|      a different type was found on the POTCAR file                          |
|          I HOPE YOU KNOW, WHAT YOU ARE  DOING                               |
|                                                                             |
 ----------------------------------------------------------------------------- 

 LDA part: xc-table for Pade appr. of Perdew


 VERY BAD NEWS! internal error in subroutine IBZKPT:
 Reciprocal lattice and k-lattice belong to different class of lattices. Often results are still useful...      96


 VERY BAD NEWS! internal error in subroutine IBZKPT:
 Reciprocal lattice and k-lattice belong to different class of lattices. Often results are still useful...      96


 VERY BAD NEWS! internal error in subroutine IBZKPT:
 Reciprocal lattice and k-lattice belong to different class of lattices. Often results are still useful...      96


 VERY BAD NEWS! internal error in subroutine IBZKPT:
 Reciprocal lattice and k-lattice belong to different class of lattices. Often results are still useful...      96


 VERY BAD NEWS! internal error in subroutine IBZKPT:
 Reciprocal lattice and k-lattice belong to different class of lattices. Often results are still useful...      96


 VERY BAD NEWS! internal error in subroutine IBZKPT:
 Reciprocal lattice and k-lattice belong to different class of lattices. Often results are still useful...      96


 VERY BAD NEWS! internal error in subroutine IBZKPT:
 Reciprocal lattice and k-lattice belong to different class of lattices. Often results are still useful...      96


 VERY BAD NEWS! internal error in subroutine IBZKPT:
 Reciprocal lattice and k-lattice belong to different class of lattices. Often results are still useful...      96
 POSCAR, INCAR and KPOINTS ok, starting setup
 WARNING: small aliasing (wrap around) errors must be expected
 FFT: planning ...
 WAVECAR not read
 entering main loop
       N       E                     dE             d eps       ncg     rms          rms(c)
Total vdW correction in eV:     15.9005145
DAV:   1     0.484200676085E+03    0.48420E+03   -0.28613E+04  7360   0.790E+02
DAV:   2    -0.706624430598E+02   -0.55486E+03   -0.54076E+03  9808   0.188E+02
DAV:   3    -0.125466141388E+03   -0.54804E+02   -0.54060E+02  8824   0.614E+01
DAV:   4    -0.127849587703E+03   -0.23834E+01   -0.23693E+01 10856   0.138E+01
DAV:   5    -0.127907579654E+03   -0.57992E-01   -0.57935E-01  9936   0.212E+00    0.969E+00
Total vdW correction in eV:     16.3224732
DAV:   6    -0.126240784043E+03    0.16668E+01   -0.35377E+00  8800   0.467E+00    0.546E+00
Total vdW correction in eV:     16.8486895
DAV:   7    -0.126017417976E+03    0.22337E+00   -0.25119E+00  8784   0.415E+00    0.148E+00
Total vdW correction in eV:     16.9702956
DAV:   8    -0.126011562059E+03    0.58559E-02   -0.28326E-01  9008   0.162E+00    0.584E-01
Total vdW correction in eV:     17.0256514
DAV:   9    -0.125990564466E+03    0.20998E-01   -0.46728E-02  9144   0.660E-01    0.200E-01
Total vdW correction in eV:     17.0408414
DAV:  10    -0.125979529141E+03    0.11035E-01   -0.96237E-03  9000   0.289E-01    0.972E-02
Total vdW correction in eV:     17.0486980
DAV:  11    -0.125973625624E+03    0.59035E-02   -0.25398E-03  8936   0.153E-01    0.449E-02
Total vdW correction in eV:     17.0541645
DAV:  12    -0.125969984092E+03    0.36415E-02   -0.64566E-04  8680   0.722E-02    0.239E-02
Total vdW correction in eV:     17.0586122
DAV:  13    -0.125968098820E+03    0.18853E-02   -0.15304E-04 10032   0.342E-02    0.133E-02
Total vdW correction in eV:     17.0625006
DAV:  14    -0.125967049348E+03    0.10495E-02   -0.61954E-05  8576   0.240E-02    0.753E-03
Total vdW correction in eV:     17.0648766
DAV:  15    -0.125967121295E+03   -0.71947E-04   -0.46697E-05  8096   0.171E-02    0.515E-03
Total vdW correction in eV:     17.0663208
DAV:  16    -0.125967784205E+03   -0.66291E-03   -0.17811E-04  8168   0.249E-02    0.268E-03
Total vdW correction in eV:     17.0662546
DAV:  17    -0.125967994320E+03   -0.21012E-03   -0.10361E-04  7664   0.163E-02    0.151E-03
Total vdW correction in eV:     17.0660138
DAV:  18    -0.125967990980E+03    0.33401E-05   -0.15228E-05  6320   0.919E-03    0.998E-04
Total vdW correction in eV:     17.0658139
DAV:  19    -0.125968017588E+03   -0.26608E-04   -0.19032E-05  6664   0.827E-03    0.702E-04
Total vdW correction in eV:     17.0656632
DAV:  20    -0.125968015350E+03    0.22377E-05   -0.22998E-05  6944   0.103E-02    0.456E-04
Total vdW correction in eV:     17.0655847
DAV:  21    -0.125967945210E+03    0.70141E-04   -0.19836E-05  6556   0.103E-02    0.229E-04
Total vdW correction in eV:     17.0655807
DAV:  22    -0.125967896885E+03    0.48325E-04   -0.10414E-05  6636   0.833E-03    0.115E-04
Total vdW correction in eV:     17.0655805
DAV:  23    -0.125967886759E+03    0.10126E-04   -0.80256E-06  6520   0.817E-03    0.537E-05
Total vdW correction in eV:     17.0655819
DAV:  24    -0.125967875274E+03    0.11485E-04   -0.38153E-06  6544   0.630E-03    0.258E-05
Total vdW correction in eV:     17.0655829
DAV:  25    -0.125967874747E+03    0.52715E-06   -0.20317E-06  5912   0.469E-03
Total vdW correction in eV:     17.0655819
Total vdW correction in eV:     17.0655826
   1 F= -.12596787E+03 E0= -.12595182E+03  d E =-.321140E-01
