<?xml version="1.0" encoding="ISO-8859-1"?>
<modeling>
 <generator>
  <i name="program" type="string">vasp </i>
  <i name="version" type="string">5.4.1  </i>
  <i name="subversion" type="string">24Jun15 (build May 10 2016 14:18:23) complex                          parallel </i>
  <i name="platform" type="string">IFC91_ompi </i>
  <i name="date" type="string">2016 12 12 </i>
  <i name="time" type="string">06:33:36 </i>
 </generator>
 <incar>
  <i type="string" name="PREC">accurate</i>
  <i type="string" name="ALGO"> Fast</i>
  <i type="int" name="ISPIN">     2</i>
  <i type="int" name="IBRION">     2</i>
  <i name="EDIFF">      0.00010000</i>
  <i type="int" name="NSW">     0</i>
  <i type="int" name="ISIF">     3</i>
  <i name="ENCUT">    500.00000000</i>
  <v name="MAGMOM">      6.00000000      0.50000000      0.50000000      6.00000000      0.50000000      0.50000000</v>
  <i type="string" name="LREAL"> Auto</i>
  <i type="int" name="ISMEAR">     1</i>
  <i name="SIGMA">      0.10000000</i>
  <i type="logical" name="LWAVE"> F  </i>
  <i type="logical" name="LCHARG"> F  </i>
  <i type="logical" name="LVTOT"> T  </i>
  <i type="logical" name="LVHAR"> T  </i>
  <i type="logical" name="LAECHG"> F  </i>
  <v type="int" name="KPOINT_BSE">    -1     0     0     0</v>
  <i type="string" name="GGA"> Bo</i>
  <i name="PARAM1">      0.18333333</i>
  <i name="PARAM2">      0.22000000</i>
  <i type="logical" name="LUSE_VDW"> T  </i>
  <i name="AGGAC">      0.00000000</i>
 </incar>
 <kpoints>
  <generation param="Gamma">
   <v type="int" name="divisions">      13       13        1 </v>
   <v name="usershift">      0.00000000       0.00000000       0.00000000 </v>
   <v name="genvec1">      0.07692308       0.00000000       0.00000000 </v>
   <v name="genvec2">      0.00000000       0.07692308       0.00000000 </v>
   <v name="genvec3">      0.00000000       0.00000000       1.00000000 </v>
   <v name="shift">      0.00000000       0.00000000       0.00000000 </v>
  </generation>
  <varray name="kpointlist" >
   <v>       0.00000000       0.00000000       0.00000000 </v>
   <v>       0.07692308      -0.00000000       0.00000000 </v>
   <v>       0.15384615       0.00000000       0.00000000 </v>
   <v>       0.23076923       0.00000000       0.00000000 </v>
   <v>       0.30769231      -0.00000000       0.00000000 </v>
   <v>       0.38461538       0.00000000       0.00000000 </v>
   <v>       0.46153846       0.00000000       0.00000000 </v>
   <v>       0.07692308       0.07692308       0.00000000 </v>
   <v>       0.15384615       0.07692308       0.00000000 </v>
   <v>       0.23076923       0.07692308       0.00000000 </v>
   <v>       0.30769231       0.07692308       0.00000000 </v>
   <v>       0.38461538       0.07692308       0.00000000 </v>
   <v>       0.46153846       0.07692308       0.00000000 </v>
   <v>      -0.46153846       0.07692308       0.00000000 </v>
   <v>      -0.38461538       0.07692308       0.00000000 </v>
   <v>      -0.30769231       0.07692308       0.00000000 </v>
   <v>      -0.23076923       0.07692308       0.00000000 </v>
   <v>      -0.15384615       0.07692308       0.00000000 </v>
   <v>      -0.07692308       0.07692308       0.00000000 </v>
   <v>       0.15384615       0.15384615       0.00000000 </v>
   <v>       0.23076923       0.15384615       0.00000000 </v>
   <v>       0.30769231       0.15384615       0.00000000 </v>
   <v>       0.38461538       0.15384615       0.00000000 </v>
   <v>       0.46153846       0.15384615       0.00000000 </v>
   <v>      -0.46153846       0.15384615       0.00000000 </v>
   <v>      -0.38461538       0.15384615       0.00000000 </v>
   <v>      -0.30769231       0.15384615       0.00000000 </v>
   <v>      -0.23076923       0.15384615       0.00000000 </v>
   <v>      -0.15384615       0.15384615       0.00000000 </v>
   <v>       0.23076923       0.23076923       0.00000000 </v>
   <v>       0.30769231       0.23076923       0.00000000 </v>
   <v>       0.38461538       0.23076923       0.00000000 </v>
   <v>       0.46153846       0.23076923       0.00000000 </v>
   <v>      -0.46153846       0.23076923       0.00000000 </v>
   <v>      -0.38461538       0.23076923       0.00000000 </v>
   <v>      -0.30769231       0.23076923       0.00000000 </v>
   <v>      -0.23076923       0.23076923       0.00000000 </v>
   <v>       0.30769231       0.30769231       0.00000000 </v>
   <v>       0.38461538       0.30769231       0.00000000 </v>
   <v>       0.46153846       0.30769231       0.00000000 </v>
   <v>      -0.46153846       0.30769231       0.00000000 </v>
   <v>      -0.38461538       0.30769231       0.00000000 </v>
   <v>      -0.30769231       0.30769231       0.00000000 </v>
   <v>       0.38461538       0.38461538       0.00000000 </v>
   <v>       0.46153846       0.38461538       0.00000000 </v>
   <v>      -0.46153846       0.38461538       0.00000000 </v>
   <v>      -0.38461538       0.38461538       0.00000000 </v>
   <v>       0.46153846       0.46153846       0.00000000 </v>
   <v>      -0.46153846       0.46153846       0.00000000 </v>
  </varray>
  <varray name="weights" >
   <v>       0.00591716 </v>
   <v>       0.02366864 </v>
   <v>       0.02366864 </v>
   <v>       0.02366864 </v>
   <v>       0.02366864 </v>
   <v>       0.02366864 </v>
   <v>       0.02366864 </v>
   <v>       0.01183432 </v>
   <v>       0.02366864 </v>
   <v>       0.02366864 </v>
   <v>       0.02366864 </v>
   <v>       0.02366864 </v>
   <v>       0.02366864 </v>
   <v>       0.02366864 </v>
   <v>       0.02366864 </v>
   <v>       0.02366864 </v>
   <v>       0.02366864 </v>
   <v>       0.02366864 </v>
   <v>       0.01183432 </v>
   <v>       0.01183432 </v>
   <v>       0.02366864 </v>
   <v>       0.02366864 </v>
   <v>       0.02366864 </v>
   <v>       0.02366864 </v>
   <v>       0.02366864 </v>
   <v>       0.02366864 </v>
   <v>       0.02366864 </v>
   <v>       0.02366864 </v>
   <v>       0.01183432 </v>
   <v>       0.01183432 </v>
   <v>       0.02366864 </v>
   <v>       0.02366864 </v>
   <v>       0.02366864 </v>
   <v>       0.02366864 </v>
   <v>       0.02366864 </v>
   <v>       0.02366864 </v>
   <v>       0.01183432 </v>
   <v>       0.01183432 </v>
   <v>       0.02366864 </v>
   <v>       0.02366864 </v>
   <v>       0.02366864 </v>
   <v>       0.02366864 </v>
   <v>       0.01183432 </v>
   <v>       0.01183432 </v>
   <v>       0.02366864 </v>
   <v>       0.02366864 </v>
   <v>       0.01183432 </v>
   <v>       0.01183432 </v>
   <v>       0.01183432 </v>
  </varray>
 </kpoints>
 <parameters>
  <separator name="general" >
   <i type="string" name="SYSTEM">unknown system</i>
   <i type="logical" name="LCOMPAT"> F  </i>
  </separator>
  <separator name="electronic" >
   <i type="string" name="PREC">accura</i>
   <i name="ENMAX">    500.00000000</i>
   <i name="ENAUG">    392.42700000</i>
   <i name="EDIFF">      0.00010000</i>
   <i type="int" name="IALGO">    68</i>
   <i type="int" name="IWAVPR">    10</i>
   <i type="int" name="NBANDS">    36</i>
   <i name="NELECT">     48.00000000</i>
   <i type="int" name="TURBO">     0</i>
   <i type="int" name="IRESTART">     0</i>
   <i type="int" name="NREBOOT">     0</i>
   <i type="int" name="NMIN">     0</i>
   <i name="EREF">      0.00000000</i>
   <separator name="electronic smearing" >
    <i type="int" name="ISMEAR">     1</i>
    <i name="SIGMA">      0.10000000</i>
    <i name="KSPACING">      0.50000000</i>
    <i type="logical" name="KGAMMA"> T  </i>
   </separator>
   <separator name="electronic projectors" >
    <i type="logical" name="LREAL"> T  </i>
    <v name="ROPT">     -0.00025000     -0.00025000     -0.00025000     -0.00025000</v>
    <i type="int" name="LMAXPAW">  -100</i>
    <i type="int" name="LMAXMIX">     2</i>
    <i type="logical" name="NLSPLINE"> F  </i>
   </separator>
   <separator name="electronic startup" >
    <i type="int" name="ISTART">     0</i>
    <i type="int" name="ICHARG">     2</i>
    <i type="int" name="INIWAV">     1</i>
   </separator>
   <separator name="electronic spin" >
    <i type="int" name="ISPIN">     2</i>
    <i type="logical" name="LNONCOLLINEAR"> F  </i>
    <v name="MAGMOM">      6.00000000      0.50000000      0.50000000      6.00000000      0.50000000      0.50000000</v>
    <i name="NUPDOWN">     -1.00000000</i>
    <i type="logical" name="LSORBIT"> F  </i>
    <v name="SAXIS">      0.00000000      0.00000000      1.00000000</v>
    <i type="logical" name="LSPIRAL"> F  </i>
    <v name="QSPIRAL">      0.00000000      0.00000000      0.00000000</v>
    <i type="logical" name="LZEROZ"> F  </i>
   </separator>
   <separator name="electronic exchange-correlation" >
    <i type="logical" name="LASPH"> F  </i>
    <i type="logical" name="LMETAGGA"> F  </i>
   </separator>
   <separator name="electronic convergence" >
    <i type="int" name="NELM">    60</i>
    <i type="int" name="NELMDL">     0</i>
    <i type="int" name="NELMIN">     2</i>
    <i name="ENINI">    500.00000000</i>
    <separator name="electronic convergence detail" >
     <i type="logical" name="LDIAG"> T  </i>
     <i type="logical" name="LSUBROT"> F  </i>
     <i name="WEIMIN">      0.00000000</i>
     <i name="EBREAK">      0.00000069</i>
     <i name="DEPER">      0.30000000</i>
     <i type="int" name="NRMM">     4</i>
     <i name="TIME">      0.40000000</i>
    </separator>
   </separator>
   <separator name="electronic mixer" >
    <i name="AMIX">      0.40000000</i>
    <i name="BMIX">      1.00000000</i>
    <i name="AMIN">      0.10000000</i>
    <i name="AMIX_MAG">      1.60000000</i>
    <i name="BMIX_MAG">      1.00000000</i>
    <separator name="electronic mixer details" >
     <i type="int" name="IMIX">     4</i>
     <i type="logical" name="MIXFIRST"> F  </i>
     <i type="int" name="MAXMIX">   -45</i>
     <i name="WC">    100.00000000</i>
     <i type="int" name="INIMIX">     1</i>
     <i type="int" name="MIXPRE">     1</i>
     <i type="int" name="MREMOVE">     5</i>
    </separator>
   </separator>
   <separator name="electronic dipolcorrection" >
    <i type="logical" name="LDIPOL"> F  </i>
    <i type="logical" name="LMONO"> F  </i>
    <i type="int" name="IDIPOL">     0</i>
    <i name="EPSILON">      1.00000000</i>
    <v name="DIPOL">   -100.00000000   -100.00000000   -100.00000000</v>
    <i name="EFIELD">      0.00000000</i>
   </separator>
  </separator>
  <separator name="grids" >
   <i type="int" name="NGX">    24</i>
   <i type="int" name="NGY">    24</i>
   <i type="int" name="NGZ">   180</i>
   <i type="int" name="NGXF">    48</i>
   <i type="int" name="NGYF">    48</i>
   <i type="int" name="NGZF">   360</i>
   <i type="logical" name="ADDGRID"> F  </i>
  </separator>
  <separator name="ionic" >
   <i type="int" name="NSW">     0</i>
   <i type="int" name="IBRION">    -1</i>
   <i type="int" name="ISIF">     3</i>
   <i name="PSTRESS">      0.00000000</i>
   <i name="EDIFFG">      0.00100000</i>
   <i type="int" name="NFREE">     1</i>
   <i name="POTIM">      0.50000000</i>
   <i name="SMASS">     -3.00000000</i>
   <i name="SCALEE">      1.00000000</i>
  </separator>
  <separator name="ionic md" >
   <i name="TEBEG">      0.00010000</i>
   <i name="TEEND">      0.00010000</i>
   <i type="int" name="NBLOCK">     1</i>
   <i type="int" name="KBLOCK">     1</i>
   <i type="int" name="NPACO">   256</i>
   <i name="APACO">     16.00000000</i>
  </separator>
  <separator name="symmetry" >
   <i type="int" name="ISYM">     2</i>
   <i name="SYMPREC">      0.00001000</i>
  </separator>
  <separator name="dos" >
   <i type="logical" name="LORBIT"> F  </i>
   <v name="RWIGS">     -1.00000000     -1.00000000     -1.00000000     -1.00000000</v>
   <i type="int" name="NEDOS">   301</i>
   <i name="EMIN">     10.00000000</i>
   <i name="EMAX">    -10.00000000</i>
   <i name="EFERMI">      0.00000000</i>
  </separator>
  <separator name="writing" >
   <i type="int" name="NWRITE">     2</i>
   <i type="logical" name="LWAVE"> F  </i>
   <i type="logical" name="LCHARG"> F  </i>
   <i type="logical" name="LPARD"> F  </i>
   <i type="logical" name="LVTOT"> F  </i>
   <i type="logical" name="LVHAR"> T  </i>
   <i type="logical" name="LELF"> F  </i>
   <i type="logical" name="LOPTICS"> F  </i>
   <v name="STM">      0.00000000      0.00000000      0.00000000      0.00000000      0.00000000      0.00000000      0.00000000</v>
  </separator>
  <separator name="performance" >
   <i type="int" name="NPAR">     4</i>
   <i type="int" name="NSIM">     4</i>
   <i type="int" name="NBLK">    -1</i>
   <i type="logical" name="LPLANE"> T  </i>
   <i type="logical" name="LSCALAPACK"> T  </i>
   <i type="logical" name="LSCAAWARE"> F  </i>
   <i type="logical" name="LSCALU"> F  </i>
   <i type="logical" name="LASYNC"> F  </i>
   <i type="logical" name="LORBITALREAL"> F  </i>
  </separator>
  <separator name="miscellaneous" >
   <i type="int" name="IDIOT">     3</i>
   <i type="logical" name="LMUSIC"> F  </i>
   <v name="POMASS">     95.94000000     32.06600000     95.94000000     32.06600000</v>
   <v name="DARWINR">      0.00000000      0.00000000      0.00000000      0.00000000</v>
   <v name="DARWINV">      1.00000000      1.00000000      1.00000000      1.00000000</v>
   <i type="logical" name="LCORR"> T  </i>
  </separator>
  <i type="logical" name="GGA_COMPAT"> T  </i>
  <i type="logical" name="LBERRY"> F  </i>
  <i type="int" name="ICORELEVEL">     0</i>
  <i type="logical" name="LDAU"> F  </i>
  <i type="int" name="I_CONSTRAINED_M">     0</i>
  <separator name="electronic exchange-correlation" >
   <i type="string" name="GGA">BO</i>
   <i type="int" name="VOSKOWN">     0</i>
   <i type="logical" name="LHFCALC"> F  </i>
   <i type="string" name="PRECFOCK"></i>
   <i type="logical" name="LSYMGRAD"> F  </i>
   <i type="logical" name="LHFONE"> F  </i>
   <i type="logical" name="LRHFCALC"> F  </i>
   <i type="logical" name="LTHOMAS"> F  </i>
   <i type="logical" name="LMODELHF"> F  </i>
   <i name="ENCUT4O">     -1.00000000</i>
   <i type="int" name="EXXOEP">     0</i>
   <i type="int" name="FOURORBIT">     0</i>
   <i name="AEXX">      0.00000000</i>
   <i name="HFALPHA">      0.00000000</i>
   <i name="MCALPHA">      0.00000000</i>
   <i name="ALDAX">      1.00000000</i>
   <i name="AGGAX">      1.00000000</i>
   <i name="ALDAC">      1.00000000</i>
   <i name="AGGAC">      0.00000000</i>
   <i type="int" name="NKREDX">     1</i>
   <i type="int" name="NKREDY">     1</i>
   <i type="int" name="NKREDZ">     1</i>
   <i type="logical" name="SHIFTRED"> F  </i>
   <i type="logical" name="ODDONLY"> F  </i>
   <i type="logical" name="EVENONLY"> F  </i>
   <i type="int" name="LMAXFOCK">     0</i>
   <i type="int" name="NMAXFOCKAE">     0</i>
   <i type="logical" name="LFOCKAEDFT"> F  </i>
   <i name="HFSCREEN">      0.00000000</i>
   <i name="HFSCREENC">      0.00000000</i>
   <i type="int" name="NBANDSGWLOW">     0</i>
  </separator>
  <separator name="vdW DFT" >
   <i type="logical" name="LUSE_VDW"> T  </i>
   <i name="Zab_VDW">     -0.84910000</i>
   <i name="PARAM1">      0.18333333</i>
   <i name="PARAM2">      0.22000000</i>
   <i name="PARAM3">      0.00000000</i>
  </separator>
  <separator name="model GW" >
   <i type="int" name="MODEL_GW">     0</i>
   <i name="MODEL_EPS0">     20.39722663</i>
   <i name="MODEL_ALPHA">      1.00000000</i>
  </separator>
  <separator name="linear response parameters" >
   <i type="logical" name="LEPSILON"> F  </i>
   <i type="logical" name="LRPA"> F  </i>
   <i type="logical" name="LNABLA"> F  </i>
   <i type="logical" name="LVEL"> F  </i>
   <i type="int" name="KINTER">     0</i>
   <i name="CSHIFT">      0.10000000</i>
   <i name="OMEGAMAX">     -1.00000000</i>
   <i name="DEG_THRESHOLD">      0.00200000</i>
  </separator>
  <separator name="orbital magnetization" >
   <i type="logical" name="NUCIND"> F  </i>
   <v name="MAGPOS">      0.00000000      0.00000000      0.00000000</v>
   <i type="logical" name="LNICSALL"> T  </i>
   <i type="logical" name="ORBITALMAG"> F  </i>
   <i type="logical" name="LMAGBLOCH"> F  </i>
   <i type="logical" name="LCHIMAG"> F  </i>
   <i type="logical" name="LGAUGE"> T  </i>
   <i type="int" name="MAGATOM">     0</i>
   <v name="MAGDIPOL">      0.00000000      0.00000000      0.00000000</v>
   <v name="AVECCONST">      0.00000000      0.00000000      0.00000000</v>
  </separator>
  <separator name="response functions" >
   <i type="logical" name="LADDER"> F  </i>
   <i type="logical" name="LFXC"> F  </i>
   <i type="logical" name="LHARTREE"> T  </i>
   <i type="int" name="IBSE">     0</i>
   <v type="int" name="KPOINT">    -1     0     0     0</v>
   <i type="logical" name="LTCTE"> F  </i>
   <i type="logical" name="LTETE"> F  </i>
   <i type="logical" name="LTRIPLET"> F  </i>
   <i type="logical" name="LFXCEPS"> F  </i>
   <i type="logical" name="LFXHEG"> F  </i>
   <i type="int" name="NATURALO">     0</i>
   <i type="logical" name="L2ORDER"> F  </i>
   <i type="logical" name="LUSEW"> F  </i>
   <i name="ENCUTGW">     -2.00000000</i>
   <i name="ENCUTGWSOFT">     -2.00000000</i>
   <i name="ENCUTLF">     -1.00000000</i>
   <i type="int" name="LMAXMP2">    -1</i>
   <i name="SCISSOR">      0.00000000</i>
   <i type="int" name="NOMEGA">     0</i>
   <i type="int" name="NOMEGAR">     0</i>
   <i type="int" name="NBANDSGW">    -1</i>
   <i type="int" name="NBANDSO">    -1</i>
   <i type="int" name="NBANDSV">    -1</i>
   <i type="int" name="NELM">     1</i>
   <i type="int" name="NELMHF">     1</i>
   <i type="int" name="DIM">     3</i>
   <i type="int" name="ANTIRES">     0</i>
   <i name="OMEGAMAX">    -30.00000000</i>
   <i name="OMEGAMIN">    -30.00000000</i>
   <i name="OMEGATL">   -200.00000000</i>
   <i type="int" name="OMEGAGRID">     0</i>
   <i name="CSHIFT">     -0.10000000</i>
   <i type="logical" name="SELFENERGY"> F  </i>
   <i type="logical" name="LSPECTRAL"> F  </i>
   <i type="logical" name="LSPECTRALGW"> F  </i>
   <i type="logical" name="LSINGLES"> F  </i>
   <i type="logical" name="LFERMIGW"> F  </i>
   <i type="logical" name="ODDONLYGW"> F  </i>
   <i type="logical" name="EVENONLYGW"> F  </i>
   <i type="int" name="NKREDLFX">     1</i>
   <i type="int" name="NKREDLFY">     1</i>
   <i type="int" name="NKREDLFZ">     1</i>
   <i type="int" name="MAXMEM">  1800</i>
   <i type="int" name="TELESCOPE">     0</i>
   <i type="int" name="TAUPAR">     1</i>
   <i type="int" name="OMEGAPAR">    -1</i>
   <i name="LAMBDA">      1.00000000</i>
  </separator>
  <separator name="External order field" >
   <i name="OFIELD_KAPPA">      0.00000000</i>
   <v name="OFIELD_K">      0.00000000      0.00000000      0.00000000</v>
   <i name="OFIELD_Q6_NEAR">      0.00000000</i>
   <i name="OFIELD_Q6_FAR">      0.00000000</i>
   <i name="OFIELD_A">      0.00000000</i>
  </separator>
 </parameters>
 <atominfo>
  <atoms>       6 </atoms>
  <types>       4 </types>
  <array name="atoms" >
   <dimension dim="1">ion</dimension>
   <field type="string">element</field>
   <field type="int">atomtype</field>
   <set>
    <rc><c>Mo</c><c>   1</c></rc>
    <rc><c>S </c><c>   2</c></rc>
    <rc><c>S </c><c>   2</c></rc>
    <rc><c>Mo</c><c>   3</c></rc>
    <rc><c>S </c><c>   4</c></rc>
    <rc><c>S </c><c>   4</c></rc>
   </set>
  </array>
  <array name="atomtypes" >
   <dimension dim="1">type</dimension>
   <field type="int">atomspertype</field>
   <field type="string">element</field>
   <field>mass</field>
   <field>valence</field>
   <field type="string">pseudopotential</field>
   <set>
    <rc><c>   1</c><c>Mo</c><c>     95.94000000</c><c>     12.00000000</c><c> PAW_PBE Mo_pv 08Apr2002                </c></rc>
    <rc><c>   2</c><c>S </c><c>     32.06600000</c><c>      6.00000000</c><c>  PAW_PBE S 17Jan2003                   </c></rc>
    <rc><c>   1</c><c>Mo</c><c>     95.94000000</c><c>     12.00000000</c><c> PAW_PBE Mo_pv 08Apr2002                </c></rc>
    <rc><c>   2</c><c>S </c><c>     32.06600000</c><c>      6.00000000</c><c>  PAW_PBE S 17Jan2003                   </c></rc>
   </set>
  </array>
 </atominfo>
 <structure name="initialpos" >
  <crystal>
   <varray name="basis" >
    <v>       3.19031700       0.00000000       0.00000000 </v>
    <v>      -1.59515800       2.76289700       0.00000000 </v>
    <v>       0.00000000       0.00000000      23.14049200 </v>
   </varray>
   <i name="volume">    203.97226633 </i>
   <varray name="rec_basis" >
    <v>       0.31344848       0.18096941       0.00000000 </v>
    <v>       0.00000000       0.36193894       0.00000000 </v>
    <v>       0.00000000       0.00000000       0.04321429 </v>
   </varray>
  </crystal>
  <varray name="positions" >
   <v>       0.66666700       0.33333300       0.06785900 </v>
   <v>       0.33333300       0.66666700       0.00000000 </v>
   <v>       0.33333300       0.66666700       0.13571500 </v>
   <v>       0.95238100       0.04761900       0.35482300 </v>
   <v>       0.61904700       0.38095300       0.28696500 </v>
   <v>       0.61904700       0.38095300       0.42267900 </v>
  </varray>
 </structure>
 <calculation>
  <scstep>
   <time name="dav">   62.29   62.35</time>
   <time name="total">   81.80   81.88</time>
   <energy>
    <i name="alphaZ">    104.15310261 </i>
    <i name="ewald">   7698.95527222 </i>
    <i name="hartreedc"> -11109.01428958 </i>
    <i name="XCdc">    128.46206249 </i>
    <i name="pawpsdc">   2252.92270536 </i>
    <i name="pawaedc">  -2205.68654582 </i>
    <i name="eentropy">      0.00017309 </i>
    <i name="bandstr">   -161.11951755 </i>
    <i name="atom">   3688.31848598 </i>
    <i name="e_fr_energy">    396.99144881 </i>
    <i name="e_wo_entrp">    396.99127572 </i>
    <i name="e_0_energy">    396.99139111 </i>
   </energy>
  </scstep>
  <scstep>
   <time name="dav">   66.72   66.78</time>
   <time name="total">   66.73   66.80</time>
   <energy>
    <i name="e_fr_energy">     -1.69530101 </i>
    <i name="e_wo_entrp">     -1.69555342 </i>
    <i name="e_0_energy">     -1.69538515 </i>
   </energy>
  </scstep>
  <scstep>
   <time name="dav">   69.40   69.46</time>
   <time name="total">   69.41   69.48</time>
   <energy>
    <i name="e_fr_energy">    -32.97632064 </i>
    <i name="e_wo_entrp">    -32.97745634 </i>
    <i name="e_0_energy">    -32.97669920 </i>
   </energy>
  </scstep>
  <scstep>
   <time name="dav">   66.04   66.11</time>
   <time name="total">   66.05   66.12</time>
   <energy>
    <i name="e_fr_energy">    -33.85124222 </i>
    <i name="e_wo_entrp">    -33.85266921 </i>
    <i name="e_0_energy">    -33.85171788 </i>
   </energy>
  </scstep>
  <scstep>
   <time name="dav">   69.14   69.21</time>
   <time name="total">   74.47   74.54</time>
   <energy>
    <i name="e_fr_energy">    -33.87813277 </i>
    <i name="e_wo_entrp">    -33.87959184 </i>
    <i name="e_0_energy">    -33.87861913 </i>
   </energy>
  </scstep>
  <scstep>
   <time name="diag">   12.77   12.78</time>
   <time name="diis">   46.12   46.16</time>
   <time name="orth">    0.46    0.46</time>
   <time name="total">   83.54   83.61</time>
   <energy>
    <i name="e_fr_energy">    -30.01992180 </i>
    <i name="e_wo_entrp">    -30.01940321 </i>
    <i name="e_0_energy">    -30.01974894 </i>
   </energy>
  </scstep>
  <scstep>
   <time name="diag">   12.75   12.77</time>
   <time name="diis">   46.23   46.27</time>
   <time name="orth">    0.46    0.46</time>
   <time name="total">   83.70   83.77</time>
   <energy>
    <i name="e_fr_energy">    -32.88814980 </i>
    <i name="e_wo_entrp">    -32.88872110 </i>
    <i name="e_0_energy">    -32.88834023 </i>
   </energy>
  </scstep>
  <scstep>
   <time name="diag">   12.84   12.85</time>
   <time name="diis">   47.63   47.67</time>
   <time name="orth">    0.46    0.46</time>
   <time name="total">   85.00   85.08</time>
   <energy>
    <i name="e_fr_energy">    -34.41811047 </i>
    <i name="e_wo_entrp">    -34.41827690 </i>
    <i name="e_0_energy">    -34.41816595 </i>
   </energy>
  </scstep>
  <scstep>
   <time name="diag">   12.80   12.81</time>
   <time name="diis">   44.83   44.87</time>
   <time name="orth">    0.46    0.46</time>
   <time name="total">   82.20   82.27</time>
   <energy>
    <i name="e_fr_energy">    -37.05047392 </i>
    <i name="e_wo_entrp">    -37.05064272 </i>
    <i name="e_0_energy">    -37.05053019 </i>
   </energy>
  </scstep>
  <scstep>
   <time name="diag">   12.88   12.89</time>
   <time name="diis">   41.69   41.73</time>
   <time name="orth">    0.45    0.45</time>
   <time name="total">   79.21   79.28</time>
   <energy>
    <i name="e_fr_energy">    -39.10157575 </i>
    <i name="e_wo_entrp">    -39.10174446 </i>
    <i name="e_0_energy">    -39.10163199 </i>
   </energy>
  </scstep>
  <scstep>
   <time name="diag">   12.85   12.86</time>
   <time name="diis">   44.69   44.73</time>
   <time name="orth">    0.46    0.47</time>
   <time name="total">   82.25   82.32</time>
   <energy>
    <i name="e_fr_energy">    -39.39001227 </i>
    <i name="e_wo_entrp">    -39.39034711 </i>
    <i name="e_0_energy">    -39.39012389 </i>
   </energy>
  </scstep>
  <scstep>
   <time name="diag">   12.88   12.89</time>
   <time name="diis">   44.35   44.39</time>
   <time name="orth">    0.46    0.46</time>
   <time name="total">   82.04   82.12</time>
   <energy>
    <i name="e_fr_energy">    -39.41616417 </i>
    <i name="e_wo_entrp">    -39.41649837 </i>
    <i name="e_0_energy">    -39.41627557 </i>
   </energy>
  </scstep>
  <scstep>
   <time name="diag">   12.83   12.84</time>
   <time name="diis">   47.19   47.23</time>
   <time name="orth">    0.45    0.46</time>
   <time name="total">   84.85   84.93</time>
   <energy>
    <i name="e_fr_energy">    -39.42473028 </i>
    <i name="e_wo_entrp">    -39.42506534 </i>
    <i name="e_0_energy">    -39.42484197 </i>
   </energy>
  </scstep>
  <scstep>
   <time name="diag">   12.87   12.88</time>
   <time name="diis">   47.43   47.47</time>
   <time name="orth">    0.47    0.47</time>
   <time name="total">   85.14   85.22</time>
   <energy>
    <i name="e_fr_energy">    -39.42893393 </i>
    <i name="e_wo_entrp">    -39.42926993 </i>
    <i name="e_0_energy">    -39.42904593 </i>
   </energy>
  </scstep>
  <scstep>
   <time name="diag">   12.87   12.88</time>
   <time name="diis">   40.61   40.64</time>
   <time name="orth">    0.45    0.45</time>
   <time name="total">   78.29   78.43</time>
   <energy>
    <i name="e_fr_energy">    -39.42832655 </i>
    <i name="e_wo_entrp">    -39.42866256 </i>
    <i name="e_0_energy">    -39.42843855 </i>
   </energy>
  </scstep>
  <scstep>
   <time name="diag">   12.83   12.84</time>
   <time name="diis">   32.94   32.97</time>
   <time name="orth">    0.46    0.46</time>
   <time name="total">   70.60   70.66</time>
   <energy>
    <i name="e_fr_energy">    -39.42855316 </i>
    <i name="e_wo_entrp">    -39.42888921 </i>
    <i name="e_0_energy">    -39.42866517 </i>
   </energy>
  </scstep>
  <scstep>
   <time name="diag">   12.85   12.86</time>
   <time name="diis">   32.40   32.43</time>
   <time name="orth">    0.46    0.46</time>
   <time name="total">   70.00   70.06</time>
   <energy>
    <i name="e_fr_energy">    -39.42875664 </i>
    <i name="e_wo_entrp">    -39.42909268 </i>
    <i name="e_0_energy">    -39.42886865 </i>
   </energy>
  </scstep>
  <scstep>
   <time name="diag">   12.90   12.91</time>
   <time name="diis">   30.70   30.72</time>
   <time name="orth">    0.46    0.46</time>
   <time name="total">   68.36   68.42</time>
   <energy>
    <i name="e_fr_energy">    -39.42914279 </i>
    <i name="e_wo_entrp">    -39.42947880 </i>
    <i name="e_0_energy">    -39.42925479 </i>
   </energy>
  </scstep>
  <scstep>
   <time name="diag">   12.92   12.93</time>
   <time name="diis">   30.39   30.41</time>
   <time name="orth">    0.46    0.46</time>
   <time name="total">   68.16   68.23</time>
   <energy>
    <i name="e_fr_energy">    -39.42957778 </i>
    <i name="e_wo_entrp">    -39.42991377 </i>
    <i name="e_0_energy">    -39.42968978 </i>
   </energy>
  </scstep>
  <scstep>
   <time name="diag">   12.84   12.85</time>
   <time name="diis">   31.07   31.10</time>
   <time name="orth">    0.46    0.46</time>
   <time name="total">   68.72   68.78</time>
   <energy>
    <i name="e_fr_energy">    -39.42979472 </i>
    <i name="e_wo_entrp">    -39.43013070 </i>
    <i name="e_0_energy">    -39.42990672 </i>
   </energy>
  </scstep>
  <scstep>
   <time name="diag">   12.97   12.98</time>
   <time name="diis">   29.09   29.12</time>
   <time name="orth">    0.46    0.46</time>
   <time name="total">   61.13   61.19</time>
   <energy>
    <i name="alphaZ">    104.15310261 </i>
    <i name="ewald">   7698.95527222 </i>
    <i name="hartreedc"> -11092.57779601 </i>
    <i name="XCdc">    122.65566692 </i>
    <i name="pawpsdc">   2399.25680777 </i>
    <i name="pawaedc">  -2361.44049254 </i>
    <i name="eentropy">      0.00033597 </i>
    <i name="bandstr">   -598.75118945 </i>
    <i name="atom">   3688.31848598 </i>
    <i name="e_fr_energy">    -39.42980654 </i>
    <i name="e_wo_entrp">    -39.43014251 </i>
    <i name="e_0_energy">    -39.42991853 </i>
   </energy>
  </scstep>
  <structure>
   <crystal>
    <varray name="basis" >
     <v>       3.19031700       0.00000000       0.00000000 </v>
     <v>      -1.59515800       2.76289700       0.00000000 </v>
     <v>       0.00000000       0.00000000      23.14049200 </v>
    </varray>
    <i name="volume">    203.97226633 </i>
    <varray name="rec_basis" >
     <v>       0.31344848       0.18096941       0.00000000 </v>
     <v>       0.00000000       0.36193894       0.00000000 </v>
     <v>       0.00000000       0.00000000       0.04321429 </v>
    </varray>
   </crystal>
   <varray name="positions" >
    <v>       0.66666700       0.33333300       0.06785900 </v>
    <v>       0.33333300       0.66666700       0.00000000 </v>
    <v>       0.33333300       0.66666700       0.13571500 </v>
    <v>       0.95238100       0.04761900       0.35482300 </v>
    <v>       0.61904700       0.38095300       0.28696500 </v>
    <v>       0.61904700       0.38095300       0.42267900 </v>
   </varray>
  </structure>
  <varray name="forces" >
   <v>      -0.00158546       0.00091537      -0.00416705 </v>
   <v>       0.00081029      -0.00046782      -0.05443700 </v>
   <v>      -0.00875022       0.00505194       0.13015158 </v>
   <v>       0.00259371      -0.00149748       0.00042067 </v>
   <v>       0.00673685      -0.00388953      -0.13210189 </v>
   <v>       0.00019482      -0.00011248       0.06013370 </v>
  </varray>
  <varray name="stress" >
   <v>       3.58239121      -0.11818916       0.32454041 </v>
   <v>      -0.11818916       3.44592109      -0.18737361 </v>
   <v>       0.32454030      -0.18737355      -0.51513651 </v>
  </varray>
  <energy>
   <i name="e_fr_energy">    -39.42980654 </i>
   <i name="e_wo_entrp">    -39.42991853 </i>
   <i name="e_0_energy">      0.00033597 </i>
  </energy>
  <time name="totalsc"> 1719.99 1721.86</time>
  <eigenvalues>
   <array>
    <dimension dim="1">band</dimension>
    <dimension dim="2">kpoint</dimension>
    <dimension dim="3">spin</dimension>
    <field>eigene</field>
    <field>occ</field>
    <set>
     <set comment="spin 1">
      <set comment="kpoint 1">
       <r>  -35.0006    1.0000 </r>
       <r>  -34.9838    1.0000 </r>
       <r>  -34.8100    1.0000 </r>
       <r>  -34.8099    1.0000 </r>
       <r>  -34.7933    1.0000 </r>
       <r>  -34.7933    1.0000 </r>
       <r>  -13.9765    1.0000 </r>
       <r>  -13.9198    1.0000 </r>
       <r>  -12.7097    1.0000 </r>
       <r>  -12.6170    1.0000 </r>
       <r>   -5.6840    1.0000 </r>
       <r>   -5.4006    1.0000 </r>
       <r>   -2.6300    1.0000 </r>
       <r>   -2.6299    1.0000 </r>
       <r>   -2.6133    1.0000 </r>
       <r>   -2.6131    1.0000 </r>
       <r>   -2.1707    1.0000 </r>
       <r>   -1.5368    1.0000 </r>
       <r>   -1.5361    1.0000 </r>
       <r>   -1.5194    1.0000 </r>
       <r>   -1.5187    1.0000 </r>
       <r>   -1.4798    1.0000 </r>
       <r>   -0.2213    1.0000 </r>
       <r>    0.2059    0.7930 </r>
       <r>    2.6878   -0.0000 </r>
       <r>    2.6945   -0.0000 </r>
       <r>    2.7126   -0.0000 </r>
       <r>    2.7175   -0.0000 </r>
       <r>    2.8689   -0.0000 </r>
       <r>    2.8767   -0.0000 </r>
       <r>    2.8961   -0.0000 </r>
       <r>    2.9059   -0.0000 </r>
       <r>    5.2848    0.0000 </r>
       <r>    5.4023    0.0000 </r>
       <r>    6.3857    0.0000 </r>
       <r>    6.5407    0.0000 </r>
      </set>
      <set comment="kpoint 2">
       <r>  -34.9965    1.0000 </r>
       <r>  -34.9797    1.0000 </r>
       <r>  -34.8312    1.0000 </r>
       <r>  -34.8148    1.0000 </r>
       <r>  -34.8146    1.0000 </r>
       <r>  -34.7982    1.0000 </r>
       <r>  -13.8897    1.0000 </r>
       <r>  -13.8333    1.0000 </r>
       <r>  -12.6730    1.0000 </r>
       <r>  -12.5827    1.0000 </r>
       <r>   -5.5846    1.0000 </r>
       <r>   -5.3019    1.0000 </r>
       <r>   -2.8168    1.0000 </r>
       <r>   -2.8000    1.0000 </r>
       <r>   -2.5393    1.0000 </r>
       <r>   -2.5224    1.0000 </r>
       <r>   -2.4589    1.0000 </r>
       <r>   -2.0755    1.0000 </r>
       <r>   -1.6742    1.0000 </r>
       <r>   -1.6561    1.0000 </r>
       <r>   -1.3578    1.0000 </r>
       <r>   -1.0763    1.0000 </r>
       <r>   -0.2423    1.0000 </r>
       <r>    0.1297    1.0341 </r>
       <r>    2.5847   -0.0000 </r>
       <r>    2.6050   -0.0000 </r>
       <r>    2.6393   -0.0000 </r>
       <r>    2.7042   -0.0000 </r>
       <r>    2.7711   -0.0000 </r>
       <r>    2.8079   -0.0000 </r>
       <r>    2.8396   -0.0000 </r>
       <r>    2.8681   -0.0000 </r>
       <r>    5.4245    0.0000 </r>
       <r>    5.5396    0.0000 </r>
       <r>    6.7460    0.0000 </r>
       <r>    6.9233    0.0000 </r>
      </set>
      <set comment="kpoint 3">
       <r>  -34.9851    1.0000 </r>
       <r>  -34.9683    1.0000 </r>
       <r>  -34.8897    1.0000 </r>
       <r>  -34.8731    1.0000 </r>
       <r>  -34.8282    1.0000 </r>
       <r>  -34.8116    1.0000 </r>
       <r>  -13.6411    1.0000 </r>
       <r>  -13.5857    1.0000 </r>
       <r>  -12.5680    1.0000 </r>
       <r>  -12.4845    1.0000 </r>
       <r>   -5.3241    1.0000 </r>
       <r>   -5.0481    1.0000 </r>
       <r>   -3.2665    1.0000 </r>
       <r>   -3.2481    1.0000 </r>
       <r>   -2.9602    1.0000 </r>
       <r>   -2.6909    1.0000 </r>
       <r>   -2.2839    1.0000 </r>
       <r>   -2.2665    1.0000 </r>
       <r>   -2.0096    1.0000 </r>
       <r>   -1.9908    1.0000 </r>
       <r>   -1.2676    1.0000 </r>
       <r>   -0.9491    1.0000 </r>
       <r>   -0.3723    1.0000 </r>
       <r>   -0.1485    1.0000 </r>
       <r>    2.1742   -0.0000 </r>
       <r>    2.3559   -0.0000 </r>
       <r>    2.4942   -0.0000 </r>
       <r>    2.5429   -0.0000 </r>
       <r>    2.5836   -0.0000 </r>
       <r>    2.6151   -0.0000 </r>
       <r>    3.1828    0.0000 </r>
       <r>    3.2178    0.0000 </r>
       <r>    5.7793    0.0000 </r>
       <r>    5.8888    0.0000 </r>
       <r>    7.4203    0.0000 </r>
       <r>    7.8267    0.0000 </r>
      </set>
      <set comment="kpoint 4">
       <r>  -34.9711    1.0000 </r>
       <r>  -34.9690    1.0000 </r>
       <r>  -34.9546    1.0000 </r>
       <r>  -34.9522    1.0000 </r>
       <r>  -34.8470    1.0000 </r>
       <r>  -34.8304    1.0000 </r>
       <r>  -13.2656    1.0000 </r>
       <r>  -13.2126    1.0000 </r>
       <r>  -12.4102    1.0000 </r>
       <r>  -12.3375    1.0000 </r>
       <r>   -5.0607    1.0000 </r>
       <r>   -4.8310    1.0000 </r>
       <r>   -3.7269    1.0000 </r>
       <r>   -3.6795    1.0000 </r>
       <r>   -3.4913    1.0000 </r>
       <r>   -3.3102    1.0000 </r>
       <r>   -2.4051    1.0000 </r>
       <r>   -2.3854    1.0000 </r>
       <r>   -1.9152    1.0000 </r>
       <r>   -1.8961    1.0000 </r>
       <r>   -1.4361    1.0000 </r>
       <r>   -1.1416    1.0000 </r>
       <r>   -0.6903    1.0000 </r>
       <r>   -0.5964    1.0000 </r>
       <r>    1.9434   -0.0000 </r>
       <r>    2.2316   -0.0000 </r>
       <r>    2.2929   -0.0000 </r>
       <r>    2.3345   -0.0000 </r>
       <r>    2.6911   -0.0000 </r>
       <r>    2.8941   -0.0000 </r>
       <r>    3.5605    0.0000 </r>
       <r>    3.6077    0.0000 </r>
       <r>    6.2938    0.0000 </r>
       <r>    6.3974    0.0000 </r>
       <r>    7.8741    0.0000 </r>
       <r>    8.2877    0.0000 </r>
      </set>
      <set comment="kpoint 5">
       <r>  -35.0564    1.0000 </r>
       <r>  -35.0398    1.0000 </r>
       <r>  -34.9519    1.0000 </r>
       <r>  -34.9351    1.0000 </r>
       <r>  -34.8669    1.0000 </r>
       <r>  -34.8503    1.0000 </r>
       <r>  -12.8247    1.0000 </r>
       <r>  -12.7767    1.0000 </r>
       <r>  -12.2277    1.0000 </r>
       <r>  -12.1686    1.0000 </r>
       <r>   -5.1169    1.0000 </r>
       <r>   -5.0002    1.0000 </r>
       <r>   -4.0592    1.0000 </r>
       <r>   -3.9322    1.0000 </r>
       <r>   -3.8667    1.0000 </r>
       <r>   -3.7522    1.0000 </r>
       <r>   -2.7607    1.0000 </r>
       <r>   -2.7404    1.0000 </r>
       <r>   -1.7057    1.0000 </r>
       <r>   -1.5212    1.0000 </r>
       <r>   -1.4981    1.0000 </r>
       <r>   -1.4424    1.0000 </r>
       <r>   -0.9841    1.0000 </r>
       <r>   -0.9178    1.0000 </r>
       <r>    2.0380   -0.0000 </r>
       <r>    2.1268   -0.0000 </r>
       <r>    2.1624   -0.0000 </r>
       <r>    2.3125   -0.0000 </r>
       <r>    3.1009    0.0000 </r>
       <r>    3.3391    0.0000 </r>
       <r>    3.8581    0.0000 </r>
       <r>    3.9207    0.0000 </r>
       <r>    6.9195    0.0000 </r>
       <r>    7.0056    0.0000 </r>
       <r>    7.8796    0.0000 </r>
       <r>    8.0634    0.0000 </r>
      </set>
      <set comment="kpoint 6">
       <r>  -35.1262    1.0000 </r>
       <r>  -35.1096    1.0000 </r>
       <r>  -34.9376    1.0000 </r>
       <r>  -34.9208    1.0000 </r>
       <r>  -34.8834    1.0000 </r>
       <r>  -34.8667    1.0000 </r>
       <r>  -12.4125    1.0000 </r>
       <r>  -12.3723    1.0000 </r>
       <r>  -12.0615    1.0000 </r>
       <r>  -12.0168    1.0000 </r>
       <r>   -5.4330    1.0000 </r>
       <r>   -5.3731    1.0000 </r>
       <r>   -4.4779    1.0000 </r>
       <r>   -4.3902    1.0000 </r>
       <r>   -3.9527    1.0000 </r>
       <r>   -3.8275    1.0000 </r>
       <r>   -3.0207    1.0000 </r>
       <r>   -3.0000    1.0000 </r>
       <r>   -1.9124    1.0000 </r>
       <r>   -1.6782    1.0000 </r>
       <r>   -1.2066    1.0000 </r>
       <r>   -1.1760    1.0000 </r>
       <r>   -0.9406    1.0000 </r>
       <r>   -0.8542    1.0000 </r>
       <r>    2.0857   -0.0000 </r>
       <r>    2.1116   -0.0000 </r>
       <r>    2.3026   -0.0000 </r>
       <r>    2.4876   -0.0000 </r>
       <r>    3.4969    0.0000 </r>
       <r>    3.7221    0.0000 </r>
       <r>    4.0421    0.0000 </r>
       <r>    4.1185    0.0000 </r>
       <r>    6.8365    0.0000 </r>
       <r>    7.1139    0.0000 </r>
       <r>    7.5680    0.0000 </r>
       <r>    7.9035    0.0000 </r>
      </set>
      <set comment="kpoint 7">
       <r>  -35.1652    1.0000 </r>
       <r>  -35.1486    1.0000 </r>
       <r>  -34.9295    1.0000 </r>
       <r>  -34.9128    1.0000 </r>
       <r>  -34.8927    1.0000 </r>
       <r>  -34.8760    1.0000 </r>
       <r>  -12.1530    1.0000 </r>
       <r>  -12.1208    1.0000 </r>
       <r>  -11.9599    1.0000 </r>
       <r>  -11.9259    1.0000 </r>
       <r>   -5.6716    1.0000 </r>
       <r>   -5.6270    1.0000 </r>
       <r>   -4.7272    1.0000 </r>
       <r>   -4.6587    1.0000 </r>
       <r>   -4.0550    1.0000 </r>
       <r>   -3.9393    1.0000 </r>
       <r>   -3.1568    1.0000 </r>
       <r>   -3.1358    1.0000 </r>
       <r>   -2.0113    1.0000 </r>
       <r>   -1.7963    1.0000 </r>
       <r>   -1.0418    1.0000 </r>
       <r>   -1.0053    1.0000 </r>
       <r>   -0.7168    1.0000 </r>
       <r>   -0.6302    1.0000 </r>
       <r>    2.1142   -0.0000 </r>
       <r>    2.1336   -0.0000 </r>
       <r>    2.5553   -0.0000 </r>
       <r>    2.6366   -0.0000 </r>
       <r>    3.7131    0.0000 </r>
       <r>    3.9162    0.0000 </r>
       <r>    4.1250    0.0000 </r>
       <r>    4.2094    0.0000 </r>
       <r>    6.0694    0.0000 </r>
       <r>    6.4531    0.0000 </r>
       <r>    7.8980    0.0000 </r>
       <r>    7.9559    0.0000 </r>
      </set>
      <set comment="kpoint 8">
       <r>  -34.9887    1.0000 </r>
       <r>  -34.9719    1.0000 </r>
       <r>  -34.8701    1.0000 </r>
       <r>  -34.8535    1.0000 </r>
       <r>  -34.8249    1.0000 </r>
       <r>  -34.8082    1.0000 </r>
       <r>  -13.7220    1.0000 </r>
       <r>  -13.6662    1.0000 </r>
       <r>  -12.6021    1.0000 </r>
       <r>  -12.5163    1.0000 </r>
       <r>   -5.4028    1.0000 </r>
       <r>   -5.1230    1.0000 </r>
       <r>   -3.1299    1.0000 </r>
       <r>   -3.1135    1.0000 </r>
       <r>   -2.7977    1.0000 </r>
       <r>   -2.4892    1.0000 </r>
       <r>   -2.3712    1.0000 </r>
       <r>   -2.3542    1.0000 </r>
       <r>   -1.9869    1.0000 </r>
       <r>   -1.9695    1.0000 </r>
       <r>   -1.1981    1.0000 </r>
       <r>   -0.8937    1.0000 </r>
       <r>   -0.3176    1.0000 </r>
       <r>   -0.0462    1.0002 </r>
       <r>    2.2899   -0.0000 </r>
       <r>    2.4137   -0.0000 </r>
       <r>    2.4556   -0.0000 </r>
       <r>    2.5411   -0.0000 </r>
       <r>    2.6149   -0.0000 </r>
       <r>    2.6426   -0.0000 </r>
       <r>    3.1194    0.0000 </r>
       <r>    3.1435    0.0000 </r>
       <r>    5.6680    0.0000 </r>
       <r>    5.7806    0.0000 </r>
       <r>    7.2639    0.0000 </r>
       <r>    7.5853    0.0000 </r>
      </set>
      <set comment="kpoint 9">
       <r>  -34.9750    1.0000 </r>
       <r>  -34.9582    1.0000 </r>
       <r>  -34.9377    1.0000 </r>
       <r>  -34.9211    1.0000 </r>
       <r>  -34.8434    1.0000 </r>
       <r>  -34.8267    1.0000 </r>
       <r>  -13.4094    1.0000 </r>
       <r>  -13.3552    1.0000 </r>
       <r>  -12.4702    1.0000 </r>
       <r>  -12.3930    1.0000 </r>
       <r>   -5.1235    1.0000 </r>
       <r>   -4.8644    1.0000 </r>
       <r>   -3.5702    1.0000 </r>
       <r>   -3.5461    1.0000 </r>
       <r>   -3.2338    1.0000 </r>
       <r>   -3.0096    1.0000 </r>
       <r>   -2.4705    1.0000 </r>
       <r>   -2.4453    1.0000 </r>
       <r>   -2.0873    1.0000 </r>
       <r>   -2.0693    1.0000 </r>
       <r>   -1.1734    1.0000 </r>
       <r>   -0.9021    1.0000 </r>
       <r>   -0.5482    1.0000 </r>
       <r>   -0.4195    1.0000 </r>
       <r>    1.9509   -0.0000 </r>
       <r>    2.1776   -0.0000 </r>
       <r>    2.3943   -0.0000 </r>
       <r>    2.4082   -0.0000 </r>
       <r>    2.4654   -0.0000 </r>
       <r>    2.6241   -0.0000 </r>
       <r>    3.5327    0.0000 </r>
       <r>    3.5518    0.0000 </r>
       <r>    6.1023    0.0000 </r>
       <r>    6.2108    0.0000 </r>
       <r>    7.7980    0.0000 </r>
       <r>    8.2769    0.0000 </r>
      </set>
      <set comment="kpoint 10">
       <r>  -35.0180    1.0000 </r>
       <r>  -35.0014    1.0000 </r>
       <r>  -34.9584    1.0000 </r>
       <r>  -34.9416    1.0000 </r>
       <r>  -34.8658    1.0000 </r>
       <r>  -34.8491    1.0000 </r>
       <r>  -12.9992    1.0000 </r>
       <r>  -12.9485    1.0000 </r>
       <r>  -12.2982    1.0000 </r>
       <r>  -12.2331    1.0000 </r>
       <r>   -5.0010    1.0000 </r>
       <r>   -4.8338    1.0000 </r>
       <r>   -3.8733    1.0000 </r>
       <r>   -3.7783    1.0000 </r>
       <r>   -3.7199    1.0000 </r>
       <r>   -3.6027    1.0000 </r>
       <r>   -2.8642    1.0000 </r>
       <r>   -2.8093    1.0000 </r>
       <r>   -1.8047    1.0000 </r>
       <r>   -1.7848    1.0000 </r>
       <r>   -1.3805    1.0000 </r>
       <r>   -1.1548    1.0000 </r>
       <r>   -0.8517    1.0000 </r>
       <r>   -0.7995    1.0000 </r>
       <r>    1.8471   -0.0000 </r>
       <r>    2.0543   -0.0000 </r>
       <r>    2.2796   -0.0000 </r>
       <r>    2.3619   -0.0000 </r>
       <r>    2.7419   -0.0000 </r>
       <r>    2.9448   -0.0000 </r>
       <r>    3.8899    0.0000 </r>
       <r>    3.9107    0.0000 </r>
       <r>    6.6931    0.0000 </r>
       <r>    6.7856    0.0000 </r>
       <r>    8.1885    0.0000 </r>
       <r>    8.5312    0.0000 </r>
      </set>
      <set comment="kpoint 11">
       <r>  -35.0926    1.0000 </r>
       <r>  -35.0761    1.0000 </r>
       <r>  -34.9427    1.0000 </r>
       <r>  -34.9259    1.0000 </r>
       <r>  -34.8868    1.0000 </r>
       <r>  -34.8701    1.0000 </r>
       <r>  -12.5675    1.0000 </r>
       <r>  -12.5234    1.0000 </r>
       <r>  -12.1201    1.0000 </r>
       <r>  -12.0690    1.0000 </r>
       <r>   -5.2236    1.0000 </r>
       <r>   -5.1437    1.0000 </r>
       <r>   -4.2955    1.0000 </r>
       <r>   -4.2108    1.0000 </r>
       <r>   -3.8737    1.0000 </r>
       <r>   -3.7453    1.0000 </r>
       <r>   -3.0783    1.0000 </r>
       <r>   -3.0227    1.0000 </r>
       <r>   -1.6946    1.0000 </r>
       <r>   -1.6367    1.0000 </r>
       <r>   -1.6127    1.0000 </r>
       <r>   -1.4697    1.0000 </r>
       <r>   -0.8737    1.0000 </r>
       <r>   -0.8342    1.0000 </r>
       <r>    1.9545   -0.0000 </r>
       <r>    2.0881   -0.0000 </r>
       <r>    2.3176   -0.0000 </r>
       <r>    2.4277   -0.0000 </r>
       <r>    3.1678    0.0000 </r>
       <r>    3.3646    0.0000 </r>
       <r>    4.1014    0.0000 </r>
       <r>    4.1157    0.0000 </r>
       <r>    7.2706    0.0000 </r>
       <r>    7.3790    0.0000 </r>
       <r>    7.5643    0.0000 </r>
       <r>    8.0984    0.0000 </r>
      </set>
      <set comment="kpoint 12">
       <r>  -35.1450    1.0000 </r>
       <r>  -35.1284    1.0000 </r>
       <r>  -34.9315    1.0000 </r>
       <r>  -34.9147    1.0000 </r>
       <r>  -34.9016    1.0000 </r>
       <r>  -34.8850    1.0000 </r>
       <r>  -12.2235    1.0000 </r>
       <r>  -12.1881    1.0000 </r>
       <r>  -11.9816    1.0000 </r>
       <r>  -11.9437    1.0000 </r>
       <r>   -5.5035    1.0000 </r>
       <r>   -5.4536    1.0000 </r>
       <r>   -4.6800    1.0000 </r>
       <r>   -4.6195    1.0000 </r>
       <r>   -3.9754    1.0000 </r>
       <r>   -3.8555    1.0000 </r>
       <r>   -3.1653    1.0000 </r>
       <r>   -3.1296    1.0000 </r>
       <r>   -1.9102    1.0000 </r>
       <r>   -1.7209    1.0000 </r>
       <r>   -1.5077    1.0000 </r>
       <r>   -1.4606    1.0000 </r>
       <r>   -0.6596    1.0000 </r>
       <r>   -0.6078    1.0000 </r>
       <r>    2.1012   -0.0000 </r>
       <r>    2.1539   -0.0000 </r>
       <r>    2.4910   -0.0000 </r>
       <r>    2.5870   -0.0000 </r>
       <r>    3.5691    0.0000 </r>
       <r>    3.7227    0.0000 </r>
       <r>    4.1067    0.0000 </r>
       <r>    4.1493    0.0000 </r>
       <r>    6.4752    0.0000 </r>
       <r>    6.8539    0.0000 </r>
       <r>    8.0005    0.0000 </r>
       <r>    8.2962    0.0000 </r>
      </set>
      <set comment="kpoint 13">
       <r>  -35.1638    1.0000 </r>
       <r>  -35.1472    1.0000 </r>
       <r>  -34.9275    1.0000 </r>
       <r>  -34.9107    1.0000 </r>
       <r>  -34.9070    1.0000 </r>
       <r>  -34.8903    1.0000 </r>
       <r>  -12.0887    1.0000 </r>
       <r>  -12.0586    1.0000 </r>
       <r>  -11.9282    1.0000 </r>
       <r>  -11.8968    1.0000 </r>
       <r>   -5.6197    1.0000 </r>
       <r>   -5.5768    1.0000 </r>
       <r>   -4.8215    1.0000 </r>
       <r>   -4.7677    1.0000 </r>
       <r>   -4.0448    1.0000 </r>
       <r>   -3.9298    1.0000 </r>
       <r>   -3.1841    1.0000 </r>
       <r>   -3.1618    1.0000 </r>
       <r>   -1.9948    1.0000 </r>
       <r>   -1.8072    1.0000 </r>
       <r>   -1.4378    1.0000 </r>
       <r>   -1.3975    1.0000 </r>
       <r>   -0.5268    1.0000 </r>
       <r>   -0.4653    1.0000 </r>
       <r>    2.1369   -0.0000 </r>
       <r>    2.1551   -0.0000 </r>
       <r>    2.6420   -0.0000 </r>
       <r>    2.6982   -0.0000 </r>
       <r>    3.8279    0.0000 </r>
       <r>    3.8909    0.0000 </r>
       <r>    3.9938    0.0000 </r>
       <r>    4.0827    0.0000 </r>
       <r>    6.0485    0.0000 </r>
       <r>    6.4605    0.0000 </r>
       <r>    8.3119    0.0000 </r>
       <r>    8.4114    0.0000 </r>
      </set>
      <set comment="kpoint 14">
       <r>  -35.1450    1.0000 </r>
       <r>  -35.1284    1.0000 </r>
       <r>  -34.9315    1.0000 </r>
       <r>  -34.9147    1.0000 </r>
       <r>  -34.9016    1.0000 </r>
       <r>  -34.8850    1.0000 </r>
       <r>  -12.2231    1.0000 </r>
       <r>  -12.1884    1.0000 </r>
       <r>  -11.9812    1.0000 </r>
       <r>  -11.9442    1.0000 </r>
       <r>   -5.5034    1.0000 </r>
       <r>   -5.4538    1.0000 </r>
       <r>   -4.6794    1.0000 </r>
       <r>   -4.6200    1.0000 </r>
       <r>   -3.9752    1.0000 </r>
       <r>   -3.8558    1.0000 </r>
       <r>   -3.1657    1.0000 </r>
       <r>   -3.1287    1.0000 </r>
       <r>   -1.9066    1.0000 </r>
       <r>   -1.7215    1.0000 </r>
       <r>   -1.4993    1.0000 </r>
       <r>   -1.4732    1.0000 </r>
       <r>   -0.6609    1.0000 </r>
       <r>   -0.6064    1.0000 </r>
       <r>    2.0990   -0.0000 </r>
       <r>    2.1567   -0.0000 </r>
       <r>    2.4920   -0.0000 </r>
       <r>    2.5858   -0.0000 </r>
       <r>    3.5817    0.0000 </r>
       <r>    3.7107    0.0000 </r>
       <r>    4.0982    0.0000 </r>
       <r>    4.1561    0.0000 </r>
       <r>    6.4753    0.0000 </r>
       <r>    6.8537    0.0000 </r>
       <r>    8.0134    0.0000 </r>
       <r>    8.2278    0.0000 </r>
      </set>
      <set comment="kpoint 15">
       <r>  -35.0927    1.0000 </r>
       <r>  -35.0761    1.0000 </r>
       <r>  -34.9427    1.0000 </r>
       <r>  -34.9259    1.0000 </r>
       <r>  -34.8867    1.0000 </r>
       <r>  -34.8701    1.0000 </r>
       <r>  -12.5670    1.0000 </r>
       <r>  -12.5237    1.0000 </r>
       <r>  -12.1196    1.0000 </r>
       <r>  -12.0696    1.0000 </r>
       <r>   -5.2236    1.0000 </r>
       <r>   -5.1438    1.0000 </r>
       <r>   -4.2946    1.0000 </r>
       <r>   -4.2114    1.0000 </r>
       <r>   -3.8728    1.0000 </r>
       <r>   -3.7467    1.0000 </r>
       <r>   -3.0778    1.0000 </r>
       <r>   -3.0223    1.0000 </r>
       <r>   -1.6802    1.0000 </r>
       <r>   -1.6415    1.0000 </r>
       <r>   -1.6151    1.0000 </r>
       <r>   -1.4787    1.0000 </r>
       <r>   -0.8740    1.0000 </r>
       <r>   -0.8342    1.0000 </r>
       <r>    1.9556   -0.0000 </r>
       <r>    2.0886   -0.0000 </r>
       <r>    2.3178   -0.0000 </r>
       <r>    2.4265   -0.0000 </r>
       <r>    3.1780    0.0000 </r>
       <r>    3.3536    0.0000 </r>
       <r>    4.0999    0.0000 </r>
       <r>    4.1178    0.0000 </r>
       <r>    7.2713    0.0000 </r>
       <r>    7.3791    0.0000 </r>
       <r>    7.5614    0.0000 </r>
       <r>    8.1115    0.0000 </r>
      </set>
      <set comment="kpoint 16">
       <r>  -35.0180    1.0000 </r>
       <r>  -35.0014    1.0000 </r>
       <r>  -34.9584    1.0000 </r>
       <r>  -34.9416    1.0000 </r>
       <r>  -34.8657    1.0000 </r>
       <r>  -34.8491    1.0000 </r>
       <r>  -12.9988    1.0000 </r>
       <r>  -12.9488    1.0000 </r>
       <r>  -12.2977    1.0000 </r>
       <r>  -12.2336    1.0000 </r>
       <r>   -5.0010    1.0000 </r>
       <r>   -4.8338    1.0000 </r>
       <r>   -3.8710    1.0000 </r>
       <r>   -3.7804    1.0000 </r>
       <r>   -3.7194    1.0000 </r>
       <r>   -3.6037    1.0000 </r>
       <r>   -2.8628    1.0000 </r>
       <r>   -2.8099    1.0000 </r>
       <r>   -1.8046    1.0000 </r>
       <r>   -1.7841    1.0000 </r>
       <r>   -1.3757    1.0000 </r>
       <r>   -1.1606    1.0000 </r>
       <r>   -0.8513    1.0000 </r>
       <r>   -0.8024    1.0000 </r>
       <r>    1.8497   -0.0000 </r>
       <r>    2.0526   -0.0000 </r>
       <r>    2.2798   -0.0000 </r>
       <r>    2.3610   -0.0000 </r>
       <r>    2.7488   -0.0000 </r>
       <r>    2.9382   -0.0000 </r>
       <r>    3.8907    0.0000 </r>
       <r>    3.9110    0.0000 </r>
       <r>    6.6937    0.0000 </r>
       <r>    6.7857    0.0000 </r>
       <r>    8.2078    0.0000 </r>
       <r>    8.4838    0.0000 </r>
      </set>
      <set comment="kpoint 17">
       <r>  -34.9750    1.0000 </r>
       <r>  -34.9582    1.0000 </r>
       <r>  -34.9377    1.0000 </r>
       <r>  -34.9211    1.0000 </r>
       <r>  -34.8433    1.0000 </r>
       <r>  -34.8267    1.0000 </r>
       <r>  -13.4092    1.0000 </r>
       <r>  -13.3554    1.0000 </r>
       <r>  -12.4698    1.0000 </r>
       <r>  -12.3934    1.0000 </r>
       <r>   -5.1231    1.0000 </r>
       <r>   -4.8647    1.0000 </r>
       <r>   -3.5696    1.0000 </r>
       <r>   -3.5466    1.0000 </r>
       <r>   -3.2345    1.0000 </r>
       <r>   -3.0090    1.0000 </r>
       <r>   -2.4692    1.0000 </r>
       <r>   -2.4464    1.0000 </r>
       <r>   -2.0871    1.0000 </r>
       <r>   -2.0694    1.0000 </r>
       <r>   -1.1668    1.0000 </r>
       <r>   -0.9073    1.0000 </r>
       <r>   -0.5461    1.0000 </r>
       <r>   -0.4269    1.0000 </r>
       <r>    1.9541   -0.0000 </r>
       <r>    2.1782   -0.0000 </r>
       <r>    2.3946   -0.0000 </r>
       <r>    2.4055   -0.0000 </r>
       <r>    2.4698   -0.0000 </r>
       <r>    2.6213   -0.0000 </r>
       <r>    3.5329    0.0000 </r>
       <r>    3.5524    0.0000 </r>
       <r>    6.1056    0.0000 </r>
       <r>    6.2110    0.0000 </r>
       <r>    7.8103    0.0000 </r>
       <r>    8.4828    0.0000 </r>
      </set>
      <set comment="kpoint 18">
       <r>  -34.9887    1.0000 </r>
       <r>  -34.9719    1.0000 </r>
       <r>  -34.8702    1.0000 </r>
       <r>  -34.8535    1.0000 </r>
       <r>  -34.8248    1.0000 </r>
       <r>  -34.8082    1.0000 </r>
       <r>  -13.7219    1.0000 </r>
       <r>  -13.6663    1.0000 </r>
       <r>  -12.6019    1.0000 </r>
       <r>  -12.5165    1.0000 </r>
       <r>   -5.4024    1.0000 </r>
       <r>   -5.1233    1.0000 </r>
       <r>   -3.1302    1.0000 </r>
       <r>   -3.1131    1.0000 </r>
       <r>   -2.7985    1.0000 </r>
       <r>   -2.4885    1.0000 </r>
       <r>   -2.3711    1.0000 </r>
       <r>   -2.3543    1.0000 </r>
       <r>   -1.9867    1.0000 </r>
       <r>   -1.9695    1.0000 </r>
       <r>   -1.1917    1.0000 </r>
       <r>   -0.8990    1.0000 </r>
       <r>   -0.3158    1.0000 </r>
       <r>   -0.0534    1.0001 </r>
       <r>    2.2991   -0.0000 </r>
       <r>    2.4146   -0.0000 </r>
       <r>    2.4591   -0.0000 </r>
       <r>    2.5331   -0.0000 </r>
       <r>    2.6155   -0.0000 </r>
       <r>    2.6409   -0.0000 </r>
       <r>    3.1218    0.0000 </r>
       <r>    3.1411    0.0000 </r>
       <r>    5.6692    0.0000 </r>
       <r>    5.7803    0.0000 </r>
       <r>    7.2589    0.0000 </r>
       <r>    7.6128    0.0000 </r>
      </set>
      <set comment="kpoint 19">
       <r>  -34.9965    1.0000 </r>
       <r>  -34.9797    1.0000 </r>
       <r>  -34.8312    1.0000 </r>
       <r>  -34.8147    1.0000 </r>
       <r>  -34.8146    1.0000 </r>
       <r>  -34.7982    1.0000 </r>
       <r>  -13.8897    1.0000 </r>
       <r>  -13.8334    1.0000 </r>
       <r>  -12.6729    1.0000 </r>
       <r>  -12.5828    1.0000 </r>
       <r>   -5.5845    1.0000 </r>
       <r>   -5.3020    1.0000 </r>
       <r>   -2.8169    1.0000 </r>
       <r>   -2.7999    1.0000 </r>
       <r>   -2.5392    1.0000 </r>
       <r>   -2.5225    1.0000 </r>
       <r>   -2.4593    1.0000 </r>
       <r>   -2.0755    1.0000 </r>
       <r>   -1.6739    1.0000 </r>
       <r>   -1.6565    1.0000 </r>
       <r>   -1.3532    1.0000 </r>
       <r>   -1.0800    1.0000 </r>
       <r>   -0.2417    1.0000 </r>
       <r>    0.1269    1.0348 </r>
       <r>    2.5889   -0.0000 </r>
       <r>    2.6066   -0.0000 </r>
       <r>    2.6474   -0.0000 </r>
       <r>    2.6935   -0.0000 </r>
       <r>    2.7759   -0.0000 </r>
       <r>    2.8052   -0.0000 </r>
       <r>    2.8416   -0.0000 </r>
       <r>    2.8631   -0.0000 </r>
       <r>    5.4244    0.0000 </r>
       <r>    5.5396    0.0000 </r>
       <r>    6.7422    0.0000 </r>
       <r>    6.9242    0.0000 </r>
      </set>
      <set comment="kpoint 20">
       <r>  -34.9998    1.0000 </r>
       <r>  -34.9832    1.0000 </r>
       <r>  -34.9607    1.0000 </r>
       <r>  -34.9439    1.0000 </r>
       <r>  -34.8697    1.0000 </r>
       <r>  -34.8530    1.0000 </r>
       <r>  -13.0605    1.0000 </r>
       <r>  -13.0091    1.0000 </r>
       <r>  -12.3225    1.0000 </r>
       <r>  -12.2553    1.0000 </r>
       <r>   -4.9521    1.0000 </r>
       <r>   -4.7581    1.0000 </r>
       <r>   -3.8127    1.0000 </r>
       <r>   -3.7411    1.0000 </r>
       <r>   -3.5260    1.0000 </r>
       <r>   -3.4032    1.0000 </r>
       <r>   -3.0978    1.0000 </r>
       <r>   -3.0021    1.0000 </r>
       <r>   -1.9561    1.0000 </r>
       <r>   -1.9374    1.0000 </r>
       <r>   -1.1424    1.0000 </r>
       <r>   -0.9446    1.0000 </r>
       <r>   -0.7837    1.0000 </r>
       <r>   -0.7408    1.0000 </r>
       <r>    1.7557   -0.0000 </r>
       <r>    1.9809   -0.0000 </r>
       <r>    2.3203   -0.0000 </r>
       <r>    2.3924   -0.0000 </r>
       <r>    2.5143   -0.0000 </r>
       <r>    2.7063   -0.0000 </r>
       <r>    3.9327    0.0000 </r>
       <r>    3.9666    0.0000 </r>
       <r>    6.6193    0.0000 </r>
       <r>    6.7171    0.0000 </r>
       <r>    8.3188    0.0000 </r>
       <r>    8.6258    0.0000 </r>
      </set>
      <set comment="kpoint 21">
       <r>  -35.0626    1.0000 </r>
       <r>  -35.0460    1.0000 </r>
       <r>  -34.9455    1.0000 </r>
       <r>  -34.9288    1.0000 </r>
       <r>  -34.9000    1.0000 </r>
       <r>  -34.8834    1.0000 </r>
       <r>  -12.6539    1.0000 </r>
       <r>  -12.6076    1.0000 </r>
       <r>  -12.1504    1.0000 </r>
       <r>  -12.0957    1.0000 </r>
       <r>   -5.0299    1.0000 </r>
       <r>   -4.9259    1.0000 </r>
       <r>   -4.1052    1.0000 </r>
       <r>   -4.0582    1.0000 </r>
       <r>   -3.7836    1.0000 </r>
       <r>   -3.6608    1.0000 </r>
       <r>   -3.3159    1.0000 </r>
       <r>   -3.1722    1.0000 </r>
       <r>   -2.0819    1.0000 </r>
       <r>   -2.0590    1.0000 </r>
       <r>   -1.3489    1.0000 </r>
       <r>   -1.2062    1.0000 </r>
       <r>   -0.8410    1.0000 </r>
       <r>   -0.8242    1.0000 </r>
       <r>    1.7830   -0.0000 </r>
       <r>    2.0348   -0.0000 </r>
       <r>    2.3879   -0.0000 </r>
       <r>    2.4382   -0.0000 </r>
       <r>    2.7746   -0.0000 </r>
       <r>    2.9618   -0.0000 </r>
       <r>    4.1918    0.0000 </r>
       <r>    4.2443    0.0000 </r>
       <r>    7.2595    0.0000 </r>
       <r>    7.3420    0.0000 </r>
       <r>    8.2199    0.0000 </r>
       <r>    8.5775    0.0000 </r>
      </set>
      <set comment="kpoint 22">
       <r>  -35.1132    1.0000 </r>
       <r>  -35.0967    1.0000 </r>
       <r>  -34.9329    1.0000 </r>
       <r>  -34.9260    1.0000 </r>
       <r>  -34.9162    1.0000 </r>
       <r>  -34.9093    1.0000 </r>
       <r>  -12.2784    1.0000 </r>
       <r>  -12.2402    1.0000 </r>
       <r>  -11.9923    1.0000 </r>
       <r>  -11.9510    1.0000 </r>
       <r>   -5.2290    1.0000 </r>
       <r>   -5.1659    1.0000 </r>
       <r>   -4.6450    1.0000 </r>
       <r>   -4.6111    1.0000 </r>
       <r>   -3.8064    1.0000 </r>
       <r>   -3.6847    1.0000 </r>
       <r>   -3.2860    1.0000 </r>
       <r>   -3.1709    1.0000 </r>
       <r>   -2.2248    1.0000 </r>
       <r>   -2.1715    1.0000 </r>
       <r>   -1.6782    1.0000 </r>
       <r>   -1.5551    1.0000 </r>
       <r>   -0.6697    1.0000 </r>
       <r>   -0.6451    1.0000 </r>
       <r>    2.0061   -0.0000 </r>
       <r>    2.2059   -0.0000 </r>
       <r>    2.5046   -0.0000 </r>
       <r>    2.5470   -0.0000 </r>
       <r>    3.1274    0.0000 </r>
       <r>    3.2766    0.0000 </r>
       <r>    4.2631    0.0000 </r>
       <r>    4.3479    0.0000 </r>
       <r>    7.1146    0.0000 </r>
       <r>    7.4368    0.0000 </r>
       <r>    8.0798    0.0000 </r>
       <r>    8.3372    0.0000 </r>
      </set>
      <set comment="kpoint 23">
       <r>  -35.1414    1.0000 </r>
       <r>  -35.1248    1.0000 </r>
       <r>  -34.9409    1.0000 </r>
       <r>  -34.9258    1.0000 </r>
       <r>  -34.9242    1.0000 </r>
       <r>  -34.9090    1.0000 </r>
       <r>  -12.0452    1.0000 </r>
       <r>  -12.0153    1.0000 </r>
       <r>  -11.8947    1.0000 </r>
       <r>  -11.8639    1.0000 </r>
       <r>   -5.3570    1.0000 </r>
       <r>   -5.3122    1.0000 </r>
       <r>   -4.9523    1.0000 </r>
       <r>   -4.9201    1.0000 </r>
       <r>   -3.9468    1.0000 </r>
       <r>   -3.8313    1.0000 </r>
       <r>   -3.1914    1.0000 </r>
       <r>   -3.1225    1.0000 </r>
       <r>   -2.2251    1.0000 </r>
       <r>   -2.1586    1.0000 </r>
       <r>   -1.9359    1.0000 </r>
       <r>   -1.8055    1.0000 </r>
       <r>   -0.4441    1.0000 </r>
       <r>   -0.4019    1.0000 </r>
       <r>    2.0563   -0.0000 </r>
       <r>    2.1041   -0.0000 </r>
       <r>    2.7579   -0.0000 </r>
       <r>    2.8476   -0.0000 </r>
       <r>    3.3972    0.0000 </r>
       <r>    3.4893    0.0000 </r>
       <r>    4.1995    0.0000 </r>
       <r>    4.3434    0.0000 </r>
       <r>    6.3936    0.0000 </r>
       <r>    6.8300    0.0000 </r>
       <r>    8.7592    0.0000 </r>
       <r>    8.9685    0.0000 </r>
      </set>
      <set comment="kpoint 24">
       <r>  -35.1414    1.0000 </r>
       <r>  -35.1248    1.0000 </r>
       <r>  -34.9409    1.0000 </r>
       <r>  -34.9258    1.0000 </r>
       <r>  -34.9242    1.0000 </r>
       <r>  -34.9090    1.0000 </r>
       <r>  -12.0445    1.0000 </r>
       <r>  -12.0157    1.0000 </r>
       <r>  -11.8943    1.0000 </r>
       <r>  -11.8646    1.0000 </r>
       <r>   -5.3569    1.0000 </r>
       <r>   -5.3125    1.0000 </r>
       <r>   -4.9520    1.0000 </r>
       <r>   -4.9203    1.0000 </r>
       <r>   -3.9467    1.0000 </r>
       <r>   -3.8313    1.0000 </r>
       <r>   -3.1918    1.0000 </r>
       <r>   -3.1217    1.0000 </r>
       <r>   -2.2171    1.0000 </r>
       <r>   -2.1636    1.0000 </r>
       <r>   -1.9385    1.0000 </r>
       <r>   -1.8072    1.0000 </r>
       <r>   -0.4442    1.0000 </r>
       <r>   -0.4017    1.0000 </r>
       <r>    2.0551   -0.0000 </r>
       <r>    2.1052   -0.0000 </r>
       <r>    2.7578   -0.0000 </r>
       <r>    2.8479   -0.0000 </r>
       <r>    3.4243    0.0000 </r>
       <r>    3.4611    0.0000 </r>
       <r>    4.1988    0.0000 </r>
       <r>    4.3440    0.0000 </r>
       <r>    6.3942    0.0000 </r>
       <r>    6.8303    0.0000 </r>
       <r>    8.7303    0.0000 </r>
       <r>    8.9290    0.0000 </r>
      </set>
      <set comment="kpoint 25">
       <r>  -35.1132    1.0000 </r>
       <r>  -35.0966    1.0000 </r>
       <r>  -34.9329    1.0000 </r>
       <r>  -34.9260    1.0000 </r>
       <r>  -34.9162    1.0000 </r>
       <r>  -34.9094    1.0000 </r>
       <r>  -12.2772    1.0000 </r>
       <r>  -12.2410    1.0000 </r>
       <r>  -11.9913    1.0000 </r>
       <r>  -11.9523    1.0000 </r>
       <r>   -5.2289    1.0000 </r>
       <r>   -5.1663    1.0000 </r>
       <r>   -4.6442    1.0000 </r>
       <r>   -4.6120    1.0000 </r>
       <r>   -3.8046    1.0000 </r>
       <r>   -3.6859    1.0000 </r>
       <r>   -3.2853    1.0000 </r>
       <r>   -3.1706    1.0000 </r>
       <r>   -2.2149    1.0000 </r>
       <r>   -2.1792    1.0000 </r>
       <r>   -1.6780    1.0000 </r>
       <r>   -1.5609    1.0000 </r>
       <r>   -0.6705    1.0000 </r>
       <r>   -0.6437    1.0000 </r>
       <r>    2.0043   -0.0000 </r>
       <r>    2.2088   -0.0000 </r>
       <r>    2.5062   -0.0000 </r>
       <r>    2.5446   -0.0000 </r>
       <r>    3.1476    0.0000 </r>
       <r>    3.2543    0.0000 </r>
       <r>    4.2630    0.0000 </r>
       <r>    4.3486    0.0000 </r>
       <r>    7.1130    0.0000 </r>
       <r>    7.4384    0.0000 </r>
       <r>    8.0950    0.0000 </r>
       <r>    8.3318    0.0000 </r>
      </set>
      <set comment="kpoint 26">
       <r>  -35.0626    1.0000 </r>
       <r>  -35.0460    1.0000 </r>
       <r>  -34.9455    1.0000 </r>
       <r>  -34.9288    1.0000 </r>
       <r>  -34.9000    1.0000 </r>
       <r>  -34.8834    1.0000 </r>
       <r>  -12.6529    1.0000 </r>
       <r>  -12.6084    1.0000 </r>
       <r>  -12.1493    1.0000 </r>
       <r>  -12.0970    1.0000 </r>
       <r>   -5.0302    1.0000 </r>
       <r>   -4.9258    1.0000 </r>
       <r>   -4.1044    1.0000 </r>
       <r>   -4.0602    1.0000 </r>
       <r>   -3.7762    1.0000 </r>
       <r>   -3.6659    1.0000 </r>
       <r>   -3.3144    1.0000 </r>
       <r>   -3.1733    1.0000 </r>
       <r>   -2.0832    1.0000 </r>
       <r>   -2.0572    1.0000 </r>
       <r>   -1.3401    1.0000 </r>
       <r>   -1.2190    1.0000 </r>
       <r>   -0.8458    1.0000 </r>
       <r>   -0.8200    1.0000 </r>
       <r>    1.7839   -0.0000 </r>
       <r>    2.0348   -0.0000 </r>
       <r>    2.3886   -0.0000 </r>
       <r>    2.4360   -0.0000 </r>
       <r>    2.7840   -0.0000 </r>
       <r>    2.9530   -0.0000 </r>
       <r>    4.1949    0.0000 </r>
       <r>    4.2422    0.0000 </r>
       <r>    7.2593    0.0000 </r>
       <r>    7.3419    0.0000 </r>
       <r>    8.1739    0.0000 </r>
       <r>    8.5287    0.0000 </r>
      </set>
      <set comment="kpoint 27">
       <r>  -34.9998    1.0000 </r>
       <r>  -34.9832    1.0000 </r>
       <r>  -34.9607    1.0000 </r>
       <r>  -34.9439    1.0000 </r>
       <r>  -34.8697    1.0000 </r>
       <r>  -34.8531    1.0000 </r>
       <r>  -13.0598    1.0000 </r>
       <r>  -13.0096    1.0000 </r>
       <r>  -12.3216    1.0000 </r>
       <r>  -12.2563    1.0000 </r>
       <r>   -4.9523    1.0000 </r>
       <r>   -4.7578    1.0000 </r>
       <r>   -3.8062    1.0000 </r>
       <r>   -3.7487    1.0000 </r>
       <r>   -3.5252    1.0000 </r>
       <r>   -3.4029    1.0000 </r>
       <r>   -3.0949    1.0000 </r>
       <r>   -3.0046    1.0000 </r>
       <r>   -1.9570    1.0000 </r>
       <r>   -1.9362    1.0000 </r>
       <r>   -1.1267    1.0000 </r>
       <r>   -0.9573    1.0000 </r>
       <r>   -0.7820    1.0000 </r>
       <r>   -0.7512    1.0000 </r>
       <r>    1.7583   -0.0000 </r>
       <r>    1.9802   -0.0000 </r>
       <r>    2.3213   -0.0000 </r>
       <r>    2.3912   -0.0000 </r>
       <r>    2.5184   -0.0000 </r>
       <r>    2.7042   -0.0000 </r>
       <r>    3.9320    0.0000 </r>
       <r>    3.9678    0.0000 </r>
       <r>    6.6197    0.0000 </r>
       <r>    6.7163    0.0000 </r>
       <r>    8.3160    0.0000 </r>
       <r>    8.6216    0.0000 </r>
      </set>
      <set comment="kpoint 28">
       <r>  -34.9750    1.0000 </r>
       <r>  -34.9582    1.0000 </r>
       <r>  -34.9377    1.0000 </r>
       <r>  -34.9211    1.0000 </r>
       <r>  -34.8433    1.0000 </r>
       <r>  -34.8267    1.0000 </r>
       <r>  -13.4090    1.0000 </r>
       <r>  -13.3555    1.0000 </r>
       <r>  -12.4695    1.0000 </r>
       <r>  -12.3937    1.0000 </r>
       <r>   -5.1229    1.0000 </r>
       <r>   -4.8649    1.0000 </r>
       <r>   -3.5665    1.0000 </r>
       <r>   -3.5497    1.0000 </r>
       <r>   -3.2343    1.0000 </r>
       <r>   -3.0096    1.0000 </r>
       <r>   -2.4698    1.0000 </r>
       <r>   -2.4453    1.0000 </r>
       <r>   -2.0872    1.0000 </r>
       <r>   -2.0693    1.0000 </r>
       <r>   -1.1574    1.0000 </r>
       <r>   -0.9147    1.0000 </r>
       <r>   -0.5432    1.0000 </r>
       <r>   -0.4354    1.0000 </r>
       <r>    1.9585   -0.0000 </r>
       <r>    2.1782   -0.0000 </r>
       <r>    2.3901   -0.0000 </r>
       <r>    2.4137   -0.0000 </r>
       <r>    2.4679   -0.0000 </r>
       <r>    2.6196   -0.0000 </r>
       <r>    3.5286    0.0000 </r>
       <r>    3.5562    0.0000 </r>
       <r>    6.1025    0.0000 </r>
       <r>    6.2101    0.0000 </r>
       <r>    7.8017    0.0000 </r>
       <r>    8.3066    0.0000 </r>
      </set>
      <set comment="kpoint 29">
       <r>  -34.9851    1.0000 </r>
       <r>  -34.9683    1.0000 </r>
       <r>  -34.8897    1.0000 </r>
       <r>  -34.8730    1.0000 </r>
       <r>  -34.8281    1.0000 </r>
       <r>  -34.8116    1.0000 </r>
       <r>  -13.6409    1.0000 </r>
       <r>  -13.5858    1.0000 </r>
       <r>  -12.5676    1.0000 </r>
       <r>  -12.4849    1.0000 </r>
       <r>   -5.3236    1.0000 </r>
       <r>   -5.0485    1.0000 </r>
       <r>   -3.2656    1.0000 </r>
       <r>   -3.2489    1.0000 </r>
       <r>   -2.9606    1.0000 </r>
       <r>   -2.6911    1.0000 </r>
       <r>   -2.2839    1.0000 </r>
       <r>   -2.2666    1.0000 </r>
       <r>   -2.0095    1.0000 </r>
       <r>   -1.9909    1.0000 </r>
       <r>   -1.2552    1.0000 </r>
       <r>   -0.9590    1.0000 </r>
       <r>   -0.3693    1.0000 </r>
       <r>   -0.1595    1.0000 </r>
       <r>    2.1865   -0.0000 </r>
       <r>    2.3544   -0.0000 </r>
       <r>    2.4992   -0.0000 </r>
       <r>    2.5435   -0.0000 </r>
       <r>    2.5830   -0.0000 </r>
       <r>    2.6061   -0.0000 </r>
       <r>    3.1849    0.0000 </r>
       <r>    3.2155    0.0000 </r>
       <r>    5.7805    0.0000 </r>
       <r>    5.8884    0.0000 </r>
       <r>    7.4210    0.0000 </r>
       <r>    7.8302    0.0000 </r>
      </set>
      <set comment="kpoint 30">
       <r>  -35.0951    1.0000 </r>
       <r>  -35.0785    1.0000 </r>
       <r>  -34.9416    1.0000 </r>
       <r>  -34.9334    1.0000 </r>
       <r>  -34.9250    1.0000 </r>
       <r>  -34.9166    1.0000 </r>
       <r>  -12.2990    1.0000 </r>
       <r>  -12.2597    1.0000 </r>
       <r>  -11.9953    1.0000 </r>
       <r>  -11.9525    1.0000 </r>
       <r>   -5.0846    1.0000 </r>
       <r>   -5.0108    1.0000 </r>
       <r>   -4.6268    1.0000 </r>
       <r>   -4.6086    1.0000 </r>
       <r>   -3.6573    1.0000 </r>
       <r>   -3.5431    1.0000 </r>
       <r>   -3.3461    1.0000 </r>
       <r>   -3.1968    1.0000 </r>
       <r>   -2.6077    1.0000 </r>
       <r>   -2.5898    1.0000 </r>
       <r>   -1.5512    1.0000 </r>
       <r>   -1.4683    1.0000 </r>
       <r>   -0.6961    1.0000 </r>
       <r>   -0.6763    1.0000 </r>
       <r>    1.9512   -0.0000 </r>
       <r>    2.2168   -0.0000 </r>
       <r>    2.5193   -0.0000 </r>
       <r>    2.5420   -0.0000 </r>
       <r>    2.9144   -0.0000 </r>
       <r>    3.0618    0.0000 </r>
       <r>    4.3696    0.0000 </r>
       <r>    4.4493    0.0000 </r>
       <r>    7.5869    0.0000 </r>
       <r>    7.7247    0.0000 </r>
       <r>    8.1263    0.0000 </r>
       <r>    8.3247    0.0000 </r>
      </set>
      <set comment="kpoint 31">
       <r>  -35.1119    1.0000 </r>
       <r>  -35.0953    1.0000 </r>
       <r>  -34.9772    1.0000 </r>
       <r>  -34.9605    1.0000 </r>
       <r>  -34.9248    1.0000 </r>
       <r>  -34.9081    1.0000 </r>
       <r>  -12.0249    1.0000 </r>
       <r>  -11.9944    1.0000 </r>
       <r>  -11.8728    1.0000 </r>
       <r>  -11.8416    1.0000 </r>
       <r>   -5.0705    1.0000 </r>
       <r>   -5.0407    1.0000 </r>
       <r>   -5.0250    1.0000 </r>
       <r>   -4.9970    1.0000 </r>
       <r>   -3.7339    1.0000 </r>
       <r>   -3.6343    1.0000 </r>
       <r>   -3.1937    1.0000 </r>
       <r>   -3.0762    1.0000 </r>
       <r>   -2.9747    1.0000 </r>
       <r>   -2.9072    1.0000 </r>
       <r>   -1.8749    1.0000 </r>
       <r>   -1.8066    1.0000 </r>
       <r>   -0.4282    1.0000 </r>
       <r>   -0.4060    1.0000 </r>
       <r>    1.9401   -0.0000 </r>
       <r>    2.0172   -0.0000 </r>
       <r>    2.8303   -0.0000 </r>
       <r>    2.9606   -0.0000 </r>
       <r>    3.0637    0.0000 </r>
       <r>    3.1685    0.0000 </r>
       <r>    4.4723    0.0000 </r>
       <r>    4.5720    0.0000 </r>
       <r>    6.9661    0.0000 </r>
       <r>    7.3147    0.0000 </r>
       <r>    8.3083    0.0000 </r>
       <r>    8.5533    0.0000 </r>
      </set>
      <set comment="kpoint 32">
       <r>  -35.1163    1.0000 </r>
       <r>  -35.0997    1.0000 </r>
       <r>  -34.9916    1.0000 </r>
       <r>  -34.9750    1.0000 </r>
       <r>  -34.9217    1.0000 </r>
       <r>  -34.9050    1.0000 </r>
       <r>  -11.9194    1.0000 </r>
       <r>  -11.8951    1.0000 </r>
       <r>  -11.8248    1.0000 </r>
       <r>  -11.8005    1.0000 </r>
       <r>   -5.2033    1.0000 </r>
       <r>   -5.1838    1.0000 </r>
       <r>   -4.9964    1.0000 </r>
       <r>   -4.9605    1.0000 </r>
       <r>   -3.8999    1.0000 </r>
       <r>   -3.7932    1.0000 </r>
       <r>   -3.0743    1.0000 </r>
       <r>   -3.0421    1.0000 </r>
       <r>   -2.9779    1.0000 </r>
       <r>   -2.9479    1.0000 </r>
       <r>   -2.0629    1.0000 </r>
       <r>   -1.9788    1.0000 </r>
       <r>   -0.2576    1.0000 </r>
       <r>   -0.2267    1.0000 </r>
       <r>    1.8217   -0.0000 </r>
       <r>    1.8420   -0.0000 </r>
       <r>    3.0357    0.0000 </r>
       <r>    3.1130    0.0000 </r>
       <r>    3.1674    0.0000 </r>
       <r>    3.2611    0.0000 </r>
       <r>    4.5077    0.0000 </r>
       <r>    4.6153    0.0000 </r>
       <r>    6.6149    0.0000 </r>
       <r>    7.0597    0.0000 </r>
       <r>    8.2028    0.0000 </r>
       <r>    8.6842    0.0000 </r>
      </set>
      <set comment="kpoint 33">
       <r>  -35.1119    1.0000 </r>
       <r>  -35.0953    1.0000 </r>
       <r>  -34.9771    1.0000 </r>
       <r>  -34.9605    1.0000 </r>
       <r>  -34.9248    1.0000 </r>
       <r>  -34.9081    1.0000 </r>
       <r>  -12.0230    1.0000 </r>
       <r>  -11.9957    1.0000 </r>
       <r>  -11.8713    1.0000 </r>
       <r>  -11.8437    1.0000 </r>
       <r>   -5.0706    1.0000 </r>
       <r>   -5.0420    1.0000 </r>
       <r>   -5.0238    1.0000 </r>
       <r>   -4.9975    1.0000 </r>
       <r>   -3.7332    1.0000 </r>
       <r>   -3.6328    1.0000 </r>
       <r>   -3.1914    1.0000 </r>
       <r>   -3.0773    1.0000 </r>
       <r>   -2.9664    1.0000 </r>
       <r>   -2.9161    1.0000 </r>
       <r>   -1.8848    1.0000 </r>
       <r>   -1.8005    1.0000 </r>
       <r>   -0.4284    1.0000 </r>
       <r>   -0.4052    1.0000 </r>
       <r>    1.9392   -0.0000 </r>
       <r>    2.0176   -0.0000 </r>
       <r>    2.8343   -0.0000 </r>
       <r>    2.9561   -0.0000 </r>
       <r>    3.0837    0.0000 </r>
       <r>    3.1465    0.0000 </r>
       <r>    4.4760    0.0000 </r>
       <r>    4.5668    0.0000 </r>
       <r>    6.9727    0.0000 </r>
       <r>    7.3291    0.0000 </r>
       <r>    8.3315    0.0000 </r>
       <r>    8.5846    0.0000 </r>
      </set>
      <set comment="kpoint 34">
       <r>  -35.0951    1.0000 </r>
       <r>  -35.0785    1.0000 </r>
       <r>  -34.9415    1.0000 </r>
       <r>  -34.9334    1.0000 </r>
       <r>  -34.9250    1.0000 </r>
       <r>  -34.9166    1.0000 </r>
       <r>  -12.2969    1.0000 </r>
       <r>  -12.2613    1.0000 </r>
       <r>  -11.9933    1.0000 </r>
       <r>  -11.9550    1.0000 </r>
       <r>   -5.0847    1.0000 </r>
       <r>   -5.0114    1.0000 </r>
       <r>   -4.6265    1.0000 </r>
       <r>   -4.6103    1.0000 </r>
       <r>   -3.6374    1.0000 </r>
       <r>   -3.5560    1.0000 </r>
       <r>   -3.3459    1.0000 </r>
       <r>   -3.2005    1.0000 </r>
       <r>   -2.6129    1.0000 </r>
       <r>   -2.5849    1.0000 </r>
       <r>   -1.5414    1.0000 </r>
       <r>   -1.4822    1.0000 </r>
       <r>   -0.6997    1.0000 </r>
       <r>   -0.6720    1.0000 </r>
       <r>    1.9493   -0.0000 </r>
       <r>    2.2178   -0.0000 </r>
       <r>    2.5208   -0.0000 </r>
       <r>    2.5406   -0.0000 </r>
       <r>    2.9234   -0.0000 </r>
       <r>    3.0509    0.0000 </r>
       <r>    4.3817    0.0000 </r>
       <r>    4.4378    0.0000 </r>
       <r>    7.6153    0.0000 </r>
       <r>    7.7043    0.0000 </r>
       <r>    8.1376    0.0000 </r>
       <r>    8.2599    0.0000 </r>
      </set>
      <set comment="kpoint 35">
       <r>  -35.0627    1.0000 </r>
       <r>  -35.0460    1.0000 </r>
       <r>  -34.9455    1.0000 </r>
       <r>  -34.9288    1.0000 </r>
       <r>  -34.9000    1.0000 </r>
       <r>  -34.8834    1.0000 </r>
       <r>  -12.6523    1.0000 </r>
       <r>  -12.6089    1.0000 </r>
       <r>  -12.1486    1.0000 </r>
       <r>  -12.0977    1.0000 </r>
       <r>   -5.0304    1.0000 </r>
       <r>   -4.9260    1.0000 </r>
       <r>   -4.1038    1.0000 </r>
       <r>   -4.0642    1.0000 </r>
       <r>   -3.7584    1.0000 </r>
       <r>   -3.6768    1.0000 </r>
       <r>   -3.3158    1.0000 </r>
       <r>   -3.1754    1.0000 </r>
       <r>   -2.0840    1.0000 </r>
       <r>   -2.0568    1.0000 </r>
       <r>   -1.3213    1.0000 </r>
       <r>   -1.2364    1.0000 </r>
       <r>   -0.8455    1.0000 </r>
       <r>   -0.8223    1.0000 </r>
       <r>    1.7822   -0.0000 </r>
       <r>    2.0350   -0.0000 </r>
       <r>    2.3897   -0.0000 </r>
       <r>    2.4379   -0.0000 </r>
       <r>    2.7767   -0.0000 </r>
       <r>    2.9610   -0.0000 </r>
       <r>    4.1993    0.0000 </r>
       <r>    4.2366    0.0000 </r>
       <r>    7.2596    0.0000 </r>
       <r>    7.3409    0.0000 </r>
       <r>    8.2208    0.0000 </r>
       <r>    8.5000    0.0000 </r>
      </set>
      <set comment="kpoint 36">
       <r>  -35.0181    1.0000 </r>
       <r>  -35.0014    1.0000 </r>
       <r>  -34.9584    1.0000 </r>
       <r>  -34.9416    1.0000 </r>
       <r>  -34.8657    1.0000 </r>
       <r>  -34.8491    1.0000 </r>
       <r>  -12.9981    1.0000 </r>
       <r>  -12.9493    1.0000 </r>
       <r>  -12.2968    1.0000 </r>
       <r>  -12.2345    1.0000 </r>
       <r>   -5.0013    1.0000 </r>
       <r>   -4.8337    1.0000 </r>
       <r>   -3.8612    1.0000 </r>
       <r>   -3.7905    1.0000 </r>
       <r>   -3.7170    1.0000 </r>
       <r>   -3.6054    1.0000 </r>
       <r>   -2.8634    1.0000 </r>
       <r>   -2.8094    1.0000 </r>
       <r>   -1.8054    1.0000 </r>
       <r>   -1.7838    1.0000 </r>
       <r>   -1.3524    1.0000 </r>
       <r>   -1.1811    1.0000 </r>
       <r>   -0.8442    1.0000 </r>
       <r>   -0.8166    1.0000 </r>
       <r>    1.8496   -0.0000 </r>
       <r>    2.0560   -0.0000 </r>
       <r>    2.2783   -0.0000 </r>
       <r>    2.3647   -0.0000 </r>
       <r>    2.7453   -0.0000 </r>
       <r>    2.9427   -0.0000 </r>
       <r>    3.8809    0.0000 </r>
       <r>    3.9190    0.0000 </r>
       <r>    6.6952    0.0000 </r>
       <r>    6.7830    0.0000 </r>
       <r>    8.1793    0.0000 </r>
       <r>    8.5295    0.0000 </r>
      </set>
      <set comment="kpoint 37">
       <r>  -34.9712    1.0000 </r>
       <r>  -34.9690    1.0000 </r>
       <r>  -34.9546    1.0000 </r>
       <r>  -34.9522    1.0000 </r>
       <r>  -34.8470    1.0000 </r>
       <r>  -34.8304    1.0000 </r>
       <r>  -13.2650    1.0000 </r>
       <r>  -13.2131    1.0000 </r>
       <r>  -12.4094    1.0000 </r>
[...]
       <r>    -2.2205     1.4194    18.3840 </r>
       <r>    -2.0585     3.1059    18.8872 </r>
       <r>    -1.8965     3.7971    19.5023 </r>
       <r>    -1.7345     3.5101    20.0709 </r>
       <r>    -1.5725     2.9838    20.5543 </r>
       <r>    -1.4105     3.2104    21.0744 </r>
       <r>    -1.2485     1.6874    21.3477 </r>
       <r>    -1.0865     2.3265    21.7246 </r>
       <r>    -0.9245     1.6356    21.9896 </r>
       <r>    -0.7625     3.7139    22.5913 </r>
       <r>    -0.6005     2.9367    23.0670 </r>
       <r>    -0.4385     2.0804    23.4040 </r>
       <r>    -0.2765     2.0148    23.7304 </r>
       <r>    -0.1145     1.0764    23.9048 </r>
       <r>     0.0475     0.3439    23.9605 </r>
       <r>     0.2095     0.2250    23.9970 </r>
       <r>     0.3715     0.0199    24.0002 </r>
       <r>     0.5335    -0.0011    24.0000 </r>
       <r>     0.6955    -0.0000    24.0000 </r>
       <r>     0.8575    -0.0000    24.0000 </r>
       <r>     1.0195    -0.0000    24.0000 </r>
       <r>     1.1815    -0.0000    24.0000 </r>
       <r>     1.3435    -0.0000    24.0000 </r>
       <r>     1.5055    -0.0076    23.9988 </r>
       <r>     1.6675     0.1438    24.0221 </r>
       <r>     1.8295     1.1720    24.2119 </r>
       <r>     1.9915     2.6163    24.6358 </r>
       <r>     2.1535     5.3192    25.4975 </r>
       <r>     2.3155     3.5450    26.0717 </r>
       <r>     2.4775     4.8917    26.8642 </r>
       <r>     2.6395     5.0155    27.6767 </r>
       <r>     2.8015     3.3423    28.2182 </r>
       <r>     2.9635     2.9928    28.7030 </r>
       <r>     3.1255     2.5689    29.1192 </r>
       <r>     3.2875     2.6495    29.5484 </r>
       <r>     3.4495     1.5929    29.8064 </r>
       <r>     3.6115     2.0912    30.1452 </r>
       <r>     3.7735     1.0105    30.3089 </r>
       <r>     3.9355     1.8840    30.6141 </r>
       <r>     4.0975     1.9647    30.9324 </r>
       <r>     4.2595     3.0528    31.4269 </r>
       <r>     4.4215     1.6378    31.6923 </r>
       <r>     4.5835     1.1743    31.8825 </r>
       <r>     4.7455     0.6585    31.9892 </r>
       <r>     4.9075     0.0702    32.0006 </r>
       <r>     5.0695    -0.0037    32.0000 </r>
       <r>     5.2315     0.0014    32.0002 </r>
       <r>     5.3935     0.1006    32.0165 </r>
       <r>     5.5555     0.3286    32.0697 </r>
       <r>     5.7175     0.2996    32.1183 </r>
       <r>     5.8795     0.5376    32.2053 </r>
       <r>     6.0415     0.2497    32.2458 </r>
       <r>     6.2035     0.8859    32.3893 </r>
       <r>     6.3655     0.7690    32.5139 </r>
       <r>     6.5275     1.0720    32.6876 </r>
       <r>     6.6895     0.9681    32.8444 </r>
       <r>     6.8515     1.7979    33.1356 </r>
       <r>     7.0135     1.4349    33.3681 </r>
       <r>     7.1755     0.9900    33.5285 </r>
       <r>     7.3375     2.0780    33.8651 </r>
       <r>     7.4995     1.3709    34.0872 </r>
       <r>     7.6615     1.0467    34.2567 </r>
       <r>     7.8235     0.8581    34.3958 </r>
       <r>     7.9855     1.5497    34.6468 </r>
       <r>     8.1475     1.7600    34.9319 </r>
       <r>     8.3095     2.6167    35.3558 </r>
       <r>     8.4715     1.4119    35.5846 </r>
       <r>     8.6335     1.3638    35.8055 </r>
       <r>     8.7955     0.7187    35.9219 </r>
       <r>     8.9575     0.3631    35.9808 </r>
       <r>     9.1195     0.1244    36.0009 </r>
       <r>     9.2815    -0.0056    36.0000 </r>
       <r>     9.4435    -0.0000    36.0000 </r>
       <r>     9.6055    -0.0000    36.0000 </r>
       <r>     9.7675     0.0000    36.0000 </r>
       <r>     9.9295     0.0000    36.0000 </r>
       <r>    10.0915     0.0000    36.0000 </r>
       <r>    10.2535     0.0000    36.0000 </r>
       <r>    10.4155     0.0000    36.0000 </r>
       <r>    10.5775     0.0000    36.0000 </r>
       <r>    10.7395     0.0000    36.0000 </r>
       <r>    10.9015     0.0000    36.0000 </r>
       <r>    11.0635     0.0000    36.0000 </r>
       <r>    11.2255     0.0000    36.0000 </r>
      </set>
      <set comment="spin 2">
       <r>   -37.3743     0.0000     0.0000 </r>
       <r>   -37.2123     0.0000     0.0000 </r>
       <r>   -37.0503     0.0000     0.0000 </r>
       <r>   -36.8883     0.0000     0.0000 </r>
       <r>   -36.7263     0.0000     0.0000 </r>
       <r>   -36.5643     0.0000     0.0000 </r>
       <r>   -36.4023     0.0000     0.0000 </r>
       <r>   -36.2403     0.0000     0.0000 </r>
       <r>   -36.0783    -0.0000    -0.0000 </r>
       <r>   -35.9163    -0.0000    -0.0000 </r>
       <r>   -35.7543    -0.0000    -0.0000 </r>
       <r>   -35.5923    -0.0000    -0.0000 </r>
       <r>   -35.4303    -0.0007    -0.0001 </r>
       <r>   -35.2683    -0.1768    -0.0287 </r>
       <r>   -35.1063     3.8631     0.5971 </r>
       <r>   -34.9443    14.6648     2.9728 </r>
       <r>   -34.7823    18.5675     5.9807 </r>
       <r>   -34.6203     0.1521     6.0053 </r>
       <r>   -34.4583    -0.0329     6.0000 </r>
       <r>   -34.2963    -0.0000     6.0000 </r>
       <r>   -34.1343    -0.0000     6.0000 </r>
       <r>   -33.9723     0.0000     6.0000 </r>
       <r>   -33.8103     0.0000     6.0000 </r>
       <r>   -33.6483     0.0000     6.0000 </r>
       <r>   -33.4863     0.0000     6.0000 </r>
       <r>   -33.3243     0.0000     6.0000 </r>
       <r>   -33.1623     0.0000     6.0000 </r>
       <r>   -33.0003     0.0000     6.0000 </r>
       <r>   -32.8383     0.0000     6.0000 </r>
       <r>   -32.6763     0.0000     6.0000 </r>
       <r>   -32.5143     0.0000     6.0000 </r>
       <r>   -32.3523     0.0000     6.0000 </r>
       <r>   -32.1903     0.0000     6.0000 </r>
       <r>   -32.0284     0.0000     6.0000 </r>
       <r>   -31.8664     0.0000     6.0000 </r>
       <r>   -31.7044     0.0000     6.0000 </r>
       <r>   -31.5424     0.0000     6.0000 </r>
       <r>   -31.3804     0.0000     6.0000 </r>
       <r>   -31.2184     0.0000     6.0000 </r>
       <r>   -31.0564     0.0000     6.0000 </r>
       <r>   -30.8944     0.0000     6.0000 </r>
       <r>   -30.7324     0.0000     6.0000 </r>
       <r>   -30.5704     0.0000     6.0000 </r>
       <r>   -30.4084     0.0000     6.0000 </r>
       <r>   -30.2464     0.0000     6.0000 </r>
       <r>   -30.0844     0.0000     6.0000 </r>
       <r>   -29.9224     0.0000     6.0000 </r>
       <r>   -29.7604     0.0000     6.0000 </r>
       <r>   -29.5984     0.0000     6.0000 </r>
       <r>   -29.4364     0.0000     6.0000 </r>
       <r>   -29.2744     0.0000     6.0000 </r>
       <r>   -29.1124     0.0000     6.0000 </r>
       <r>   -28.9504     0.0000     6.0000 </r>
       <r>   -28.7884     0.0000     6.0000 </r>
       <r>   -28.6264     0.0000     6.0000 </r>
       <r>   -28.4644     0.0000     6.0000 </r>
       <r>   -28.3024     0.0000     6.0000 </r>
       <r>   -28.1404     0.0000     6.0000 </r>
       <r>   -27.9784     0.0000     6.0000 </r>
       <r>   -27.8164     0.0000     6.0000 </r>
       <r>   -27.6544     0.0000     6.0000 </r>
       <r>   -27.4924     0.0000     6.0000 </r>
       <r>   -27.3304     0.0000     6.0000 </r>
       <r>   -27.1684     0.0000     6.0000 </r>
       <r>   -27.0064     0.0000     6.0000 </r>
       <r>   -26.8444     0.0000     6.0000 </r>
       <r>   -26.6824     0.0000     6.0000 </r>
       <r>   -26.5204     0.0000     6.0000 </r>
       <r>   -26.3584     0.0000     6.0000 </r>
       <r>   -26.1964     0.0000     6.0000 </r>
       <r>   -26.0344     0.0000     6.0000 </r>
       <r>   -25.8724     0.0000     6.0000 </r>
       <r>   -25.7104     0.0000     6.0000 </r>
       <r>   -25.5484     0.0000     6.0000 </r>
       <r>   -25.3864     0.0000     6.0000 </r>
       <r>   -25.2244     0.0000     6.0000 </r>
       <r>   -25.0624     0.0000     6.0000 </r>
       <r>   -24.9004     0.0000     6.0000 </r>
       <r>   -24.7384     0.0000     6.0000 </r>
       <r>   -24.5764     0.0000     6.0000 </r>
       <r>   -24.4144     0.0000     6.0000 </r>
       <r>   -24.2524     0.0000     6.0000 </r>
       <r>   -24.0904     0.0000     6.0000 </r>
       <r>   -23.9284     0.0000     6.0000 </r>
       <r>   -23.7664     0.0000     6.0000 </r>
       <r>   -23.6044     0.0000     6.0000 </r>
       <r>   -23.4424     0.0000     6.0000 </r>
       <r>   -23.2804     0.0000     6.0000 </r>
       <r>   -23.1184     0.0000     6.0000 </r>
       <r>   -22.9564     0.0000     6.0000 </r>
       <r>   -22.7944     0.0000     6.0000 </r>
       <r>   -22.6324     0.0000     6.0000 </r>
       <r>   -22.4704     0.0000     6.0000 </r>
       <r>   -22.3084     0.0000     6.0000 </r>
       <r>   -22.1464     0.0000     6.0000 </r>
       <r>   -21.9844     0.0000     6.0000 </r>
       <r>   -21.8224     0.0000     6.0000 </r>
       <r>   -21.6604     0.0000     6.0000 </r>
       <r>   -21.4984     0.0000     6.0000 </r>
       <r>   -21.3364     0.0000     6.0000 </r>
       <r>   -21.1744     0.0000     6.0000 </r>
       <r>   -21.0124     0.0000     6.0000 </r>
       <r>   -20.8504     0.0000     6.0000 </r>
       <r>   -20.6884     0.0000     6.0000 </r>
       <r>   -20.5264     0.0000     6.0000 </r>
       <r>   -20.3644     0.0000     6.0000 </r>
       <r>   -20.2024     0.0000     6.0000 </r>
       <r>   -20.0404     0.0000     6.0000 </r>
       <r>   -19.8784     0.0000     6.0000 </r>
       <r>   -19.7164     0.0000     6.0000 </r>
       <r>   -19.5544     0.0000     6.0000 </r>
       <r>   -19.3924     0.0000     6.0000 </r>
       <r>   -19.2304     0.0000     6.0000 </r>
       <r>   -19.0684     0.0000     6.0000 </r>
       <r>   -18.9064     0.0000     6.0000 </r>
       <r>   -18.7444     0.0000     6.0000 </r>
       <r>   -18.5824     0.0000     6.0000 </r>
       <r>   -18.4204     0.0000     6.0000 </r>
       <r>   -18.2584     0.0000     6.0000 </r>
       <r>   -18.0964     0.0000     6.0000 </r>
       <r>   -17.9344     0.0000     6.0000 </r>
       <r>   -17.7724     0.0000     6.0000 </r>
       <r>   -17.6104     0.0000     6.0000 </r>
       <r>   -17.4484     0.0000     6.0000 </r>
       <r>   -17.2864     0.0000     6.0000 </r>
       <r>   -17.1244     0.0000     6.0000 </r>
       <r>   -16.9624     0.0000     6.0000 </r>
       <r>   -16.8004     0.0000     6.0000 </r>
       <r>   -16.6384     0.0000     6.0000 </r>
       <r>   -16.4764     0.0000     6.0000 </r>
       <r>   -16.3144     0.0000     6.0000 </r>
       <r>   -16.1524     0.0000     6.0000 </r>
       <r>   -15.9904     0.0000     6.0000 </r>
       <r>   -15.8284     0.0000     6.0000 </r>
       <r>   -15.6664     0.0000     6.0000 </r>
       <r>   -15.5044     0.0000     6.0000 </r>
       <r>   -15.3424     0.0000     6.0000 </r>
       <r>   -15.1804     0.0000     6.0000 </r>
       <r>   -15.0184     0.0000     6.0000 </r>
       <r>   -14.8564    -0.0000     6.0000 </r>
       <r>   -14.6944    -0.0000     6.0000 </r>
       <r>   -14.5324    -0.0000     6.0000 </r>
       <r>   -14.3704    -0.0000     6.0000 </r>
       <r>   -14.2084    -0.0001     6.0000 </r>
       <r>   -14.0464    -0.0062     5.9990 </r>
       <r>   -13.8844     0.2124     6.0334 </r>
       <r>   -13.7224     0.4415     6.1049 </r>
       <r>   -13.5604     0.6710     6.2136 </r>
       <r>   -13.3984     0.3958     6.2777 </r>
       <r>   -13.2364     0.7961     6.4067 </r>
       <r>   -13.0744     0.2919     6.4540 </r>
       <r>   -12.9124     1.1250     6.6362 </r>
       <r>   -12.7504     0.4296     6.7058 </r>
       <r>   -12.5884     1.5356     6.9546 </r>
       <r>   -12.4264     2.3220     7.3308 </r>
       <r>   -12.2644     2.6418     7.7587 </r>
       <r>   -12.1024     3.8944     8.3896 </r>
       <r>   -11.9404     5.4775     9.2770 </r>
       <r>   -11.7784     4.2410     9.9640 </r>
       <r>   -11.6164     0.2375    10.0025 </r>
       <r>   -11.4544    -0.0154    10.0000 </r>
       <r>   -11.2924    -0.0000    10.0000 </r>
       <r>   -11.1304    -0.0000    10.0000 </r>
       <r>   -10.9684     0.0000    10.0000 </r>
       <r>   -10.8064     0.0000    10.0000 </r>
       <r>   -10.6444     0.0000    10.0000 </r>
       <r>   -10.4824     0.0000    10.0000 </r>
       <r>   -10.3204     0.0000    10.0000 </r>
       <r>   -10.1584     0.0000    10.0000 </r>
       <r>    -9.9964     0.0000    10.0000 </r>
       <r>    -9.8344     0.0000    10.0000 </r>
       <r>    -9.6724     0.0000    10.0000 </r>
       <r>    -9.5104     0.0000    10.0000 </r>
       <r>    -9.3484     0.0000    10.0000 </r>
       <r>    -9.1864     0.0000    10.0000 </r>
       <r>    -9.0244     0.0000    10.0000 </r>
       <r>    -8.8624     0.0000    10.0000 </r>
       <r>    -8.7004     0.0000    10.0000 </r>
       <r>    -8.5384     0.0000    10.0000 </r>
       <r>    -8.3764     0.0000    10.0000 </r>
       <r>    -8.2144     0.0000    10.0000 </r>
       <r>    -8.0524     0.0000    10.0000 </r>
       <r>    -7.8904     0.0000    10.0000 </r>
       <r>    -7.7284     0.0000    10.0000 </r>
       <r>    -7.5664     0.0000    10.0000 </r>
       <r>    -7.4044     0.0000    10.0000 </r>
       <r>    -7.2425     0.0000    10.0000 </r>
       <r>    -7.0805     0.0000    10.0000 </r>
       <r>    -6.9185     0.0000    10.0000 </r>
       <r>    -6.7565     0.0000    10.0000 </r>
       <r>    -6.5945    -0.0000    10.0000 </r>
       <r>    -6.4325    -0.0000    10.0000 </r>
       <r>    -6.2705    -0.0000    10.0000 </r>
       <r>    -6.1085    -0.0000    10.0000 </r>
       <r>    -5.9465    -0.0001    10.0000 </r>
       <r>    -5.7845    -0.0217     9.9965 </r>
       <r>    -5.6225     0.5197    10.0807 </r>
       <r>    -5.4605     1.2534    10.2837 </r>
       <r>    -5.2985     2.0916    10.6225 </r>
       <r>    -5.1365     2.7733    11.0718 </r>
       <r>    -4.9745     4.7059    11.8342 </r>
       <r>    -4.8125     2.9342    12.3095 </r>
       <r>    -4.6505     2.2641    12.6763 </r>
       <r>    -4.4885     1.6687    12.9466 </r>
       <r>    -4.3265     0.3744    13.0073 </r>
       <r>    -4.1645     0.7454    13.1280 </r>
       <r>    -4.0025     1.5355    13.3768 </r>
       <r>    -3.8405     3.7823    13.9895 </r>
       <r>    -3.6785     5.1596    14.8254 </r>
       <r>    -3.5165     2.7950    15.2782 </r>
       <r>    -3.3545     1.1756    15.4686 </r>
       <r>    -3.1925     3.1497    15.9789 </r>
       <r>    -3.0305     5.4734    16.8656 </r>
       <r>    -2.8685     3.2514    17.3923 </r>
       <r>    -2.7065     1.8093    17.6854 </r>
       <r>    -2.5445     0.9034    17.8317 </r>
       <r>    -2.3825     1.9900    18.1541 </r>
       <r>    -2.2205     1.4194    18.3840 </r>
       <r>    -2.0585     3.1062    18.8872 </r>
       <r>    -1.8965     3.7974    19.5024 </r>
       <r>    -1.7345     3.5099    20.0710 </r>
       <r>    -1.5725     2.9837    20.5544 </r>
       <r>    -1.4105     3.2104    21.0745 </r>
       <r>    -1.2485     1.6873    21.3478 </r>
       <r>    -1.0865     2.3265    21.7247 </r>
       <r>    -0.9245     1.6360    21.9897 </r>
       <r>    -0.7625     3.7133    22.5913 </r>
       <r>    -0.6005     2.9368    23.0670 </r>
       <r>    -0.4385     2.0804    23.4041 </r>
       <r>    -0.2765     2.0148    23.7305 </r>
       <r>    -0.1145     1.0763    23.9048 </r>
       <r>     0.0475     0.3438    23.9605 </r>
       <r>     0.2095     0.2250    23.9970 </r>
       <r>     0.3715     0.0198    24.0002 </r>
       <r>     0.5335    -0.0011    24.0000 </r>
       <r>     0.6955    -0.0000    24.0000 </r>
       <r>     0.8575    -0.0000    24.0000 </r>
       <r>     1.0195    -0.0000    24.0000 </r>
       <r>     1.1815    -0.0000    24.0000 </r>
       <r>     1.3435    -0.0000    24.0000 </r>
       <r>     1.5055    -0.0076    23.9988 </r>
       <r>     1.6675     0.1438    24.0221 </r>
       <r>     1.8295     1.1721    24.2120 </r>
       <r>     1.9915     2.6167    24.6359 </r>
       <r>     2.1535     5.3192    25.4976 </r>
       <r>     2.3155     3.5450    26.0719 </r>
       <r>     2.4775     4.8920    26.8644 </r>
       <r>     2.6395     5.0150    27.6768 </r>
       <r>     2.8015     3.3423    28.2182 </r>
       <r>     2.9635     2.9928    28.7031 </r>
       <r>     3.1255     2.5690    29.1193 </r>
       <r>     3.2875     2.6492    29.5484 </r>
       <r>     3.4495     1.5929    29.8065 </r>
       <r>     3.6115     2.0912    30.1452 </r>
       <r>     3.7735     1.0105    30.3089 </r>
       <r>     3.9355     1.8842    30.6142 </r>
       <r>     4.0975     1.9649    30.9325 </r>
       <r>     4.2595     3.0528    31.4270 </r>
       <r>     4.4215     1.6376    31.6923 </r>
       <r>     4.5835     1.1743    31.8825 </r>
       <r>     4.7455     0.6584    31.9892 </r>
       <r>     4.9075     0.0701    32.0006 </r>
       <r>     5.0695    -0.0036    32.0000 </r>
       <r>     5.2315     0.0001    32.0000 </r>
       <r>     5.3935     0.1054    32.0171 </r>
       <r>     5.5555     0.3237    32.0695 </r>
       <r>     5.7175     0.3090    32.1196 </r>
       <r>     5.8795     0.5287    32.2052 </r>
       <r>     6.0415     0.2525    32.2461 </r>
       <r>     6.2035     0.8828    32.3891 </r>
       <r>     6.3655     0.7721    32.5142 </r>
       <r>     6.5275     1.0564    32.6853 </r>
       <r>     6.6895     0.9305    32.8361 </r>
       <r>     6.8515     1.8167    33.1304 </r>
       <r>     7.0135     1.2451    33.3321 </r>
       <r>     7.1755     1.0577    33.5034 </r>
       <r>     7.3375     2.2573    33.8691 </r>
       <r>     7.4995     1.3535    34.0884 </r>
       <r>     7.6615     1.0016    34.2506 </r>
       <r>     7.8235     1.0148    34.4150 </r>
       <r>     7.9855     1.3843    34.6393 </r>
       <r>     8.1475     1.6830    34.9119 </r>
       <r>     8.3095     2.8230    35.3693 </r>
       <r>     8.4715     1.2739    35.5756 </r>
       <r>     8.6335     1.0318    35.7428 </r>
       <r>     8.7955     0.7516    35.8645 </r>
       <r>     8.9575     0.6718    35.9734 </r>
       <r>     9.1195     0.1703    36.0010 </r>
       <r>     9.2815    -0.0059    36.0000 </r>
       <r>     9.4435    -0.0001    36.0000 </r>
       <r>     9.6055    -0.0000    36.0000 </r>
       <r>     9.7675    -0.0000    36.0000 </r>
       <r>     9.9295     0.0000    36.0000 </r>
       <r>    10.0915     0.0000    36.0000 </r>
       <r>    10.2535     0.0000    36.0000 </r>
       <r>    10.4155     0.0000    36.0000 </r>
       <r>    10.5775     0.0000    36.0000 </r>
       <r>    10.7395     0.0000    36.0000 </r>
       <r>    10.9015     0.0000    36.0000 </r>
       <r>    11.0635     0.0000    36.0000 </r>
       <r>    11.2255     0.0000    36.0000 </r>
      </set>
     </set>
    </array>
   </total>
  </dos>
 </calculation>
 <structure name="finalpos" >
  <crystal>
   <varray name="basis" >
    <v>       3.19031700       0.00000000       0.00000000 </v>
    <v>      -1.59515800       2.76289700       0.00000000 </v>
    <v>       0.00000000       0.00000000      23.14049200 </v>
   </varray>
   <i name="volume">    203.97226633 </i>
   <varray name="rec_basis" >
    <v>       0.31344848       0.18096941       0.00000000 </v>
    <v>       0.00000000       0.36193894       0.00000000 </v>
    <v>       0.00000000       0.00000000       0.04321429 </v>
   </varray>
  </crystal>
  <varray name="positions" >
   <v>       0.66666700       0.33333300       0.06785900 </v>
   <v>       0.33333300       0.66666700       0.00000000 </v>
   <v>       0.33333300       0.66666700       0.13571500 </v>
   <v>       0.95238100       0.04761900       0.35482300 </v>
   <v>       0.61904700       0.38095300       0.28696500 </v>
   <v>       0.61904700       0.38095300       0.42267900 </v>
  </varray>
 </structure>
</modeling>
