<?xml version="1.0" encoding="ISO-8859-1"?>
<modeling>
 <generator>
  <i name="program" type="string">vasp </i>
  <i name="version" type="string">5.3.5  </i>
  <i name="subversion" type="string">31Mar14 (build Oct 29 2014 16:16:03) complex                          parallel </i>
  <i name="platform" type="string">Linux-UFHPC </i>
  <i name="date" type="string">2016 02 09 </i>
  <i name="time" type="string">18:05:40 </i>
 </generator>
 <incar>
  <i type="string" name="PREC">accurate</i>
  <i type="int" name="IBRION">     2</i>
  <i name="EDIFF">      0.00000100</i>
  <i type="int" name="NSW">     0</i>
  <i type="int" name="ISIF">     3</i>
  <i name="ENCUT">    300.00000000</i>
  <i type="string" name="LREAL"> Auto</i>
  <i type="int" name="ISMEAR">     0</i>
  <i name="SIGMA">      0.10000000</i>
  <i type="logical" name="LWAVE"> F  </i>
  <i type="logical" name="LCHARG"> F  </i>
  <i type="logical" name="LAECHG"> F  </i>
  <i type="string" name="GGA"> Bo</i>
  <i name="PARAM1">      0.18333333</i>
  <i name="PARAM2">      0.22000000</i>
  <i type="logical" name="LUSE_VDW"> T  </i>
  <i name="AGGAC">      0.00000000</i>
 </incar>
 <kpoints>
  <generation param="Gamma">
   <v type="int" name="divisions">      13        4        2 </v>
   <v name="usershift">      0.00000000       0.00000000       0.00000000 </v>
   <v name="genvec1">      0.07692308      -0.00000000       0.00000000 </v>
   <v name="genvec2">      0.00000000       0.25000000       0.00000000 </v>
   <v name="genvec3">      0.00000000       0.00000000       0.50000000 </v>
   <v name="shift">      0.00000000       0.00000000       0.00000000 </v>
  </generation>
  <varray name="kpointlist" >
   <v>       0.00000000       0.00000000       0.00000000 </v>
   <v>       0.07692308      -0.00000000       0.00000000 </v>
   <v>       0.15384615      -0.00000000       0.00000000 </v>
   <v>       0.23076923      -0.00000000       0.00000000 </v>
   <v>       0.30769231      -0.00000000       0.00000000 </v>
   <v>       0.38461538      -0.00000000       0.00000000 </v>
   <v>       0.46153846      -0.00000000       0.00000000 </v>
   <v>       0.00000000       0.25000000       0.00000000 </v>
   <v>       0.07692308       0.25000000       0.00000000 </v>
   <v>       0.15384615       0.25000000       0.00000000 </v>
   <v>       0.23076923       0.25000000       0.00000000 </v>
   <v>       0.30769231       0.25000000       0.00000000 </v>
   <v>       0.38461538       0.25000000       0.00000000 </v>
   <v>       0.46153846       0.25000000       0.00000000 </v>
   <v>      -0.46153846       0.25000000       0.00000000 </v>
   <v>      -0.38461538       0.25000000       0.00000000 </v>
   <v>      -0.30769231       0.25000000       0.00000000 </v>
   <v>      -0.23076923       0.25000000       0.00000000 </v>
   <v>      -0.15384615       0.25000000       0.00000000 </v>
   <v>      -0.07692308       0.25000000       0.00000000 </v>
   <v>       0.00000000       0.50000000       0.00000000 </v>
   <v>       0.07692308       0.50000000       0.00000000 </v>
   <v>       0.15384615       0.50000000       0.00000000 </v>
   <v>       0.23076923       0.50000000       0.00000000 </v>
   <v>       0.30769231       0.50000000       0.00000000 </v>
   <v>       0.38461538       0.50000000       0.00000000 </v>
   <v>       0.46153846       0.50000000       0.00000000 </v>
   <v>       0.00000000       0.00000000       0.50000000 </v>
   <v>       0.07692308      -0.00000000       0.50000000 </v>
   <v>       0.15384615      -0.00000000       0.50000000 </v>
   <v>       0.23076923      -0.00000000       0.50000000 </v>
   <v>       0.30769231      -0.00000000       0.50000000 </v>
   <v>       0.38461538      -0.00000000       0.50000000 </v>
   <v>       0.46153846      -0.00000000       0.50000000 </v>
   <v>       0.00000000       0.25000000       0.50000000 </v>
   <v>       0.07692308       0.25000000       0.50000000 </v>
   <v>       0.15384615       0.25000000       0.50000000 </v>
   <v>       0.23076923       0.25000000       0.50000000 </v>
   <v>       0.30769231       0.25000000       0.50000000 </v>
   <v>       0.38461538       0.25000000       0.50000000 </v>
   <v>       0.46153846       0.25000000       0.50000000 </v>
   <v>      -0.46153846       0.25000000       0.50000000 </v>
   <v>      -0.38461538       0.25000000       0.50000000 </v>
   <v>      -0.30769231       0.25000000       0.50000000 </v>
   <v>      -0.23076923       0.25000000       0.50000000 </v>
   <v>      -0.15384615       0.25000000       0.50000000 </v>
   <v>      -0.07692308       0.25000000       0.50000000 </v>
   <v>       0.00000000       0.50000000       0.50000000 </v>
   <v>       0.07692308       0.50000000       0.50000000 </v>
   <v>       0.15384615       0.50000000       0.50000000 </v>
   <v>       0.23076923       0.50000000       0.50000000 </v>
   <v>       0.30769231       0.50000000       0.50000000 </v>
   <v>       0.38461538       0.50000000       0.50000000 </v>
   <v>       0.46153846       0.50000000       0.50000000 </v>
  </varray>
  <varray name="weights" >
   <v>       0.00961538 </v>
   <v>       0.01923077 </v>
   <v>       0.01923077 </v>
   <v>       0.01923077 </v>
   <v>       0.01923077 </v>
   <v>       0.01923077 </v>
   <v>       0.01923077 </v>
   <v>       0.01923077 </v>
   <v>       0.01923077 </v>
   <v>       0.01923077 </v>
   <v>       0.01923077 </v>
   <v>       0.01923077 </v>
   <v>       0.01923077 </v>
   <v>       0.01923077 </v>
   <v>       0.01923077 </v>
   <v>       0.01923077 </v>
   <v>       0.01923077 </v>
   <v>       0.01923077 </v>
   <v>       0.01923077 </v>
   <v>       0.01923077 </v>
   <v>       0.00961538 </v>
   <v>       0.01923077 </v>
   <v>       0.01923077 </v>
   <v>       0.01923077 </v>
   <v>       0.01923077 </v>
   <v>       0.01923077 </v>
   <v>       0.01923077 </v>
   <v>       0.00961538 </v>
   <v>       0.01923077 </v>
   <v>       0.01923077 </v>
   <v>       0.01923077 </v>
   <v>       0.01923077 </v>
   <v>       0.01923077 </v>
   <v>       0.01923077 </v>
   <v>       0.01923077 </v>
   <v>       0.01923077 </v>
   <v>       0.01923077 </v>
   <v>       0.01923077 </v>
   <v>       0.01923077 </v>
   <v>       0.01923077 </v>
   <v>       0.01923077 </v>
   <v>       0.01923077 </v>
   <v>       0.01923077 </v>
   <v>       0.01923077 </v>
   <v>       0.01923077 </v>
   <v>       0.01923077 </v>
   <v>       0.01923077 </v>
   <v>       0.00961538 </v>
   <v>       0.01923077 </v>
   <v>       0.01923077 </v>
   <v>       0.01923077 </v>
   <v>       0.01923077 </v>
   <v>       0.01923077 </v>
   <v>       0.01923077 </v>
  </varray>
 </kpoints>
 <parameters>
  <separator name="general" >
   <i type="string" name="SYSTEM">unknown system</i>
   <i type="logical" name="LCOMPAT"> F  </i>
  </separator>
  <separator name="electronic" >
   <i type="string" name="PREC">accura</i>
   <i name="ENMAX">    300.00000000</i>
   <i name="ENAUG">    342.92400000</i>
   <i name="EDIFF">      0.00000100</i>
   <i type="int" name="IALGO">    38</i>
   <i type="int" name="IWAVPR">    10</i>
   <i type="int" name="NBANDS">    68</i>
   <i name="NELECT">    108.00000000</i>
   <i type="int" name="TURBO">     0</i>
   <i type="int" name="IRESTART">     0</i>
   <i type="int" name="NREBOOT">     0</i>
   <i type="int" name="NMIN">     0</i>
   <i name="EREF">      0.00000000</i>
   <separator name="electronic smearing" >
    <i type="int" name="ISMEAR">     0</i>
    <i name="SIGMA">      0.10000000</i>
    <i name="KSPACING">      0.50000000</i>
    <i type="logical" name="KGAMMA"> T  </i>
   </separator>
   <separator name="electronic projectors" >
    <i type="logical" name="LREAL"> T  </i>
    <v name="ROPT">     -0.00025000     -0.00025000</v>
    <i type="int" name="LMAXPAW">  -100</i>
    <i type="int" name="LMAXMIX">     2</i>
    <i type="logical" name="NLSPLINE"> F  </i>
   </separator>
   <separator name="electronic startup" >
    <i type="int" name="ISTART">     0</i>
    <i type="int" name="ICHARG">     2</i>
    <i type="int" name="INIWAV">     1</i>
   </separator>
   <separator name="electronic spin" >
    <i type="int" name="ISPIN">     1</i>
    <i type="logical" name="LNONCOLLINEAR"> F  </i>
    <v name="MAGMOM">      1.00000000      1.00000000      1.00000000      1.00000000      1.00000000      1.00000000      1.00000000      1.00000000      1.00000000      1.00000000      1.00000000      1.00000000      1.00000000      1.00000000      1.00000000      1.00000000      1.00000000      1.00000000      1.00000000      1.00000000
      1.00000000      1.00000000      1.00000000      1.00000000</v>
    <i name="NUPDOWN">     -1.00000000</i>
    <i type="logical" name="LSORBIT"> F  </i>
    <v name="SAXIS">      0.00000000      0.00000000      1.00000000</v>
    <i type="logical" name="LSPIRAL"> F  </i>
    <v name="QSPIRAL">      0.00000000      0.00000000      0.00000000</v>
    <i type="logical" name="LZEROZ"> F  </i>
   </separator>
   <separator name="electronic exchange-correlation" >
    <i type="logical" name="LASPH"> F  </i>
    <i type="logical" name="LMETAGGA"> F  </i>
   </separator>
   <separator name="electronic convergence" >
    <i type="int" name="NELM">    60</i>
    <i type="int" name="NELMDL">    -5</i>
    <i type="int" name="NELMIN">     2</i>
    <i name="ENINI">    300.00000000</i>
    <separator name="electronic convergence detail" >
     <i type="logical" name="LDIAG"> T  </i>
     <i type="logical" name="LSUBROT"> F  </i>
     <i name="WEIMIN">      0.00000000</i>
     <i name="EBREAK">      0.00000000</i>
     <i name="DEPER">      0.30000000</i>
     <i type="int" name="NRMM">     4</i>
     <i name="TIME">      0.40000000</i>
    </separator>
   </separator>
   <separator name="electronic mixer" >
    <i name="AMIX">      0.40000000</i>
    <i name="BMIX">      1.00000000</i>
    <i name="AMIN">      0.10000000</i>
    <i name="AMIX_MAG">      1.60000000</i>
    <i name="BMIX_MAG">      1.00000000</i>
    <separator name="electronic mixer details" >
     <i type="int" name="IMIX">     4</i>
     <i type="int" name="MAXMIX">   -45</i>
     <i name="WC">    100.00000000</i>
     <i type="int" name="INIMIX">     1</i>
     <i type="int" name="MIXPRE">     1</i>
     <i type="int" name="MREMOVE">     5</i>
    </separator>
   </separator>
   <separator name="electronic dipolcorrection" >
    <i type="logical" name="LDIPOL"> F  </i>
    <i type="logical" name="LMONO"> F  </i>
    <i type="int" name="IDIPOL">     0</i>
    <i name="EPSILON">      1.00000000</i>
    <v name="DIPOL">   -100.00000000   -100.00000000   -100.00000000</v>
    <i name="EFIELD">      0.00000000</i>
   </separator>
  </separator>
  <separator name="grids" >
   <i type="int" name="NGX">    20</i>
   <i type="int" name="NGY">    60</i>
   <i type="int" name="NGZ">   160</i>
   <i type="int" name="NGXF">    40</i>
   <i type="int" name="NGYF">   120</i>
   <i type="int" name="NGZF">   320</i>
   <i type="logical" name="ADDGRID"> F  </i>
  </separator>
  <separator name="ionic" >
   <i type="int" name="NSW">     0</i>
   <i type="int" name="IBRION">    -1</i>
   <i type="int" name="ISIF">     3</i>
   <i name="PSTRESS">      0.00000000</i>
   <i name="EDIFFG">      0.00001000</i>
   <i type="int" name="NFREE">     1</i>
   <i name="POTIM">      0.50000000</i>
   <i name="SMASS">     -3.00000000</i>
   <i name="SCALEE">      1.00000000</i>
  </separator>
  <separator name="ionic md" >
   <i name="TEBEG">      0.00010000</i>
   <i name="TEEND">      0.00010000</i>
   <i type="int" name="NBLOCK">     1</i>
   <i type="int" name="KBLOCK">     1</i>
   <i type="int" name="NPACO">   256</i>
   <i name="APACO">     16.00000000</i>
  </separator>
  <separator name="symmetry" >
   <i type="int" name="ISYM">     2</i>
   <i name="SYMPREC">      0.00001000</i>
  </separator>
  <separator name="dos" >
   <i type="logical" name="LORBIT"> F  </i>
   <v name="RWIGS">     -1.00000000     -1.00000000</v>
   <i type="int" name="NEDOS">   301</i>
   <i name="EMIN">     10.00000000</i>
   <i name="EMAX">    -10.00000000</i>
   <i name="EFERMI">      0.00000000</i>
  </separator>
  <separator name="writing" >
   <i type="int" name="NWRITE">     2</i>
   <i type="logical" name="LWAVE"> F  </i>
   <i type="logical" name="LCHARG"> F  </i>
   <i type="logical" name="LPARD"> F  </i>
   <i type="logical" name="LVTOT"> F  </i>
   <i type="logical" name="LVHAR"> F  </i>
   <i type="logical" name="LELF"> F  </i>
   <i type="logical" name="LOPTICS"> F  </i>
   <v name="STM">      0.00000000      0.00000000      0.00000000      0.00000000      0.00000000      0.00000000      0.00000000</v>
  </separator>
  <separator name="performance" >
   <i type="int" name="NPAR">     4</i>
   <i type="int" name="NSIM">     4</i>
   <i type="int" name="NBLK">    -1</i>
   <i type="logical" name="LPLANE"> T  </i>
   <i type="logical" name="LSCALAPACK"> T  </i>
   <i type="logical" name="LSCAAWARE"> F  </i>
   <i type="logical" name="LSCALU"> F  </i>
   <i type="logical" name="LASYNC"> F  </i>
   <i type="logical" name="LORBITALREAL"> F  </i>
  </separator>
  <separator name="miscellaneous" >
   <i type="int" name="IDIOT">     3</i>
   <i type="logical" name="LMUSIC"> F  </i>
   <v name="POMASS">     30.97400000     28.08500000</v>
   <v name="DARWINR">      0.00000000      0.00000000</v>
   <v name="DARWINV">      1.00000000      1.00000000</v>
   <i type="logical" name="LCORR"> T  </i>
  </separator>
  <i type="logical" name="GGA_COMPAT"> T  </i>
  <i type="logical" name="LBERRY"> F  </i>
  <i type="int" name="ICORELEVEL">     0</i>
  <i type="logical" name="LDAU"> F  </i>
  <i type="int" name="I_CONSTRAINED_M">     0</i>
  <separator name="electronic exchange-correlation" >
   <i type="string" name="GGA">BO</i>
   <i type="int" name="VOSKOWN">     0</i>
   <i type="logical" name="LHFCALC"> F  </i>
   <i type="string" name="PRECFOCK"></i>
   <i type="logical" name="LSYMGRAD"> F  </i>
   <i type="logical" name="LHFONE"> F  </i>
   <i type="logical" name="LRHFCALC"> F  </i>
   <i type="logical" name="LTHOMAS"> F  </i>
   <i type="logical" name="LMODELHF"> F  </i>
   <i name="ENCUT4O">     -1.00000000</i>
   <i type="int" name="EXXOEP">     0</i>
   <i type="int" name="FOURORBIT">     0</i>
   <i name="AEXX">      0.00000000</i>
   <i name="HFALPHA">      0.00000000</i>
   <i name="MCALPHA">      0.00000000</i>
   <i name="ALDAX">      1.00000000</i>
   <i name="AGGAX">      1.00000000</i>
   <i name="ALDAC">      1.00000000</i>
   <i name="AGGAC">      0.00000000</i>
   <i type="int" name="NKREDX">     1</i>
   <i type="int" name="NKREDY">     1</i>
   <i type="int" name="NKREDZ">     1</i>
   <i type="logical" name="SHIFTRED"> F  </i>
   <i type="logical" name="ODDONLY"> F  </i>
   <i type="logical" name="EVENONLY"> F  </i>
   <i type="int" name="LMAXFOCK">     0</i>
   <i type="int" name="NMAXFOCKAE">     0</i>
   <i type="logical" name="LFOCKAEDFT"> F  </i>
   <i name="HFSCREEN">      0.00000000</i>
   <i name="HFSCREENC">      0.00000000</i>
   <i type="int" name="NBANDSGWLOW">     0</i>
  </separator>
  <separator name="vdW DFT" >
   <i type="logical" name="LUSE_VDW"> T  </i>
   <i name="Zab_VDW">     -0.84910000</i>
   <i name="PARAM1">      0.18333333</i>
   <i name="PARAM2">      0.22000000</i>
   <i name="PARAM3">      0.00000000</i>
  </separator>
  <separator name="model GW" >
   <i type="int" name="MODEL_GW">     0</i>
   <i name="MODEL_EPS0">     25.05800243</i>
   <i name="MODEL_ALPHA">      1.00000000</i>
  </separator>
  <separator name="linear response parameters" >
   <i type="logical" name="LEPSILON"> F  </i>
   <i type="logical" name="LRPA"> F  </i>
   <i type="logical" name="LNABLA"> F  </i>
   <i type="logical" name="LVEL"> F  </i>
   <i type="int" name="KINTER">     0</i>
   <i name="CSHIFT">      0.10000000</i>
   <i name="OMEGAMAX">     -1.00000000</i>
   <i name="DEG_THRESHOLD">      0.00200000</i>
  </separator>
  <separator name="orbital magnetization" >
   <i type="logical" name="NUCIND"> F  </i>
   <v name="MAGPOS">      0.00000000      0.00000000      0.00000000</v>
   <i type="logical" name="LNICSALL"> T  </i>
   <i type="logical" name="ORBITALMAG"> F  </i>
   <i type="logical" name="LMAGBLOCH"> F  </i>
   <i type="logical" name="LCHIMAG"> F  </i>
   <i type="logical" name="LGAUGE"> T  </i>
   <i type="int" name="MAGATOM">     0</i>
   <v name="MAGDIPOL">      0.00000000      0.00000000      0.00000000</v>
   <v name="AVECCONST">      0.00000000      0.00000000      0.00000000</v>
  </separator>
  <separator name="response functions" >
   <i type="logical" name="LADDER"> F  </i>
   <i type="logical" name="LFXC"> F  </i>
   <i type="logical" name="LHARTREE"> T  </i>
   <i type="int" name="IBSE">     0</i>
   <i type="logical" name="LTCTE"> F  </i>
   <i type="logical" name="LTETE"> F  </i>
   <i type="logical" name="LTRIPLET"> F  </i>
   <i type="logical" name="LFXCEPS"> F  </i>
   <i type="logical" name="LFXHEG"> F  </i>
   <i type="logical" name="L2ORDER"> F  </i>
   <i type="logical" name="LUSEW"> F  </i>
   <i name="ENCUTGW">     -2.00000000</i>
   <i name="ENCUTGWSOFT">     -2.00000000</i>
   <i name="ENCUTLF">     -1.00000000</i>
   <i type="int" name="LMAXMP2">    -1</i>
   <i name="SCISSOR">      0.00000000</i>
   <i type="int" name="NOMEGA">     0</i>
   <i type="int" name="NOMEGAR">     0</i>
   <i type="int" name="NBANDSGW">    -1</i>
   <i type="int" name="NBANDSO">    -1</i>
   <i type="int" name="NBANDSV">    -1</i>
   <i type="int" name="NELM">     1</i>
   <i type="int" name="DIM">     3</i>
   <i type="int" name="ANTIRES">     0</i>
   <i name="OMEGAMAX">    -30.00000000</i>
   <i name="OMEGAMIN">    -30.00000000</i>
   <i name="OMEGATL">   -200.00000000</i>
   <i type="int" name="OMEGAGRID">     0</i>
   <i name="CSHIFT">     -0.10000000</i>
   <i type="logical" name="SELFENERGY"> F  </i>
   <i type="logical" name="LSPECTRAL"> F  </i>
   <i type="logical" name="ODDONLYGW"> F  </i>
   <i type="logical" name="EVENONLYGW"> F  </i>
   <i type="int" name="NKREDLFX">     1</i>
   <i type="int" name="NKREDLFY">     1</i>
   <i type="int" name="NKREDLFZ">     1</i>
   <i type="int" name="MAXMEM">  1800</i>
   <i type="int" name="TELESCOPE">     0</i>
   <i type="int" name="TAUPAR">     1</i>
  </separator>
  <separator name="External order field" >
   <i name="OFIELD_KAPPA">      0.00000000</i>
   <v name="OFIELD_K">      0.00000000      0.00000000      0.00000000</v>
   <i name="OFIELD_Q6_NEAR">      0.00000000</i>
   <i name="OFIELD_Q6_FAR">      0.00000000</i>
   <i name="OFIELD_A">      0.00000000</i>
  </separator>
 </parameters>
 <atominfo>
  <atoms>      24 </atoms>
  <types>       2 </types>
  <array name="atoms" >
   <dimension dim="1">ion</dimension>
   <field type="string">element</field>
   <field type="int">atomtype</field>
   <set>
    <rc><c>P </c><c>   1</c></rc>
    <rc><c>P </c><c>   1</c></rc>
    <rc><c>P </c><c>   1</c></rc>
    <rc><c>P </c><c>   1</c></rc>
    <rc><c>P </c><c>   1</c></rc>
    <rc><c>P </c><c>   1</c></rc>
    <rc><c>P </c><c>   1</c></rc>
    <rc><c>P </c><c>   1</c></rc>
    <rc><c>P </c><c>   1</c></rc>
    <rc><c>P </c><c>   1</c></rc>
    <rc><c>P </c><c>   1</c></rc>
    <rc><c>P </c><c>   1</c></rc>
    <rc><c>Si</c><c>   2</c></rc>
    <rc><c>Si</c><c>   2</c></rc>
    <rc><c>Si</c><c>   2</c></rc>
    <rc><c>Si</c><c>   2</c></rc>
    <rc><c>Si</c><c>   2</c></rc>
    <rc><c>Si</c><c>   2</c></rc>
    <rc><c>Si</c><c>   2</c></rc>
    <rc><c>Si</c><c>   2</c></rc>
    <rc><c>Si</c><c>   2</c></rc>
    <rc><c>Si</c><c>   2</c></rc>
    <rc><c>Si</c><c>   2</c></rc>
    <rc><c>Si</c><c>   2</c></rc>
   </set>
  </array>
  <array name="atomtypes" >
   <dimension dim="1">type</dimension>
   <field type="int">atomspertype</field>
   <field type="string">element</field>
   <field>mass</field>
   <field>valence</field>
   <field type="string">pseudopotential</field>
   <set>
    <rc><c>  12</c><c>P </c><c>     30.97400000</c><c>      5.00000000</c><c>  PAW_PBE P 17Jan2003                   </c></rc>
    <rc><c>  12</c><c>Si</c><c>     28.08500000</c><c>      4.00000000</c><c> PAW_PBE Si 05Jan2001                   </c></rc>
   </set>
  </array>
 </atominfo>
 <structure name="initialpos" >
  <crystal>
   <varray name="basis" >
    <v>       3.54040000       0.00000000       0.00000000 </v>
    <v>      -1.77020000      10.29434800       0.00000000 </v>
    <v>       0.00000000       0.00000000      27.50142900 </v>
   </varray>
   <i name="volume">   1002.32009712 </i>
   <varray name="rec_basis" >
    <v>       0.28245396       0.04857034       0.00000000 </v>
    <v>       0.00000000       0.09714068       0.00000000 </v>
    <v>       0.00000000       0.00000000       0.03636175 </v>
   </varray>
  </crystal>
  <varray name="positions" >
   <v>       0.11402300       0.22804500       0.23316207 </v>
   <v>       0.51402300       0.82804500       0.51499159 </v>
   <v>       0.45808900       0.91617900       0.20939482 </v>
   <v>       0.85808900       0.51617900       0.49122434 </v>
   <v>       0.31085400       0.62170900       0.08414979 </v>
   <v>       0.31085400       0.62170900       0.36597930 </v>
   <v>       0.99923000       0.99846000       0.08631254 </v>
   <v>       0.99923000       0.99846000       0.36814206 </v>
   <v>       0.65492700       0.30985400       0.06041748 </v>
   <v>       0.65492700       0.30985400       0.34224700 </v>
   <v>       0.76973800       0.53947500       0.20725292 </v>
   <v>       0.16973800       0.13947500       0.48908244 </v>
   <v>       0.93971600       0.87943300       0.15783749 </v>
   <v>       0.33971600       0.47943300       0.43966701 </v>
   <v>       0.20515200       0.41030300       0.18578822 </v>
   <v>       0.60515200       0.01030300       0.46761774 </v>
   <v>       0.20184900       0.40369900       0.09969156 </v>
   <v>       0.20184900       0.40369900       0.38152107 </v>
   <v>       0.56380500       0.12761000       0.10779021 </v>
   <v>       0.56380500       0.12761000       0.38961973 </v>
   <v>       0.56710600       0.13421200       0.19387616 </v>
   <v>       0.96710600       0.73421200       0.47570568 </v>
   <v>       0.82923400       0.65846800       0.13571444 </v>
   <v>       0.22923400       0.25846800       0.41754396 </v>
  </varray>
 </structure>
 <calculation>
  <scstep>
   <time name="dav">   71.54   71.60</time>
   <time name="total">   88.15   88.23</time>
   <energy>
    <i name="alphaZ">     36.80884744 </i>
    <i name="ewald">  12026.84459869 </i>
    <i name="hartreedc"> -15057.61150515 </i>
    <i name="XCdc">    -86.94518652 </i>
    <i name="pawpsdc">   1056.43050070 </i>
    <i name="pawaedc">   -732.41190547 </i>
    <i name="eentropy">     -0.03796118 </i>
    <i name="bandstr">    -96.80913009 </i>
    <i name="atom">   3354.04126044 </i>
    <i name="e_fr_energy">    500.30951887 </i>
    <i name="e_wo_entrp">    500.34748005 </i>
    <i name="e_0_energy">    500.32849946 </i>
   </energy>
  </scstep>
  <scstep>
   <time name="dav">   99.42   99.45</time>
   <time name="total">   99.43   99.47</time>
   <energy>
    <i name="e_fr_energy">    -63.05763806 </i>
    <i name="e_wo_entrp">    -63.03631367 </i>
    <i name="e_0_energy">    -63.04697587 </i>
   </energy>
  </scstep>
  <scstep>
   <time name="dav">   69.77   69.81</time>
   <time name="total">   69.79   69.82</time>
   <energy>
    <i name="e_fr_energy">   -119.00832362 </i>
    <i name="e_wo_entrp">   -118.98915062 </i>
    <i name="e_0_energy">   -118.99873712 </i>
   </energy>
  </scstep>
  <scstep>
   <time name="dav">   81.93   81.96</time>
   <time name="total">   81.94   81.97</time>
   <energy>
    <i name="e_fr_energy">   -121.54344751 </i>
    <i name="e_wo_entrp">   -121.52336867 </i>
    <i name="e_0_energy">   -121.53340809 </i>
   </energy>
  </scstep>
  <scstep>
   <time name="dav">   75.68   75.71</time>
   <time name="total">   79.71   79.74</time>
   <energy>
    <i name="e_fr_energy">   -121.60469068 </i>
    <i name="e_wo_entrp">   -121.58445572 </i>
    <i name="e_0_energy">   -121.59457320 </i>
   </energy>
  </scstep>
  <scstep>
   <time name="dav">   71.73   71.75</time>
   <time name="total">   91.09   91.13</time>
   <energy>
    <i name="e_fr_energy">   -118.49678312 </i>
    <i name="e_wo_entrp">   -118.45969883 </i>
    <i name="e_0_energy">   -118.47824098 </i>
   </energy>
  </scstep>
  <scstep>
   <time name="dav">   69.86   69.88</time>
   <time name="total">   88.93   88.96</time>
   <energy>
    <i name="e_fr_energy">   -118.39482416 </i>
    <i name="e_wo_entrp">   -118.37676628 </i>
    <i name="e_0_energy">   -118.38579522 </i>
   </energy>
  </scstep>
  <scstep>
   <time name="dav">   68.79   68.82</time>
   <time name="total">   87.73   87.78</time>
   <energy>
    <i name="e_fr_energy">   -118.19557945 </i>
    <i name="e_wo_entrp">   -118.16692601 </i>
    <i name="e_0_energy">   -118.18125273 </i>
   </energy>
  </scstep>
  <scstep>
   <time name="dav">   69.55   69.57</time>
   <time name="total">   88.65   88.68</time>
   <energy>
    <i name="e_fr_energy">   -118.20423133 </i>
    <i name="e_wo_entrp">   -118.17304749 </i>
    <i name="e_0_energy">   -118.18863941 </i>
   </energy>
  </scstep>
  <scstep>
   <time name="dav">   67.76   67.81</time>
   <time name="total">   86.92   86.98</time>
   <energy>
    <i name="e_fr_energy">   -118.17902646 </i>
    <i name="e_wo_entrp">   -118.14847209 </i>
    <i name="e_0_energy">   -118.16374927 </i>
   </energy>
  </scstep>
  <scstep>
   <time name="dav">   72.31   72.35</time>
   <time name="total">   92.64   92.70</time>
   <energy>
    <i name="e_fr_energy">   -118.16764581 </i>
    <i name="e_wo_entrp">   -118.13767949 </i>
    <i name="e_0_energy">   -118.15266265 </i>
   </energy>
  </scstep>
  <scstep>
   <time name="dav">   72.32   72.35</time>
   <time name="total">   91.73   91.77</time>
   <energy>
    <i name="e_fr_energy">   -118.16277204 </i>
    <i name="e_wo_entrp">   -118.13227853 </i>
    <i name="e_0_energy">   -118.14752528 </i>
   </energy>
  </scstep>
  <scstep>
   <time name="dav">   81.29   81.32</time>
   <time name="total">  100.50  100.55</time>
   <energy>
    <i name="e_fr_energy">   -118.15743513 </i>
    <i name="e_wo_entrp">   -118.12718018 </i>
    <i name="e_0_energy">   -118.14230766 </i>
   </energy>
  </scstep>
  <scstep>
   <time name="dav">   73.66   73.70</time>
   <time name="total">   92.40   92.45</time>
   <energy>
    <i name="e_fr_energy">   -118.15483591 </i>
    <i name="e_wo_entrp">   -118.12459097 </i>
    <i name="e_0_energy">   -118.13971344 </i>
   </energy>
  </scstep>
  <scstep>
   <time name="dav">   72.38   72.40</time>
   <time name="total">   93.30   93.34</time>
   <energy>
    <i name="e_fr_energy">   -118.15361076 </i>
    <i name="e_wo_entrp">   -118.12328296 </i>
    <i name="e_0_energy">   -118.13844686 </i>
   </energy>
  </scstep>
  <scstep>
   <time name="dav">   80.14   80.20</time>
   <time name="total">  101.77  101.85</time>
   <energy>
    <i name="e_fr_energy">   -118.15325554 </i>
    <i name="e_wo_entrp">   -118.12294662 </i>
    <i name="e_0_energy">   -118.13810108 </i>
   </energy>
  </scstep>
  <scstep>
   <time name="dav">   86.94   86.97</time>
   <time name="total">  106.40  106.45</time>
   <energy>
    <i name="e_fr_energy">   -118.15341808 </i>
    <i name="e_wo_entrp">   -118.12312595 </i>
    <i name="e_0_energy">   -118.13827202 </i>
   </energy>
  </scstep>
  <scstep>
   <time name="dav">   67.08   67.11</time>
   <time name="total">   85.92   85.97</time>
   <energy>
    <i name="e_fr_energy">   -118.15393982 </i>
    <i name="e_wo_entrp">   -118.12364932 </i>
    <i name="e_0_energy">   -118.13879457 </i>
   </energy>
  </scstep>
  <scstep>
   <time name="dav">   61.88   61.91</time>
   <time name="total">   81.24   81.52</time>
   <energy>
    <i name="e_fr_energy">   -118.15413627 </i>
    <i name="e_wo_entrp">   -118.12383533 </i>
    <i name="e_0_energy">   -118.13898580 </i>
   </energy>
  </scstep>
  <scstep>
   <time name="dav">   58.34   58.37</time>
   <time name="total">   76.87   76.91</time>
   <energy>
    <i name="e_fr_energy">   -118.15421376 </i>
    <i name="e_wo_entrp">   -118.12391330 </i>
    <i name="e_0_energy">   -118.13906353 </i>
   </energy>
  </scstep>
  <scstep>
   <time name="dav">   57.21   57.23</time>
   <time name="total">   76.02   76.05</time>
   <energy>
    <i name="e_fr_energy">   -118.15423658 </i>
    <i name="e_wo_entrp">   -118.12393932 </i>
    <i name="e_0_energy">   -118.13908795 </i>
   </energy>
  </scstep>
  <scstep>
   <time name="dav">   59.36   59.38</time>
   <time name="total">   78.01   78.04</time>
   <energy>
    <i name="e_fr_energy">   -118.15421391 </i>
    <i name="e_wo_entrp">   -118.12391692 </i>
    <i name="e_0_energy">   -118.13906541 </i>
   </energy>
  </scstep>
  <scstep>
   <time name="dav">   56.43   56.46</time>
   <time name="total">   75.12   75.16</time>
   <energy>
    <i name="e_fr_energy">   -118.15418281 </i>
    <i name="e_wo_entrp">   -118.12388545 </i>
    <i name="e_0_energy">   -118.13903413 </i>
   </energy>
  </scstep>
  <scstep>
   <time name="dav">   53.87   53.89</time>
   <time name="total">   72.50   72.55</time>
   <energy>
    <i name="e_fr_energy">   -118.15410006 </i>
    <i name="e_wo_entrp">   -118.12380170 </i>
    <i name="e_0_energy">   -118.13895088 </i>
   </energy>
  </scstep>
  <scstep>
   <time name="dav">   52.62   52.64</time>
   <time name="total">   71.26   71.28</time>
   <energy>
    <i name="e_fr_energy">   -118.15409049 </i>
    <i name="e_wo_entrp">   -118.12379238 </i>
    <i name="e_0_energy">   -118.13894143 </i>
   </energy>
  </scstep>
  <scstep>
   <time name="dav">   56.31   56.32</time>
   <time name="total">   75.61   75.63</time>
   <energy>
    <i name="e_fr_energy">   -118.15407313 </i>
    <i name="e_wo_entrp">   -118.12377504 </i>
    <i name="e_0_energy">   -118.13892409 </i>
   </energy>
  </scstep>
  <scstep>
   <time name="dav">   68.47   68.52</time>
   <time name="total">   87.59   87.65</time>
   <energy>
    <i name="e_fr_energy">   -118.15407769 </i>
    <i name="e_wo_entrp">   -118.12377965 </i>
    <i name="e_0_energy">   -118.13892867 </i>
   </energy>
  </scstep>
  <scstep>
   <time name="dav">   80.15   80.18</time>
   <time name="total">  101.07  101.11</time>
   <energy>
    <i name="e_fr_energy">   -118.15407895 </i>
    <i name="e_wo_entrp">   -118.12378095 </i>
    <i name="e_0_energy">   -118.13892995 </i>
   </energy>
  </scstep>
  <scstep>
   <time name="dav">   50.40   50.43</time>
   <time name="total">   64.82   64.87</time>
   <energy>
    <i name="alphaZ">     36.80884744 </i>
    <i name="ewald">  12026.84459869 </i>
    <i name="hartreedc"> -15158.51987634 </i>
    <i name="XCdc">    -79.42136785 </i>
    <i name="pawpsdc">   1168.70953131 </i>
    <i name="pawaedc">   -848.05790945 </i>
    <i name="eentropy">     -0.03029800 </i>
    <i name="bandstr">   -618.52886534 </i>
    <i name="atom">   3354.04126044 </i>
    <i name="e_fr_energy">   -118.15407909 </i>
    <i name="e_wo_entrp">   -118.12378109 </i>
    <i name="e_0_energy">   -118.13893009 </i>
   </energy>
  </scstep>
  <structure>
   <crystal>
    <varray name="basis" >
     <v>       3.54040000       0.00000000       0.00000000 </v>
     <v>      -1.77020000      10.29434800       0.00000000 </v>
     <v>       0.00000000       0.00000000      27.50142900 </v>
    </varray>
    <i name="volume">   1002.32009712 </i>
    <varray name="rec_basis" >
     <v>       0.28245396       0.04857034       0.00000000 </v>
     <v>       0.00000000       0.09714068       0.00000000 </v>
     <v>       0.00000000       0.00000000       0.03636175 </v>
    </varray>
   </crystal>
   <varray name="positions" >
    <v>       0.11402300       0.22804500       0.23316207 </v>
    <v>       0.51402300       0.82804500       0.51499159 </v>
    <v>       0.45808900       0.91617900       0.20939482 </v>
    <v>       0.85808900       0.51617900       0.49122434 </v>
    <v>       0.31085400       0.62170900       0.08414979 </v>
    <v>       0.31085400       0.62170900       0.36597930 </v>
    <v>       0.99923000       0.99846000       0.08631254 </v>
    <v>       0.99923000       0.99846000       0.36814206 </v>
    <v>       0.65492700       0.30985400       0.06041748 </v>
    <v>       0.65492700       0.30985400       0.34224700 </v>
    <v>       0.76973800       0.53947500       0.20725292 </v>
    <v>       0.16973800       0.13947500       0.48908244 </v>
    <v>       0.93971600       0.87943300       0.15783749 </v>
    <v>       0.33971600       0.47943300       0.43966701 </v>
    <v>       0.20515200       0.41030300       0.18578822 </v>
    <v>       0.60515200       0.01030300       0.46761774 </v>
    <v>       0.20184900       0.40369900       0.09969156 </v>
    <v>       0.20184900       0.40369900       0.38152107 </v>
    <v>       0.56380500       0.12761000       0.10779021 </v>
    <v>       0.56380500       0.12761000       0.38961973 </v>
    <v>       0.56710600       0.13421200       0.19387616 </v>
    <v>       0.96710600       0.73421200       0.47570568 </v>
    <v>       0.82923400       0.65846800       0.13571444 </v>
    <v>       0.22923400       0.25846800       0.41754396 </v>
   </varray>
  </structure>
  <varray name="forces" >
   <v>      -0.03230072      -0.00979487       0.05278885 </v>
   <v>       0.09105261      -0.17446932      -0.42147404 </v>
   <v>      -0.00186713      -0.00995207       0.08049733 </v>
   <v>      -0.07537608      -0.24336542       0.43814593 </v>
   <v>      -0.00194227      -0.00191597       0.00189498 </v>
   <v>       0.25968527      -0.73880727       1.37708642 </v>
   <v>      -0.00586331      -0.00083995       0.00151690 </v>
   <v>      -0.40930540      -0.23824945       0.02024321 </v>
   <v>       0.00106205      -0.00345652       0.01622160 </v>
   <v>      -0.79215287       0.72468627      -1.81283210 </v>
   <v>       0.00164075       0.00635837       0.09279520 </v>
   <v>      -0.42368659       0.25234243       1.76061779 </v>
   <v>       0.00340965      -0.00393764       0.00506292 </v>
   <v>       2.77309752       8.04919569      12.03075547 </v>
   <v>      -0.00551588       0.02554103       0.06016893 </v>
   <v>       0.62687887       0.32574311       0.35813946 </v>
   <v>       0.00111031       0.00403026      -0.02153185 </v>
   <v>      -5.31988413       4.19957193     -19.59358836 </v>
   <v>      -0.00951534      -0.00867449      -0.02559332 </v>
   <v>       2.36815400      -2.89969915      -2.67260624 </v>
   <v>       0.00806246      -0.04205203       0.02677037 </v>
   <v>       0.06490426       0.05793877      -0.34956707 </v>
   <v>       0.00135061       0.00420273      -0.00436327 </v>
   <v>       0.87700135      -9.27439642       8.57885089 </v>
  </varray>
  <varray name="stress" >
   <v>       8.18251114      -5.99786313      11.86766984 </v>
   <v>      -5.99786325      36.38857598       5.06336642 </v>
   <v>      11.86766996       5.06336624      49.64455604 </v>
  </varray>
  <energy>
   <i name="e_fr_energy">   -118.15407909 </i>
   <i name="e_wo_entrp">   -118.13893009 </i>
   <i name="e_0_energy">     -0.03029800 </i>
  </energy>
  <time name="totalsc"> 2591.36 2592.94</time>
  <eigenvalues>
   <array>
    <dimension dim="1">band</dimension>
    <dimension dim="2">kpoint</dimension>
    <dimension dim="3">spin</dimension>
    <field>eigene</field>
    <field>occ</field>
    <set>
     <set comment="spin 1">
      <set comment="kpoint 1">
       <r>  -14.8128    1.0000 </r>
       <r>  -13.5659    1.0000 </r>
       <r>  -13.0016    1.0000 </r>
       <r>  -12.8936    1.0000 </r>
       <r>  -12.8249    1.0000 </r>
       <r>  -12.5088    1.0000 </r>
       <r>  -12.1130    1.0000 </r>
       <r>  -11.6478    1.0000 </r>
       <r>  -11.4583    1.0000 </r>
       <r>  -11.2563    1.0000 </r>
       <r>  -11.0168    1.0000 </r>
       <r>  -10.5569    1.0000 </r>
       <r>   -9.5125    1.0000 </r>
       <r>   -8.0810    1.0000 </r>
       <r>   -8.0208    1.0000 </r>
       <r>   -7.8533    1.0000 </r>
       <r>   -6.8591    1.0000 </r>
       <r>   -6.5738    1.0000 </r>
       <r>   -6.5165    1.0000 </r>
       <r>   -5.9986    1.0000 </r>
       <r>   -5.8472    1.0000 </r>
       <r>   -5.3323    1.0000 </r>
       <r>   -5.0503    1.0000 </r>
       <r>   -4.8101    1.0000 </r>
       <r>   -4.6352    1.0000 </r>
       <r>   -4.0014    1.0000 </r>
       <r>   -3.7813    1.0000 </r>
       <r>   -3.6886    1.0000 </r>
       <r>   -3.2394    1.0000 </r>
       <r>   -3.0826    1.0000 </r>
       <r>   -3.0819    1.0000 </r>
       <r>   -3.0105    1.0000 </r>
       <r>   -2.8972    1.0000 </r>
       <r>   -2.8680    1.0000 </r>
       <r>   -2.5056    1.0000 </r>
       <r>   -2.4322    1.0000 </r>
       <r>   -2.4183    1.0000 </r>
       <r>   -2.2872    1.0000 </r>
       <r>   -2.1158    1.0000 </r>
       <r>   -2.1015    1.0000 </r>
       <r>   -2.0100    1.0000 </r>
       <r>   -1.8935    1.0000 </r>
       <r>   -1.7542    1.0000 </r>
       <r>   -1.6687    1.0000 </r>
       <r>   -1.6227    1.0000 </r>
       <r>   -1.5106    1.0000 </r>
       <r>   -1.4581    1.0000 </r>
       <r>   -1.4298    1.0000 </r>
       <r>   -1.2351    1.0000 </r>
       <r>   -1.0740    1.0000 </r>
       <r>   -0.9571    1.0000 </r>
       <r>   -0.4422    1.0000 </r>
       <r>   -0.1325    0.9880 </r>
       <r>    0.2753    0.0002 </r>
       <r>    0.4668    0.0000 </r>
       <r>    0.6834    0.0000 </r>
       <r>    0.7913    0.0000 </r>
       <r>    1.1456    0.0000 </r>
       <r>    1.2941    0.0000 </r>
       <r>    1.4911    0.0000 </r>
       <r>    1.6572    0.0000 </r>
       <r>    1.9073    0.0000 </r>
       <r>    1.9653    0.0000 </r>
       <r>    2.0113    0.0000 </r>
       <r>    2.1200    0.0000 </r>
       <r>    2.3734    0.0000 </r>
       <r>    2.4076    0.0000 </r>
       <r>    2.4362    0.0000 </r>
      </set>
      <set comment="kpoint 2">
       <r>  -14.7573    1.0000 </r>
       <r>  -13.5046    1.0000 </r>
       <r>  -12.9578    1.0000 </r>
       <r>  -12.8220    1.0000 </r>
       <r>  -12.7726    1.0000 </r>
       <r>  -12.4532    1.0000 </r>
       <r>  -12.0508    1.0000 </r>
       <r>  -11.6052    1.0000 </r>
       <r>  -11.4093    1.0000 </r>
       <r>  -11.2039    1.0000 </r>
       <r>  -10.9684    1.0000 </r>
       <r>  -10.5257    1.0000 </r>
       <r>   -9.5067    1.0000 </r>
       <r>   -8.1009    1.0000 </r>
       <r>   -7.9974    1.0000 </r>
       <r>   -7.8150    1.0000 </r>
       <r>   -6.8271    1.0000 </r>
       <r>   -6.6110    1.0000 </r>
       <r>   -6.5112    1.0000 </r>
       <r>   -5.9856    1.0000 </r>
       <r>   -5.8146    1.0000 </r>
       <r>   -5.3899    1.0000 </r>
       <r>   -5.0307    1.0000 </r>
       <r>   -4.8017    1.0000 </r>
       <r>   -4.6742    1.0000 </r>
       <r>   -4.3337    1.0000 </r>
       <r>   -3.7997    1.0000 </r>
       <r>   -3.7034    1.0000 </r>
       <r>   -3.5366    1.0000 </r>
       <r>   -3.4276    1.0000 </r>
       <r>   -3.2922    1.0000 </r>
       <r>   -3.2069    1.0000 </r>
       <r>   -3.1197    1.0000 </r>
       <r>   -2.9820    1.0000 </r>
       <r>   -2.7869    1.0000 </r>
       <r>   -2.6264    1.0000 </r>
       <r>   -2.5167    1.0000 </r>
       <r>   -2.4765    1.0000 </r>
       <r>   -2.3011    1.0000 </r>
       <r>   -2.2288    1.0000 </r>
       <r>   -2.0891    1.0000 </r>
       <r>   -1.9912    1.0000 </r>
       <r>   -1.9805    1.0000 </r>
       <r>   -1.8823    1.0000 </r>
       <r>   -1.8212    1.0000 </r>
       <r>   -1.7590    1.0000 </r>
       <r>   -1.5400    1.0000 </r>
       <r>   -1.4219    1.0000 </r>
       <r>   -1.2010    1.0000 </r>
       <r>   -0.9984    1.0000 </r>
       <r>   -0.8865    1.0000 </r>
       <r>   -0.2728    1.0000 </r>
       <r>   -0.0869    0.9464 </r>
       <r>    0.2814    0.0002 </r>
       <r>    0.5395    0.0000 </r>
       <r>    0.7068    0.0000 </r>
       <r>    0.8678    0.0000 </r>
       <r>    1.3995    0.0000 </r>
       <r>    1.5854    0.0000 </r>
       <r>    1.7392    0.0000 </r>
       <r>    1.9610    0.0000 </r>
       <r>    2.0763    0.0000 </r>
       <r>    2.1530    0.0000 </r>
       <r>    2.2491    0.0000 </r>
       <r>    2.2700    0.0000 </r>
       <r>    2.3648    0.0000 </r>
       <r>    2.5864    0.0000 </r>
       <r>    2.7372    0.0000 </r>
      </set>
      <set comment="kpoint 3">
       <r>  -14.5933    1.0000 </r>
       <r>  -13.3216    1.0000 </r>
       <r>  -12.8157    1.0000 </r>
       <r>  -12.6239    1.0000 </r>
       <r>  -12.6144    1.0000 </r>
       <r>  -12.2886    1.0000 </r>
       <r>  -11.8683    1.0000 </r>
       <r>  -11.4809    1.0000 </r>
       <r>  -11.2672    1.0000 </r>
       <r>  -11.0578    1.0000 </r>
       <r>  -10.8295    1.0000 </r>
       <r>  -10.4382    1.0000 </r>
       <r>   -9.5012    1.0000 </r>
       <r>   -8.1929    1.0000 </r>
       <r>   -7.8939    1.0000 </r>
       <r>   -7.7711    1.0000 </r>
       <r>   -6.8118    1.0000 </r>
       <r>   -6.7334    1.0000 </r>
       <r>   -6.5238    1.0000 </r>
       <r>   -6.0154    1.0000 </r>
       <r>   -5.7506    1.0000 </r>
       <r>   -5.7109    1.0000 </r>
       <r>   -5.0635    1.0000 </r>
       <r>   -4.8988    1.0000 </r>
       <r>   -4.8114    1.0000 </r>
       <r>   -4.5601    1.0000 </r>
       <r>   -4.2322    1.0000 </r>
       <r>   -4.1184    1.0000 </r>
       <r>   -4.1069    1.0000 </r>
       <r>   -3.9993    1.0000 </r>
       <r>   -3.7872    1.0000 </r>
       <r>   -3.6901    1.0000 </r>
       <r>   -3.4597    1.0000 </r>
       <r>   -3.2466    1.0000 </r>
       <r>   -3.1482    1.0000 </r>
       <r>   -2.9988    1.0000 </r>
       <r>   -2.9805    1.0000 </r>
       <r>   -2.8483    1.0000 </r>
       <r>   -2.7876    1.0000 </r>
       <r>   -2.5933    1.0000 </r>
       <r>   -2.4216    1.0000 </r>
       <r>   -2.3985    1.0000 </r>
       <r>   -2.1733    1.0000 </r>
       <r>   -2.0387    1.0000 </r>
       <r>   -1.9015    1.0000 </r>
       <r>   -1.7902    1.0000 </r>
       <r>   -1.6766    1.0000 </r>
       <r>   -1.4250    1.0000 </r>
       <r>   -1.2477    1.0000 </r>
       <r>   -1.0058    1.0000 </r>
       <r>   -0.9037    1.0000 </r>
       <r>   -0.2150    0.9997 </r>
       <r>    0.0032    0.6322 </r>
       <r>    0.1095    0.1219 </r>
       <r>    0.4204    0.0000 </r>
       <r>    0.8227    0.0000 </r>
       <r>    1.0315    0.0000 </r>
       <r>    1.4674    0.0000 </r>
       <r>    1.7197    0.0000 </r>
       <r>    1.9589    0.0000 </r>
       <r>    2.2308    0.0000 </r>
       <r>    2.4028    0.0000 </r>
       <r>    2.5325    0.0000 </r>
       <r>    2.6173    0.0000 </r>
       <r>    2.6519    0.0000 </r>
       <r>    2.8294    0.0000 </r>
       <r>    2.9361    0.0000 </r>
       <r>    3.0306    0.0000 </r>
      </set>
      <set comment="kpoint 4">
       <r>  -14.3284    1.0000 </r>
       <r>  -13.0206    1.0000 </r>
       <r>  -12.5697    1.0000 </r>
       <r>  -12.3613    1.0000 </r>
       <r>  -12.3133    1.0000 </r>
       <r>  -12.0220    1.0000 </r>
       <r>  -11.5806    1.0000 </r>
       <r>  -11.2908    1.0000 </r>
       <r>  -11.0502    1.0000 </r>
       <r>  -10.8628    1.0000 </r>
       <r>  -10.6262    1.0000 </r>
       <r>  -10.3104    1.0000 </r>
       <r>   -9.5219    1.0000 </r>
       <r>   -8.3842    1.0000 </r>
       <r>   -7.8563    1.0000 </r>
       <r>   -7.8020    1.0000 </r>
       <r>   -7.1809    1.0000 </r>
       <r>   -6.7165    1.0000 </r>
       <r>   -6.6584    1.0000 </r>
       <r>   -6.4030    1.0000 </r>
       <r>   -6.0930    1.0000 </r>
       <r>   -5.7612    1.0000 </r>
       <r>   -5.4048    1.0000 </r>
       <r>   -5.3578    1.0000 </r>
       <r>   -4.8400    1.0000 </r>
       <r>   -4.8186    1.0000 </r>
       <r>   -4.6945    1.0000 </r>
       <r>   -4.6277    1.0000 </r>
       <r>   -4.5341    1.0000 </r>
       <r>   -4.4013    1.0000 </r>
       <r>   -4.2220    1.0000 </r>
       <r>   -4.1260    1.0000 </r>
       <r>   -3.8252    1.0000 </r>
       <r>   -3.7245    1.0000 </r>
       <r>   -3.5647    1.0000 </r>
       <r>   -3.4862    1.0000 </r>
       <r>   -3.2001    1.0000 </r>
       <r>   -3.0211    1.0000 </r>
       <r>   -2.9630    1.0000 </r>
       <r>   -2.7804    1.0000 </r>
       <r>   -2.6144    1.0000 </r>
       <r>   -2.5170    1.0000 </r>
       <r>   -2.4518    1.0000 </r>
       <r>   -2.0713    1.0000 </r>
       <r>   -1.9247    1.0000 </r>
       <r>   -1.8496    1.0000 </r>
       <r>   -1.7565    1.0000 </r>
       <r>   -1.5062    1.0000 </r>
       <r>   -1.4347    1.0000 </r>
       <r>   -1.1427    1.0000 </r>
       <r>   -1.0311    1.0000 </r>
       <r>   -0.4912    1.0000 </r>
       <r>   -0.2624    1.0000 </r>
       <r>   -0.0047    0.6732 </r>
       <r>    0.2176    0.0035 </r>
       <r>    0.8143    0.0000 </r>
       <r>    0.9368    0.0000 </r>
       <r>    1.5167    0.0000 </r>
       <r>    1.6773    0.0000 </r>
       <r>    1.8674    0.0000 </r>
       <r>    2.0366    0.0000 </r>
       <r>    2.2330    0.0000 </r>
       <r>    2.3585    0.0000 </r>
       <r>    2.6076    0.0000 </r>
       <r>    2.7170    0.0000 </r>
       <r>    2.8577    0.0000 </r>
       <r>    2.9337    0.0000 </r>
       <r>    3.0097    0.0000 </r>
      </set>
      <set comment="kpoint 5">
       <r>  -13.9813    1.0000 </r>
       <r>  -12.6089    1.0000 </r>
       <r>  -12.2306    1.0000 </r>
       <r>  -12.0128    1.0000 </r>
       <r>  -11.9299    1.0000 </r>
       <r>  -11.6707    1.0000 </r>
       <r>  -11.2235    1.0000 </r>
       <r>  -11.0898    1.0000 </r>
       <r>  -10.8057    1.0000 </r>
       <r>  -10.7357    1.0000 </r>
       <r>  -10.4401    1.0000 </r>
       <r>  -10.1406    1.0000 </r>
       <r>   -9.5565    1.0000 </r>
       <r>   -8.6792    1.0000 </r>
       <r>   -8.1214    1.0000 </r>
       <r>   -8.0973    1.0000 </r>
       <r>   -7.3890    1.0000 </r>
       <r>   -7.0243    1.0000 </r>
       <r>   -6.9668    1.0000 </r>
       <r>   -6.9173    1.0000 </r>
       <r>   -6.5448    1.0000 </r>
       <r>   -6.1864    1.0000 </r>
       <r>   -5.9902    1.0000 </r>
       <r>   -5.8002    1.0000 </r>
       <r>   -5.2350    1.0000 </r>
       <r>   -5.1535    1.0000 </r>
       <r>   -4.8300    1.0000 </r>
       <r>   -4.7274    1.0000 </r>
       <r>   -4.6818    1.0000 </r>
       <r>   -4.4736    1.0000 </r>
       <r>   -4.3385    1.0000 </r>
       <r>   -4.2402    1.0000 </r>
       <r>   -4.1791    1.0000 </r>
       <r>   -3.9573    1.0000 </r>
       <r>   -3.7931    1.0000 </r>
       <r>   -3.4413    1.0000 </r>
       <r>   -3.4073    1.0000 </r>
       <r>   -3.1104    1.0000 </r>
       <r>   -3.0161    1.0000 </r>
       <r>   -2.8719    1.0000 </r>
       <r>   -2.7527    1.0000 </r>
       <r>   -2.6796    1.0000 </r>
       <r>   -2.5667    1.0000 </r>
       <r>   -2.1356    1.0000 </r>
       <r>   -2.0889    1.0000 </r>
       <r>   -1.9240    1.0000 </r>
       <r>   -1.8967    1.0000 </r>
       <r>   -1.7436    1.0000 </r>
       <r>   -1.5486    1.0000 </r>
       <r>   -1.3661    1.0000 </r>
       <r>   -1.0481    1.0000 </r>
       <r>   -0.9281    1.0000 </r>
       <r>   -0.4578    1.0000 </r>
       <r>   -0.1343    0.9887 </r>
       <r>   -0.0522    0.8690 </r>
       <r>    0.5707    0.0000 </r>
       <r>    0.8913    0.0000 </r>
       <r>    1.4116    0.0000 </r>
       <r>    1.5708    0.0000 </r>
       <r>    1.6732    0.0000 </r>
       <r>    1.8042    0.0000 </r>
       <r>    1.9787    0.0000 </r>
       <r>    2.1974    0.0000 </r>
       <r>    2.3291    0.0000 </r>
       <r>    2.5077    0.0000 </r>
       <r>    2.6462    0.0000 </r>
       <r>    2.7114    0.0000 </r>
       <r>    2.8211    0.0000 </r>
      </set>
      <set comment="kpoint 6">
       <r>  -13.5962    1.0000 </r>
       <r>  -12.1007    1.0000 </r>
       <r>  -11.8494    1.0000 </r>
       <r>  -11.5936    1.0000 </r>
       <r>  -11.5499    1.0000 </r>
       <r>  -11.2741    1.0000 </r>
       <r>  -11.0281    1.0000 </r>
       <r>  -10.8753    1.0000 </r>
       <r>  -10.7252    1.0000 </r>
       <r>  -10.6504    1.0000 </r>
       <r>  -10.4803    1.0000 </r>
       <r>   -9.9368    1.0000 </r>
       <r>   -9.5398    1.0000 </r>
       <r>   -8.8554    1.0000 </r>
       <r>   -8.5396    1.0000 </r>
       <r>   -8.4030    1.0000 </r>
       <r>   -7.8479    1.0000 </r>
       <r>   -7.4836    1.0000 </r>
       <r>   -7.4415    1.0000 </r>
       <r>   -7.2718    1.0000 </r>
       <r>   -6.8750    1.0000 </r>
       <r>   -6.7835    1.0000 </r>
       <r>   -6.6877    1.0000 </r>
       <r>   -5.9535    1.0000 </r>
       <r>   -5.6777    1.0000 </r>
       <r>   -5.2347    1.0000 </r>
       <r>   -4.7235    1.0000 </r>
       <r>   -4.6248    1.0000 </r>
       <r>   -4.5462    1.0000 </r>
       <r>   -4.4388    1.0000 </r>
       <r>   -4.3092    1.0000 </r>
       <r>   -4.2512    1.0000 </r>
       <r>   -4.1262    1.0000 </r>
       <r>   -4.0809    1.0000 </r>
       <r>   -3.6790    1.0000 </r>
       <r>   -3.6421    1.0000 </r>
       <r>   -3.4019    1.0000 </r>
       <r>   -3.2932    1.0000 </r>
       <r>   -3.1822    1.0000 </r>
       <r>   -2.9737    1.0000 </r>
       <r>   -2.8345    1.0000 </r>
       <r>   -2.7069    1.0000 </r>
       <r>   -2.5133    1.0000 </r>
       <r>   -2.3425    1.0000 </r>
       <r>   -2.2778    1.0000 </r>
       <r>   -2.1256    1.0000 </r>
       <r>   -2.0509    1.0000 </r>
       <r>   -1.8734    1.0000 </r>
       <r>   -1.5992    1.0000 </r>
       <r>   -1.4705    1.0000 </r>
       <r>   -1.2784    1.0000 </r>
       <r>   -1.2384    1.0000 </r>
       <r>   -0.5880    1.0000 </r>
       <r>   -0.2850    1.0000 </r>
       <r>   -0.1640    0.9966 </r>
       <r>    0.3162    0.0000 </r>
       <r>    0.8633    0.0000 </r>
       <r>    1.3232    0.0000 </r>
       <r>    1.4126    0.0000 </r>
       <r>    1.5437    0.0000 </r>
       <r>    1.7161    0.0000 </r>
       <r>    1.7595    0.0000 </r>
       <r>    2.0482    0.0000 </r>
       <r>    2.2220    0.0000 </r>
       <r>    2.2799    0.0000 </r>
       <r>    2.3565    0.0000 </r>
       <r>    2.6048    0.0000 </r>
       <r>    2.6720    0.0000 </r>
      </set>
      <set comment="kpoint 7">
       <r>  -13.2922    1.0000 </r>
       <r>  -11.6934    1.0000 </r>
       <r>  -11.5261    1.0000 </r>
       <r>  -11.2236    1.0000 </r>
       <r>  -11.1710    1.0000 </r>
       <r>  -10.9753    1.0000 </r>
       <r>  -10.9441    1.0000 </r>
       <r>  -10.8664    1.0000 </r>
       <r>  -10.8578    1.0000 </r>
       <r>  -10.7544    1.0000 </r>
       <r>  -10.6593    1.0000 </r>
       <r>   -9.8162    1.0000 </r>
       <r>   -9.4680    1.0000 </r>
       <r>   -8.8354    1.0000 </r>
       <r>   -8.7119    1.0000 </r>
       <r>   -8.4665    1.0000 </r>
       <r>   -8.1063    1.0000 </r>
       <r>   -8.0806    1.0000 </r>
       <r>   -7.6986    1.0000 </r>
       <r>   -7.5973    1.0000 </r>
       <r>   -7.3119    1.0000 </r>
       <r>   -7.2037    1.0000 </r>
       <r>   -6.9983    1.0000 </r>
       <r>   -5.9628    1.0000 </r>
       <r>   -5.7073    1.0000 </r>
       <r>   -5.1126    1.0000 </r>
       <r>   -4.9334    1.0000 </r>
       <r>   -4.6213    1.0000 </r>
       <r>   -4.5244    1.0000 </r>
       <r>   -4.2916    1.0000 </r>
       <r>   -4.1013    1.0000 </r>
       <r>   -4.0420    1.0000 </r>
       <r>   -3.9912    1.0000 </r>
       <r>   -3.9619    1.0000 </r>
       <r>   -3.8521    1.0000 </r>
       <r>   -3.6192    1.0000 </r>
       <r>   -3.5913    1.0000 </r>
       <r>   -3.2921    1.0000 </r>
       <r>   -3.2607    1.0000 </r>
       <r>   -3.0604    1.0000 </r>
       <r>   -2.9911    1.0000 </r>
       <r>   -2.7644    1.0000 </r>
       <r>   -2.7129    1.0000 </r>
       <r>   -2.3958    1.0000 </r>
       <r>   -2.3285    1.0000 </r>
       <r>   -2.2251    1.0000 </r>
       <r>   -2.1293    1.0000 </r>
       <r>   -1.7764    1.0000 </r>
       <r>   -1.6542    1.0000 </r>
       <r>   -1.5861    1.0000 </r>
       <r>   -1.5327    1.0000 </r>
       <r>   -1.3910    1.0000 </r>
       <r>   -0.5990    1.0000 </r>
       <r>   -0.4118    1.0000 </r>
       <r>   -0.1908    0.9990 </r>
       <r>    0.1601    0.0300 </r>
       <r>    0.8424    0.0000 </r>
       <r>    1.3009    0.0000 </r>
       <r>    1.3611    0.0000 </r>
       <r>    1.4577    0.0000 </r>
       <r>    1.6367    0.0000 </r>
       <r>    1.6985    0.0000 </r>
       <r>    1.8832    0.0000 </r>
       <r>    2.0639    0.0000 </r>
       <r>    2.2149    0.0000 </r>
       <r>    2.3746    0.0000 </r>
       <r>    2.4660    0.0000 </r>
       <r>    2.5375    0.0000 </r>
      </set>
      <set comment="kpoint 8">
       <r>  -14.8091    1.0000 </r>
       <r>  -13.5106    1.0000 </r>
       <r>  -13.1747    1.0000 </r>
       <r>  -12.9990    1.0000 </r>
       <r>  -12.6284    1.0000 </r>
       <r>  -12.5056    1.0000 </r>
       <r>  -11.9100    1.0000 </r>
       <r>  -11.8719    1.0000 </r>
       <r>  -11.5032    1.0000 </r>
       <r>  -11.0912    1.0000 </r>
       <r>  -11.0250    1.0000 </r>
       <r>  -10.5201    1.0000 </r>
       <r>   -9.6152    1.0000 </r>
       <r>   -8.5402    1.0000 </r>
       <r>   -7.9935    1.0000 </r>
       <r>   -7.4064    1.0000 </r>
       <r>   -6.7360    1.0000 </r>
       <r>   -6.6961    1.0000 </r>
       <r>   -6.6200    1.0000 </r>
       <r>   -5.8893    1.0000 </r>
       <r>   -5.7706    1.0000 </r>
       <r>   -5.3728    1.0000 </r>
       <r>   -4.9697    1.0000 </r>
       <r>   -4.6843    1.0000 </r>
       <r>   -4.4342    1.0000 </r>
       <r>   -4.0505    1.0000 </r>
       <r>   -4.0039    1.0000 </r>
       <r>   -3.6861    1.0000 </r>
       <r>   -3.4098    1.0000 </r>
       <r>   -3.2324    1.0000 </r>
       <r>   -3.1534    1.0000 </r>
       <r>   -3.0457    1.0000 </r>
       <r>   -2.8430    1.0000 </r>
       <r>   -2.7337    1.0000 </r>
       <r>   -2.5288    1.0000 </r>
       <r>   -2.4575    1.0000 </r>
       <r>   -2.4156    1.0000 </r>
       <r>   -2.3424    1.0000 </r>
       <r>   -2.2192    1.0000 </r>
       <r>   -2.0265    1.0000 </r>
       <r>   -1.9852    1.0000 </r>
       <r>   -1.9141    1.0000 </r>
       <r>   -1.8987    1.0000 </r>
       <r>   -1.6539    1.0000 </r>
       <r>   -1.6388    1.0000 </r>
       <r>   -1.4939    1.0000 </r>
       <r>   -1.3888    1.0000 </r>
       <r>   -1.3770    1.0000 </r>
       <r>   -1.1979    1.0000 </r>
       <r>   -1.0696    1.0000 </r>
       <r>   -0.9646    1.0000 </r>
       <r>   -0.5333    1.0000 </r>
       <r>   -0.1841    0.9986 </r>
       <r>    0.1646    0.0259 </r>
       <r>    0.5705    0.0000 </r>
       <r>    0.6873    0.0000 </r>
       <r>    1.0258    0.0000 </r>
       <r>    1.1800    0.0000 </r>
       <r>    1.3516    0.0000 </r>
       <r>    1.5408    0.0000 </r>
       <r>    1.6859    0.0000 </r>
       <r>    1.8062    0.0000 </r>
       <r>    1.8939    0.0000 </r>
       <r>    2.0736    0.0000 </r>
       <r>    2.2196    0.0000 </r>
       <r>    2.3591    0.0000 </r>
       <r>    2.4540    0.0000 </r>
       <r>    2.5397    0.0000 </r>
      </set>
      <set comment="kpoint 9">
       <r>  -14.7530    1.0000 </r>
       <r>  -13.4338    1.0000 </r>
       <r>  -13.1380    1.0000 </r>
       <r>  -12.9798    1.0000 </r>
       <r>  -12.5239    1.0000 </r>
       <r>  -12.4463    1.0000 </r>
       <r>  -11.8890    1.0000 </r>
       <r>  -11.7951    1.0000 </r>
       <r>  -11.4620    1.0000 </r>
       <r>  -11.0167    1.0000 </r>
       <r>  -10.9799    1.0000 </r>
       <r>  -10.4815    1.0000 </r>
       <r>   -9.6264    1.0000 </r>
       <r>   -8.5987    1.0000 </r>
       <r>   -7.9465    1.0000 </r>
       <r>   -7.3576    1.0000 </r>
       <r>   -6.7694    1.0000 </r>
       <r>   -6.7035    1.0000 </r>
       <r>   -6.5533    1.0000 </r>
       <r>   -5.8867    1.0000 </r>
       <r>   -5.7253    1.0000 </r>
       <r>   -5.4297    1.0000 </r>
       <r>   -4.9725    1.0000 </r>
       <r>   -4.7234    1.0000 </r>
       <r>   -4.4523    1.0000 </r>
       <r>   -4.2901    1.0000 </r>
       <r>   -4.0890    1.0000 </r>
       <r>   -3.7343    1.0000 </r>
       <r>   -3.6320    1.0000 </r>
       <r>   -3.4242    1.0000 </r>
       <r>   -3.3326    1.0000 </r>
       <r>   -3.2406    1.0000 </r>
       <r>   -3.0503    1.0000 </r>
       <r>   -3.0247    1.0000 </r>
       <r>   -2.7801    1.0000 </r>
       <r>   -2.7248    1.0000 </r>
       <r>   -2.5686    1.0000 </r>
       <r>   -2.4894    1.0000 </r>
       <r>   -2.3282    1.0000 </r>
       <r>   -2.2604    1.0000 </r>
       <r>   -2.2008    1.0000 </r>
       <r>   -2.0554    1.0000 </r>
       <r>   -1.9288    1.0000 </r>
       <r>   -1.8797    1.0000 </r>
       <r>   -1.8156    1.0000 </r>
       <r>   -1.7643    1.0000 </r>
       <r>   -1.4695    1.0000 </r>
       <r>   -1.3664    1.0000 </r>
       <r>   -1.1276    1.0000 </r>
       <r>   -1.0018    1.0000 </r>
       <r>   -0.9229    1.0000 </r>
       <r>   -0.3236    1.0000 </r>
       <r>   -0.1683    0.9971 </r>
       <r>    0.1925    0.0097 </r>
       <r>    0.5265    0.0000 </r>
       <r>    0.8101    0.0000 </r>
       <r>    1.1371    0.0000 </r>
       <r>    1.4018    0.0000 </r>
       <r>    1.6047    0.0000 </r>
       <r>    1.7551    0.0000 </r>
       <r>    1.9258    0.0000 </r>
       <r>    2.0261    0.0000 </r>
       <r>    2.1300    0.0000 </r>
       <r>    2.2400    0.0000 </r>
       <r>    2.4133    0.0000 </r>
       <r>    2.5102    0.0000 </r>
       <r>    2.6269    0.0000 </r>
       <r>    2.7349    0.0000 </r>
      </set>
      <set comment="kpoint 10">
       <r>  -14.5886    1.0000 </r>
       <r>  -13.2373    1.0000 </r>
       <r>  -12.9840    1.0000 </r>
       <r>  -12.8432    1.0000 </r>
       <r>  -12.3170    1.0000 </r>
       <r>  -12.2729    1.0000 </r>
       <r>  -11.7903    1.0000 </r>
       <r>  -11.5984    1.0000 </r>
       <r>  -11.3226    1.0000 </r>
       <r>  -10.8631    1.0000 </r>
       <r>  -10.8372    1.0000 </r>
       <r>  -10.3969    1.0000 </r>
       <r>   -9.6206    1.0000 </r>
       <r>   -8.6647    1.0000 </r>
       <r>   -7.8356    1.0000 </r>
       <r>   -7.3288    1.0000 </r>
       <r>   -6.8705    1.0000 </r>
       <r>   -6.6816    1.0000 </r>
       <r>   -6.5231    1.0000 </r>
       <r>   -6.1441    1.0000 </r>
       <r>   -5.6833    1.0000 </r>
       <r>   -5.5998    1.0000 </r>
       <r>   -5.0442    1.0000 </r>
       <r>   -4.8677    1.0000 </r>
       <r>   -4.7513    1.0000 </r>
       <r>   -4.4176    1.0000 </r>
       <r>   -4.3793    1.0000 </r>
       <r>   -4.2820    1.0000 </r>
       <r>   -4.0614    1.0000 </r>
       <r>   -3.9766    1.0000 </r>
       <r>   -3.7985    1.0000 </r>
       <r>   -3.6357    1.0000 </r>
       <r>   -3.4068    1.0000 </r>
       <r>   -3.3129    1.0000 </r>
       <r>   -3.1524    1.0000 </r>
       <r>   -3.0013    1.0000 </r>
       <r>   -2.9753    1.0000 </r>
       <r>   -2.8376    1.0000 </r>
       <r>   -2.7990    1.0000 </r>
       <r>   -2.6378    1.0000 </r>
       <r>   -2.5603    1.0000 </r>
       <r>   -2.3840    1.0000 </r>
       <r>   -2.3102    1.0000 </r>
       <r>   -2.0414    1.0000 </r>
       <r>   -1.9160    1.0000 </r>
       <r>   -1.8547    1.0000 </r>
       <r>   -1.5208    1.0000 </r>
       <r>   -1.3987    1.0000 </r>
       <r>   -1.1661    1.0000 </r>
       <r>   -1.0247    1.0000 </r>
       <r>   -0.9293    1.0000 </r>
       <r>   -0.2585    1.0000 </r>
       <r>   -0.1129    0.9761 </r>
       <r>    0.0922    0.1784 </r>
       <r>    0.3142    0.0000 </r>
       <r>    0.9729    0.0000 </r>
       <r>    1.1537    0.0000 </r>
       <r>    1.4117    0.0000 </r>
       <r>    1.6780    0.0000 </r>
       <r>    1.8865    0.0000 </r>
       <r>    2.0896    0.0000 </r>
       <r>    2.3298    0.0000 </r>
       <r>    2.5587    0.0000 </r>
       <r>    2.7211    0.0000 </r>
       <r>    2.8206    0.0000 </r>
       <r>    2.9342    0.0000 </r>
       <r>    3.0053    0.0000 </r>
       <r>    3.0711    0.0000 </r>
      </set>
      <set comment="kpoint 11">
       <r>  -14.3240    1.0000 </r>
       <r>  -12.9260    1.0000 </r>
       <r>  -12.7179    1.0000 </r>
       <r>  -12.5918    1.0000 </r>
       <r>  -12.0303    1.0000 </r>
       <r>  -11.9850    1.0000 </r>
       <r>  -11.6049    1.0000 </r>
       <r>  -11.3219    1.0000 </r>
       <r>  -11.1008    1.0000 </r>
       <r>  -10.6785    1.0000 </r>
       <r>  -10.6210    1.0000 </r>
       <r>  -10.2860    1.0000 </r>
       <r>   -9.6161    1.0000 </r>
       <r>   -8.7963    1.0000 </r>
       <r>   -7.7396    1.0000 </r>
       <r>   -7.4191    1.0000 </r>
       <r>   -7.1543    1.0000 </r>
       <r>   -6.7318    1.0000 </r>
       <r>   -6.7137    1.0000 </r>
       <r>   -6.6650    1.0000 </r>
       <r>   -5.8605    1.0000 </r>
       <r>   -5.8410    1.0000 </r>
       <r>   -5.4233    1.0000 </r>
       <r>   -5.2307    1.0000 </r>
       <r>   -5.0543    1.0000 </r>
       <r>   -4.8140    1.0000 </r>
       <r>   -4.6902    1.0000 </r>
       <r>   -4.6125    1.0000 </r>
       <r>   -4.5725    1.0000 </r>
       <r>   -4.4053    1.0000 </r>
       <r>   -4.1427    1.0000 </r>
       <r>   -4.0293    1.0000 </r>
       <r>   -3.7735    1.0000 </r>
       <r>   -3.7117    1.0000 </r>
       <r>   -3.5016    1.0000 </r>
       <r>   -3.2643    1.0000 </r>
       <r>   -3.2248    1.0000 </r>
       <r>   -3.1167    1.0000 </r>
       <r>   -2.8507    1.0000 </r>
       <r>   -2.7979    1.0000 </r>
       <r>   -2.6707    1.0000 </r>
       <r>   -2.5903    1.0000 </r>
       <r>   -2.5466    1.0000 </r>
       <r>   -2.0833    1.0000 </r>
       <r>   -2.0106    1.0000 </r>
       <r>   -1.9032    1.0000 </r>
       <r>   -1.7995    1.0000 </r>
       <r>   -1.4407    1.0000 </r>
       <r>   -1.3852    1.0000 </r>
       <r>   -1.1135    1.0000 </r>
       <r>   -1.0424    1.0000 </r>
       <r>   -0.4648    1.0000 </r>
       <r>   -0.3662    1.0000 </r>
       <r>   -0.0697    0.9145 </r>
       <r>    0.1243    0.0846 </r>
       <r>    0.8437    0.0000 </r>
       <r>    0.9839    0.0000 </r>
       <r>    1.3652    0.0000 </r>
       <r>    1.5060    0.0000 </r>
       <r>    1.6252    0.0000 </r>
       <r>    1.8200    0.0000 </r>
       <r>    2.1912    0.0000 </r>
       <r>    2.4915    0.0000 </r>
       <r>    2.5919    0.0000 </r>
       <r>    2.6857    0.0000 </r>
       <r>    2.8794    0.0000 </r>
       <r>    3.0274    0.0000 </r>
       <r>    3.1736    0.0000 </r>
      </set>
      <set comment="kpoint 12">
       <r>  -13.9775    1.0000 </r>
       <r>  -12.5095    1.0000 </r>
       <r>  -12.3533    1.0000 </r>
       <r>  -12.2326    1.0000 </r>
       <r>  -11.6777    1.0000 </r>
       <r>  -11.6300    1.0000 </r>
       <r>  -11.3578    1.0000 </r>
       <r>  -11.0082    1.0000 </r>
       <r>  -10.8372    1.0000 </r>
       <r>  -10.6306    1.0000 </r>
       <r>  -10.4164    1.0000 </r>
       <r>  -10.1191    1.0000 </r>
       <r>   -9.6004    1.0000 </r>
       <r>   -8.9957    1.0000 </r>
       <r>   -7.9885    1.0000 </r>
       <r>   -7.7328    1.0000 </r>
       <r>   -7.5323    1.0000 </r>
       <r>   -7.1372    1.0000 </r>
       <r>   -7.0643    1.0000 </r>
       <r>   -6.9859    1.0000 </r>
       <r>   -6.3724    1.0000 </r>
       <r>   -6.2157    1.0000 </r>
       <r>   -5.9451    1.0000 </r>
       <r>   -5.8238    1.0000 </r>
       <r>   -5.4045    1.0000 </r>
       <r>   -5.3095    1.0000 </r>
       <r>   -4.9648    1.0000 </r>
       <r>   -4.6976    1.0000 </r>
       <r>   -4.4598    1.0000 </r>
       <r>   -4.4176    1.0000 </r>
       <r>   -4.3449    1.0000 </r>
       <r>   -4.2048    1.0000 </r>
       <r>   -4.0337    1.0000 </r>
       <r>   -3.8341    1.0000 </r>
       <r>   -3.5871    1.0000 </r>
       <r>   -3.4771    1.0000 </r>
       <r>   -3.3600    1.0000 </r>
       <r>   -3.0462    1.0000 </r>
       <r>   -3.0144    1.0000 </r>
       <r>   -2.8984    1.0000 </r>
       <r>   -2.7862    1.0000 </r>
       <r>   -2.6025    1.0000 </r>
       <r>   -2.5187    1.0000 </r>
       <r>   -2.3503    1.0000 </r>
       <r>   -2.1876    1.0000 </r>
       <r>   -1.9921    1.0000 </r>
       <r>   -1.9129    1.0000 </r>
       <r>   -1.7721    1.0000 </r>
       <r>   -1.5513    1.0000 </r>
       <r>   -1.3655    1.0000 </r>
       <r>   -1.0472    1.0000 </r>
       <r>   -0.8233    1.0000 </r>
       <r>   -0.5169    1.0000 </r>
       <r>   -0.2325    0.9999 </r>
       <r>   -0.0146    0.7220 </r>
       <r>    0.4488    0.0000 </r>
       <r>    0.8195    0.0000 </r>
       <r>    1.2112    0.0000 </r>
       <r>    1.2301    0.0000 </r>
       <r>    1.3544    0.0000 </r>
       <r>    1.7059    0.0000 </r>
       <r>    2.1184    0.0000 </r>
       <r>    2.2478    0.0000 </r>
       <r>    2.3643    0.0000 </r>
       <r>    2.4357    0.0000 </r>
       <r>    2.6002    0.0000 </r>
       <r>    2.7151    0.0000 </r>
       <r>    2.9195    0.0000 </r>
      </set>
      <set comment="kpoint 13">
       <r>  -13.5936    1.0000 </r>
       <r>  -12.0071    1.0000 </r>
       <r>  -11.9341    1.0000 </r>
       <r>  -11.7824    1.0000 </r>
       <r>  -11.3930    1.0000 </r>
       <r>  -11.2707    1.0000 </r>
       <r>  -11.0788    1.0000 </r>
       <r>  -10.7641    1.0000 </r>
       <r>  -10.7478    1.0000 </r>
       <r>  -10.6259    1.0000 </r>
       <r>  -10.4929    1.0000 </r>
       <r>   -9.9156    1.0000 </r>
       <r>   -9.5509    1.0000 </r>
       <r>   -8.9862    1.0000 </r>
       <r>   -8.4873    1.0000 </r>
       <r>   -8.1380    1.0000 </r>
       <r>   -7.9571    1.0000 </r>
       <r>   -7.8035    1.0000 </r>
       <r>   -7.3852    1.0000 </r>
       <r>   -7.1617    1.0000 </r>
       <r>   -6.8796    1.0000 </r>
       <r>   -6.7223    1.0000 </r>
       <r>   -6.6826    1.0000 </r>
       <r>   -5.9811    1.0000 </r>
       <r>   -5.8299    1.0000 </r>
       <r>   -5.3669    1.0000 </r>
       <r>   -4.8162    1.0000 </r>
       <r>   -4.6069    1.0000 </r>
       <r>   -4.5182    1.0000 </r>
       <r>   -4.4016    1.0000 </r>
       <r>   -4.2487    1.0000 </r>
       <r>   -4.1363    1.0000 </r>
       <r>   -4.0354    1.0000 </r>
       <r>   -3.8821    1.0000 </r>
       <r>   -3.5855    1.0000 </r>
       <r>   -3.4187    1.0000 </r>
       <r>   -3.3770    1.0000 </r>
       <r>   -3.3048    1.0000 </r>
       <r>   -3.1591    1.0000 </r>
       <r>   -3.1100    1.0000 </r>
       <r>   -2.9489    1.0000 </r>
       <r>   -2.6663    1.0000 </r>
       <r>   -2.5792    1.0000 </r>
       <r>   -2.3781    1.0000 </r>
       <r>   -2.2582    1.0000 </r>
       <r>   -2.1554    1.0000 </r>
       <r>   -2.0926    1.0000 </r>
       <r>   -1.8861    1.0000 </r>
       <r>   -1.6891    1.0000 </r>
       <r>   -1.5168    1.0000 </r>
       <r>   -1.2898    1.0000 </r>
       <r>   -1.1244    1.0000 </r>
       <r>   -0.5754    1.0000 </r>
       <r>   -0.3866    1.0000 </r>
       <r>   -0.0971    0.9605 </r>
       <r>    0.1903    0.0105 </r>
       <r>    0.7587    0.0000 </r>
       <r>    1.1617    0.0000 </r>
       <r>    1.2024    0.0000 </r>
       <r>    1.3027    0.0000 </r>
       <r>    1.5981    0.0000 </r>
       <r>    1.7974    0.0000 </r>
       <r>    2.0091    0.0000 </r>
       <r>    2.1415    0.0000 </r>
       <r>    2.2222    0.0000 </r>
       <r>    2.5570    0.0000 </r>
       <r>    2.6081    0.0000 </r>
       <r>    2.6771    0.0000 </r>
      </set>
      <set comment="kpoint 14">
       <r>  -13.2911    1.0000 </r>
       <r>  -11.7071    1.0000 </r>
       <r>  -11.4560    1.0000 </r>
       <r>  -11.2872    1.0000 </r>
       <r>  -11.2288    1.0000 </r>
       <r>  -10.9865    1.0000 </r>
       <r>  -10.9041    1.0000 </r>
       <r>  -10.8874    1.0000 </r>
       <r>  -10.8678    1.0000 </r>
       <r>  -10.7245    1.0000 </r>
       <r>  -10.6054    1.0000 </r>
       <r>   -9.8282    1.0000 </r>
       <r>   -9.4665    1.0000 </r>
       <r>   -8.8466    1.0000 </r>
       <r>   -8.5791    1.0000 </r>
       <r>   -8.4250    1.0000 </r>
       <r>   -8.3544    1.0000 </r>
       <r>   -8.0855    1.0000 </r>
       <r>   -7.6799    1.0000 </r>
       <r>   -7.5430    1.0000 </r>
       <r>   -7.3413    1.0000 </r>
       <r>   -7.1633    1.0000 </r>
       <r>   -6.9793    1.0000 </r>
       <r>   -5.9661    1.0000 </r>
       <r>   -5.8180    1.0000 </r>
       <r>   -5.0565    1.0000 </r>
       <r>   -5.0317    1.0000 </r>
       <r>   -4.6053    1.0000 </r>
       <r>   -4.4906    1.0000 </r>
       <r>   -4.2506    1.0000 </r>
       <r>   -4.1611    1.0000 </r>
       <r>   -4.0433    1.0000 </r>
       <r>   -3.9591    1.0000 </r>
       <r>   -3.8929    1.0000 </r>
       <r>   -3.6894    1.0000 </r>
       <r>   -3.6683    1.0000 </r>
       <r>   -3.5236    1.0000 </r>
       <r>   -3.2887    1.0000 </r>
       <r>   -3.2199    1.0000 </r>
       <r>   -3.0828    1.0000 </r>
       <r>   -3.0078    1.0000 </r>
       <r>   -2.7503    1.0000 </r>
       <r>   -2.6667    1.0000 </r>
       <r>   -2.6226    1.0000 </r>
       <r>   -2.2746    1.0000 </r>
       <r>   -2.1891    1.0000 </r>
       <r>   -2.1466    1.0000 </r>
       <r>   -1.8157    1.0000 </r>
       <r>   -1.7425    1.0000 </r>
       <r>   -1.6134    1.0000 </r>
       <r>   -1.5645    1.0000 </r>
       <r>   -1.2743    1.0000 </r>
       <r>   -0.5829    1.0000 </r>
       <r>   -0.4449    1.0000 </r>
       <r>   -0.1551    0.9950 </r>
       <r>    0.1099    0.1206 </r>
       <r>    0.8112    0.0000 </r>
       <r>    1.2214    0.0000 </r>
       <r>    1.3942    0.0000 </r>
       <r>    1.4412    0.0000 </r>
       <r>    1.5309    0.0000 </r>
       <r>    1.5983    0.0000 </r>
       <r>    1.7901    0.0000 </r>
       <r>    2.0888    0.0000 </r>
       <r>    2.1783    0.0000 </r>
       <r>    2.4176    0.0000 </r>
       <r>    2.4641    0.0000 </r>
       <r>    2.5779    0.0000 </r>
      </set>
      <set comment="kpoint 15">
       <r>  -13.2923    1.0000 </r>
       <r>  -11.7029    1.0000 </r>
       <r>  -11.5596    1.0000 </r>
       <r>  -11.1577    1.0000 </r>
       <r>  -11.0947    1.0000 </r>
       <r>  -11.0088    1.0000 </r>
       <r>  -10.9592    1.0000 </r>
       <r>  -10.8588    1.0000 </r>
       <r>  -10.8316    1.0000 </r>
       <r>  -10.7825    1.0000 </r>
       <r>  -10.7268    1.0000 </r>
       <r>   -9.8095    1.0000 </r>
       <r>   -9.4693    1.0000 </r>
       <r>   -8.8201    1.0000 </r>
       <r>   -8.7791    1.0000 </r>
       <r>   -8.4601    1.0000 </r>
       <r>   -8.0945    1.0000 </r>
       <r>   -7.9686    1.0000 </r>
       <r>   -7.7430    1.0000 </r>
       <r>   -7.6305    1.0000 </r>
       <r>   -7.3053    1.0000 </r>
       <r>   -7.2442    1.0000 </r>
       <r>   -6.9535    1.0000 </r>
       <r>   -5.8942    1.0000 </r>
       <r>   -5.7237    1.0000 </r>
       <r>   -5.2069    1.0000 </r>
       <r>   -4.7530    1.0000 </r>
       <r>   -4.6070    1.0000 </r>
       <r>   -4.5939    1.0000 </r>
       <r>   -4.3838    1.0000 </r>
       <r>   -4.0525    1.0000 </r>
       <r>   -4.0336    1.0000 </r>
       <r>   -4.0278    1.0000 </r>
       <r>   -3.9654    1.0000 </r>
       <r>   -3.9087    1.0000 </r>
       <r>   -3.6761    1.0000 </r>
       <r>   -3.5339    1.0000 </r>
       <r>   -3.3918    1.0000 </r>
       <r>   -3.3019    1.0000 </r>
       <r>   -2.9512    1.0000 </r>
       <r>   -2.8499    1.0000 </r>
       <r>   -2.7997    1.0000 </r>
       <r>   -2.7063    1.0000 </r>
       <r>   -2.4414    1.0000 </r>
       <r>   -2.3992    1.0000 </r>
       <r>   -2.1955    1.0000 </r>
       <r>   -2.1547    1.0000 </r>
       <r>   -1.8002    1.0000 </r>
       <r>   -1.7062    1.0000 </r>
       <r>   -1.5905    1.0000 </r>
       <r>   -1.5270    1.0000 </r>
       <r>   -1.2745    1.0000 </r>
       <r>   -0.5967    1.0000 </r>
       <r>   -0.4194    1.0000 </r>
       <r>   -0.1560    0.9952 </r>
       <r>    0.1704    0.0213 </r>
       <r>    0.8715    0.0000 </r>
       <r>    1.3073    0.0000 </r>
       <r>    1.3504    0.0000 </r>
       <r>    1.5517    0.0000 </r>
       <r>    1.6587    0.0000 </r>
       <r>    1.7543    0.0000 </r>
       <r>    1.8264    0.0000 </r>
       <r>    2.2167    0.0000 </r>
       <r>    2.2823    0.0000 </r>
       <r>    2.3366    0.0000 </r>
       <r>    2.4515    0.0000 </r>
       <r>    2.5511    0.0000 </r>
      </set>
      <set comment="kpoint 16">
       <r>  -13.5968    1.0000 </r>
       <r>  -12.1272    1.0000 </r>
       <r>  -11.8375    1.0000 </r>
       <r>  -11.5583    1.0000 </r>
       <r>  -11.5087    1.0000 </r>
       <r>  -11.2714    1.0000 </r>
       <r>  -11.0400    1.0000 </r>
       <r>  -10.9556    1.0000 </r>
       <r>  -10.7208    1.0000 </r>
       <r>  -10.6531    1.0000 </r>
       <r>  -10.4758    1.0000 </r>
       <r>   -9.9246    1.0000 </r>
       <r>   -9.5523    1.0000 </r>
       <r>   -8.7671    1.0000 </r>
       <r>   -8.5628    1.0000 </r>
       <r>   -8.5155    1.0000 </r>
       <r>   -7.7542    1.0000 </r>
       <r>   -7.4656    1.0000 </r>
       <r>   -7.3862    1.0000 </r>
       <r>   -7.3516    1.0000 </r>
       <r>   -6.8426    1.0000 </r>
       <r>   -6.8304    1.0000 </r>
       <r>   -6.6923    1.0000 </r>
       <r>   -5.9360    1.0000 </r>
       <r>   -5.6514    1.0000 </r>
       <r>   -5.0772    1.0000 </r>
       <r>   -4.8787    1.0000 </r>
       <r>   -4.7044    1.0000 </r>
       <r>   -4.4335    1.0000 </r>
       <r>   -4.3905    1.0000 </r>
       <r>   -4.3392    1.0000 </r>
       <r>   -4.2862    1.0000 </r>
       <r>   -4.1183    1.0000 </r>
       <r>   -4.1106    1.0000 </r>
       <r>   -3.7466    1.0000 </r>
       <r>   -3.6632    1.0000 </r>
       <r>   -3.4311    1.0000 </r>
       <r>   -3.3121    1.0000 </r>
       <r>   -3.1931    1.0000 </r>
       <r>   -3.0383    1.0000 </r>
       <r>   -2.8522    1.0000 </r>
       <r>   -2.7280    1.0000 </r>
       <r>   -2.5322    1.0000 </r>
       <r>   -2.2906    1.0000 </r>
       <r>   -2.2366    1.0000 </r>
       <r>   -2.0977    1.0000 </r>
       <r>   -1.9696    1.0000 </r>
       <r>   -1.8510    1.0000 </r>
       <r>   -1.6876    1.0000 </r>
       <r>   -1.4540    1.0000 </r>
       <r>   -1.3051    1.0000 </r>
       <r>   -1.1554    1.0000 </r>
       <r>   -0.6192    1.0000 </r>
       <r>   -0.3148    1.0000 </r>
       <r>   -0.0828    0.9399 </r>
       <r>    0.3122    0.0000 </r>
       <r>    0.8976    0.0000 </r>
       <r>    1.3442    0.0000 </r>
       <r>    1.4256    0.0000 </r>
       <r>    1.6285    0.0000 </r>
       <r>    1.7839    0.0000 </r>
       <r>    1.9088    0.0000 </r>
       <r>    2.1186    0.0000 </r>
       <r>    2.2445    0.0000 </r>
       <r>    2.4001    0.0000 </r>
       <r>    2.4616    0.0000 </r>
       <r>    2.5487    0.0000 </r>
       <r>    2.6157    0.0000 </r>
      </set>
      <set comment="kpoint 17">
       <r>  -13.9816    1.0000 </r>
       <r>  -12.6211    1.0000 </r>
       <r>  -12.2161    1.0000 </r>
       <r>  -11.9719    1.0000 </r>
       <r>  -11.9526    1.0000 </r>
       <r>  -11.6700    1.0000 </r>
       <r>  -11.2689    1.0000 </r>
       <r>  -11.0545    1.0000 </r>
       <r>  -10.7976    1.0000 </r>
       <r>  -10.7638    1.0000 </r>
       <r>  -10.4462    1.0000 </r>
       <r>  -10.1425    1.0000 </r>
       <r>   -9.5628    1.0000 </r>
       <r>   -8.5808    1.0000 </r>
       <r>   -8.2144    1.0000 </r>
       <r>   -8.0995    1.0000 </r>
       <r>   -7.3166    1.0000 </r>
       <r>   -7.0485    1.0000 </r>
       <r>   -7.0159    1.0000 </r>
       <r>   -6.8937    1.0000 </r>
       <r>   -6.5462    1.0000 </r>
       <r>   -6.1789    1.0000 </r>
       <r>   -5.9990    1.0000 </r>
       <r>   -5.8159    1.0000 </r>
       <r>   -5.1729    1.0000 </r>
       <r>   -5.1602    1.0000 </r>
       <r>   -4.9158    1.0000 </r>
       <r>   -4.6743    1.0000 </r>
       <r>   -4.6246    1.0000 </r>
       <r>   -4.4319    1.0000 </r>
       <r>   -4.3303    1.0000 </r>
       <r>   -4.2638    1.0000 </r>
       <r>   -4.1971    1.0000 </r>
       <r>   -3.9252    1.0000 </r>
       <r>   -3.9080    1.0000 </r>
       <r>   -3.4814    1.0000 </r>
       <r>   -3.4018    1.0000 </r>
       <r>   -3.1093    1.0000 </r>
       <r>   -3.0084    1.0000 </r>
       <r>   -2.9199    1.0000 </r>
       <r>   -2.8098    1.0000 </r>
       <r>   -2.6791    1.0000 </r>
       <r>   -2.5560    1.0000 </r>
       <r>   -2.0565    1.0000 </r>
       <r>   -2.0458    1.0000 </r>
       <r>   -1.9147    1.0000 </r>
       <r>   -1.8905    1.0000 </r>
       <r>   -1.7364    1.0000 </r>
       <r>   -1.5670    1.0000 </r>
       <r>   -1.3614    1.0000 </r>
       <r>   -1.0383    1.0000 </r>
       <r>   -0.9390    1.0000 </r>
       <r>   -0.5123    1.0000 </r>
       <r>   -0.2212    0.9998 </r>
       <r>    0.1008    0.1484 </r>
       <r>    0.5252    0.0000 </r>
       <r>    0.8953    0.0000 </r>
       <r>    1.4043    0.0000 </r>
       <r>    1.6298    0.0000 </r>
       <r>    1.7857    0.0000 </r>
       <r>    1.9304    0.0000 </r>
       <r>    1.9835    0.0000 </r>
       <r>    2.2326    0.0000 </r>
       <r>    2.3599    0.0000 </r>
       <r>    2.5461    0.0000 </r>
       <r>    2.6614    0.0000 </r>
       <r>    2.7312    0.0000 </r>
       <r>    2.7862    0.0000 </r>
      </set>
      <set comment="kpoint 18">
       <r>  -14.3279    1.0000 </r>
       <r>  -13.0164    1.0000 </r>
       <r>  -12.5967    1.0000 </r>
       <r>  -12.3758    1.0000 </r>
       <r>  -12.2762    1.0000 </r>
       <r>  -12.0219    1.0000 </r>
       <r>  -11.5632    1.0000 </r>
       <r>  -11.3142    1.0000 </r>
       <r>  -11.0539    1.0000 </r>
       <r>  -10.8430    1.0000 </r>
       <r>  -10.6247    1.0000 </r>
       <r>  -10.3138    1.0000 </r>
       <r>   -9.5367    1.0000 </r>
       <r>   -8.4246    1.0000 </r>
       <r>   -7.8185    1.0000 </r>
       <r>   -7.7622    1.0000 </r>
       <r>   -7.1712    1.0000 </r>
       <r>   -6.7170    1.0000 </r>
       <r>   -6.6616    1.0000 </r>
       <r>   -6.5240    1.0000 </r>
       <r>   -5.9996    1.0000 </r>
       <r>   -5.7634    1.0000 </r>
       <r>   -5.4167    1.0000 </r>
       <r>   -5.3554    1.0000 </r>
       <r>   -4.8600    1.0000 </r>
       <r>   -4.8338    1.0000 </r>
       <r>   -4.6942    1.0000 </r>
       <r>   -4.6187    1.0000 </r>
       <r>   -4.5346    1.0000 </r>
       <r>   -4.4186    1.0000 </r>
       <r>   -4.2109    1.0000 </r>
       <r>   -4.0226    1.0000 </r>
       <r>   -3.8278    1.0000 </r>
       <r>   -3.7260    1.0000 </r>
       <r>   -3.5821    1.0000 </r>
       <r>   -3.4719    1.0000 </r>
       <r>   -3.2401    1.0000 </r>
       <r>   -3.0218    1.0000 </r>
       <r>   -2.9827    1.0000 </r>
       <r>   -2.7629    1.0000 </r>
       <r>   -2.6324    1.0000 </r>
       <r>   -2.5590    1.0000 </r>
       <r>   -2.4580    1.0000 </r>
       <r>   -2.0119    1.0000 </r>
       <r>   -1.9123    1.0000 </r>
       <r>   -1.8512    1.0000 </r>
       <r>   -1.7711    1.0000 </r>
       <r>   -1.4927    1.0000 </r>
       <r>   -1.4344    1.0000 </r>
       <r>   -1.1317    1.0000 </r>
       <r>   -1.0135    1.0000 </r>
[...]
       <r>    2.6877    0.0000 </r>
      </set>
      <set comment="kpoint 54">
       <r>  -13.2913    1.0000 </r>
       <r>  -11.7158    1.0000 </r>
       <r>  -11.5149    1.0000 </r>
       <r>  -11.1933    1.0000 </r>
       <r>  -11.1744    1.0000 </r>
       <r>  -10.9776    1.0000 </r>
       <r>  -10.9631    1.0000 </r>
       <r>  -10.8749    1.0000 </r>
       <r>  -10.8588    1.0000 </r>
       <r>  -10.7471    1.0000 </r>
       <r>  -10.6461    1.0000 </r>
       <r>   -9.8212    1.0000 </r>
       <r>   -9.4679    1.0000 </r>
       <r>   -8.8307    1.0000 </r>
       <r>   -8.6894    1.0000 </r>
       <r>   -8.4666    1.0000 </r>
       <r>   -8.1453    1.0000 </r>
       <r>   -8.0931    1.0000 </r>
       <r>   -7.7295    1.0000 </r>
       <r>   -7.5867    1.0000 </r>
       <r>   -7.3167    1.0000 </r>
       <r>   -7.1935    1.0000 </r>
       <r>   -6.9257    1.0000 </r>
       <r>   -5.9209    1.0000 </r>
       <r>   -5.8238    1.0000 </r>
       <r>   -5.1457    1.0000 </r>
       <r>   -4.9658    1.0000 </r>
       <r>   -4.5622    1.0000 </r>
       <r>   -4.5020    1.0000 </r>
       <r>   -4.3000    1.0000 </r>
       <r>   -4.1127    1.0000 </r>
       <r>   -4.0432    1.0000 </r>
       <r>   -3.9701    1.0000 </r>
       <r>   -3.9203    1.0000 </r>
       <r>   -3.7903    1.0000 </r>
       <r>   -3.6018    1.0000 </r>
       <r>   -3.5661    1.0000 </r>
       <r>   -3.2822    1.0000 </r>
       <r>   -3.2250    1.0000 </r>
       <r>   -3.0862    1.0000 </r>
       <r>   -3.0437    1.0000 </r>
       <r>   -2.7837    1.0000 </r>
       <r>   -2.7185    1.0000 </r>
       <r>   -2.4046    1.0000 </r>
       <r>   -2.3308    1.0000 </r>
       <r>   -2.2210    1.0000 </r>
       <r>   -2.1357    1.0000 </r>
       <r>   -1.8965    1.0000 </r>
       <r>   -1.7530    1.0000 </r>
       <r>   -1.6059    1.0000 </r>
       <r>   -1.5594    1.0000 </r>
       <r>   -1.1684    1.0000 </r>
       <r>   -0.5914    1.0000 </r>
       <r>   -0.4643    1.0000 </r>
       <r>   -0.0949    0.9577 </r>
       <r>    0.0756    0.2464 </r>
       <r>    0.9274    0.0000 </r>
       <r>    1.1119    0.0000 </r>
       <r>    1.3319    0.0000 </r>
       <r>    1.5003    0.0000 </r>
       <r>    1.6138    0.0000 </r>
       <r>    1.6851    0.0000 </r>
       <r>    1.8819    0.0000 </r>
       <r>    2.0308    0.0000 </r>
       <r>    2.2441    0.0000 </r>
       <r>    2.3520    0.0000 </r>
       <r>    2.4228    0.0000 </r>
       <r>    2.4849    0.0000 </r>
      </set>
     </set>
    </set>
   </array>
  </eigenvalues>
  <separator name="orbital magnetization" >
   <v name="MAGDIPOLOUT">      0.00000000      0.00000000      0.00000000</v>
  </separator>
  <dos>
   <i name="efermi">      0.02705590 </i>
   <total>
    <array>
     <dimension dim="1">gridpoints</dimension>
     <dimension dim="2">spin</dimension>
     <field>energy</field>
     <field>total</field>
     <field>integrated</field>
     <set>
      <set comment="spin 1">
       <r>   -15.8128     0.0000     0.0000 </r>
       <r>   -15.7461     0.0000     0.0000 </r>
       <r>   -15.6795     0.0000     0.0000 </r>
       <r>   -15.6129     0.0000     0.0000 </r>
       <r>   -15.5462     0.0000     0.0000 </r>
       <r>   -15.4796     0.0000     0.0000 </r>
       <r>   -15.4130     0.0000     0.0000 </r>
       <r>   -15.3463     0.0000     0.0000 </r>
       <r>   -15.2797     0.0000     0.0000 </r>
       <r>   -15.2131     0.0000     0.0000 </r>
       <r>   -15.1464     0.0000     0.0000 </r>
       <r>   -15.0798     0.0002     0.0000 </r>
       <r>   -15.0132     0.0049     0.0003 </r>
       <r>   -14.9465     0.0699     0.0050 </r>
       <r>   -14.8799     0.4633     0.0359 </r>
       <r>   -14.8133     1.4900     0.1352 </r>
       <r>   -14.7467     2.4015     0.2952 </r>
       <r>   -14.6800     2.2030     0.4420 </r>
       <r>   -14.6134     1.8923     0.5681 </r>
       <r>   -14.5468     1.7687     0.6859 </r>
       <r>   -14.4801     1.0408     0.7553 </r>
       <r>   -14.4135     0.6791     0.8005 </r>
       <r>   -14.3469     1.3011     0.8872 </r>
       <r>   -14.2802     1.6508     0.9972 </r>
       <r>   -14.2136     0.9394     1.0598 </r>
       <r>   -14.1470     0.2722     1.0779 </r>
       <r>   -14.0803     0.3396     1.1006 </r>
       <r>   -14.0137     1.0976     1.1737 </r>
       <r>   -13.9471     1.6732     1.2852 </r>
       <r>   -13.8804     1.1202     1.3598 </r>
       <r>   -13.8138     0.3328     1.3820 </r>
       <r>   -13.7472     0.1140     1.3896 </r>
       <r>   -13.6805     0.4995     1.4229 </r>
       <r>   -13.6139     1.5791     1.5281 </r>
       <r>   -13.5473     2.5580     1.6985 </r>
       <r>   -13.4806     2.6361     1.8742 </r>
       <r>   -13.4140     2.4260     2.0358 </r>
       <r>   -13.3474     2.8336     2.2246 </r>
       <r>   -13.2807     3.7958     2.4776 </r>
       <r>   -13.2141     4.0718     2.7489 </r>
       <r>   -13.1475     3.6246     2.9904 </r>
       <r>   -13.0808     3.3506     3.2136 </r>
       <r>   -13.0142     3.9514     3.4769 </r>
       <r>   -12.9476     4.8621     3.8009 </r>
       <r>   -12.8809     4.8034     4.1210 </r>
       <r>   -12.8143     3.9419     4.3836 </r>
       <r>   -12.7477     3.2712     4.6016 </r>
       <r>   -12.6810     3.6494     4.8448 </r>
       <r>   -12.6144     5.1258     5.1863 </r>
       <r>   -12.5478     6.1057     5.5931 </r>
       <r>   -12.4812     5.7566     5.9767 </r>
       <r>   -12.4145     4.9756     6.3083 </r>
       <r>   -12.3479     5.0340     6.6437 </r>
       <r>   -12.2813     5.9188     7.0381 </r>
       <r>   -12.2146     5.8066     7.4250 </r>
       <r>   -12.1480     4.8217     7.7463 </r>
       <r>   -12.0814     4.7568     8.0632 </r>
       <r>   -12.0147     5.9350     8.4587 </r>
       <r>   -11.9481     7.0280     8.9270 </r>
       <r>   -11.8815     6.9475     9.3899 </r>
       <r>   -11.8148     6.1216     9.7978 </r>
       <r>   -11.7482     6.1046    10.2046 </r>
       <r>   -11.6816     7.4934    10.7039 </r>
       <r>   -11.6149     8.8273    11.2920 </r>
       <r>   -11.5483     8.9687    11.8897 </r>
       <r>   -11.4817     8.0263    12.4245 </r>
       <r>   -11.4150     6.6838    12.8698 </r>
       <r>   -11.3484     6.7477    13.3194 </r>
       <r>   -11.2818     8.3266    13.8743 </r>
       <r>   -11.2151     8.5832    14.4462 </r>
       <r>   -11.1485     7.7831    14.9648 </r>
       <r>   -11.0819     9.1113    15.5719 </r>
       <r>   -11.0152    11.6678    16.3493 </r>
       <r>   -10.9486    12.4358    17.1780 </r>
       <r>   -10.8820    12.3816    18.0030 </r>
       <r>   -10.8153    12.8230    18.8574 </r>
       <r>   -10.7487    12.0079    19.6575 </r>
       <r>   -10.6821    10.4647    20.3548 </r>
       <r>   -10.6154     9.1230    20.9627 </r>
       <r>   -10.5488     7.4689    21.4604 </r>
       <r>   -10.4822     6.9906    21.9262 </r>
       <r>   -10.4156     6.9011    22.3860 </r>
       <r>   -10.3489     5.1521    22.7293 </r>
       <r>   -10.2823     3.1730    22.9407 </r>
       <r>   -10.2157     2.0248    23.0756 </r>
       <r>   -10.1490     1.7915    23.1950 </r>
       <r>   -10.0824     1.7480    23.3115 </r>
       <r>   -10.0158     1.2851    23.3971 </r>
       <r>    -9.9491     1.5276    23.4989 </r>
       <r>    -9.8825     2.3869    23.6580 </r>
       <r>    -9.8159     2.7185    23.8391 </r>
       <r>    -9.7492     2.5312    24.0078 </r>
       <r>    -9.6826     3.1704    24.2190 </r>
       <r>    -9.6160     5.5735    24.5904 </r>
       <r>    -9.5493     7.8358    25.1125 </r>
       <r>    -9.4827     7.2944    25.5985 </r>
       <r>    -9.4161     4.2751    25.8834 </r>
       <r>    -9.3494     1.4618    25.9808 </r>
       <r>    -9.2828     0.2641    25.9984 </r>
       <r>    -9.2162     0.0249    26.0001 </r>
       <r>    -9.1495     0.0320    26.0022 </r>
       <r>    -9.0829     0.2453    26.0185 </r>
       <r>    -9.0163     0.9245    26.0801 </r>
       <r>    -8.9496     1.9088    26.2073 </r>
       <r>    -8.8830     2.9727    26.4054 </r>
       <r>    -8.8164     4.3583    26.6958 </r>
       <r>    -8.7497     5.0335    27.0312 </r>
       <r>    -8.6831     4.3713    27.3225 </r>
       <r>    -8.6165     3.8132    27.5766 </r>
       <r>    -8.5498     4.4224    27.8712 </r>
       <r>    -8.4832     5.3637    28.2286 </r>
       <r>    -8.4166     5.2877    28.5810 </r>
       <r>    -8.3499     3.8676    28.8387 </r>
       <r>    -8.2833     2.3280    28.9938 </r>
       <r>    -8.2167     2.2272    29.1422 </r>
       <r>    -8.1501     3.8296    29.3974 </r>
       <r>    -8.0834     5.7135    29.7781 </r>
       <r>    -8.0168     6.1600    30.1885 </r>
       <r>    -7.9502     6.0433    30.5912 </r>
       <r>    -7.8835     6.3829    31.0165 </r>
       <r>    -7.8169     7.2249    31.4979 </r>
       <r>    -7.7503     7.4772    31.9961 </r>
       <r>    -7.6836     6.2078    32.4098 </r>
       <r>    -7.6170     4.5805    32.7150 </r>
       <r>    -7.5504     3.9723    32.9797 </r>
       <r>    -7.4837     4.5483    33.2827 </r>
       <r>    -7.4171     6.0217    33.6840 </r>
       <r>    -7.3505     7.3096    34.1710 </r>
       <r>    -7.2838     7.4126    34.6649 </r>
       <r>    -7.2172     6.6924    35.1109 </r>
       <r>    -7.1506     6.0895    35.5166 </r>
       <r>    -7.0839     5.5417    35.8859 </r>
       <r>    -7.0173     5.3892    36.2450 </r>
       <r>    -6.9507     6.0910    36.6509 </r>
       <r>    -6.8840     7.4056    37.1443 </r>
       <r>    -6.8174     9.1535    37.7542 </r>
       <r>    -6.7508    11.0443    38.4901 </r>
       <r>    -6.6841    12.2579    39.3069 </r>
       <r>    -6.6175    10.5011    40.0066 </r>
       <r>    -6.5509     7.3032    40.4932 </r>
       <r>    -6.4842     4.9822    40.8252 </r>
       <r>    -6.4176     3.3480    41.0483 </r>
       <r>    -6.3510     2.5705    41.2196 </r>
       <r>    -6.2843     2.2717    41.3710 </r>
       <r>    -6.2177     2.6076    41.5447 </r>
       <r>    -6.1511     3.1833    41.7568 </r>
       <r>    -6.0844     3.3796    41.9820 </r>
       <r>    -6.0178     4.7829    42.3007 </r>
       <r>    -5.9512     7.5090    42.8010 </r>
       <r>    -5.8846     9.3118    43.4215 </r>
       <r>    -5.8179    10.2515    44.1046 </r>
       <r>    -5.7513     9.9630    44.7685 </r>
       <r>    -5.6847     7.9253    45.2965 </r>
       <r>    -5.6180     5.4776    45.6615 </r>
       <r>    -5.5514     3.6328    45.9036 </r>
       <r>    -5.4848     3.3136    46.1244 </r>
       <r>    -5.4181     5.1669    46.4687 </r>
       <r>    -5.3515     6.6729    46.9133 </r>
       <r>    -5.2849     5.8781    47.3050 </r>
       <r>    -5.2182     4.8878    47.6306 </r>
       <r>    -5.1516     4.9256    47.9588 </r>
       <r>    -5.0850     5.8345    48.3476 </r>
       <r>    -5.0183     7.3406    48.8367 </r>
       <r>    -4.9517     8.3445    49.3928 </r>
       <r>    -4.8851     9.1422    50.0019 </r>
       <r>    -4.8184     9.9524    50.6651 </r>
       <r>    -4.7518    10.4615    51.3621 </r>
       <r>    -4.6852    11.7349    52.1441 </r>
       <r>    -4.6185    12.9226    53.0051 </r>
       <r>    -4.5519    12.7174    53.8525 </r>
       <r>    -4.4853    12.4501    54.6821 </r>
       <r>    -4.4186    13.0417    55.5511 </r>
       <r>    -4.3520    13.2999    56.4373 </r>
       <r>    -4.2854    13.0333    57.3057 </r>
       <r>    -4.2187    12.5611    58.1427 </r>
       <r>    -4.1521    12.5161    58.9767 </r>
       <r>    -4.0855    14.2188    59.9241 </r>
       <r>    -4.0188    15.7500    60.9736 </r>
       <r>    -3.9522    14.1530    61.9166 </r>
       <r>    -3.8856    10.6985    62.6295 </r>
       <r>    -3.8189     9.2788    63.2478 </r>
       <r>    -3.7523    10.7829    63.9663 </r>
       <r>    -3.6857    12.7979    64.8190 </r>
       <r>    -3.6191    13.0237    65.6868 </r>
       <r>    -3.5524    12.0046    66.4867 </r>
       <r>    -3.4858    11.6448    67.2626 </r>
       <r>    -3.4192    12.3562    68.0859 </r>
       <r>    -3.3525    12.9731    68.9504 </r>
       <r>    -3.2859    13.9247    69.8782 </r>
       <r>    -3.2193    15.1832    70.8899 </r>
       <r>    -3.1526    15.0269    71.8912 </r>
       <r>    -3.0860    15.2579    72.9078 </r>
       <r>    -3.0194    16.6935    74.0202 </r>
       <r>    -2.9527    16.2871    75.1054 </r>
       <r>    -2.8861    14.4361    76.0673 </r>
       <r>    -2.8195    14.8586    77.0574 </r>
       <r>    -2.7528    16.4972    78.1566 </r>
       <r>    -2.6862    16.1256    79.2311 </r>
       <r>    -2.6196    15.2774    80.2491 </r>
       <r>    -2.5529    15.5160    81.2830 </r>
       <r>    -2.4863    14.5672    82.2536 </r>
       <r>    -2.4197    13.0148    83.1208 </r>
       <r>    -2.3530    12.4138    83.9480 </r>
       <r>    -2.2864    12.2802    84.7662 </r>
       <r>    -2.2198    12.8749    85.6241 </r>
       <r>    -2.1531    14.1004    86.5637 </r>
       <r>    -2.0865    15.2357    87.5789 </r>
       <r>    -2.0199    16.0080    88.6455 </r>
       <r>    -1.9532    16.6847    89.7573 </r>
       <r>    -1.8866    17.6059    90.9304 </r>
       <r>    -1.8200    17.6373    92.1056 </r>
       <r>    -1.7533    16.0006    93.1717 </r>
       <r>    -1.6867    12.8937    94.0309 </r>
       <r>    -1.6201    10.6170    94.7383 </r>
       <r>    -1.5535    10.9028    95.4648 </r>
       <r>    -1.4868    12.4021    96.2912 </r>
       <r>    -1.4202    13.4544    97.1877 </r>
       <r>    -1.3536    12.6389    98.0298 </r>
       <r>    -1.2869    10.1237    98.7044 </r>
       <r>    -1.2203     8.4426    99.2669 </r>
       <r>    -1.1537     8.6162    99.8411 </r>
       <r>    -1.0870     9.8135   100.4950 </r>
       <r>    -1.0204    10.8761   101.2197 </r>
       <r>    -0.9538    10.4347   101.9149 </r>
       <r>    -0.8871     8.0557   102.4517 </r>
       <r>    -0.8205     4.6337   102.7605 </r>
       <r>    -0.7539     1.9820   102.8925 </r>
       <r>    -0.6872     1.4399   102.9885 </r>
       <r>    -0.6206     3.3789   103.2136 </r>
       <r>    -0.5540     6.1105   103.6208 </r>
       <r>    -0.4873     7.2640   104.1048 </r>
       <r>    -0.4207     7.2736   104.5894 </r>
       <r>    -0.3541     6.9689   105.0538 </r>
       <r>    -0.2874     6.9680   105.5181 </r>
       <r>    -0.2208     7.6275   106.0263 </r>
       <r>    -0.1542     8.4885   106.5919 </r>
       <r>    -0.0875     8.8529   107.1818 </r>
       <r>    -0.0209     7.7125   107.6957 </r>
       <r>     0.0457     6.2613   108.1129 </r>
       <r>     0.1124     6.3821   108.5382 </r>
       <r>     0.1790     6.8550   108.9950 </r>
       <r>     0.2456     6.2546   109.4117 </r>
       <r>     0.3123     5.1282   109.7534 </r>
       <r>     0.3789     4.1900   110.0326 </r>
       <r>     0.4455     3.8874   110.2916 </r>
       <r>     0.5122     3.8639   110.5491 </r>
       <r>     0.5788     3.3513   110.7724 </r>
       <r>     0.6454     2.7247   110.9540 </r>
       <r>     0.7120     3.3058   111.1742 </r>
       <r>     0.7787     5.5961   111.5471 </r>
       <r>     0.8453     8.2077   112.0940 </r>
       <r>     0.9119     8.6811   112.6724 </r>
       <r>     0.9786     7.0266   113.1406 </r>
       <r>     1.0452     5.2058   113.4875 </r>
       <r>     1.1118     4.5548   113.7910 </r>
       <r>     1.1785     5.5508   114.1609 </r>
       <r>     1.2451     7.0067   114.6277 </r>
       <r>     1.3117     8.5620   115.1982 </r>
       <r>     1.3784    10.5680   115.9024 </r>
       <r>     1.4450    11.7152   116.6830 </r>
       <r>     1.5116    11.4011   117.4427 </r>
       <r>     1.5783    11.3096   118.1963 </r>
       <r>     1.6449    12.3287   119.0178 </r>
       <r>     1.7115    12.7076   119.8645 </r>
       <r>     1.7782    11.9670   120.6619 </r>
       <r>     1.8448    11.1030   121.4017 </r>
       <r>     1.9114    10.2954   122.0877 </r>
       <r>     1.9781     9.9407   122.7501 </r>
       <r>     2.0447    10.6849   123.4621 </r>
       <r>     2.1113    11.9194   124.2563 </r>
       <r>     2.1780    13.3852   125.1482 </r>
       <r>     2.2446    14.7120   126.1285 </r>
       <r>     2.3112    14.3018   127.0814 </r>
       <r>     2.3779    13.8740   128.0059 </r>
       <r>     2.4445    14.2436   128.9550 </r>
       <r>     2.5111    14.2725   129.9060 </r>
       <r>     2.5778    14.5399   130.8748 </r>
       <r>     2.6444    14.5663   131.8454 </r>
       <r>     2.7110    13.5829   132.7505 </r>
       <r>     2.7777    11.4568   133.5139 </r>
       <r>     2.8443     8.7977   134.1001 </r>
       <r>     2.9109     7.3096   134.5871 </r>
       <r>     2.9775     6.9058   135.0473 </r>
       <r>     3.0442     5.9837   135.4460 </r>
       <r>     3.1108     4.2036   135.7261 </r>
       <r>     3.1774     2.4699   135.8906 </r>
       <r>     3.2441     1.1927   135.9701 </r>
       <r>     3.3107     0.3799   135.9954 </r>
       <r>     3.3773     0.0634   135.9997 </r>
       <r>     3.4440     0.0049   136.0000 </r>
       <r>     3.5106     0.0002   136.0000 </r>
       <r>     3.5772     0.0000   136.0000 </r>
       <r>     3.6439     0.0000   136.0000 </r>
       <r>     3.7105     0.0000   136.0000 </r>
       <r>     3.7771     0.0000   136.0000 </r>
       <r>     3.8438     0.0000   136.0000 </r>
       <r>     3.9104     0.0000   136.0000 </r>
       <r>     3.9770     0.0000   136.0000 </r>
       <r>     4.0437     0.0000   136.0000 </r>
       <r>     4.1103     0.0000   136.0000 </r>
       <r>     4.1769     0.0000   136.0000 </r>
      </set>
     </set>
    </array>
   </total>
  </dos>
 </calculation>
 <structure name="finalpos" >
  <crystal>
   <varray name="basis" >
    <v>       3.54040000       0.00000000       0.00000000 </v>
    <v>      -1.77020000      10.29434800       0.00000000 </v>
    <v>       0.00000000       0.00000000      27.50142900 </v>
   </varray>
   <i name="volume">   1002.32009712 </i>
   <varray name="rec_basis" >
    <v>       0.28245396       0.04857034       0.00000000 </v>
    <v>       0.00000000       0.09714068       0.00000000 </v>
    <v>       0.00000000       0.00000000       0.03636175 </v>
   </varray>
  </crystal>
  <varray name="positions" >
   <v>       0.11402300       0.22804500       0.23316207 </v>
   <v>       0.51402300       0.82804500       0.51499159 </v>
   <v>       0.45808900       0.91617900       0.20939482 </v>
   <v>       0.85808900       0.51617900       0.49122434 </v>
   <v>       0.31085400       0.62170900       0.08414979 </v>
   <v>       0.31085400       0.62170900       0.36597930 </v>
   <v>       0.99923000       0.99846000       0.08631254 </v>
   <v>       0.99923000       0.99846000       0.36814206 </v>
   <v>       0.65492700       0.30985400       0.06041748 </v>
   <v>       0.65492700       0.30985400       0.34224700 </v>
   <v>       0.76973800       0.53947500       0.20725292 </v>
   <v>       0.16973800       0.13947500       0.48908244 </v>
   <v>       0.93971600       0.87943300       0.15783749 </v>
   <v>       0.33971600       0.47943300       0.43966701 </v>
   <v>       0.20515200       0.41030300       0.18578822 </v>
   <v>       0.60515200       0.01030300       0.46761774 </v>
   <v>       0.20184900       0.40369900       0.09969156 </v>
   <v>       0.20184900       0.40369900       0.38152107 </v>
   <v>       0.56380500       0.12761000       0.10779021 </v>
   <v>       0.56380500       0.12761000       0.38961973 </v>
   <v>       0.56710600       0.13421200       0.19387616 </v>
   <v>       0.96710600       0.73421200       0.47570568 </v>
   <v>       0.82923400       0.65846800       0.13571444 </v>
   <v>       0.22923400       0.25846800       0.41754396 </v>
  </varray>
 </structure>
</modeling>
