   24   24    1    1
  0.4176334E+02  0.3540400E-09  0.1044544E-08  0.2750143E-08  0.5000000E-15
  1.000000000000000E-004
  CAR 
 unknown system                          
    108     54     68
 
  0.0000000E+00  0.0000000E+00  0.0000000E+00  0.9615385E-02
    1      -13.768386
    2      -13.475849
    3      -13.055334
    4      -12.737669
    5      -12.512469
    6      -12.409656
    7      -12.287059
    8      -12.016934
    9      -11.499730
   10      -11.370421
   11      -11.179381
   12      -10.925688
   13       -8.020059
   14       -7.939955
   15       -7.762785
   16       -7.627412
   17       -6.822799
   18       -6.658969
   19       -6.555271
   20       -6.427807
   21       -5.796006
   22       -5.751214
   23       -4.865255
   24       -4.683079
   25       -4.033628
   26       -3.785234
   27       -3.632159
   28       -3.467430
   29       -3.179381
   30       -2.992001
   31       -2.904439
   32       -2.866566
   33       -2.781132
   34       -2.704769
   35       -2.629901
   36       -2.424968
   37       -2.370234
   38       -2.321783
   39       -2.210051
   40       -2.149550
   41       -1.986046
   42       -1.914236
   43       -1.783807
   44       -1.732354
   45       -1.664988
   46       -1.578958
   47       -1.524975
   48       -1.424570
   49       -1.368048
   50       -1.184545
   51       -1.049707
   52       -1.000927
   53       -0.598624
   54       -0.201623
   55        0.844931
   56        1.012292
   57        1.244097
   58        1.372183
   59        1.410498
   60        1.654896
   61        1.763650
   62        1.786272
   63        1.985348
   64        2.060644
   65        2.206082
   66        2.367779
   67        2.500457
   68        2.559936
 
  0.7692308E-01 -0.1387779E-16  0.0000000E+00  0.1923077E-01
    1      -13.718468
    2      -13.414525
    3      -13.006779
    4      -12.685512
    5      -12.456433
    6      -12.353914
    7      -12.230814
    8      -11.954754
    9      -11.449240
   10      -11.321513
   11      -11.130079
   12      -10.877335
   13       -8.031144
   14       -7.962762
   15       -7.725786
   16       -7.606562
   17       -6.789168
   18       -6.637032
   19       -6.535282
   20       -6.421942
   21       -5.758839
   22       -5.715125
   23       -4.886221
   24       -4.685982
   25       -4.046616
   26       -3.821608
   27       -3.665040
   28       -3.576675
   29       -3.426932
   30       -3.309686
   31       -3.214640
   32       -3.161433
   33       -3.107581
   34       -2.952973
   35       -2.829350
   36       -2.671714
   37       -2.539911
   38       -2.413510
   39       -2.335047
   40       -2.237471
   41       -2.129333
   42       -2.047848
   43       -1.974537
   44       -1.903796
   45       -1.856881
   46       -1.776804
   47       -1.667045
   48       -1.473066
   49       -1.435556
   50       -1.350187
   51       -1.120124
   52       -0.981424
   53       -0.612795
   54       -0.190992
   55        1.173178
   56        1.302292
   57        1.582428
   58        1.640746
   59        1.824606
   60        1.977997
   61        2.044816
   62        2.191345
   63        2.257503
   64        2.283954
   65        2.359351
   66        2.481998
   67        2.672136
   68        2.825971
 
  0.1538462E+00 -0.2775558E-16  0.0000000E+00  0.1923077E-01
    1      -13.573941
    2      -13.231622
    3      -12.861203
    4      -12.529763
    5      -12.290088
    6      -12.188849
    7      -12.066091
    8      -11.772435
    9      -11.301200
   10      -11.179624
   11      -10.986363
   12      -10.738613
   13       -8.107077
   14       -7.981019
   15       -7.684426
   16       -7.593825
   17       -6.719291
   18       -6.616393
   19       -6.476643
   20       -6.433405
   21       -5.673983
   22       -5.631387
   23       -5.070167
   24       -4.802438
   25       -4.452135
   26       -4.155963
   27       -4.040515
   28       -3.961245
   29       -3.953459
   30       -3.883817
   31       -3.700923
   32       -3.592727
   33       -3.526453
   34       -3.299422
   35       -3.197178
   36       -3.110128
   37       -3.009066
   38       -2.906118
   39       -2.866195
   40       -2.640508
   41       -2.387984
   42       -2.314856
   43       -2.148959
   44       -2.088473
   45       -1.994513
   46       -1.860451
   47       -1.795318
   48       -1.702820
   49       -1.587858
   50       -1.458793
   51       -1.156950
   52       -0.975249
   53       -0.693628
   54       -0.247348
   55        1.322399
   56        1.423135
   57        1.843623
   58        2.007578
   59        2.216296
   60        2.290770
   61        2.367507
   62        2.509530
   63        2.611871
   64        2.691919
   65        2.765992
   66        2.952897
   67        3.017294
   68        3.106597
 
  0.2307692E+00 -0.4163336E-16  0.0000000E+00  0.1923077E-01
    1      -13.353005
    2      -12.930714
    3      -12.618668
    4      -12.273507
    5      -12.019778
    6      -11.922028
    7      -11.806000
    8      -11.484719
    9      -11.068476
   10      -10.962967
   11      -10.764621
   12      -10.535702
   13       -8.294719
   14       -8.033733
   15       -7.758126
   16       -7.727570
   17       -6.814259
   18       -6.637283
   19       -6.568467
   20       -6.438036
   21       -5.715117
   22       -5.670645
   23       -5.427161
   24       -5.275129
   25       -4.970158
   26       -4.749809
   27       -4.544050
   28       -4.525188
   29       -4.441797
   30       -4.403010
   31       -4.183233
   32       -4.119574
   33       -3.814723
   34       -3.741023
   35       -3.558170
   36       -3.404056
   37       -3.245998
   38       -3.113660
   39       -2.936120
   40       -2.816860
   41       -2.661327
   42       -2.480247
   43       -2.382371
   44       -2.311888
   45       -2.040283
   46       -1.842510
   47       -1.789773
   48       -1.736875
   49       -1.667245
   50       -1.484607
   51       -1.398402
   52       -1.066441
   53       -0.947297
   54       -0.388656
   55        0.821926
   56        1.192490
   57        1.676400
   58        1.861303
   59        1.961510
   60        2.090382
   61        2.291075
   62        2.399849
   63        2.452209
   64        2.654699
   65        2.747218
   66        2.938685
   67        2.970104
   68        3.031963
 
  0.3076923E+00 -0.5551115E-16  0.0000000E+00  0.1923077E-01
    1      -13.093035
    2      -12.519091
    3      -12.279613
    4      -11.925227
    5      -11.660433
    6      -11.570903
    7      -11.477762
    8      -11.126387
    9      -10.784788
   10      -10.718976
   11      -10.510575
   12      -10.350142
   13       -8.589187
   14       -8.289167
   15       -8.029422
   16       -8.017717
   17       -7.238023
   18       -6.931080
   19       -6.836406
   20       -6.616316
   21       -6.226427
   22       -6.100396
   23       -5.898770
   24       -5.633260
   25       -5.153982
   26       -5.103847
   27       -4.998227
   28       -4.754305
   29       -4.688918
   30       -4.634364
   31       -4.411566
   32       -4.250854
   33       -4.166930
   34       -4.062901
   35       -3.586632
   36       -3.330438
   37       -3.225474
   38       -3.162591
   39       -3.016519
   40       -2.936881
   41       -2.789554
   42       -2.612870
   43       -2.586003
   44       -2.378211
   45       -2.136420
   46       -1.993005
   47       -1.831597
   48       -1.812352
   49       -1.764060
   50       -1.656084
   51       -1.445847
   52       -1.324427
   53       -1.229533
   54       -0.621117
   55        0.427022
   56        0.855483
   57        1.386015
   58        1.474226
   59        1.677050
   60        1.860467
   61        2.055225
   62        2.123294
   63        2.278842
   64        2.389403
   65        2.457343
   66        2.735826
   67        2.781380
   68        2.883086
 
  0.3846154E+00 -0.8326673E-16  0.0000000E+00  0.1923077E-01
    1      -12.854355
    2      -12.010924
    3      -11.852411
    4      -11.506137
    5      -11.247729
    6      -11.181739
    7      -11.139820
    8      -10.783324
    9      -10.565385
   10      -10.540439
   11      -10.390798
   12      -10.334257
   13       -8.766856
   14       -8.742341
   15       -8.310913
   16       -8.276491
   17       -7.726762
   18       -7.394123
   19       -7.349610
   20       -7.106708
   21       -6.860806
   22       -6.697112
   23       -6.595722
   24       -5.906783
   25       -5.170820
   26       -5.132907
   27       -4.905118
   28       -4.664349
   29       -4.540986
   30       -4.462922
   31       -4.237564
   32       -4.187390
   33       -4.121396
   34       -4.004582
   35       -3.671582
   36       -3.590359
   37       -3.451179
   38       -3.205979
   39       -3.136740
   40       -3.090973
   41       -2.925412
   42       -2.752933
   43       -2.566618
   44       -2.392918
   45       -2.310696
   46       -2.213173
   47       -2.013414
   48       -1.961813
   49       -1.848196
   50       -1.781171
   51       -1.612382
   52       -1.421746
   53       -1.288692
   54       -0.827431
   55        0.217908
   56        0.596373
   57        0.979550
   58        1.270314
   59        1.487173
   60        1.759913
   61        1.816605
   62        1.902579
   63        2.109424
   64        2.185485
   65        2.324401
   66        2.378906
   67        2.553387
   68        2.769968
 
  0.4615385E+00 -0.8326673E-16  0.0000000E+00  0.1923077E-01
    1      -12.708906
    2      -11.437932
    3      -11.386895
    4      -11.083489
    5      -11.042482
    6      -10.885463
    7      -10.861686
    8      -10.778606
    9      -10.663809
   10      -10.571253
   11      -10.482558
   12      -10.311480
   13       -9.062076
   14       -8.624578
   15       -8.374071
   16       -8.284243
   17       -8.014804
   18       -7.969354
   19       -7.666710
   20       -7.505612
   21       -7.349609
   22       -7.220507
   23       -7.116538
   24       -6.073259
   25       -5.068441
   26       -4.853500
   27       -4.682021
   28       -4.443559
   29       -4.348026
   30       -4.278086
   31       -4.163229
   32       -3.994678
   33       -3.960154
   34       -3.866495
   35       -3.769427
   36       -3.669505
   37       -3.611243
   38       -3.504550
   39       -3.421727
   40       -3.233852
   41       -3.191190
   42       -2.944386
   43       -2.640821
   44       -2.453598
   45       -2.363870
   46       -2.282446
   47       -2.126319
   48       -2.048771
   49       -1.955832
   50       -1.719507
   51       -1.632130
   52       -1.462441
   53       -1.326025
   54       -0.895757
   55        0.156033
   56        0.449541
   57        0.733664
   58        1.112771
   59        1.446007
   60        1.638745
   61        1.697392
   62        1.752227
   63        1.917599
   64        2.138082
   65        2.155233
   66        2.423562
   67        2.484774
   68        2.578776
 
  0.0000000E+00  0.2500000E+00  0.0000000E+00  0.1923077E-01
    1      -13.725816
    2      -13.420501
    3      -13.184185
    4      -12.911150
    5      -12.515474
    6      -12.403104
    7      -12.146276
    8      -11.806260
    9      -11.523318
   10      -11.415436
   11      -11.175921
   12      -10.934753
   13       -8.455834
   14       -8.394070
   15       -7.346977
   16       -7.161895
   17       -6.759282
   18       -6.606625
   19       -6.565677
   20       -6.477366
   21       -5.731903
   22       -5.663874
   23       -4.788540
   24       -4.581529
   25       -4.150713
   26       -3.961327
   27       -3.783308
   28       -3.471924
   29       -3.305890
   30       -3.065225
   31       -3.044910
   32       -2.930512
   33       -2.779786
   34       -2.644949
   35       -2.524500
   36       -2.446740
   37       -2.371341
   38       -2.323021
   39       -2.292363
   40       -2.096744
   41       -2.005681
   42       -1.926697
   43       -1.890028
   44       -1.817912
   45       -1.662045
   46       -1.564552
   47       -1.404439
   48       -1.328070
   49       -1.298861
   50       -1.111387
   51       -1.018232
   52       -0.956466
   53       -0.628962
   54       -0.156068
   55        0.796917
   56        1.107363
   57        1.261153
   58        1.388775
   59        1.458169
   60        1.612424
   61        1.772760
   62        1.793023
   63        1.912256
   64        2.113591
   65        2.299599
   66        2.387911
   67        2.618341
   68        2.720002
 
  0.7692308E-01  0.2500000E+00  0.0000000E+00  0.1923077E-01
    1      -13.667667
    2      -13.343721
    3      -13.154773
    4      -12.892060
    5      -12.458406
    6      -12.345780
    7      -12.072800
    8      -11.706668
    9      -11.472018
   10      -11.374075
   11      -11.128269
   12      -10.890531
   13       -8.512290
   14       -8.415697
   15       -7.299929
   16       -7.121822
   17       -6.768304
   18       -6.613752
   19       -6.496636
   20       -6.423111
   21       -5.677739
   22       -5.612030
   23       -4.793354
   24       -4.626728
   25       -4.214757
   26       -4.034267
   27       -3.764103
   28       -3.587588
   29       -3.534662
   30       -3.364546
   31       -3.304220
   32       -3.131445
   33       -2.981010
   34       -2.936392
   35       -2.879213
   36       -2.636940
   37       -2.572473
   38       -2.434534
   39       -2.408621
   40       -2.257334
   41       -2.241819
   42       -2.156767
   43       -2.078916
   44       -1.949213
   45       -1.784820
   46       -1.740562
   47       -1.675741
   48       -1.381581
   49       -1.308974
   50       -1.225250
   51       -1.046739
   52       -0.926113
   53       -0.627673
   54       -0.161746
   55        1.108114
   56        1.373762
   57        1.521837
   58        1.674241
   59        1.843025
   60        1.933485
   61        2.016248
   62        2.176179
   63        2.257741
   64        2.373808
   65        2.560601
   66        2.668393
   67        2.725022
   68        2.904913
 
  0.1538462E+00  0.2500000E+00  0.0000000E+00  0.1923077E-01
    1      -13.521941
    2      -13.147405
    3      -13.010463
    4      -12.755591
    5      -12.290443
    6      -12.179649
    7      -11.911341
    8      -11.508912
    9      -11.317309
   10      -11.234621
   11      -10.983616
   12      -10.749417
   13       -8.576553
   14       -8.406081
   15       -7.263351
   16       -7.125139
   17       -6.757319
   18       -6.591283
   19       -6.462639
   20       -6.391511
   21       -5.608918
   22       -5.548830
   23       -4.927205
   24       -4.778746
   25       -4.522689
   26       -4.320984
   27       -4.261517
   28       -4.210821
   29       -3.928598
   30       -3.825110
   31       -3.641985
   32       -3.595966
   33       -3.469291
   34       -3.337255
   35       -3.160727
   36       -3.066864
   37       -2.903979
   38       -2.851442
   39       -2.776173
   40       -2.678662
   41       -2.536431
   42       -2.441749
   43       -2.322370
   44       -2.247097
   45       -1.987188
   46       -1.864744
   47       -1.820511
   48       -1.662205
   49       -1.424871
   50       -1.365633
   51       -1.088115
   52       -0.929018
   53       -0.693169
   54       -0.237751
   55        1.283205
   56        1.416802
   57        1.707482
   58        1.852184
   59        2.070378
   60        2.192464
   61        2.383722
   62        2.539983
   63        2.791579
   64        2.826506
   65        2.924893
   66        2.995135
   67        3.122020
   68        3.146797
 
  0.2307692E+00  0.2500000E+00  0.0000000E+00  0.1923077E-01
    1      -13.309726
    2      -12.836578
    3      -12.748127
    4      -12.504281
    5      -12.018604
    6      -11.912732
    7      -11.676040
    8      -11.232325
    9      -11.073425
   10      -11.012854
   11      -10.756378
   12      -10.532279
   13       -8.707052
   14       -8.416110
   15       -7.366693
   16       -7.312254
   17       -6.854297
   18       -6.631487
   19       -6.587073
   20       -6.467748
   21       -5.766278
   22       -5.665101
   23       -5.268318
   24       -5.143372
   25       -4.967516
   26       -4.928821
   27       -4.748385
   28       -4.599377
   29       -4.495690
   30       -4.410797
   31       -4.187486
   32       -3.962766
   33       -3.717987
   34       -3.675817
   35       -3.548534
   36       -3.318003
   37       -3.147597
   38       -3.029503
   39       -3.001980
   40       -2.844441
   41       -2.633540
   42       -2.501609
   43       -2.462114
   44       -2.384922
   45       -2.105459
   46       -1.920825
   47       -1.858570
   48       -1.732413
   49       -1.701646
   50       -1.496181
   51       -1.329686
   52       -1.013994
   53       -0.929996
   54       -0.404915
   55        0.869585
   56        1.128280
   57        1.435343
   58        1.537264
   59        1.662453
   60        1.866996
   61        2.187435
   62        2.354619
   63        2.551879
   64        2.642435
   65        2.783733
   66        3.076268
   67        3.111055
   68        3.242490
 
  0.3076923E+00  0.2500000E+00  0.0000000E+00  0.1923077E-01
    1      -13.066444
    2      -12.421208
    3      -12.370681
    4      -12.145329
    5      -11.658364
    6      -11.563099
    7      -11.391433
    8      -10.918291
    9      -10.779107
   10      -10.749242
   11      -10.492038
   12      -10.326961
   13       -8.905962
   14       -8.526928
   15       -7.840745
   16       -7.640302
   17       -7.228832
   18       -7.048925
   19       -6.895772
   20       -6.728280
   21       -6.135242
   22       -6.087484
   23       -5.852991
   24       -5.712859
   25       -5.318260
   26       -5.185616
   27       -4.992763
   28       -4.873107
   29       -4.571646
   30       -4.456318
   31       -4.349159
   32       -4.262842
   33       -3.951403
   34       -3.841600
   35       -3.770989
   36       -3.280156
   37       -3.188318
   38       -3.036685
   39       -2.938200
   40       -2.893403
   41       -2.797431
   42       -2.626251
   43       -2.501093
   44       -2.391964
   45       -2.261170
   46       -2.134408
   47       -1.947229
   48       -1.883086
   49       -1.815438
   50       -1.687154
   51       -1.514237
   52       -1.309013
   53       -1.192169
   54       -0.644349
   55        0.450171
   56        0.816311
   57        0.982441
   58        1.291443
   59        1.352947
   60        1.551485
   61        1.985581
   62        2.215238
   63        2.370856
   64        2.461052
   65        2.519182
   66        2.681317
   67        2.871753
   68        2.997091
 
  0.3846154E+00  0.2500000E+00  0.0000000E+00  0.1923077E-01
    1      -12.843718
    2      -11.921719
    3      -11.895664
    4      -11.695440
    5      -11.244988
    6      -11.174845
    7      -11.112438
    8      -10.659744
    9      -10.539725
   10      -10.535088
   11      -10.403321
   12      -10.307509
   13       -8.896265
   14       -8.685781
   15       -8.392187
   16       -8.044563
   17       -7.716591
   18       -7.678512
   19       -7.293444
   20       -7.252887
   21       -6.753043
   22       -6.630712
   23       -6.595792
   24       -5.947377
   25       -5.286090
   26       -5.227364
   27       -4.876948
   28       -4.724562
   29       -4.589394
   30       -4.353564
   31       -4.220465
   32       -4.057890
   33       -4.021144
   34       -3.797713
   35       -3.622583
   36       -3.362658
   37       -3.290004
   38       -3.221000
   39       -3.135972
   40       -3.060937
   41       -2.902754
   42       -2.870970
   43       -2.655973
   44       -2.469193
   45       -2.436937
   46       -2.237739
   47       -2.050353
   48       -2.005275
   49       -1.914339
   50       -1.794457
   51       -1.623271
   52       -1.488848
   53       -1.319338
   54       -0.858900
   55        0.233623
   56        0.550227
   57        0.777104
   58        1.208555
   59        1.297826
   60        1.427466
   61        1.768995
   62        1.881272
   63        2.103854
   64        2.224483
   65        2.363541
   66        2.576986
   67        2.670226
   68        2.717566
 
  0.4615385E+00  0.2500000E+00  0.0000000E+00  0.1923077E-01
    1      -12.706622
    2      -11.400243
    3      -11.362655
    4      -11.200305
    5      -11.049434
    6      -10.893892
    7      -10.868585
    8      -10.796128
    9      -10.635189
   10      -10.516870
   11      -10.489101
   12      -10.297158
   13       -8.880788
   14       -8.552422
   15       -8.490583
   16       -8.335191
   17       -8.261359
   18       -7.871283
   19       -7.742674
   20       -7.451820
   21       -7.308355
   22       -7.248128
   23       -7.077170
   24       -6.043452
   25       -5.121871
   26       -4.954821
   27       -4.654648
   28       -4.420143
   29       -4.344250
   30       -4.211635
   31       -4.116257
   32       -4.066242
   33       -3.963337
   34       -3.866059
   35       -3.768460
   36       -3.597454
   37       -3.581079
   38       -3.423251
   39       -3.265998
   40       -3.198195
   41       -3.120102
   42       -2.929615
   43       -2.617371
   44       -2.571960
   45       -2.538527
   46       -2.422682
   47       -2.094105
   48       -2.060737
   49       -1.934072
   50       -1.700871
   51       -1.654463
   52       -1.504856
   53       -1.373697
   54       -0.932110
   55        0.151274
   56        0.427117
   57        0.756043
   58        1.159252
   59        1.490652
   60        1.576012
   61        1.628760
   62        1.724745
   63        1.849535
   64        2.148053
   65        2.257409
   66        2.353619
   67        2.515879
   68        2.543168
 
 -0.4615385E+00  0.2500000E+00  0.0000000E+00  0.1923077E-01
    1      -12.709485
    2      -11.471188
    3      -11.388582
    4      -11.037535
    5      -11.006551
    6      -10.878325
    7      -10.848900
    8      -10.746661
    9      -10.690006
   10      -10.639151
   11      -10.481554
   12      -10.321540
   13       -9.063273
   14       -8.693072
   15       -8.367749
   16       -8.273097
   17       -8.022807
   18       -7.878590
   19       -7.597758
   20       -7.538457
   21       -7.396726
   22       -7.216134
   23       -7.155038
   24       -5.994378
   25       -5.069079
   26       -4.696058
   27       -4.660340
   28       -4.516475
   29       -4.385534
   30       -4.310194
   31       -4.171424
   32       -4.135686
   33       -3.943977
   34       -3.919854
   35       -3.820509
   36       -3.742706
   37       -3.647331
   38       -3.563982
   39       -3.308829
   40       -3.289928
   41       -3.040005
   42       -2.746757
   43       -2.647270
   44       -2.541906
   45       -2.385244
   46       -2.314085
   47       -2.107286
   48       -2.060279
   49       -1.931676
   50       -1.738630
   51       -1.611396
   52       -1.476581
   53       -1.359071
   54       -0.900115
   55        0.110139
   56        0.481399
   57        0.887178
   58        1.202543
   59        1.448180
   60        1.720080
   61        1.814631
   62        1.865355
   63        1.888474
   64        2.156714
   65        2.226677
   66        2.340930
   67        2.428363
   68        2.639424
 
 -0.3846154E+00  0.2500000E+00  0.0000000E+00  0.1923077E-01
    1      -12.856395
    2      -12.037458
    3      -11.846850
    4      -11.421537
    5      -11.246382
    6      -11.178192
    7      -11.143455
    8      -10.863230
    9      -10.568213
   10      -10.542390
   11      -10.386293
   12      -10.319806
   13       -8.926769
   14       -8.677224
   15       -8.425112
   16       -7.984768
   17       -7.729298
   18       -7.375504
   19       -7.285842
   20       -7.252563
   21       -6.834530
   22       -6.746757
   23       -6.599735
   24       -5.804745
   25       -5.239854
   26       -4.988207
   27       -4.845307
   28       -4.787281
   29       -4.605558
   30       -4.395118
   31       -4.331581
   32       -4.202085
   33       -4.107459
   34       -4.024191
   35       -3.732703
   36       -3.658732
   37       -3.461861
   38       -3.340997
   39       -3.127603
   40       -3.023535
   41       -2.911355
   42       -2.706749
   43       -2.556854
   44       -2.406689
   45       -2.297916
   46       -2.173522
   47       -2.003602
   48       -1.883298
   49       -1.817197
   50       -1.768024
   51       -1.655480
   52       -1.476085
   53       -1.291683
   54       -0.779845
   55        0.199849
   56        0.600483
   57        1.141750
   58        1.302291
   59        1.505930
   60        1.831740
   61        1.966445
   62        2.117188
   63        2.185584
   64        2.222354
   65        2.321542
   66        2.382911
   67        2.491332
   68        2.649239
 
 -0.3076923E+00  0.2500000E+00  0.0000000E+00  0.1923077E-01
    1      -13.093799
    2      -12.531414
    3      -12.279458
    4      -11.883651
    5      -11.658043
    6      -11.569604
    7      -11.479709
    8      -11.172497
    9      -10.784438
   10      -10.710752
   11      -10.500478
   12      -10.356061
   13       -8.563831
   14       -8.489547
   15       -8.121575
   16       -7.579343
   17       -7.229385
   18       -6.936498
   19       -6.857160
   20       -6.793500
   21       -6.194441
   22       -6.094021
   23       -5.907850
   24       -5.653410
   25       -5.258671
   26       -5.083675
   27       -4.837266
   28       -4.763200
   29       -4.737451
   30       -4.576788
   31       -4.410966
   32       -4.251995
   33       -4.181228
   34       -4.103874
   35       -3.672437
   36       -3.393942
   37       -3.220102
   38       -3.119469
   39       -3.012420
   40       -2.900196
   41       -2.776994
   42       -2.661700
   43       -2.532552
   44       -2.345987
   45       -2.151327
   46       -1.959149
   47       -1.830075
   48       -1.803950
   49       -1.734641
   50       -1.652752
   51       -1.534679
   52       -1.363429
   53       -1.224684
   54       -0.540312
   55        0.427843
   56        0.818100
   57        1.347073
   58        1.600512
   59        1.748007
   60        1.983000
   61        2.039540
   62        2.248801
   63        2.319604
   64        2.433394
   65        2.488489
   66        2.705170
   67        2.743283
   68        2.813024
 
 -0.2307692E+00  0.2500000E+00  0.0000000E+00  0.1923077E-01
    1      -13.346938
    2      -12.926516
    3      -12.641969
    4      -12.288051
    5      -12.019479
    6      -11.920504
    7      -11.781033
    8      -11.467527
    9      -11.072171
   10      -10.966693
   11      -10.757164
   12      -10.534262
   13       -8.336696
   14       -8.308023
   15       -7.717338
   16       -7.306456
   17       -6.811216
   18       -6.640045
   19       -6.574206
   20       -6.521674
   21       -5.729132
   22       -5.674056
   23       -5.576448
   24       -5.270834
   25       -4.991030
   26       -4.767380
   27       -4.552101
   28       -4.501956
   29       -4.447315
   30       -4.310539
   31       -4.120952
   32       -4.095560
   33       -3.890473
   34       -3.738954
   35       -3.612086
   36       -3.384747
   37       -3.236372
   38       -3.039634
   39       -2.931075
   40       -2.767641
   41       -2.670050
   42       -2.495424
   43       -2.380907
   44       -2.324482
   45       -2.076468
   46       -1.859083
   47       -1.810045
   48       -1.755603
   49       -1.672903
   50       -1.444119
   51       -1.391731
   52       -1.065968
   53       -1.000024
   54       -0.309035
   55        0.861500
   56        1.190787
   57        1.515023
   58        1.894882
   59        2.005618
   60        2.113605
   61        2.219449
   62        2.307574
   63        2.436911
   64        2.673088
   65        2.772981
   66        2.875163
   67        2.983099
   68        3.038019
 
 -0.1538462E+00  0.2500000E+00  0.0000000E+00  0.1923077E-01
    1      -13.556426
    2      -13.210167
    3      -12.920148
    4      -12.603181
    5      -12.291862
    6      -12.185888
    7      -12.000712
    8      -11.684002
    9      -11.312834
   10      -11.198988
   11      -10.979362
   12      -10.736694
   13       -8.318870
   14       -8.273113
   15       -7.476696
   16       -7.215973
   17       -6.687557
   18       -6.616100
   19       -6.494250
   20       -6.464649
   21       -5.665357
   22       -5.609614
   23       -5.164969
   24       -4.778443
   25       -4.468580
   26       -4.224927
   27       -4.112363
   28       -4.027364
   29       -3.906062
   30       -3.820694
   31       -3.699811
   32       -3.624460
   33       -3.540876
   34       -3.332195
   35       -3.186994
   36       -3.009475
   37       -2.977000
   38       -2.874081
   39       -2.826512
   40       -2.645253
   41       -2.447413
   42       -2.328411
   43       -2.222244
   44       -2.116180
   45       -2.021674
   46       -1.877805
   47       -1.789291
   48       -1.703180
   49       -1.544120
   50       -1.384254
   51       -1.145089
   52       -0.954507
   53       -0.747531
   54       -0.184646
   55        1.383988
   56        1.532933
   57        1.691666
   58        1.870060
   59        2.123545
   60        2.259456
   61        2.298959
   62        2.499014
   63        2.637652
   64        2.759549
   65        2.855191
   66        2.988320
   67        3.065739
   68        3.168457
 
 -0.7692308E-01  0.2500000E+00  0.0000000E+00  0.1923077E-01
    1      -13.687899
    2      -13.375837
    3      -13.103775
    4      -12.813584
    5      -12.459404