       N       E                     dE             d eps       ncg     rms          rms(c)
DAV:   1     0.491074921576E+03    0.49107E+03   -0.28653E+04  7368   0.790E+02
DAV:   2    -0.682981837852E+02   -0.55937E+03   -0.54502E+03  9756   0.189E+02
DAV:   3    -0.124607165331E+03   -0.56309E+02   -0.55591E+02  8796   0.621E+01
DAV:   4    -0.127157834581E+03   -0.25507E+01   -0.25394E+01 11024   0.142E+01
DAV:   5    -0.127214231641E+03   -0.56397E-01   -0.56347E-01  9928   0.210E+00    0.114E+01
DAV:   6    -0.124111652621E+03    0.31026E+01   -0.55089E+00  8728   0.663E+00    0.614E+00
DAV:   7    -0.123932458149E+03    0.17919E+00   -0.63907E+00  8576   0.634E+00    0.203E+00
DAV:   8    -0.123833786022E+03    0.98672E-01   -0.77010E-01  8496   0.296E+00    0.964E-01
DAV:   9    -0.123857275248E+03   -0.23489E-01   -0.27255E-01  8808   0.135E+00    0.310E-01
DAV:  10    -0.123844959276E+03    0.12316E-01   -0.16177E-02  9040   0.469E-01    0.140E-01
DAV:  11    -0.123836683784E+03    0.82755E-02   -0.13559E-02  8920   0.301E-01    0.889E-02
DAV:  12    -0.123834087918E+03    0.25959E-02   -0.18654E-03  8712   0.145E-01    0.340E-02
DAV:  13    -0.123832027053E+03    0.20609E-02   -0.79265E-04  8824   0.725E-02    0.147E-02
DAV:  14    -0.123831345569E+03    0.68148E-03   -0.76123E-05 10184   0.225E-02    0.125E-02
DAV:  15    -0.123831100172E+03    0.24540E-03   -0.57876E-05  8984   0.235E-02    0.576E-03
DAV:  16    -0.123831370149E+03   -0.26998E-03   -0.74319E-05  8112   0.198E-02    0.452E-03
DAV:  17    -0.123831715803E+03   -0.34565E-03   -0.13996E-04  8104   0.205E-02    0.205E-03
DAV:  18    -0.123831830176E+03   -0.11437E-03   -0.37843E-05  8072   0.120E-02    0.123E-03
DAV:  19    -0.123831881291E+03   -0.51115E-04   -0.11399E-05  6328   0.745E-03    0.771E-04
DAV:  20    -0.123831869274E+03    0.12017E-04   -0.20833E-05  7128   0.853E-03    0.608E-04
DAV:  21    -0.123831814866E+03    0.54408E-04   -0.17695E-05  6764   0.981E-03    0.312E-04
DAV:  22    -0.123831759160E+03    0.55706E-04   -0.94071E-06  6444   0.821E-03    0.147E-04
DAV:  23    -0.123831741006E+03    0.18154E-04   -0.45745E-06  6024   0.675E-03    0.834E-05
DAV:  24    -0.123831725044E+03    0.15962E-04   -0.63517E-06  6424   0.695E-03    0.400E-05
DAV:  25    -0.123831721386E+03    0.36584E-05   -0.14607E-06  5576   0.463E-03    0.221E-05
DAV:  26    -0.123831718513E+03    0.28724E-05   -0.16160E-06  5896   0.453E-03    0.115E-05
DAV:  27    -0.123831718299E+03    0.21474E-06   -0.95243E-07  5324   0.350E-03
   1 F= -.12383172E+03 E0= -.12383013E+03  d E =-.316827E-02
