 vasp.5.3.5 31Mar14 (build Oct 29 2014 16:16:03) complex                        
  
 executed on          Linux-UFHPC date 2016.02.09  17:31:03
 running on    8 total cores
 distrk:  each k-point on    8 cores,    1 groups
 distr:  one band on NCORES_PER_BAND=   2 cores,    4 groups


--------------------------------------------------------------------------------------------------------


 INCAR:
 POTCAR:    PAW_PBE P 17Jan2003                   
 POTCAR:   PAW_PBE Si 05Jan2001                   

 ----------------------------------------------------------------------------- 
|                                                                             |
|  ADVICE TO THIS USER RUNNING 'VASP/VAMP'   (HEAR YOUR MASTER'S VOICE ...):  |
|                                                                             |
|      You have switched on vdW-DFT.                                          |
|      This routine was written and supplied by Jiri Klimes.                  |
|      We recommed that you carefully read and cite the following             |
|      publication                                                            |
|      J. Klimes, D.R. Bowler, A. Michelides                                  |
|        J. Phys.: Cond Matt. 22 022201 (2010)                                |
|      J. Klimes, D.R. Bowler, A. Michelides                                  |
|        Phys. Rev. B. 83, 195131 (2011)                                      |
|      and references therein.                                                |
|                                                                             |
 ----------------------------------------------------------------------------- 

 POTCAR:    PAW_PBE P 17Jan2003                   
   VRHFIN =P : s2p3                                                             
   LEXCH  = PE                                                                  
   EATOM  =   176.0430 eV,   12.9388 Ry                                         
                                                                                
   TITEL  = PAW_PBE P 17Jan2003                                                 
   LULTRA =        F    use ultrasoft PP ?                                      
   IUNSCR =        1    unscreen: 0-lin 1-nonlin 2-no                           
   RPACOR =    1.500    partial core radius                                     
   POMASS =   30.974; ZVAL   =    5.000    mass and valenz                      
   RCORE  =    1.900    outmost cutoff radius                                   
   RWIGS  =    2.330; RWIGS  =    1.233    wigner-seitz radius (au A)           
   ENMAX  =  270.000; ENMIN  =  191.280 eV                                      
   ICORE  =        2    local potential                                         
   LCOR   =        T    correct aug charges                                     
   LPAW   =        T    paw PP                                                  
   EAUG   =  342.924                                                            
   DEXC   =    -.002                                                            
   RMAX   =    2.887    core radius for proj-oper                               
   RAUG   =    1.300    factor for augmentation sphere                          
   RDEP   =    1.931    radius for radial grids                                 
   QCUT   =   -4.330; QGAM   =    8.659    optimization parameters              
                                                                                
   Description                                                                  
     l     E      TYP  RCUT    TYP  RCUT                                        
     0   .000     23  1.900                                                     
     0   .000     23  1.900                                                     
     1   .000     23  1.900                                                     
     1   .000     23  1.900                                                     
     2   .000     23  1.900                                                     
  local pseudopotential read in
  partial core-charges read in
  atomic valenz-charges read in
  non local Contribution for L=           0  read in
    real space projection operators read in
  non local Contribution for L=           0  read in
    real space projection operators read in
  non local Contribution for L=           1  read in
    real space projection operators read in
  non local Contribution for L=           1  read in
    real space projection operators read in
    PAW grid and wavefunctions read in
 
   number of l-projection  operators is LMAX  =           4
   number of lm-projection operators is LMMAX =           8
 
 POTCAR:   PAW_PBE Si 05Jan2001                   
   VRHFIN =Si: s2p2                                                             
   LEXCH  = PE                                                                  
   EATOM  =   103.0669 eV,    7.5752 Ry                                         
                                                                                
   TITEL  = PAW_PBE Si 05Jan2001                                                
   LULTRA =        F    use ultrasoft PP ?                                      
   IUNSCR =        1    unscreen: 0-lin 1-nonlin 2-no                           
   RPACOR =    1.500    partial core radius                                     
   POMASS =   28.085; ZVAL   =    4.000    mass and valenz                      
   RCORE  =    1.900    outmost cutoff radius                                   
   RWIGS  =    2.480; RWIGS  =    1.312    wigner-seitz radius (au A)           
   ENMAX  =  245.345; ENMIN  =  184.009 eV                                      
   ICORE  =        2    local potential                                         
   LCOR   =        T    correct aug charges                                     
   LPAW   =        T    paw PP                                                  
   EAUG   =  322.069                                                            
   DEXC   =    -.007                                                            
   RMAX   =    2.944    core radius for proj-oper                               
   RAUG   =    1.300    factor for augmentation sphere                          
   RDEP   =    1.993    radius for radial grids                                 
   QCUT   =   -4.246; QGAM   =    8.493    optimization parameters              
                                                                                
   Description                                                                  
     l     E      TYP  RCUT    TYP  RCUT                                        
     0   .000     23  1.900                                                     
     0   .000     23  1.900                                                     
     1   .000     23  1.900                                                     
     1   .000     23  1.900                                                     
     2   .000      7  1.900                                                     
  local pseudopotential read in
  partial core-charges read in
  atomic valenz-charges read in
  non local Contribution for L=           0  read in
    real space projection operators read in
  non local Contribution for L=           0  read in
    real space projection operators read in
  non local Contribution for L=           1  read in
    real space projection operators read in
  non local Contribution for L=           1  read in
    real space projection operators read in
    PAW grid and wavefunctions read in
 
   number of l-projection  operators is LMAX  =           4
   number of lm-projection operators is LMMAX =           8
 
 Optimization of the real space projectors (new method)

 maximal supplied QI-value         = 19.84
 optimisation between [QCUT,QGAM] = [  8.73, 17.66] = [ 21.34, 87.33] Ry 
 Optimized for a Real-space Cutoff    1.50 Angstroem

   l    n(q)    QCUT    max X(q) W(low)/X(q) W(high)/X(q)  e(spline) 
   0      8     8.731     6.651    0.16E-04    0.15E-04    0.77E-08
   0      8     8.731    90.285    0.16E-03    0.90E-04    0.16E-06
   1      7     8.731     4.328    0.47E-04    0.36E-04    0.45E-07
   1      7     8.731    54.583    0.13E-03    0.39E-03    0.20E-06
 Optimization of the real space projectors (new method)

 maximal supplied QI-value         = 19.84
 optimisation between [QCUT,QGAM] = [  8.73, 17.66] = [ 21.34, 87.33] Ry 
 Optimized for a Real-space Cutoff    1.46 Angstroem

   l    n(q)    QCUT    max X(q) W(low)/X(q) W(high)/X(q)  e(spline) 
   0      8     8.731     8.708    0.16E-04    0.11E-04    0.68E-08
   0      8     8.731   106.241    0.24E-03    0.77E-04    0.13E-06
   1      7     8.731     5.901    0.34E-04    0.38E-04    0.36E-07
   1      7     8.731    73.241    0.12E-03    0.39E-03    0.15E-06

 ----------------------------------------------------------------------------- 
|                                                                             |
|  ADVICE TO THIS USER RUNNING 'VASP/VAMP'   (HEAR YOUR MASTER'S VOICE ...):  |
|                                                                             |
|      You enforced a specific xc-type in the INCAR file,                     |
|      a different type was found on the POTCAR file                          |
|          I HOPE YOU KNOW, WHAT YOU ARE  DOING                               |
|                                                                             |
 ----------------------------------------------------------------------------- 

  PAW_PBE P 17Jan2003                   :
 energy of atom  1       EATOM= -176.0430
 kinetic energy error for atom=    0.0040 (will be added to EATOM!!)
 PAW_PBE Si 05Jan2001                   :
 energy of atom  2       EATOM= -103.0669
 kinetic energy error for atom=    0.0021 (will be added to EATOM!!)
 
 
 POSCAR: Si12                                    
  positions in direct lattice
  No initial velocities read in
 exchange correlation table for  LEXCH =       42
   RHO(1)=    0.500       N(1)  =     2000
   RHO(2)=  100.500       N(2)  =     4000
 


--------------------------------------------------------------------------------------------------------


 ion  position               nearest neighbor table
   1  0.114  0.228  0.233-  15 2.28  21 2.29  21 2.29
   2  0.414  0.228  0.515-  16 2.28  22 2.29  22 2.29
   3  0.458  0.916  0.209-  21 2.28  13 2.30  13 2.30
   4  0.758  0.916  0.491-  22 2.28  14 2.30  14 2.30
   5  0.311  0.622  0.084-  17 2.28  23 2.30  23 2.30
   6  0.311  0.622  0.366-  24 1.63  18 2.28
   7  0.999  0.998  0.086-  19 2.29  19 2.29  13 2.32
   8  0.999  0.998  0.368-  20 2.29  20 2.29  14 2.55
   9  0.655  0.310  0.060-  19 2.28  17 2.29  17 2.29
  10  0.655  0.310  0.342-  20 2.28  18 2.29  18 2.29
  11  0.770  0.539  0.207-  15 2.29  15 2.29  23 2.32
  12  0.070  0.539  0.489-  16 2.29  16 2.29  24 2.32
  13  0.940  0.879  0.158-   3 2.30   3 2.30   7 2.32  23 2.35
  14  0.240  0.879  0.440-   4 2.30   4 2.30  24 2.35   8 2.55  20 2.99
  15  0.205  0.410  0.186-   1 2.28  11 2.29  11 2.29  17 2.37
  16  0.505  0.410  0.468-   2 2.28  12 2.29  12 2.29  18 2.60
  17  0.202  0.404  0.100-   5 2.28   9 2.29   9 2.29  15 2.37
  18  0.202  0.404  0.382-   6 2.28  10 2.29  10 2.29  16 2.60  24 2.89
  19  0.564  0.128  0.108-   9 2.28   7 2.29   7 2.29  21 2.37
  20  0.564  0.128  0.390-  10 2.28   8 2.29   8 2.29  22 2.60  14 2.99
  21  0.567  0.134  0.194-   3 2.28   1 2.29   1 2.29  19 2.37
  22  0.867  0.134  0.476-   4 2.28   2 2.29   2 2.29  20 2.60
  23  0.829  0.658  0.136-   5 2.30   5 2.30  11 2.32  13 2.35
  24  0.129  0.658  0.418-   6 1.63  12 2.32  14 2.35  18 2.89
 
  LATTYP: Found a base centered orthorhombic cell.
 ALAT       =     3.5404000000
 B/A-ratio  =     5.8153587165
 C/A-ratio  =     7.7678875268
  
  Lattice vectors:
  
 A1 = (   1.7702000000,  10.2943480000,   0.0000000000)
 A2 = (   1.7702000000, -10.2943480000,   0.0000000000)
 A3 = (   0.0000000000,   0.0000000000, -27.5014290000)


Analysis of symmetry for initial positions (statically):
=====================================================================
 Subroutine PRICEL returns:
 Original cell was already a primitive cell.
 

 Routine SETGRP: Setting up the symmetry group for a 
 base centered orthorhombic supercell.


 Subroutine GETGRP returns: Found  1 space group operations
 (whereof  1 operations were pure point group operations)
 out of a pool of  8 trial point group operations.


The static configuration has the point symmetry C_1 .


Analysis of symmetry for dynamics (positions and initial velocities):
=====================================================================
 Subroutine PRICEL returns:
 Original cell was already a primitive cell.
 

 Routine SETGRP: Setting up the symmetry group for a 
 base centered orthorhombic supercell.


 Subroutine GETGRP returns: Found  1 space group operations
 (whereof  1 operations were pure point group operations)
 out of a pool of  8 trial point group operations.


The dynamic configuration has the point symmetry C_1 .
 
 
 KPOINTS: pymatgen generated KPOINTS with grid den

Automatic generation of k-mesh.
Space group operators:
 irot       det(A)        alpha          n_x          n_y          n_z        tau_x        tau_y        tau_z
    1     1.000000     0.000000     1.000000     0.000000     0.000000     0.000000     0.000000     0.000000
 
 Subroutine IBZKPT returns following result:
 ===========================================
 
 Found     54 irreducible k-points:
 
 Following reciprocal coordinates:
            Coordinates               Weight
  0.000000  0.000000  0.000000      1.000000
  0.076923 -0.000000  0.000000      2.000000
  0.153846 -0.000000  0.000000      2.000000
  0.230769 -0.000000  0.000000      2.000000
  0.307692 -0.000000  0.000000      2.000000
  0.384615 -0.000000  0.000000      2.000000
  0.461538 -0.000000  0.000000      2.000000
  0.000000  0.250000  0.000000      2.000000
  0.076923  0.250000  0.000000      2.000000
  0.153846  0.250000  0.000000      2.000000
  0.230769  0.250000  0.000000      2.000000
  0.307692  0.250000  0.000000      2.000000
  0.384615  0.250000  0.000000      2.000000
  0.461538  0.250000  0.000000      2.000000
 -0.461538  0.250000  0.000000      2.000000
 -0.384615  0.250000  0.000000      2.000000
 -0.307692  0.250000  0.000000      2.000000
 -0.230769  0.250000  0.000000      2.000000
 -0.153846  0.250000  0.000000      2.000000
 -0.076923  0.250000  0.000000      2.000000
  0.000000  0.500000  0.000000      1.000000
  0.076923  0.500000  0.000000      2.000000
  0.153846  0.500000  0.000000      2.000000
  0.230769  0.500000  0.000000      2.000000
  0.307692  0.500000  0.000000      2.000000
  0.384615  0.500000  0.000000      2.000000
  0.461538  0.500000  0.000000      2.000000
  0.000000  0.000000  0.500000      1.000000
  0.076923 -0.000000  0.500000      2.000000
  0.153846 -0.000000  0.500000      2.000000
  0.230769 -0.000000  0.500000      2.000000
  0.307692 -0.000000  0.500000      2.000000
  0.384615 -0.000000  0.500000      2.000000
  0.461538 -0.000000  0.500000      2.000000
  0.000000  0.250000  0.500000      2.000000
  0.076923  0.250000  0.500000      2.000000
  0.153846  0.250000  0.500000      2.000000
  0.230769  0.250000  0.500000      2.000000
  0.307692  0.250000  0.500000      2.000000
  0.384615  0.250000  0.500000      2.000000
  0.461538  0.250000  0.500000      2.000000
 -0.461538  0.250000  0.500000      2.000000
 -0.384615  0.250000  0.500000      2.000000
 -0.307692  0.250000  0.500000      2.000000
 -0.230769  0.250000  0.500000      2.000000
 -0.153846  0.250000  0.500000      2.000000
 -0.076923  0.250000  0.500000      2.000000
  0.000000  0.500000  0.500000      1.000000
  0.076923  0.500000  0.500000      2.000000
  0.153846  0.500000  0.500000      2.000000
  0.230769  0.500000  0.500000      2.000000
  0.307692  0.500000  0.500000      2.000000
  0.384615  0.500000  0.500000      2.000000
  0.461538  0.500000  0.500000      2.000000
 
 Following cartesian coordinates:
            Coordinates               Weight
  0.000000  0.000000  0.000000      1.000000
  0.021727  0.003736  0.000000      2.000000
  0.043454  0.007472  0.000000      2.000000
  0.065182  0.011209  0.000000      2.000000
  0.086909  0.014945  0.000000      2.000000
  0.108636  0.018681  0.000000      2.000000
  0.130363  0.022417  0.000000      2.000000
  0.000000  0.024285  0.000000      2.000000
  0.021727  0.028021  0.000000      2.000000
  0.043454  0.031758  0.000000      2.000000
  0.065182  0.035494  0.000000      2.000000
  0.086909  0.039230  0.000000      2.000000
  0.108636  0.042966  0.000000      2.000000
  0.130363  0.046702  0.000000      2.000000
 -0.130363  0.001868  0.000000      2.000000
 -0.108636  0.005604  0.000000      2.000000
 -0.086909  0.009340  0.000000      2.000000
 -0.065182  0.013077  0.000000      2.000000
 -0.043454  0.016813  0.000000      2.000000
 -0.021727  0.020549  0.000000      2.000000
  0.000000  0.048570  0.000000      1.000000
  0.021727  0.052307  0.000000      2.000000
  0.043454  0.056043  0.000000      2.000000
  0.065182  0.059779  0.000000      2.000000
  0.086909  0.063515  0.000000      2.000000
  0.108636  0.067251  0.000000      2.000000
  0.130363  0.070987  0.000000      2.000000
  0.000000  0.000000  0.018181      1.000000
  0.021727  0.003736  0.018181      2.000000
  0.043454  0.007472  0.018181      2.000000
  0.065182  0.011209  0.018181      2.000000
  0.086909  0.014945  0.018181      2.000000
  0.108636  0.018681  0.018181      2.000000
  0.130363  0.022417  0.018181      2.000000
  0.000000  0.024285  0.018181      2.000000
  0.021727  0.028021  0.018181      2.000000
  0.043454  0.031758  0.018181      2.000000
  0.065182  0.035494  0.018181      2.000000
  0.086909  0.039230  0.018181      2.000000
  0.108636  0.042966  0.018181      2.000000
  0.130363  0.046702  0.018181      2.000000
 -0.130363  0.001868  0.018181      2.000000
 -0.108636  0.005604  0.018181      2.000000
 -0.086909  0.009340  0.018181      2.000000
 -0.065182  0.013077  0.018181      2.000000
 -0.043454  0.016813  0.018181      2.000000
 -0.021727  0.020549  0.018181      2.000000
  0.000000  0.048570  0.018181      1.000000
  0.021727  0.052307  0.018181      2.000000
  0.043454  0.056043  0.018181      2.000000
  0.065182  0.059779  0.018181      2.000000
  0.086909  0.063515  0.018181      2.000000
  0.108636  0.067251  0.018181      2.000000
  0.130363  0.070987  0.018181      2.000000
 


--------------------------------------------------------------------------------------------------------




 Dimension of arrays:
   k-points           NKPTS =     54   k-points in BZ     NKDIM =     54   number of bands    NBANDS=     68
   number of dos      NEDOS =    301   number of ions     NIONS =     24
   non local maximal  LDIM  =      4   non local SUM 2l+1 LMDIM =      8
   total plane-waves  NPLWV = 192000
   max r-space proj   IRMAX =   2772   max aug-charges    IRDMAX=   6603
   dimension x,y,z NGX =    20 NGY =   60 NGZ =  160
   dimension x,y,z NGXF=    40 NGYF=  120 NGZF=  320
   support grid    NGXF=    40 NGYF=  120 NGZF=  320
   ions per type =              12  12
 NGX,Y,Z   is equivalent  to a cutoff of   9.39,  9.55,  9.67 a.u.
 NGXF,Y,Z  is equivalent  to a cutoff of  18.78, 19.10, 19.34 a.u.


 I would recommend the setting:
   dimension x,y,z NGX =    20 NGY =   59 NGZ =  155
 SYSTEM =  unknown system                          
 POSCAR =  Si12                                    

 Startparameter for this run:
   NWRITE =      2    write-flag & timer
   PREC   = accura    normal or accurate (medium, high low for compatibility)
   ISTART =      0    job   : 0-new  1-cont  2-samecut
   ICHARG =      2    charge: 1-file 2-atom 10-const
   ISPIN  =      1    spin polarized calculation?
   LNONCOLLINEAR =      F non collinear calculations
   LSORBIT =      F    spin-orbit coupling
   INIWAV =      1    electr: 0-lowe 1-rand  2-diag
   LASPH  =      F    aspherical Exc in radial PAW
   METAGGA=      F    non-selfconsistent MetaGGA calc.

 Electronic Relaxation 1
   ENCUT  =  300.0 eV  22.05 Ry    4.70 a.u.   5.00 14.75 38.84*2*pi/ulx,y,z
   ENINI  =  300.0     initial cutoff
   ENAUG  =  342.9 eV  augmentation charge cutoff
   NELM   =     60;   NELMIN=  2; NELMDL= -5     # of ELM steps 
   EDIFF  = 0.1E-05   stopping-criterion for ELM
   LREAL  =      T    real-space projection
   NLSPLINE    = F    spline interpolate recip. space projectors
   LCOMPAT=      F    compatible to vasp.4.4
   GGA_COMPAT  = T    GGA compatible to vasp.4.4-vasp.4.6
   LMAXPAW     = -100 max onsite density
   LMAXMIX     =    2 max onsite mixed and CHGCAR
   VOSKOWN=      0    Vosko Wilk Nusair interpolation
   ROPT   =   -0.00025  -0.00025
 Ionic relaxation
   EDIFFG = 0.1E-04   stopping-criterion for IOM
   NSW    =      0    number of steps for IOM
   NBLOCK =      1;   KBLOCK =      1    inner block; outer block 
   IBRION =     -1    ionic relax: 0-MD 1-quasi-New 2-CG
   NFREE  =      1    steps in history (QN), initial steepest desc. (CG)
   ISIF   =      3    stress and relaxation
   IWAVPR =     10    prediction:  0-non 1-charg 2-wave 3-comb
   ISYM   =      2    0-nonsym 1-usesym 2-fastsym
   LCORR  =      T    Harris-Foulkes like correction to forces

   POTIM  = 0.5000    time-step for ionic-motion
   TEIN   =    0.0    initial temperature
   TEBEG  =    0.0;   TEEND  =   0.0 temperature during run
   SMASS  =  -3.00    Nose mass-parameter (am)
   estimated Nose-frequenzy (Omega)   =  0.10E-29 period in steps =****** mass=  -0.286E-27a.u.
   SCALEE = 1.0000    scale energy and forces
   NPACO  =    256;   APACO  = 16.0  distance and # of slots for P.C.
   PSTRESS=    0.0 pullay stress

  Mass of Ions in am
   POMASS =  30.97 28.09
  Ionic Valenz
   ZVAL   =   5.00  4.00
  Atomic Wigner-Seitz radii
   RWIGS  =  -1.00 -1.00
  virtual crystal weights 
   VCA    =   1.00  1.00
   NELECT =     108.0000    total number of electrons
   NUPDOWN=      -1.0000    fix difference up-down

 DOS related values:
   EMIN   =  10.00;   EMAX   =-10.00  energy-range for DOS
   EFERMI =   0.00
   ISMEAR =     0;   SIGMA  =   0.10  broadening in eV -4-tet -1-fermi 0-gaus

 Electronic relaxation 2 (details)
   IALGO  =     38    algorithm
   LDIAG  =      T    sub-space diagonalisation (order eigenvalues)
   LSUBROT=      F    optimize rotation matrix (better conditioning)
   TURBO    =      0    0=normal 1=particle mesh
   IRESTART =      0    0=no restart 2=restart with 2 vectors
   NREBOOT  =      0    no. of reboots
   NMIN     =      0    reboot dimension
   EREF     =   0.00    reference energy to select bands
   IMIX   =      4    mixing-type and parameters
     AMIX     =   0.40;   BMIX     =  1.00
     AMIX_MAG =   1.60;   BMIX_MAG =  1.00
     AMIN     =   0.10
     WC   =   100.;   INIMIX=   1;  MIXPRE=   1;  MAXMIX= -45

 Intra band minimization:
   WEIMIN = 0.0000     energy-eigenvalue tresh-hold
   EBREAK =  0.37E-08  absolut break condition
   DEPER  =   0.30     relativ break condition  

   TIME   =   0.40     timestep for ELM

  volume/ion in A,a.u.               =      41.76       281.83
  Fermi-wavevector in a.u.,A,eV,Ry     =   0.779018  1.472130  8.256946  0.606868
  Thomas-Fermi vector in A             =   1.882034
 
 Write flags
   LWAVE  =      F    write WAVECAR
   LCHARG =      F    write CHGCAR
   LVTOT  =      F    write LOCPOT, total local potential
   LVHAR  =      F    write LOCPOT, Hartree potential only
   LELF   =      F    write electronic localiz. function (ELF)
   LORBIT =      0    0 simple, 1 ext, 2 COOP (PROOUT)


 Dipole corrections
   LMONO  =      F    monopole corrections only (constant potential shift)
   LDIPOL =      F    correct potential (dipole corrections)
   IDIPOL =      0    1-x, 2-y, 3-z, 4-all directions 
   EPSILON=  1.0000000 bulk dielectric constant

 Exchange correlation treatment:
   GGA     =    BO    GGA type
   LEXCH   =    42    internal setting for exchange type
   VOSKOWN=      0    Vosko Wilk Nusair interpolation
   LHFCALC =     F    Hartree Fock is set to
   LHFONE  =     F    Hartree Fock one center treatment
   AEXX    =    0.0000 exact exchange contribution

 vdW DFT:
   LUSE_VDW   =     T    switch on vdW DFT
   Zab_VDW    =-.8491    correlation parameter
   PARAM1     =0.1833
   PARAM2     =0.2200
   PARAM3     =0.0000

 Linear response parameters
   LEPSILON=     F    determine dielectric tensor
   LRPA    =     F    only Hartree local field effects (RPA)
   LNABLA  =     F    use nabla operator in PAW spheres
   LVEL    =     F    velocity operator in full k-point grid
   LINTERFAST=   F  fast interpolation
   KINTER  =     0    interpolate to denser k-point grid
   CSHIFT  =0.1000    complex shift for real part using Kramers Kronig
   OMEGAMAX=  -1.0    maximum frequency
   DEG_THRESHOLD= 0.2000000E-02 threshold for treating states as degnerate
   RTIME   =    0.100 relaxation time in fs

 Orbital magnetization related:
   ORBITALMAG=     F  switch on orbital magnetization
   LCHIMAG   =     F  perturbation theory with respect to B field
   DQ        =  0.001000  dq finite difference perturbation B field



--------------------------------------------------------------------------------------------------------


 Static calculation
 charge density and potential will be updated during run
 non-spin polarized calculation
 Variant of blocked Davidson
 Davidson routine will perform the subspace rotation
 perform sub-space diagonalisation
    after iterative eigenvector-optimisation
 modified Broyden-mixing scheme, WC =      100.0
 initial mixing is a Kerker type mixing with AMIX =  0.4000 and BMIX =      1.0000
 Hartree-type preconditioning will be used
 using additional bands           14
 real space projection scheme for non local part
 use partial core corrections
 calculate Harris-corrections to forces 
   (improved forces if not selfconsistent)
 use gradient corrections 
 use of overlap-Matrix (Vanderbilt PP)
 Gauss-broadening in eV      SIGMA  =   0.10


--------------------------------------------------------------------------------------------------------


  energy-cutoff  :      300.00
  volume of cell :     1002.32
      direct lattice vectors                 reciprocal lattice vectors
     3.540400000  0.000000000  0.000000000     0.282453960  0.048570342  0.000000000
    -1.770200000 10.294348000  0.000000000     0.000000000  0.097140683  0.000000000
     0.000000000  0.000000000 27.501429000     0.000000000  0.000000000  0.036361747

  length of vectors
     3.540400000 10.445439617 27.501429000     0.286599577  0.097140683  0.036361747


 
 k-points in units of 2pi/SCALE and weight: pymatgen generated KPOINTS with grid den
   0.00000000  0.00000000  0.00000000       0.010
   0.02172723  0.00373618  0.00000000       0.019
   0.04345446  0.00747236  0.00000000       0.019
   0.06518168  0.01120854  0.00000000       0.019
   0.08690891  0.01494472  0.00000000       0.019
   0.10863614  0.01868090  0.00000000       0.019
   0.13036337  0.02241708  0.00000000       0.019
   0.00000000  0.02428517  0.00000000       0.019
   0.02172723  0.02802135  0.00000000       0.019
   0.04345446  0.03175753  0.00000000       0.019
   0.06518168  0.03549371  0.00000000       0.019
   0.08690891  0.03922989  0.00000000       0.019
   0.10863614  0.04296607  0.00000000       0.019
   0.13036337  0.04670225  0.00000000       0.019
  -0.13036337  0.00186809  0.00000000       0.019
  -0.10863614  0.00560427  0.00000000       0.019
  -0.08690891  0.00934045  0.00000000       0.019
  -0.06518168  0.01307663  0.00000000       0.019
  -0.04345446  0.01681281  0.00000000       0.019
  -0.02172723  0.02054899  0.00000000       0.019
   0.00000000  0.04857034  0.00000000       0.010
   0.02172723  0.05230652  0.00000000       0.019
   0.04345446  0.05604270  0.00000000       0.019
   0.06518168  0.05977888  0.00000000       0.019
   0.08690891  0.06351506  0.00000000       0.019
   0.10863614  0.06725124  0.00000000       0.019
   0.13036337  0.07098742  0.00000000       0.019
   0.00000000  0.00000000  0.01818087       0.010
   0.02172723  0.00373618  0.01818087       0.019
   0.04345446  0.00747236  0.01818087       0.019
   0.06518168  0.01120854  0.01818087       0.019
   0.08690891  0.01494472  0.01818087       0.019
   0.10863614  0.01868090  0.01818087       0.019
   0.13036337  0.02241708  0.01818087       0.019
   0.00000000  0.02428517  0.01818087       0.019
   0.02172723  0.02802135  0.01818087       0.019
   0.04345446  0.03175753  0.01818087       0.019
   0.06518168  0.03549371  0.01818087       0.019
   0.08690891  0.03922989  0.01818087       0.019
   0.10863614  0.04296607  0.01818087       0.019
   0.13036337  0.04670225  0.01818087       0.019
  -0.13036337  0.00186809  0.01818087       0.019
  -0.10863614  0.00560427  0.01818087       0.019
  -0.08690891  0.00934045  0.01818087       0.019
  -0.06518168  0.01307663  0.01818087       0.019
  -0.04345446  0.01681281  0.01818087       0.019
  -0.02172723  0.02054899  0.01818087       0.019
   0.00000000  0.04857034  0.01818087       0.010
   0.02172723  0.05230652  0.01818087       0.019
   0.04345446  0.05604270  0.01818087       0.019
   0.06518168  0.05977888  0.01818087       0.019
   0.08690891  0.06351506  0.01818087       0.019
   0.10863614  0.06725124  0.01818087       0.019
   0.13036337  0.07098742  0.01818087       0.019
 
 k-points in reciprocal lattice and weights: pymatgen generated KPOINTS with grid den
   0.00000000  0.00000000  0.00000000       0.010
   0.07692308 -0.00000000  0.00000000       0.019
   0.15384615 -0.00000000  0.00000000       0.019
   0.23076923 -0.00000000  0.00000000       0.019
   0.30769231 -0.00000000  0.00000000       0.019
   0.38461538 -0.00000000  0.00000000       0.019
   0.46153846 -0.00000000  0.00000000       0.019
   0.00000000  0.25000000  0.00000000       0.019
   0.07692308  0.25000000  0.00000000       0.019
   0.15384615  0.25000000  0.00000000       0.019
   0.23076923  0.25000000  0.00000000       0.019
   0.30769231  0.25000000  0.00000000       0.019
   0.38461538  0.25000000  0.00000000       0.019
   0.46153846  0.25000000  0.00000000       0.019
  -0.46153846  0.25000000  0.00000000       0.019
  -0.38461538  0.25000000  0.00000000       0.019
  -0.30769231  0.25000000  0.00000000       0.019
  -0.23076923  0.25000000  0.00000000       0.019
  -0.15384615  0.25000000  0.00000000       0.019
  -0.07692308  0.25000000  0.00000000       0.019
   0.00000000  0.50000000  0.00000000       0.010
   0.07692308  0.50000000  0.00000000       0.019
   0.15384615  0.50000000  0.00000000       0.019
   0.23076923  0.50000000  0.00000000       0.019
   0.30769231  0.50000000  0.00000000       0.019
   0.38461538  0.50000000  0.00000000       0.019
   0.46153846  0.50000000  0.00000000       0.019
   0.00000000  0.00000000  0.50000000       0.010
   0.07692308 -0.00000000  0.50000000       0.019
   0.15384615 -0.00000000  0.50000000       0.019
   0.23076923 -0.00000000  0.50000000       0.019
   0.30769231 -0.00000000  0.50000000       0.019
   0.38461538 -0.00000000  0.50000000       0.019
   0.46153846 -0.00000000  0.50000000       0.019
   0.00000000  0.25000000  0.50000000       0.019
   0.07692308  0.25000000  0.50000000       0.019
   0.15384615  0.25000000  0.50000000       0.019
   0.23076923  0.25000000  0.50000000       0.019
   0.30769231  0.25000000  0.50000000       0.019
   0.38461538  0.25000000  0.50000000       0.019
   0.46153846  0.25000000  0.50000000       0.019
  -0.46153846  0.25000000  0.50000000       0.019
  -0.38461538  0.25000000  0.50000000       0.019
  -0.30769231  0.25000000  0.50000000       0.019
  -0.23076923  0.25000000  0.50000000       0.019
  -0.15384615  0.25000000  0.50000000       0.019
  -0.07692308  0.25000000  0.50000000       0.019
   0.00000000  0.50000000  0.50000000       0.010
   0.07692308  0.50000000  0.50000000       0.019
   0.15384615  0.50000000  0.50000000       0.019
   0.23076923  0.50000000  0.50000000       0.019
   0.30769231  0.50000000  0.50000000       0.019
   0.38461538  0.50000000  0.50000000       0.019
   0.46153846  0.50000000  0.50000000       0.019
 
 position of ions in fractional coordinates (direct lattice) 
   0.11402300  0.22804500  0.23316207
   0.41402300  0.22804500  0.51499159
   0.45808900  0.91617900  0.20939482
   0.75808900  0.91617900  0.49122434
   0.31085400  0.62170900  0.08414979
   0.31085400  0.62170900  0.36597930
   0.99923000  0.99846000  0.08631254
   0.99923000  0.99846000  0.36814206
   0.65492700  0.30985400  0.06041748
   0.65492700  0.30985400  0.34224700
   0.76973800  0.53947500  0.20725292
   0.06973800  0.53947500  0.48908244
   0.93971600  0.87943300  0.15783749
   0.23971600  0.87943300  0.43966701
   0.20515200  0.41030300  0.18578822
   0.50515200  0.41030300  0.46761774
   0.20184900  0.40369900  0.09969156
   0.20184900  0.40369900  0.38152107
   0.56380500  0.12761000  0.10779021
   0.56380500  0.12761000  0.38961973
   0.56710600  0.13421200  0.19387616
   0.86710600  0.13421200  0.47570568
   0.82923400  0.65846800  0.13571444
   0.12923400  0.65846800  0.41754396
 
 position of ions in cartesian coordinates  (Angst):
   0.00000177  2.34757459  6.41229012
   1.06212177  2.34757459 14.16300462
  -0.00000177  9.43146546  5.75865686
   1.06211823  9.43146546 13.50937136
  -0.00000177  6.40008880  2.31423934
  -0.00000177  6.40008880 10.06495384
   1.77020000 10.27849470  2.37371832
   1.77020000 10.27849470 10.12443282
   1.77020000  3.18974491  1.66156717
   1.77020000  3.18974491  9.41228167
   1.77020177  5.55354339  5.69975143
  -0.70807823  5.55354339 13.45046593
   1.77019823  9.05318934  4.34075665
  -0.70808177  9.05318934 12.09147115
   0.00000177  4.22380187  5.10944151
   1.06212177  4.22380187 12.86015601
  -0.00000177  4.15581799  2.74166024
  -0.00000177  4.15581799 10.49237474
   1.77020000  1.31366175  2.96438477
   1.77020000  1.31366175 10.71509927
   1.77020000  1.38162503  5.33187152
   2.83232000  1.38162503 13.08258602
   1.77020000  6.77849874  3.73234107
  -0.70808000  6.77849874 11.48305557
 


--------------------------------------------------------------------------------------------------------


 k-point  1 :   0.0000 0.0000 0.0000  plane waves:   11717
 k-point  2 :   0.0769-0.0000 0.0000  plane waves:   11762
 k-point  3 :   0.1538-0.0000 0.0000  plane waves:   11805
 k-point  4 :   0.2308-0.0000 0.0000  plane waves:   11824
 k-point  5 :   0.3077-0.0000 0.0000  plane waves:   11875
 k-point  6 :   0.3846-0.0000 0.0000  plane waves:   11864
 k-point  7 :   0.4615-0.0000 0.0000  plane waves:   11883
 k-point  8 :   0.0000 0.2500 0.0000  plane waves:   11683
 k-point  9 :   0.0769 0.2500 0.0000  plane waves:   11756
 k-point 10 :   0.1538 0.2500 0.0000  plane waves:   11807
 k-point 11 :   0.2308 0.2500 0.0000  plane waves:   11853
 k-point 12 :   0.3077 0.2500 0.0000  plane waves:   11866
 k-point 13 :   0.3846 0.2500 0.0000  plane waves:   11889
 k-point 14 :   0.4615 0.2500 0.0000  plane waves:   11885
 k-point 15 :  -0.4615 0.2500 0.0000  plane waves:   11886
 k-point 16 :  -0.3846 0.2500 0.0000  plane waves:   11867
 k-point 17 :  -0.3077 0.2500 0.0000  plane waves:   11849
 k-point 18 :  -0.2308 0.2500 0.0000  plane waves:   11827
 k-point 19 :  -0.1538 0.2500 0.0000  plane waves:   11801
 k-point 20 :  -0.0769 0.2500 0.0000  plane waves:   11757
 k-point 21 :   0.0000 0.5000 0.0000  plane waves:   11710
 k-point 22 :   0.0769 0.5000 0.0000  plane waves:   11762
 k-point 23 :   0.1538 0.5000 0.0000  plane waves:   11782
 k-point 24 :   0.2308 0.5000 0.0000  plane waves:   11841
 k-point 25 :   0.3077 0.5000 0.0000  plane waves:   11876
 k-point 26 :   0.3846 0.5000 0.0000  plane waves:   11889
 k-point 27 :   0.4615 0.5000 0.0000  plane waves:   11881
 k-point 28 :   0.0000 0.0000 0.5000  plane waves:   11698
 k-point 29 :   0.0769-0.0000 0.5000  plane waves:   11752
 k-point 30 :   0.1538-0.0000 0.5000  plane waves:   11800
 k-point 31 :   0.2308-0.0000 0.5000  plane waves:   11834
 k-point 32 :   0.3077-0.0000 0.5000  plane waves:   11850
 k-point 33 :   0.3846-0.0000 0.5000  plane waves:   11888
 k-point 34 :   0.4615-0.0000 0.5000  plane waves:   11896
 k-point 35 :   0.0000 0.2500 0.5000  plane waves:   11714
 k-point 36 :   0.0769 0.2500 0.5000  plane waves:   11754
 k-point 37 :   0.1538 0.2500 0.5000  plane waves:   11802
 k-point 38 :   0.2308 0.2500 0.5000  plane waves:   11840
 k-point 39 :   0.3077 0.2500 0.5000  plane waves:   11858
 k-point 40 :   0.3846 0.2500 0.5000  plane waves:   11896
 k-point 41 :   0.4615 0.2500 0.5000  plane waves:   11886
 k-point 42 :  -0.4615 0.2500 0.5000  plane waves:   11852
 k-point 43 :  -0.3846 0.2500 0.5000  plane waves:   11838
 k-point 44 :  -0.3077 0.2500 0.5000  plane waves:   11842
 k-point 45 :  -0.2308 0.2500 0.5000  plane waves:   11840
 k-point 46 :  -0.1538 0.2500 0.5000  plane waves:   11804
 k-point 47 :  -0.0769 0.2500 0.5000  plane waves:   11748
 k-point 48 :   0.0000 0.5000 0.5000  plane waves:   11724
 k-point 49 :   0.0769 0.5000 0.5000  plane waves:   11748
 k-point 50 :   0.1538 0.5000 0.5000  plane waves:   11814
 k-point 51 :   0.2308 0.5000 0.5000  plane waves:   11832
 k-point 52 :   0.3077 0.5000 0.5000  plane waves:   11868
 k-point 53 :   0.3846 0.5000 0.5000  plane waves:   11892
 k-point 54 :   0.4615 0.5000 0.5000  plane waves:   11878

 maximum and minimum number of plane-waves per node :      5964     5832

 maximum number of plane-waves:     11896
 maximum index in each direction: 
   IXMAX=    5   IYMAX=   14   IZMAX=   38
   IXMIN=   -5   IYMIN=  -15   IZMIN=  -39

 WARNING: aliasing errors must be expected set NGX to  22 to avoid them
 NGY is ok and might be reduce to  60
 NGZ is ok and might be reduce to 156
 aliasing errors are usually negligible using standard VASP settings
 and one can safely disregard these warnings

 real space projection operators:
  total allocation   :       3793.25 KBytes
  max/ min on nodes  :       1899.38       1893.88


 parallel 3D FFT for wavefunctions:
    minimum data exchange during FFTs selected (reduces bandwidth)
 parallel 3D FFT for charge:
    minimum data exchange during FFTs selected (reduces bandwidth)


 total amount of memory used by VASP on root node   146493. kBytes
========================================================================

   base      :      30000. kBytes
   nonlr-proj:       3452. kBytes
   fftplans  :       9347. kBytes
   grid      :      14649. kBytes
   one-center:         36. kBytes
   wavefun   :      89009. kBytes
 
     INWAV:  cpu time    0.00: real time    0.00
 Broyden mixing: mesh for mixing (old mesh)
   NGX =  9   NGY = 29   NGZ = 77
  (NGX  = 40   NGY  =120   NGZ  =320)
  gives a total of  20097 points

 initial charge density was supplied:
 charge density of overlapping atoms calculated
 number of electron     108.0000000 magnetization 
 keeping initial charge density in first step


--------------------------------------------------------------------------------------------------------


 Maximum index for non-local projection operator         1333
 Maximum index for augmentation-charges          822 (set IRDMAX)


--------------------------------------------------------------------------------------------------------


 First call to EWALD:  gamma=   0.177
 Maximum number of real-space cells 7x 3x 1
 Maximum number of reciprocal cells 1x 3x 7

 FEWALD executed in parallel
    FEWALD:  cpu time    0.00: real time    0.00


----------------------------------------- Iteration    1(   1)  ---------------------------------------


vdW kernel read from vdw_kernel.bindat
  0.0000  0.2424  0.5071  0.7962  1.1119  1.4567  1.8333  2.2446  2.6937  3.1842
  3.7199  4.3049  4.9438  5.6415  6.4036  7.2358  8.1446  9.1372 10.2212 11.4050
 12.6979 14.1099 15.6519 17.3360 19.1751 21.1837 23.3773 25.7729 28.3892 31.2465
 34.3669 37.7748 41.4965 45.5611 50.0000
 
    POTLOK:  cpu time   16.61: real time   16.62
    SETDIJ:  cpu time    0.01: real time    0.02
     EDDAV:  cpu time   65.49: real time   65.51
       DOS:  cpu time    0.01: real time    0.01
    --------------------------------------------
      LOOP:  cpu time   82.13: real time   82.16

 eigenvalue-minimisations  :  7368
 total energy-change (2. order) : 0.4910749E+03  (-0.2865332E+04)
 number of electron     108.0000000 magnetization 
 augmentation part      108.0000000 magnetization 

 Free energy of the ion-electron system (eV)
  ---------------------------------------------------
  alpha Z        PSCENC =        36.80884744
  Ewald energy   TEWEN  =     11903.49586869
  -Hartree energ DENC   =    -14950.39003795
  -exchange      EXHF   =         0.00000000
  -V(xc)+E(xc)   XCENC  =       -88.11706107
  PAW double counting   =      1056.43050070     -732.41190547
  entropy T*S    EENTRO =        -0.03614696
  eigenvalues    EBANDS =       -88.74640425
  atomic energy  EATOM  =      3354.04126044
  ---------------------------------------------------
  free energy    TOTEN  =       491.07492158 eV

  energy without entropy =      491.11106854  energy(sigma->0) =      491.09299506


--------------------------------------------------------------------------------------------------------




----------------------------------------- Iteration    1(   2)  ---------------------------------------


     EDDAV:  cpu time   81.78: real time   81.79
       DOS:  cpu time    0.01: real time    0.01
    --------------------------------------------
      LOOP:  cpu time   81.79: real time   81.81

 eigenvalue-minimisations  :  9756
 total energy-change (2. order) :-0.5593731E+03  (-0.5450219E+03)
 number of electron     108.0000000 magnetization 
 augmentation part      108.0000000 magnetization 

 Free energy of the ion-electron system (eV)
  ---------------------------------------------------
  alpha Z        PSCENC =        36.80884744
  Ewald energy   TEWEN  =     11903.49586869
  -Hartree energ DENC   =    -14950.39003795
  -exchange      EXHF   =         0.00000000
  -V(xc)+E(xc)   XCENC  =       -88.11706107
  PAW double counting   =      1056.43050070     -732.41190547
  entropy T*S    EENTRO =        -0.00969782
  eigenvalues    EBANDS =      -648.14595876
  atomic energy  EATOM  =      3354.04126044
  ---------------------------------------------------
  free energy    TOTEN  =       -68.29818379 eV

  energy without entropy =      -68.28848596  energy(sigma->0) =      -68.29333488


--------------------------------------------------------------------------------------------------------




----------------------------------------- Iteration    1(   3)  ---------------------------------------


     EDDAV:  cpu time   75.38: real time   75.39
       DOS:  cpu time    0.01: real time    0.01
    --------------------------------------------
      LOOP:  cpu time   75.39: real time   75.40

 eigenvalue-minimisations  :  8796
 total energy-change (2. order) :-0.5630898E+02  (-0.5559128E+02)
 number of electron     108.0000000 magnetization 
 augmentation part      108.0000000 magnetization 

 Free energy of the ion-electron system (eV)
  ---------------------------------------------------
  alpha Z        PSCENC =        36.80884744
  Ewald energy   TEWEN  =     11903.49586869
  -Hartree energ DENC   =    -14950.39003795
  -exchange      EXHF   =         0.00000000
  -V(xc)+E(xc)   XCENC  =       -88.11706107
  PAW double counting   =      1056.43050070     -732.41190547
  entropy T*S    EENTRO =        -0.00005990
  eigenvalues    EBANDS =      -704.46457822
  atomic energy  EATOM  =      3354.04126044
  ---------------------------------------------------
  free energy    TOTEN  =      -124.60716533 eV

  energy without entropy =     -124.60710543  energy(sigma->0) =     -124.60713538


--------------------------------------------------------------------------------------------------------




----------------------------------------- Iteration    1(   4)  ---------------------------------------


     EDDAV:  cpu time   90.10: real time   90.12
       DOS:  cpu time    0.01: real time    0.01
    --------------------------------------------
      LOOP:  cpu time   90.11: real time   90.13

 eigenvalue-minimisations  : 11024
 total energy-change (2. order) :-0.2550669E+01  (-0.2539372E+01)
 number of electron     108.0000000 magnetization 
 augmentation part      108.0000000 magnetization 

 Free energy of the ion-electron system (eV)
  ---------------------------------------------------
  alpha Z        PSCENC =        36.80884744
  Ewald energy   TEWEN  =     11903.49586869
  -Hartree energ DENC   =    -14950.39003795
  -exchange      EXHF   =         0.00000000
  -V(xc)+E(xc)   XCENC  =       -88.11706107
  PAW double counting   =      1056.43050070     -732.41190547
  entropy T*S    EENTRO =        -0.00004459
  eigenvalues    EBANDS =      -707.01526279
  atomic energy  EATOM  =      3354.04126044
  ---------------------------------------------------
  free energy    TOTEN  =      -127.15783458 eV

  energy without entropy =     -127.15778999  energy(sigma->0) =     -127.15781229


--------------------------------------------------------------------------------------------------------




----------------------------------------- Iteration    1(   5)  ---------------------------------------


     EDDAV:  cpu time   83.05: real time   83.07
       DOS:  cpu time    0.01: real time    0.01
    CHARGE:  cpu time    4.09: real time    4.09
    MIXING:  cpu time    0.01: real time    0.01
    --------------------------------------------
      LOOP:  cpu time   87.16: real time   87.18

 eigenvalue-minimisations  :  9928
 total energy-change (2. order) :-0.5639706E-01  (-0.5634654E-01)
 number of electron     107.9999994 magnetization 
 augmentation part       -9.6015214 magnetization 

 Broyden mixing:
  rms(total) = 0.11406E+01    rms(broyden)= 0.11403E+01
  rms(prec ) = 0.12086E+01
  weight for this iteration     100.00

 Free energy of the ion-electron system (eV)
  ---------------------------------------------------
  alpha Z        PSCENC =        36.80884744
  Ewald energy   TEWEN  =     11903.49586869
  -Hartree energ DENC   =    -14950.39003795
  -exchange      EXHF   =         0.00000000
  -V(xc)+E(xc)   XCENC  =       -88.11706107
  PAW double counting   =      1056.43050070     -732.41190547
  entropy T*S    EENTRO =        -0.00004478
  eigenvalues    EBANDS =      -707.07165965
  atomic energy  EATOM  =      3354.04126044
  ---------------------------------------------------
  free energy    TOTEN  =      -127.21423164 eV

  energy without entropy =     -127.21418686  energy(sigma->0) =     -127.21420925


--------------------------------------------------------------------------------------------------------




----------------------------------------- Iteration    1(   6)  ---------------------------------------


    POTLOK:  cpu time   15.41: real time   15.42
    SETDIJ:  cpu time    0.01: real time    0.01
     EDDAV:  cpu time   75.26: real time   75.28
       DOS:  cpu time    0.01: real time    0.01
    CHARGE:  cpu time    4.04: real time    4.04
    MIXING:  cpu time    0.01: real time    0.01
    --------------------------------------------
      LOOP:  cpu time   94.75: real time   94.78

 eigenvalue-minimisations  :  8728
 total energy-change (2. order) : 0.3102579E+01  (-0.5508926E+00)
 number of electron     107.9999995 magnetization 
 augmentation part       -9.4350559 magnetization 

 Broyden mixing:
  rms(total) = 0.61361E+00    rms(broyden)= 0.61360E+00
  rms(prec ) = 0.64407E+00
  weight for this iteration     100.00

 eigenvalues of (default mixing * dielectric matrix)
  average eigenvalue GAMMA=   1.9452
  1.9452

 Free energy of the ion-electron system (eV)
  ---------------------------------------------------
  alpha Z        PSCENC =        36.80884744
  Ewald energy   TEWEN  =     11903.49586869
  -Hartree energ DENC   =    -14989.86191425
  -exchange      EXHF   =         0.00000000
  -V(xc)+E(xc)   XCENC  =       -84.68400967
  PAW double counting   =      1124.70758702     -802.54054341
  entropy T*S    EENTRO =        -0.00097607
  eigenvalues    EBANDS =      -666.07777282
  atomic energy  EATOM  =      3354.04126044
  ---------------------------------------------------
  free energy    TOTEN  =      -124.11165262 eV

  energy without entropy =     -124.11067655  energy(sigma->0) =     -124.11116459


--------------------------------------------------------------------------------------------------------




----------------------------------------- Iteration    1(   7)  ---------------------------------------


    POTLOK:  cpu time   15.09: real time   15.09
    SETDIJ:  cpu time    0.01: real time    0.01
     EDDAV:  cpu time   74.53: real time   74.54
       DOS:  cpu time    0.01: real time    0.01
    CHARGE:  cpu time    4.06: real time    4.06
    MIXING:  cpu time    0.01: real time    0.01
    --------------------------------------------
      LOOP:  cpu time   93.71: real time   93.73

 eigenvalue-minimisations  :  8576
 total energy-change (2. order) : 0.1791945E+00  (-0.6390746E+00)
 number of electron     107.9999995 magnetization 
 augmentation part       -9.2860540 magnetization 

 Broyden mixing:
  rms(total) = 0.20299E+00    rms(broyden)= 0.20291E+00
  rms(prec ) = 0.21532E+00
  weight for this iteration     100.00

 eigenvalues of (default mixing * dielectric matrix)
  average eigenvalue GAMMA=   1.6608
  1.6608  1.6608

 Free energy of the ion-electron system (eV)
  ---------------------------------------------------
  alpha Z        PSCENC =        36.80884744
  Ewald energy   TEWEN  =     11903.49586869
  -Hartree energ DENC   =    -15028.23845700
  -exchange      EXHF   =         0.00000000
  -V(xc)+E(xc)   XCENC  =       -80.93547373
  PAW double counting   =      1182.19003630     -861.61995415
  entropy T*S    EENTRO =        -0.00346350
  eigenvalues    EBANDS =      -629.67112265
  atomic energy  EATOM  =      3354.04126044
  ---------------------------------------------------
  free energy    TOTEN  =      -123.93245815 eV

  energy without entropy =     -123.92899465  energy(sigma->0) =     -123.93072640


--------------------------------------------------------------------------------------------------------




----------------------------------------- Iteration    1(   8)  ---------------------------------------


    POTLOK:  cpu time   15.25: real time   15.26
    SETDIJ:  cpu time    0.02: real time    0.02
     EDDAV:  cpu time   74.52: real time   74.53
       DOS:  cpu time    0.01: real time    0.01
    CHARGE:  cpu time    4.08: real time    4.08
    MIXING:  cpu time    0.01: real time    0.01
    --------------------------------------------
      LOOP:  cpu time   93.89: real time   93.91

 eigenvalue-minimisations  :  8496
 total energy-change (2. order) : 0.9867213E-01  (-0.7700977E-01)
 number of electron     107.9999995 magnetization 
 augmentation part       -9.3242939 magnetization 

 Broyden mixing:
  rms(total) = 0.96404E-01    rms(broyden)= 0.96390E-01
  rms(prec ) = 0.10069E+00
  weight for this iteration     100.00

 eigenvalues of (default mixing * dielectric matrix)
  average eigenvalue GAMMA=   1.7081
  2.5151  1.3046  1.3046

 Free energy of the ion-electron system (eV)
  ---------------------------------------------------
  alpha Z        PSCENC =        36.80884744
  Ewald energy   TEWEN  =     11903.49586869
  -Hartree energ DENC   =    -15028.71301977
  -exchange      EXHF   =         0.00000000
  -V(xc)+E(xc)   XCENC  =       -80.68614810
  PAW double counting   =      1174.30350026     -853.54352605
  entropy T*S    EENTRO =        -0.00302393
  eigenvalues    EBANDS =      -629.53754500
  atomic energy  EATOM  =      3354.04126044
  ---------------------------------------------------
  free energy    TOTEN  =      -123.83378602 eV

  energy without entropy =     -123.83076209  energy(sigma->0) =     -123.83227406


--------------------------------------------------------------------------------------------------------




----------------------------------------- Iteration    1(   9)  ---------------------------------------


    POTLOK:  cpu time   15.32: real time   15.32
    SETDIJ:  cpu time    0.01: real time    0.01
     EDDAV:  cpu time   80.91: real time   80.93
       DOS:  cpu time    0.01: real time    0.01
    CHARGE:  cpu time    4.04: real time    4.04
    MIXING:  cpu time    0.01: real time    0.01
    --------------------------------------------
      LOOP:  cpu time  100.31: real time  100.33

 eigenvalue-minimisations  :  8808
 total energy-change (2. order) :-0.2348923E-01  (-0.2725528E-01)
 number of electron     107.9999995 magnetization 
 augmentation part       -9.3183685 magnetization 

 Broyden mixing:
  rms(total) = 0.31003E-01    rms(broyden)= 0.30988E-01
  rms(prec ) = 0.34043E-01
  weight for this iteration     100.00

 eigenvalues of (default mixing * dielectric matrix)
  average eigenvalue GAMMA=   1.5708
  2.5028  1.3928  1.1937  1.1937

 Free energy of the ion-electron system (eV)
  ---------------------------------------------------
  alpha Z        PSCENC =        36.80884744
  Ewald energy   TEWEN  =     11903.49586869
  -Hartree energ DENC   =    -15036.31673263
  -exchange      EXHF   =         0.00000000
  -V(xc)+E(xc)   XCENC  =       -80.00759997
  PAW double counting   =      1178.82258533     -858.18521770
  entropy T*S    EENTRO =        -0.00351697
  eigenvalues    EBANDS =      -622.51276989
  atomic energy  EATOM  =      3354.04126044
  ---------------------------------------------------
  free energy    TOTEN  =      -123.85727525 eV

  energy without entropy =     -123.85375828  energy(sigma->0) =     -123.85551676


--------------------------------------------------------------------------------------------------------




----------------------------------------- Iteration    1(  10)  ---------------------------------------


    POTLOK:  cpu time   15.38: real time   15.38
    SETDIJ:  cpu time    0.01: real time    0.01
     EDDAV:  cpu time   77.73: real time   77.75
       DOS:  cpu time    0.01: real time    0.01
    CHARGE:  cpu time    4.06: real time    4.06
    MIXING:  cpu time    0.01: real time    0.02
    --------------------------------------------
      LOOP:  cpu time   97.21: real time   97.28

 eigenvalue-minimisations  :  9040
 total energy-change (2. order) : 0.1231597E-01  (-0.1617664E-02)
 number of electron     107.9999995 magnetization 
 augmentation part       -9.3183109 magnetization 

 Broyden mixing:
  rms(total) = 0.14031E-01    rms(broyden)= 0.14029E-01
  rms(prec ) = 0.15335E-01
  weight for this iteration     100.00

 eigenvalues of (default mixing * dielectric matrix)
  average eigenvalue GAMMA=   1.6220
  2.6835  1.7423  1.0473  1.3184  1.3184

 Free energy of the ion-electron system (eV)
  ---------------------------------------------------
  alpha Z        PSCENC =        36.80884744
  Ewald energy   TEWEN  =     11903.49586869
  -Hartree energ DENC   =    -15037.10234936
  -exchange      EXHF   =         0.00000000
  -V(xc)+E(xc)   XCENC  =       -79.97612587
  PAW double counting   =      1177.77631248     -857.10849828
  entropy T*S    EENTRO =        -0.00334032
  eigenvalues    EBANDS =      -621.77693452
  atomic energy  EATOM  =      3354.04126044
  ---------------------------------------------------
  free energy    TOTEN  =      -123.84495928 eV

  energy without entropy =     -123.84161896  energy(sigma->0) =     -123.84328912


--------------------------------------------------------------------------------------------------------




----------------------------------------- Iteration    1(  11)  ---------------------------------------


    POTLOK:  cpu time   15.08: real time   15.09
    SETDIJ:  cpu time    0.02: real time    0.02
     EDDAV:  cpu time   77.62: real time   77.63
       DOS:  cpu time    0.01: real time    0.01
    CHARGE:  cpu time    4.06: real time    4.07
    MIXING:  cpu time    0.02: real time    0.02
    --------------------------------------------
      LOOP:  cpu time   96.81: real time   96.83

 eigenvalue-minimisations  :  8920
 total energy-change (2. order) : 0.8275492E-02  (-0.1355897E-02)
 number of electron     107.9999995 magnetization 
 augmentation part       -9.3175268 magnetization 

 Broyden mixing:
  rms(total) = 0.88914E-02    rms(broyden)= 0.88880E-02
  rms(prec ) = 0.10126E-01
  weight for this iteration     100.00

 eigenvalues of (default mixing * dielectric matrix)
  average eigenvalue GAMMA=   1.5352
  2.6880  1.9264  1.2699  0.9173  1.2048  1.2048

 Free energy of the ion-electron system (eV)
  ---------------------------------------------------
  alpha Z        PSCENC =        36.80884744
  Ewald energy   TEWEN  =     11903.49586869
  -Hartree energ DENC   =    -15038.70200013
  -exchange      EXHF   =         0.00000000
  -V(xc)+E(xc)   XCENC  =       -79.91767508
  PAW double counting   =      1176.58160131     -855.88037890
  entropy T*S    EENTRO =        -0.00320504
  eigenvalues    EBANDS =      -620.26100253
  atomic energy  EATOM  =      3354.04126044
  ---------------------------------------------------
  free energy    TOTEN  =      -123.83668378 eV

  energy without entropy =     -123.83347874  energy(sigma->0) =     -123.83508126


--------------------------------------------------------------------------------------------------------




----------------------------------------- Iteration    1(  12)  ---------------------------------------


    POTLOK:  cpu time   15.53: real time   15.53
    SETDIJ:  cpu time    0.01: real time    0.01
     EDDAV:  cpu time   76.10: real time   76.12
       DOS:  cpu time    0.01: real time    0.01
    CHARGE:  cpu time    4.07: real time    4.07
    MIXING:  cpu time    0.02: real time    0.02
    --------------------------------------------
      LOOP:  cpu time   95.75: real time   95.77

 eigenvalue-minimisations  :  8712
 total energy-change (2. order) : 0.2595866E-02  (-0.1865412E-03)
 number of electron     107.9999995 magnetization 
 augmentation part       -9.3181618 magnetization 

 Broyden mixing:
  rms(total) = 0.33971E-02    rms(broyden)= 0.33964E-02
  rms(prec ) = 0.43186E-02
  weight for this iteration     100.00

 eigenvalues of (default mixing * dielectric matrix)
  average eigenvalue GAMMA=   1.5678
  2.6982  2.2832  1.2376  1.2376  1.4657  1.0260  1.0260

 Free energy of the ion-electron system (eV)
  ---------------------------------------------------
  alpha Z        PSCENC =        36.80884744
  Ewald energy   TEWEN  =     11903.49586869
  -Hartree energ DENC   =    -15039.27187800
  -exchange      EXHF   =         0.00000000
  -V(xc)+E(xc)   XCENC  =       -79.92156802
  PAW double counting   =      1176.09302314     -855.37884330
  entropy T*S    EENTRO =        -0.00321707
  eigenvalues    EBANDS =      -619.69758123
  atomic energy  EATOM  =      3354.04126044
  ---------------------------------------------------
  free energy    TOTEN  =      -123.83408792 eV

  energy without entropy =     -123.83087084  energy(sigma->0) =     -123.83247938


--------------------------------------------------------------------------------------------------------




----------------------------------------- Iteration    1(  13)  ---------------------------------------


    POTLOK:  cpu time   14.96: real time   14.96
    SETDIJ:  cpu time    0.01: real time    0.01
     EDDAV:  cpu time   77.37: real time   77.39
       DOS:  cpu time    0.01: real time    0.01
    CHARGE:  cpu time    4.13: real time    4.13
    MIXING:  cpu time    0.01: real time    0.01
    --------------------------------------------
      LOOP:  cpu time   96.50: real time   96.52

 eigenvalue-minimisations  :  8824
 total energy-change (2. order) : 0.2060865E-02  (-0.7926454E-04)
 number of electron     107.9999995 magnetization 
 augmentation part       -9.3180069 magnetization 

 Broyden mixing:
  rms(total) = 0.14671E-02    rms(broyden)= 0.14660E-02
  rms(prec ) = 0.23389E-02
  weight for this iteration     100.00

 eigenvalues of (default mixing * dielectric matrix)
  average eigenvalue GAMMA=   1.5354
  2.8045  2.3791  1.2104  1.2104  1.3625  1.3625  1.0728  0.8808

 Free energy of the ion-electron system (eV)
  ---------------------------------------------------
  alpha Z        PSCENC =        36.80884744
  Ewald energy   TEWEN  =     11903.49586869
  -Hartree energ DENC   =    -15040.07645775
  -exchange      EXHF   =         0.00000000
  -V(xc)+E(xc)   XCENC  =       -79.91643497
  PAW double counting   =      1175.75721592     -855.03415548
  entropy T*S    EENTRO =        -0.00319512
  eigenvalues    EBANDS =      -618.90497624
  atomic energy  EATOM  =      3354.04126044
  ---------------------------------------------------
  free energy    TOTEN  =      -123.83202705 eV

  energy without entropy =     -123.82883194  energy(sigma->0) =     -123.83042950


--------------------------------------------------------------------------------------------------------




----------------------------------------- Iteration    1(  14)  ---------------------------------------


    POTLOK:  cpu time   15.98: real time   15.98
    SETDIJ:  cpu time    0.01: real time    0.01
     EDDAV:  cpu time   86.93: real time   86.95
       DOS:  cpu time    0.01: real time    0.01
    CHARGE:  cpu time    4.09: real time    4.09
    MIXING:  cpu time    0.02: real time    0.02
    --------------------------------------------
      LOOP:  cpu time  107.04: real time  107.07

 eigenvalue-minimisations  : 10184
 total energy-change (2. order) : 0.6814846E-03  (-0.7612256E-05)
 number of electron     107.9999995 magnetization 
 augmentation part       -9.3178014 magnetization 

 Broyden mixing:
  rms(total) = 0.12455E-02    rms(broyden)= 0.12453E-02
  rms(prec ) = 0.18536E-02
  weight for this iteration     100.00

 eigenvalues of (default mixing * dielectric matrix)
  average eigenvalue GAMMA=   1.5510
  2.9363  2.4281  1.2395  1.2395  1.7267  1.4407  1.1094  0.9193  0.9193

 Free energy of the ion-electron system (eV)
  ---------------------------------------------------
  alpha Z        PSCENC =        36.80884744
  Ewald energy   TEWEN  =     11903.49586869
  -Hartree energ DENC   =    -15040.66302104
  -exchange      EXHF   =         0.00000000
  -V(xc)+E(xc)   XCENC  =       -79.91207941
  PAW double counting   =      1175.63728065     -854.91144608
  entropy T*S    EENTRO =        -0.00318215
  eigenvalues    EBANDS =      -618.32487411
  atomic energy  EATOM  =      3354.04126044
  ---------------------------------------------------
  free energy    TOTEN  =      -123.83134557 eV

  energy without entropy =     -123.82816342  energy(sigma->0) =     -123.82975449


--------------------------------------------------------------------------------------------------------




----------------------------------------- Iteration    1(  15)  ---------------------------------------


    POTLOK:  cpu time   16.20: real time   16.20
    SETDIJ:  cpu time    0.02: real time    0.02
     EDDAV:  cpu time   79.30: real time   79.31
       DOS:  cpu time    0.01: real time    0.01
    CHARGE:  cpu time    4.14: real time    4.14
    MIXING:  cpu time    0.02: real time    0.02
    --------------------------------------------
      LOOP:  cpu time   99.68: real time   99.71

 eigenvalue-minimisations  :  8984
 total energy-change (2. order) : 0.2453971E-03  (-0.5787638E-05)
 number of electron     107.9999995 magnetization 
 augmentation part       -9.3176158 magnetization 

 Broyden mixing:
  rms(total) = 0.57585E-03    rms(broyden)= 0.57582E-03
  rms(prec ) = 0.10207E-02
  weight for this iteration     100.00

 eigenvalues of (default mixing * dielectric matrix)
  average eigenvalue GAMMA=   1.6142
  3.3232  2.6522  2.0534  1.2331  1.2331  1.5276  1.1159  1.0446  1.0446  0.9143

 Free energy of the ion-electron system (eV)
  ---------------------------------------------------
  alpha Z        PSCENC =        36.80884744
  Ewald energy   TEWEN  =     11903.49586869
  -Hartree energ DENC   =    -15041.36138350
  -exchange      EXHF   =         0.00000000
  -V(xc)+E(xc)   XCENC  =       -79.90652892
  PAW double counting   =      1175.60396024     -854.87744057
  entropy T*S    EENTRO =        -0.00317146
  eigenvalues    EBANDS =      -617.63251254
  atomic energy  EATOM  =      3354.04126044
  ---------------------------------------------------
  free energy    TOTEN  =      -123.83110017 eV

  energy without entropy =     -123.82792872  energy(sigma->0) =     -123.82951444


--------------------------------------------------------------------------------------------------------




----------------------------------------- Iteration    1(  16)  ---------------------------------------


    POTLOK:  cpu time   15.16: real time   15.23
    SETDIJ:  cpu time    0.02: real time    0.02
     EDDAV:  cpu time   72.75: real time   72.76
       DOS:  cpu time    0.01: real time    0.01
    CHARGE:  cpu time    4.05: real time    4.05
    MIXING:  cpu time    0.02: real time    0.02
    --------------------------------------------
      LOOP:  cpu time   92.00: real time   92.09

 eigenvalue-minimisations  :  8112
 total energy-change (2. order) :-0.2699780E-03  (-0.7431927E-05)
 number of electron     107.9999995 magnetization 
 augmentation part       -9.3175695 magnetization 

 Broyden mixing:
  rms(total) = 0.45180E-03    rms(broyden)= 0.45174E-03
  rms(prec ) = 0.66738E-03
  weight for this iteration     100.00

 eigenvalues of (default mixing * dielectric matrix)
  average eigenvalue GAMMA=   1.7348
  4.5257  2.7610  2.2870  1.2396  1.2396  1.5863  1.3671  1.1588  1.0116  1.0116
  0.8940

 Free energy of the ion-electron system (eV)
  ---------------------------------------------------
  alpha Z        PSCENC =        36.80884744
  Ewald energy   TEWEN  =     11903.49586869
  -Hartree energ DENC   =    -15041.89682153
  -exchange      EXHF   =         0.00000000
  -V(xc)+E(xc)   XCENC  =       -79.90417770
  PAW double counting   =      1175.58360149     -854.85658525
  entropy T*S    EENTRO =        -0.00316788
  eigenvalues    EBANDS =      -617.10019586
  atomic energy  EATOM  =      3354.04126044
  ---------------------------------------------------
  free energy    TOTEN  =      -123.83137015 eV

  energy without entropy =     -123.82820227  energy(sigma->0) =     -123.82978621


--------------------------------------------------------------------------------------------------------




----------------------------------------- Iteration    1(  17)  ---------------------------------------


    POTLOK:  cpu time   15.05: real time   15.10
    SETDIJ:  cpu time    0.01: real time    0.01
     EDDAV:  cpu time   72.24: real time   72.26
       DOS:  cpu time    0.01: real time    0.01
    CHARGE:  cpu time    4.08: real time    4.08
    MIXING:  cpu time    0.02: real time    0.02
    --------------------------------------------
      LOOP:  cpu time   91.42: real time   91.48

 eigenvalue-minimisations  :  8104
 total energy-change (2. order) :-0.3456533E-03  (-0.1399594E-04)
 number of electron     107.9999995 magnetization 
 augmentation part       -9.3175367 magnetization 

 Broyden mixing:
  rms(total) = 0.20522E-03    rms(broyden)= 0.20520E-03
  rms(prec ) = 0.33733E-03
  weight for this iteration     100.00

 eigenvalues of (default mixing * dielectric matrix)
  average eigenvalue GAMMA=   1.8433
  5.7939  2.7883  2.4664  1.9808  1.2397  1.2397  1.3240  1.3240  1.0421  1.0421
  0.9390  0.9390

 Free energy of the ion-electron system (eV)
  ---------------------------------------------------
  alpha Z        PSCENC =        36.80884744
  Ewald energy   TEWEN  =     11903.49586869
  -Hartree energ DENC   =    -15042.27488360
  -exchange      EXHF   =         0.00000000
  -V(xc)+E(xc)   XCENC  =       -79.90271204
  PAW double counting   =      1175.60175557     -854.87515117
  entropy T*S    EENTRO =        -0.00316964
  eigenvalues    EBANDS =      -616.72353151
  atomic energy  EATOM  =      3354.04126044
  ---------------------------------------------------
  free energy    TOTEN  =      -123.83171580 eV

  energy without entropy =     -123.82854617  energy(sigma->0) =     -123.83013099


--------------------------------------------------------------------------------------------------------




----------------------------------------- Iteration    1(  18)  ---------------------------------------


    POTLOK:  cpu time   16.09: real time   16.10
    SETDIJ:  cpu time    0.02: real time    0.02
     EDDAV:  cpu time   72.35: real time   72.37
       DOS:  cpu time    0.01: real time    0.01
    CHARGE:  cpu time    4.07: real time    4.07
    MIXING:  cpu time    0.02: real time    0.02
    --------------------------------------------
      LOOP:  cpu time   92.56: real time   92.58

 eigenvalue-minimisations  :  8072
 total energy-change (2. order) :-0.1143737E-03  (-0.3784337E-05)
 number of electron     107.9999995 magnetization 
 augmentation part       -9.3175328 magnetization 

 Broyden mixing:
  rms(total) = 0.12324E-03    rms(broyden)= 0.12322E-03
  rms(prec ) = 0.21310E-03
  weight for this iteration     100.00

 eigenvalues of (default mixing * dielectric matrix)
  average eigenvalue GAMMA=   1.8833
  6.2340  2.9512  2.6689  1.9733  1.2400  1.2400  1.5270  1.3732  1.3732  1.0162
  1.0162  0.9348  0.9348

 Free energy of the ion-electron system (eV)
  ---------------------------------------------------
  alpha Z        PSCENC =        36.80884744
  Ewald energy   TEWEN  =     11903.49586869
  -Hartree energ DENC   =    -15042.45337001
  -exchange      EXHF   =         0.00000000
  -V(xc)+E(xc)   XCENC  =       -79.90191906
  PAW double counting   =      1175.61310146     -854.88671401
  entropy T*S    EENTRO =        -0.00316942
  eigenvalues    EBANDS =      -616.54573572
  atomic energy  EATOM  =      3354.04126044
  ---------------------------------------------------
  free energy    TOTEN  =      -123.83183018 eV

  energy without entropy =     -123.82866076  energy(sigma->0) =     -123.83024547


--------------------------------------------------------------------------------------------------------




----------------------------------------- Iteration    1(  19)  ---------------------------------------


    POTLOK:  cpu time   14.99: real time   14.99
    SETDIJ:  cpu time    0.01: real time    0.01
     EDDAV:  cpu time   59.79: real time   59.81
       DOS:  cpu time    0.01: real time    0.01
    CHARGE:  cpu time    4.10: real time    4.10
    MIXING:  cpu time    0.02: real time    0.02
    --------------------------------------------
      LOOP:  cpu time   78.93: real time   78.94

 eigenvalue-minimisations  :  6328
 total energy-change (2. order) :-0.5111473E-04  (-0.1139875E-05)
 number of electron     107.9999995 magnetization 
 augmentation part       -9.3175293 magnetization 

 Broyden mixing:
  rms(total) = 0.77086E-04    rms(broyden)= 0.77083E-04
  rms(prec ) = 0.13665E-03
  weight for this iteration     100.00

 eigenvalues of (default mixing * dielectric matrix)
  average eigenvalue GAMMA=   1.9216
  6.7781  3.0792  2.6884  2.2346  1.8782  1.2413  1.2413  1.3670  1.3670  1.0194
  1.0194  0.9976  0.9956  0.9956

 Free energy of the ion-electron system (eV)
  ---------------------------------------------------
  alpha Z        PSCENC =        36.80884744
  Ewald energy   TEWEN  =     11903.49586869
  -Hartree energ DENC   =    -15042.53217490
  -exchange      EXHF   =         0.00000000
  -V(xc)+E(xc)   XCENC  =       -79.90170885
  PAW double counting   =      1175.61915820     -854.89289689
  entropy T*S    EENTRO =        -0.00316912
  eigenvalues    EBANDS =      -616.46706631
  atomic energy  EATOM  =      3354.04126044
  ---------------------------------------------------
  free energy    TOTEN  =      -123.83188129 eV

  energy without entropy =     -123.82871217  energy(sigma->0) =     -123.83029673


--------------------------------------------------------------------------------------------------------




----------------------------------------- Iteration    1(  20)  ---------------------------------------


    POTLOK:  cpu time   15.26: real time   15.27
    SETDIJ:  cpu time    0.01: real time    0.01
     EDDAV:  cpu time   65.28: real time   65.30
       DOS:  cpu time    0.01: real time    0.01
    CHARGE:  cpu time    4.05: real time    4.05
    MIXING:  cpu time    0.02: real time    0.02
    --------------------------------------------
      LOOP:  cpu time   84.64: real time   84.66

 eigenvalue-minimisations  :  7128
 total energy-change (2. order) : 0.1201745E-04  (-0.2083259E-05)
 number of electron     107.9999995 magnetization 
 augmentation part       -9.3175230 magnetization 

 Broyden mixing:
  rms(total) = 0.60819E-04    rms(broyden)= 0.60815E-04
  rms(prec ) = 0.88757E-04
  weight for this iteration     100.00

 eigenvalues of (default mixing * dielectric matrix)
  average eigenvalue GAMMA=   2.0109
  6.9692  4.0543  2.7793  2.4392  1.8662  1.8662  1.2419  1.2419  1.3816  1.3816
  1.0361  1.0361  1.0042  0.9325  0.9325

 Free energy of the ion-electron system (eV)
  ---------------------------------------------------
  alpha Z        PSCENC =        36.80884744
  Ewald energy   TEWEN  =     11903.49586869
  -Hartree energ DENC   =    -15042.57857853
  -exchange      EXHF   =         0.00000000
  -V(xc)+E(xc)   XCENC  =       -79.90169095
  PAW double counting   =      1175.61582876     -854.88947276
  entropy T*S    EENTRO =        -0.00316856
  eigenvalues    EBANDS =      -616.42076382
  atomic energy  EATOM  =      3354.04126044
  ---------------------------------------------------
  free energy    TOTEN  =      -123.83186927 eV

  energy without entropy =     -123.82870072  energy(sigma->0) =     -123.83028500


--------------------------------------------------------------------------------------------------------




----------------------------------------- Iteration    1(  21)  ---------------------------------------


    POTLOK:  cpu time   14.76: real time   14.78
    SETDIJ:  cpu time    0.01: real time    0.01
     EDDAV:  cpu time   62.30: real time   62.40
       DOS:  cpu time    0.01: real time    0.01
    CHARGE:  cpu time    4.05: real time    4.06
    MIXING:  cpu time    0.02: real time    0.02
    --------------------------------------------
      LOOP:  cpu time   81.15: real time   81.28

 eigenvalue-minimisations  :  6764
 total energy-change (2. order) : 0.5440793E-04  (-0.1769492E-05)
 number of electron     107.9999995 magnetization 
 augmentation part       -9.3175269 magnetization 

 Broyden mixing:
  rms(total) = 0.31162E-04    rms(broyden)= 0.31160E-04
  rms(prec ) = 0.41171E-04
  weight for this iteration     100.00

 eigenvalues of (default mixing * dielectric matrix)
  average eigenvalue GAMMA=   2.1232
  7.5747  5.5323  2.8829  2.6251  2.1917  1.2423  1.2423  1.5799  1.5017  1.5017
  1.1978  1.0267  1.0267  0.9508  0.9508  0.9437

 Free energy of the ion-electron system (eV)
  ---------------------------------------------------
  alpha Z        PSCENC =        36.80884744
  Ewald energy   TEWEN  =     11903.49586869
  -Hartree energ DENC   =    -15042.59799197
  -exchange      EXHF   =         0.00000000
  -V(xc)+E(xc)   XCENC  =       -79.90180876
  PAW double counting   =      1175.61304056     -854.88662349
  entropy T*S    EENTRO =        -0.00316847
  eigenvalues    EBANDS =      -616.40123932
  atomic energy  EATOM  =      3354.04126044
  ---------------------------------------------------
  free energy    TOTEN  =      -123.83181487 eV

  energy without entropy =     -123.82864639  energy(sigma->0) =     -123.83023063


--------------------------------------------------------------------------------------------------------




----------------------------------------- Iteration    1(  22)  ---------------------------------------


    POTLOK:  cpu time   14.95: real time   14.95
    SETDIJ:  cpu time    0.01: real time    0.02
     EDDAV:  cpu time   60.79: real time   60.81
       DOS:  cpu time    0.01: real time    0.01
    CHARGE:  cpu time    4.04: real time    4.04
    MIXING:  cpu time    0.02: real time    0.02
    --------------------------------------------
      LOOP:  cpu time   79.82: real time   79.84

 eigenvalue-minimisations  :  6444
 total energy-change (2. order) : 0.5570562E-04  (-0.9407095E-06)
 number of electron     107.9999995 magnetization 
 augmentation part       -9.3175260 magnetization 

 Broyden mixing:
  rms(total) = 0.14716E-04    rms(broyden)= 0.14714E-04
  rms(prec ) = 0.17862E-04
  weight for this iteration     100.00

 eigenvalues of (default mixing * dielectric matrix)
  average eigenvalue GAMMA=   2.1467
  7.8914  6.2499  2.9278  2.6588  2.1388  1.6595  1.6595  1.2424  1.2424  1.3893
  1.3893  1.0397  1.0397  1.0831  1.0173  0.9323  0.9323

 Free energy of the ion-electron system (eV)
  ---------------------------------------------------
  alpha Z        PSCENC =        36.80884744
  Ewald energy   TEWEN  =     11903.49586869
  -Hartree energ DENC   =    -15042.60364941
  -exchange      EXHF   =         0.00000000
  -V(xc)+E(xc)   XCENC  =       -79.90182820
  PAW double counting   =      1175.61170226     -854.88526620
  entropy T*S    EENTRO =        -0.00316844
  eigenvalues    EBANDS =      -616.39552575
  atomic energy  EATOM  =      3354.04126044
  ---------------------------------------------------
  free energy    TOTEN  =      -123.83175916 eV

  energy without entropy =     -123.82859072  energy(sigma->0) =     -123.83017494


--------------------------------------------------------------------------------------------------------




----------------------------------------- Iteration    1(  23)  ---------------------------------------


    POTLOK:  cpu time   14.85: real time   14.86
    SETDIJ:  cpu time    0.02: real time    0.02
     EDDAV:  cpu time   57.67: real time   57.68
       DOS:  cpu time    0.01: real time    0.01
    CHARGE:  cpu time    4.02: real time    4.02
    MIXING:  cpu time    0.02: real time    0.02
    --------------------------------------------
      LOOP:  cpu time   76.60: real time   76.62

 eigenvalue-minimisations  :  6024
 total energy-change (2. order) : 0.1815437E-04  (-0.4574468E-06)
 number of electron     107.9999995 magnetization 
 augmentation part       -9.3175254 magnetization 

 Broyden mixing:
  rms(total) = 0.83422E-05    rms(broyden)= 0.83403E-05
  rms(prec ) = 0.10028E-04
  weight for this iteration     100.00

 eigenvalues of (default mixing * dielectric matrix)
  average eigenvalue GAMMA=   2.2220
  8.8085  6.6819  3.1124  2.6628  2.2694  2.2694  1.2425  1.2425  1.5039  1.5039
  1.3803  1.3803  1.0415  1.0415  0.9531  0.9531  0.9613  0.9878

 Free energy of the ion-electron system (eV)
  ---------------------------------------------------
  alpha Z        PSCENC =        36.80884744
  Ewald energy   TEWEN  =     11903.49586869
  -Hartree energ DENC   =    -15042.60451126
  -exchange      EXHF   =         0.00000000
  -V(xc)+E(xc)   XCENC  =       -79.90183197
  PAW double counting   =      1175.61161306     -854.88517418
  entropy T*S    EENTRO =        -0.00316834
  eigenvalues    EBANDS =      -616.39464490
  atomic energy  EATOM  =      3354.04126044
  ---------------------------------------------------
  free energy    TOTEN  =      -123.83174101 eV

  energy without entropy =     -123.82857266  energy(sigma->0) =     -123.83015684


[...]
     31      -4.0218      2.00000
     32      -3.9590      2.00000
     33      -3.8802      2.00000
     34      -3.6749      2.00000
     35      -3.4478      2.00000
     36      -3.2758      2.00000
     37      -3.1677      2.00000
     38      -3.0004      2.00000
     39      -2.9552      2.00000
     40      -2.8149      2.00000
     41      -2.6401      2.00000
     42      -2.5728      2.00000
     43      -2.4763      2.00000
     44      -2.3736      2.00000
     45      -2.1694      2.00000
     46      -1.9417      2.00000
     47      -1.8824      2.00000
     48      -1.7490      2.00000
     49      -1.6987      2.00000
     50      -1.4134      2.00000
     51      -1.3256      2.00000
     52      -1.0279      2.00000
     53      -0.9690      2.00000
     54      -0.3269      1.99999
     55       0.9403      0.00000
     56       1.1126      0.00000
     57       1.2946      0.00000
     58       1.5127      0.00000
     59       1.6480      0.00000
     60       1.9530      0.00000
     61       2.0715      0.00000
     62       2.3074      0.00000
     63       2.6123      0.00000
     64       2.7326      0.00000
     65       2.7854      0.00000
     66       2.9616      0.00000
     67       3.1003      0.00000
     68       3.2439      0.00000

 k-point    52 :       0.3077    0.5000    0.5000
  band No.  band energies     occupation 
      1     -13.0673      2.00000
      2     -12.4461      2.00000
      3     -12.3712      2.00000
      4     -12.1008      2.00000
      5     -11.6576      2.00000
      6     -11.5637      2.00000
      7     -11.3916      2.00000
      8     -10.9519      2.00000
      9     -10.7789      2.00000
     10     -10.7469      2.00000
     11     -10.4809      2.00000
     12     -10.3298      2.00000
     13      -8.8578      2.00000
     14      -8.6932      2.00000
     15      -7.7094      2.00000
     16      -7.4654      2.00000
     17      -7.2459      2.00000
     18      -7.0022      2.00000
     19      -6.9367      2.00000
     20      -6.9000      2.00000
     21      -6.1289      2.00000
     22      -6.0982      2.00000
     23      -5.8604      2.00000
     24      -5.7254      2.00000
     25      -5.2985      2.00000
     26      -5.2252      2.00000
     27      -4.9365      2.00000
     28      -4.8328      2.00000
     29      -4.5411      2.00000
     30      -4.4097      2.00000
     31      -4.3869      2.00000
     32      -4.2799      2.00000
     33      -4.1412      2.00000
     34      -4.0171      2.00000
     35      -3.5290      2.00000
     36      -3.2069      2.00000
     37      -3.1336      2.00000
     38      -3.0727      2.00000
     39      -3.0021      2.00000
     40      -2.8813      2.00000
     41      -2.8218      2.00000
     42      -2.6340      2.00000
     43      -2.4949      2.00000
     44      -2.3844      2.00000
     45      -2.2225      2.00000
     46      -2.1633      2.00000
     47      -1.9565      2.00000
     48      -1.8737      2.00000
     49      -1.8018      2.00000
     50      -1.6843      2.00000
     51      -1.5499      2.00000
     52      -1.3473      2.00000
     53      -1.2043      2.00000
     54      -0.5589      2.00000
     55       0.4752      0.00000
     56       0.7851      0.00000
     57       1.0209      0.00000
     58       1.3502      0.00000
     59       1.4380      0.00000
     60       1.6171      0.00000
     61       1.9421      0.00000
     62       2.2208      0.00000
     63       2.3209      0.00000
     64       2.5109      0.00000
     65       2.5902      0.00000
     66       2.6163      0.00000
     67       2.7610      0.00000
     68       3.0372      0.00000

 k-point    53 :       0.3846    0.5000    0.5000
  band No.  band energies     occupation 
      1     -12.8459      2.00000
      2     -11.9697      2.00000
      3     -11.8955      2.00000
      4     -11.6039      2.00000
      5     -11.2462      2.00000
      6     -11.1739      2.00000
      7     -11.1132      2.00000
      8     -10.7067      2.00000
      9     -10.5567      2.00000
     10     -10.5376      2.00000
     11     -10.3970      2.00000
     12     -10.2923      2.00000
     13      -8.9180      2.00000
     14      -8.8421      2.00000
     15      -8.1850      2.00000
     16      -8.0495      2.00000
     17      -7.6921      2.00000
     18      -7.5505      2.00000
     19      -7.3804      2.00000
     20      -7.3178      2.00000
     21      -6.7699      2.00000
     22      -6.6564      2.00000
     23      -6.5935      2.00000
     24      -5.8389      2.00000
     25      -5.3022      2.00000
     26      -5.2333      2.00000
     27      -4.8077      2.00000
     28      -4.6130      2.00000
     29      -4.5772      2.00000
     30      -4.4158      2.00000
     31      -4.3389      2.00000
     32      -4.1375      2.00000
     33      -4.0566      2.00000
     34      -3.9730      2.00000
     35      -3.6331      2.00000
     36      -3.4684      2.00000
     37      -3.2958      2.00000
     38      -3.1340      2.00000
     39      -3.0978      2.00000
     40      -3.0570      2.00000
     41      -2.8531      2.00000
     42      -2.7974      2.00000
     43      -2.6114      2.00000
     44      -2.5011      2.00000
     45      -2.3928      2.00000
     46      -2.2367      2.00000
     47      -2.0501      2.00000
     48      -1.9987      2.00000
     49      -1.9337      2.00000
     50      -1.7930      2.00000
     51      -1.6401      2.00000
     52      -1.5395      2.00000
     53      -1.3195      2.00000
     54      -0.8070      2.00000
     55       0.2466      0.00034
     56       0.5552      0.00000
     57       0.9259      0.00000
     58       1.3025      0.00000
     59       1.3614      0.00000
     60       1.5974      0.00000
     61       1.7941      0.00000
     62       1.9056      0.00000
     63       2.1141      0.00000
     64       2.2247      0.00000
     65       2.3271      0.00000
     66       2.3949      0.00000
     67       2.6689      0.00000
     68       2.7913      0.00000

 k-point    54 :       0.4615    0.5000    0.5000
  band No.  band energies     occupation 
      1     -12.7072      2.00000
      2     -11.4278      2.00000
      3     -11.3961      2.00000
      4     -11.1053      2.00000
      5     -11.0441      2.00000
      6     -10.8864      2.00000
      7     -10.8604      2.00000
      8     -10.7835      2.00000
      9     -10.6574      2.00000
     10     -10.5576      2.00000
     11     -10.4888      2.00000
     12     -10.3062      2.00000
     13      -8.8875      2.00000
     14      -8.6024      2.00000
     15      -8.5366      2.00000
     16      -8.3744      2.00000
     17      -8.0539      2.00000
     18      -7.9497      2.00000
     19      -7.6609      2.00000
     20      -7.4956      2.00000
     21      -7.3408      2.00000
     22      -7.2243      2.00000
     23      -7.1070      2.00000
     24      -5.9336      2.00000
     25      -5.1875      2.00000
     26      -4.8834      2.00000
     27      -4.6752      2.00000
     28      -4.4261      2.00000
     29      -4.3627      2.00000
     30      -4.2488      2.00000
     31      -4.1506      2.00000
     32      -4.0186      2.00000
     33      -3.9525      2.00000
     34      -3.8742      2.00000
     35      -3.8115      2.00000
     36      -3.7071      2.00000
     37      -3.5600      2.00000
     38      -3.4795      2.00000
     39      -3.2768      2.00000
     40      -3.1952      2.00000
     41      -2.9939      2.00000
     42      -2.9160      2.00000
     43      -2.7498      2.00000
     44      -2.6350      2.00000
     45      -2.4607      2.00000
     46      -2.3085      2.00000
     47      -2.1293      2.00000
     48      -2.0432      2.00000
     49      -1.8807      2.00000
     50      -1.7205      2.00000
     51      -1.6603      2.00000
     52      -1.5233      2.00000
     53      -1.3965      2.00000
     54      -0.9257      2.00000
     55       0.1082      0.10321
     56       0.5262      0.00000
     57       0.8274      0.00000
     58       1.2178      0.00000
     59       1.4138      0.00000
     60       1.6605      0.00000
     61       1.7045      0.00000
     62       1.7564      0.00000
     63       1.9375      0.00000
     64       2.0989      0.00000
     65       2.1637      0.00000
     66       2.3820      0.00000
     67       2.5249      0.00000
     68       2.5978      0.00000


--------------------------------------------------------------------------------------------------------


 soft charge-density along one line, spin component           1
         0         1         2         3         4         5         6         7         8         9
 total charge-density along one line
 
 pseudopotential strength for first ion, spin component:           1
 29.758   0.008  -0.001  -0.024  -0.000  -0.000  -0.001   0.000
  0.008   0.009  -0.000  -0.000   0.000   0.000   0.000  -0.000
 -0.001  -0.000   6.545  -0.001   0.000  -0.003   0.000  -0.000
 -0.024  -0.000  -0.001   6.540  -0.000   0.000  -0.002   0.000
 -0.000   0.000   0.000  -0.000   6.546  -0.000   0.000  -0.003
 -0.000   0.000  -0.003   0.000  -0.000   0.015  -0.000   0.000
 -0.001   0.000   0.000  -0.002   0.000  -0.000   0.015   0.000
  0.000  -0.000  -0.000   0.000  -0.003   0.000   0.000   0.015
 total augmentation occupancy for first ion, spin component:           1
  1.817  -0.354   0.007   0.259  -0.000   0.003   0.112  -0.001
 -0.354   1.307   0.026   0.865  -0.001   0.004  -0.433  -0.000
  0.007   0.026   1.141   0.014   0.000  -0.505   0.014  -0.000
  0.259   0.865   0.014   1.296   0.000   0.014  -0.421  -0.001
 -0.000  -0.001   0.000   0.000   1.143  -0.000  -0.001  -0.528
  0.003   0.004  -0.505   0.014  -0.000   0.294  -0.015   0.000
  0.112  -0.433   0.014  -0.421  -0.001  -0.015   0.229   0.000
 -0.001  -0.000  -0.000  -0.001  -0.528   0.000   0.000   0.327


------------------------ aborting loop because EDIFF is reached ----------------------------------------


    CHARGE:  cpu time    4.07: real time    4.10
    FORLOC:  cpu time    0.06: real time    0.06
    FORNL :  cpu time   21.08: real time   21.20
    STRESS:  cpu time   59.24: real time   59.26
    FORCOR:  cpu time   15.14: real time   15.14
    FORHAR:  cpu time    0.17: real time    0.17
    MIXING:  cpu time    0.02: real time    0.02
    OFIELD:  cpu time    0.00: real time    0.00

  FORCE on cell =-STRESS in cart. coord.  units (eV):
  Direction    XX          YY          ZZ          XY          YZ          ZX
  --------------------------------------------------------------------------------------
  Alpha Z    36.80885    36.80885    36.80885
  Ewald   14341.46330 13963.99954-16401.97436   -25.73783    12.43721   -30.33176
  Hartree 14869.97394 14598.74615-14426.11515    -6.56580     0.55221    -4.09569
  E(xc)    -357.54193  -357.51131  -356.39317     0.03446    -0.33009     0.53635
  Local  -30758.85031-30123.41606 29239.91311    33.01518   -15.26525    31.08621
  n-local  1151.80676  1153.56433  1159.54569    -3.94583     8.29132   -10.55336
  augment  -200.61813  -201.86383  -204.86346     0.42995    -0.84215     1.11485
  Kinetic   921.09408   933.21061   982.92744    -2.83626     6.80719   -15.46014
  Fock        0.00000     0.00000     0.00000     0.00000     0.00000     0.00000
  -------------------------------------------------------------------------------------
  Total       4.13656     3.53825    29.84895    -5.60614    11.65044   -27.70354
  in kB       6.61216     5.65579    47.71261    -8.96123    18.62287   -44.28324
  external pressure =       19.99 kB  Pullay stress =        0.00 kB


 VOLUME and BASIS-vectors are now :
 -----------------------------------------------------------------------------
  energy-cutoff  :      300.00
  volume of cell :     1002.32
      direct lattice vectors                 reciprocal lattice vectors
     3.540400000  0.000000000  0.000000000     0.282453960  0.048570342  0.000000000
    -1.770200000 10.294348000  0.000000000     0.000000000  0.097140683  0.000000000
     0.000000000  0.000000000 27.501429000     0.000000000  0.000000000  0.036361747

  length of vectors
     3.540400000 10.445439617 27.501429000     0.286599577  0.097140683  0.036361747


 FORCES acting on ions
    electron-ion (+dipol)            ewald-force                    non-local-force                 convergence-correction
 -----------------------------------------------------------------------------------------------
   0.708E-01 0.823E+01 0.268E+02   -.127E-03 -.802E+01 -.220E+02   -.233E-01 -.259E+00 -.486E+01   -.280E-07 -.668E-06 0.358E-05
   -.446E-01 -.207E+01 -.573E+03   -.247E+00 0.226E+01 0.577E+03   -.942E-01 0.629E-01 -.418E+01   -.574E-06 -.100E-04 0.105E-04
   -.120E-02 0.622E+02 0.492E+02   0.499E-02 -.637E+02 -.450E+02   0.239E-03 0.154E+01 -.416E+01   -.218E-07 -.486E-06 0.197E-05
   -.212E+00 0.573E+02 -.527E+03   -.101E+00 -.586E+02 0.531E+03   0.574E-01 0.137E+01 -.396E+01   -.481E-06 0.455E-05 0.108E-04
   -.118E-02 -.572E+02 0.526E+03   0.102E-03 0.587E+02 -.531E+03   0.748E-03 -.154E+01 0.429E+01   0.681E-07 -.284E-05 -.257E-04
   -.336E+02 -.496E+02 -.263E+01   0.329E+02 0.518E+02 0.297E+01   0.113E+02 -.812E+01 -.219E+02   -.415E-05 0.552E-05 0.165E-04
   0.830E-02 0.537E+02 0.526E+03   0.648E-05 -.556E+02 -.530E+03   -.318E-02 0.190E+01 0.417E+01   0.418E-07 0.194E-06 -.185E-04
   0.600E+01 0.681E+02 -.660E+02   -.422E+01 -.702E+02 0.608E+02   -.605E-01 0.154E+01 0.488E+01   -.311E-06 0.557E-06 0.831E-05
   0.260E-03 0.182E+01 0.572E+03   -.881E-04 -.202E+01 -.577E+03   0.148E-02 0.211E+00 0.478E+01   -.224E-07 0.522E-05 -.300E-04
   0.240E+00 -.845E+01 -.264E+02   0.109E+00 0.800E+01 0.217E+02   0.157E+00 0.382E+00 0.424E+01   -.784E-06 -.146E-05 0.970E-05
   0.421E-02 -.631E+02 0.595E+02   -.604E-02 0.650E+02 -.554E+02   0.276E-02 -.190E+01 -.403E+01   0.665E-08 0.320E-06 -.187E-05
   0.617E+00 -.538E+02 -.528E+03   -.143E+01 0.559E+02 0.532E+03   0.477E-01 -.172E+01 -.354E+01   0.109E-06 -.536E-06 0.349E-05
   -.127E-01 0.306E+02 0.209E+03   -.409E-03 -.327E+02 -.209E+03   0.150E-01 0.209E+01 0.342E+00   0.968E-08 0.121E-05 -.537E-05
   -.402E+01 0.262E+02 -.247E+03   0.316E+01 -.298E+02 0.248E+03   -.453E+00 0.384E+01 -.118E+01   0.626E-06 0.183E-05 0.501E-05
   -.203E-02 -.117E+02 0.138E+03   0.760E-03 0.120E+02 -.141E+03   0.548E-03 -.258E+00 0.255E+01   0.146E-08 -.768E-06 -.369E-05
   -.471E+01 -.106E+02 -.328E+03   0.358E+01 0.108E+02 0.327E+03   0.583E-01 -.114E+00 0.332E+00   0.238E-07 -.506E-05 0.308E-05
   -.266E-02 -.506E+01 0.346E+03   0.835E-04 0.553E+01 -.343E+03   0.187E-02 -.473E+00 -.253E+01   0.207E-07 0.862E-06 -.204E-04
   0.256E+01 -.925E+01 -.132E+03   -.125E+01 0.866E+01 0.133E+03   -.974E-01 0.464E+00 -.303E+00   -.105E-06 0.277E-05 0.764E-05
   0.597E-02 0.966E+01 0.335E+03   0.148E-05 -.992E+01 -.332E+03   -.149E-02 0.239E+00 -.258E+01   -.736E-08 0.227E-05 -.142E-04
   0.303E+01 0.107E+02 -.145E+03   -.218E+01 -.110E+02 0.146E+03   0.159E-01 0.274E+00 -.145E+00   -.333E-06 -.206E-05 0.800E-05
   -.712E-01 0.108E+02 0.126E+03   0.443E-03 -.112E+02 -.129E+03   0.619E-01 0.364E+00 0.253E+01   0.276E-07 -.324E-06 -.158E-05
   -.428E+01 0.490E+01 -.339E+03   0.294E+01 -.534E+01 0.338E+03   0.241E+00 0.469E+00 0.332E+00   0.356E-06 -.129E-05 0.926E-05
   0.174E-02 -.312E+02 0.254E+03   -.270E-03 0.334E+02 -.254E+03   0.138E-02 -.215E+01 -.355E+00   -.178E-07 -.204E-05 -.123E-04
   0.395E+02 -.471E+02 -.258E+03   -.332E+02 0.461E+02 0.251E+03   -.164E+02 0.674E+01 0.289E+02   0.266E-05 0.808E-06 -.535E-05
 -----------------------------------------------------------------------------------------------
   0.513E+01 -.496E+01 -.359E+01   -.284E-13 0.924E-13 0.114E-12   -.512E+01 0.496E+01 0.359E+01   -.288E-05 -.148E-05 -.412E-04
 
 
 POSITION                                       TOTAL-FORCE (eV/Angst)
 -----------------------------------------------------------------------------------
      0.00000      2.34757      6.41229         0.047165     -0.054735     -0.023338
      1.06212      2.34757     14.16300        -0.386408      0.260613      0.455646
     -0.00000      9.43147      5.75866         0.003796     -0.018591      0.077176
      1.06212      9.43147     13.50937        -0.255459      0.108549      0.299550
     -0.00000      6.40009      2.31424        -0.000568     -0.010170      0.017025
     -0.00000      6.40009     10.06495        10.607593     -5.929977    -21.553589
      1.77020     10.27849      2.37372         0.004892     -0.003410     -0.004963
      1.77020     10.27849     10.12443         1.718316     -0.525792     -0.327843
      1.77020      3.18974      1.66157         0.001409      0.002579      0.007507
      1.77020      3.18974      9.41228         0.505556     -0.069230     -0.436349
      1.77020      5.55354      5.69975         0.000699      0.004394      0.086592
     -0.70808      5.55354     13.45047        -0.766863      0.316255      0.621321
      1.77020      9.05319      4.34076         0.001699      0.007653      0.006224
     -0.70808      9.05319     12.09147        -1.308667      0.221578     -0.197158
      0.00000      4.22380      5.10944        -0.000964     -0.003697      0.044476
      1.06212      4.22380     12.86016        -1.066176      0.013591     -0.684339
     -0.00000      4.15582      2.74166        -0.000951     -0.002542     -0.022498
     -0.00000      4.15582     10.49237         1.213906     -0.125097      0.624220
      1.77020      1.31366      2.96438         0.004235     -0.021950      0.000289
      1.77020      1.31366     10.71510         0.866743      0.011823      0.476509
      1.77020      1.38163      5.33187        -0.009130     -0.011897     -0.022968
      2.83232      1.38163     13.08259        -1.101795      0.030988     -0.670703
      1.77020      6.77850      3.73234         0.002612      0.024754     -0.003051
     -0.70808      6.77850     11.48306       -10.081640      5.774312     21.230262
 -----------------------------------------------------------------------------------
    total drift:                                0.005728     -0.000200      0.002614


--------------------------------------------------------------------------------------------------------



  FREE ENERGIE OF THE ION-ELECTRON SYSTEM (eV)
  ---------------------------------------------------
  free  energy   TOTEN  =      -123.83171830 eV

  energy  without entropy=     -123.82855003  energy(sigma->0) =     -123.83013416
 


--------------------------------------------------------------------------------------------------------


    POTLOK:  cpu time   15.31: real time   15.31


--------------------------------------------------------------------------------------------------------


     LOOP+:  cpu time 2483.62: real time 2484.90
    4ORBIT:  cpu time    0.00: real time    0.00

 total amount of memory used by VASP on root node   146493. kBytes
========================================================================

   base      :      30000. kBytes
   nonlr-proj:       3452. kBytes
   fftplans  :       9347. kBytes
   grid      :      14649. kBytes
   one-center:         36. kBytes
   wavefun   :      89009. kBytes
 
  
  
 General timing and accounting informations for this job:
 ========================================================
  
                  Total CPU time used (sec):     2501.613
                            User time (sec):     2468.464
                          System time (sec):       33.149
                         Elapsed time (sec):     2504.006
  
                   Maximum memory used (kb):      334912.
                   Average memory used (kb):           0.
  
                          Minor page faults:      7873799
                          Major page faults:           18
                 Voluntary context switches:         1916
