<?xml version="1.0" encoding="ISO-8859-1"?>
<modeling>
 <generator>
  <i name="program" type="string">vasp </i>
  <i name="version" type="string">5.3.5  </i>
  <i name="subversion" type="string">31Mar14 (build Oct 29 2014 16:16:03) complex                          parallel </i>
  <i name="platform" type="string">Linux-UFHPC </i>
  <i name="date" type="string">2016 02 09 </i>
  <i name="time" type="string">17:31:03 </i>
 </generator>
 <incar>
  <i type="string" name="PREC">accurate</i>
  <i type="int" name="IBRION">     2</i>
  <i name="EDIFF">      0.00000100</i>
  <i type="int" name="NSW">     0</i>
  <i type="int" name="ISIF">     3</i>
  <i name="ENCUT">    300.00000000</i>
  <i type="string" name="LREAL"> Auto</i>
  <i type="int" name="ISMEAR">     0</i>
  <i name="SIGMA">      0.10000000</i>
  <i type="logical" name="LWAVE"> F  </i>
  <i type="logical" name="LCHARG"> F  </i>
  <i type="logical" name="LAECHG"> F  </i>
  <i type="string" name="GGA"> Bo</i>
  <i name="PARAM1">      0.18333333</i>
  <i name="PARAM2">      0.22000000</i>
  <i type="logical" name="LUSE_VDW"> T  </i>
  <i name="AGGAC">      0.00000000</i>
 </incar>
 <kpoints>
  <generation param="Gamma">
   <v type="int" name="divisions">      13        4        2 </v>
   <v name="usershift">      0.00000000       0.00000000       0.00000000 </v>
   <v name="genvec1">      0.07692308      -0.00000000       0.00000000 </v>
   <v name="genvec2">      0.00000000       0.25000000       0.00000000 </v>
   <v name="genvec3">      0.00000000       0.00000000       0.50000000 </v>
   <v name="shift">      0.00000000       0.00000000       0.00000000 </v>
  </generation>
  <varray name="kpointlist" >
   <v>       0.00000000       0.00000000       0.00000000 </v>
   <v>       0.07692308      -0.00000000       0.00000000 </v>
   <v>       0.15384615      -0.00000000       0.00000000 </v>
   <v>       0.23076923      -0.00000000       0.00000000 </v>
   <v>       0.30769231      -0.00000000       0.00000000 </v>
   <v>       0.38461538      -0.00000000       0.00000000 </v>
   <v>       0.46153846      -0.00000000       0.00000000 </v>
   <v>       0.00000000       0.25000000       0.00000000 </v>
   <v>       0.07692308       0.25000000       0.00000000 </v>
   <v>       0.15384615       0.25000000       0.00000000 </v>
   <v>       0.23076923       0.25000000       0.00000000 </v>
   <v>       0.30769231       0.25000000       0.00000000 </v>
   <v>       0.38461538       0.25000000       0.00000000 </v>
   <v>       0.46153846       0.25000000       0.00000000 </v>
   <v>      -0.46153846       0.25000000       0.00000000 </v>
   <v>      -0.38461538       0.25000000       0.00000000 </v>
   <v>      -0.30769231       0.25000000       0.00000000 </v>
   <v>      -0.23076923       0.25000000       0.00000000 </v>
   <v>      -0.15384615       0.25000000       0.00000000 </v>
   <v>      -0.07692308       0.25000000       0.00000000 </v>
   <v>       0.00000000       0.50000000       0.00000000 </v>
   <v>       0.07692308       0.50000000       0.00000000 </v>
   <v>       0.15384615       0.50000000       0.00000000 </v>
   <v>       0.23076923       0.50000000       0.00000000 </v>
   <v>       0.30769231       0.50000000       0.00000000 </v>
   <v>       0.38461538       0.50000000       0.00000000 </v>
   <v>       0.46153846       0.50000000       0.00000000 </v>
   <v>       0.00000000       0.00000000       0.50000000 </v>
   <v>       0.07692308      -0.00000000       0.50000000 </v>
   <v>       0.15384615      -0.00000000       0.50000000 </v>
   <v>       0.23076923      -0.00000000       0.50000000 </v>
   <v>       0.30769231      -0.00000000       0.50000000 </v>
   <v>       0.38461538      -0.00000000       0.50000000 </v>
   <v>       0.46153846      -0.00000000       0.50000000 </v>
   <v>       0.00000000       0.25000000       0.50000000 </v>
   <v>       0.07692308       0.25000000       0.50000000 </v>
   <v>       0.15384615       0.25000000       0.50000000 </v>
   <v>       0.23076923       0.25000000       0.50000000 </v>
   <v>       0.30769231       0.25000000       0.50000000 </v>
   <v>       0.38461538       0.25000000       0.50000000 </v>
   <v>       0.46153846       0.25000000       0.50000000 </v>
   <v>      -0.46153846       0.25000000       0.50000000 </v>
   <v>      -0.38461538       0.25000000       0.50000000 </v>
   <v>      -0.30769231       0.25000000       0.50000000 </v>
   <v>      -0.23076923       0.25000000       0.50000000 </v>
   <v>      -0.15384615       0.25000000       0.50000000 </v>
   <v>      -0.07692308       0.25000000       0.50000000 </v>
   <v>       0.00000000       0.50000000       0.50000000 </v>
   <v>       0.07692308       0.50000000       0.50000000 </v>
   <v>       0.15384615       0.50000000       0.50000000 </v>
   <v>       0.23076923       0.50000000       0.50000000 </v>
   <v>       0.30769231       0.50000000       0.50000000 </v>
   <v>       0.38461538       0.50000000       0.50000000 </v>
   <v>       0.46153846       0.50000000       0.50000000 </v>
  </varray>
  <varray name="weights" >
   <v>       0.00961538 </v>
   <v>       0.01923077 </v>
   <v>       0.01923077 </v>
   <v>       0.01923077 </v>
   <v>       0.01923077 </v>
   <v>       0.01923077 </v>
   <v>       0.01923077 </v>
   <v>       0.01923077 </v>
   <v>       0.01923077 </v>
   <v>       0.01923077 </v>
   <v>       0.01923077 </v>
   <v>       0.01923077 </v>
   <v>       0.01923077 </v>
   <v>       0.01923077 </v>
   <v>       0.01923077 </v>
   <v>       0.01923077 </v>
   <v>       0.01923077 </v>
   <v>       0.01923077 </v>
   <v>       0.01923077 </v>
   <v>       0.01923077 </v>
   <v>       0.00961538 </v>
   <v>       0.01923077 </v>
   <v>       0.01923077 </v>
   <v>       0.01923077 </v>
   <v>       0.01923077 </v>
   <v>       0.01923077 </v>
   <v>       0.01923077 </v>
   <v>       0.00961538 </v>
   <v>       0.01923077 </v>
   <v>       0.01923077 </v>
   <v>       0.01923077 </v>
   <v>       0.01923077 </v>
   <v>       0.01923077 </v>
   <v>       0.01923077 </v>
   <v>       0.01923077 </v>
   <v>       0.01923077 </v>
   <v>       0.01923077 </v>
   <v>       0.01923077 </v>
   <v>       0.01923077 </v>
   <v>       0.01923077 </v>
   <v>       0.01923077 </v>
   <v>       0.01923077 </v>
   <v>       0.01923077 </v>
   <v>       0.01923077 </v>
   <v>       0.01923077 </v>
   <v>       0.01923077 </v>
   <v>       0.01923077 </v>
   <v>       0.00961538 </v>
   <v>       0.01923077 </v>
   <v>       0.01923077 </v>
   <v>       0.01923077 </v>
   <v>       0.01923077 </v>
   <v>       0.01923077 </v>
   <v>       0.01923077 </v>
  </varray>
 </kpoints>
 <parameters>
  <separator name="general" >
   <i type="string" name="SYSTEM">unknown system</i>
   <i type="logical" name="LCOMPAT"> F  </i>
  </separator>
  <separator name="electronic" >
   <i type="string" name="PREC">accura</i>
   <i name="ENMAX">    300.00000000</i>
   <i name="ENAUG">    342.92400000</i>
   <i name="EDIFF">      0.00000100</i>
   <i type="int" name="IALGO">    38</i>
   <i type="int" name="IWAVPR">    10</i>
   <i type="int" name="NBANDS">    68</i>
   <i name="NELECT">    108.00000000</i>
   <i type="int" name="TURBO">     0</i>
   <i type="int" name="IRESTART">     0</i>
   <i type="int" name="NREBOOT">     0</i>
   <i type="int" name="NMIN">     0</i>
   <i name="EREF">      0.00000000</i>
   <separator name="electronic smearing" >
    <i type="int" name="ISMEAR">     0</i>
    <i name="SIGMA">      0.10000000</i>
    <i name="KSPACING">      0.50000000</i>
    <i type="logical" name="KGAMMA"> T  </i>
   </separator>
   <separator name="electronic projectors" >
    <i type="logical" name="LREAL"> T  </i>
    <v name="ROPT">     -0.00025000     -0.00025000</v>
    <i type="int" name="LMAXPAW">  -100</i>
    <i type="int" name="LMAXMIX">     2</i>
    <i type="logical" name="NLSPLINE"> F  </i>
   </separator>
   <separator name="electronic startup" >
    <i type="int" name="ISTART">     0</i>
    <i type="int" name="ICHARG">     2</i>
    <i type="int" name="INIWAV">     1</i>
   </separator>
   <separator name="electronic spin" >
    <i type="int" name="ISPIN">     1</i>
    <i type="logical" name="LNONCOLLINEAR"> F  </i>
    <v name="MAGMOM">      1.00000000      1.00000000      1.00000000      1.00000000      1.00000000      1.00000000      1.00000000      1.00000000      1.00000000      1.00000000      1.00000000      1.00000000      1.00000000      1.00000000      1.00000000      1.00000000      1.00000000      1.00000000      1.00000000      1.00000000
      1.00000000      1.00000000      1.00000000      1.00000000</v>
    <i name="NUPDOWN">     -1.00000000</i>
    <i type="logical" name="LSORBIT"> F  </i>
    <v name="SAXIS">      0.00000000      0.00000000      1.00000000</v>
    <i type="logical" name="LSPIRAL"> F  </i>
    <v name="QSPIRAL">      0.00000000      0.00000000      0.00000000</v>
    <i type="logical" name="LZEROZ"> F  </i>
   </separator>
   <separator name="electronic exchange-correlation" >
    <i type="logical" name="LASPH"> F  </i>
    <i type="logical" name="LMETAGGA"> F  </i>
   </separator>
   <separator name="electronic convergence" >
    <i type="int" name="NELM">    60</i>
    <i type="int" name="NELMDL">    -5</i>
    <i type="int" name="NELMIN">     2</i>
    <i name="ENINI">    300.00000000</i>
    <separator name="electronic convergence detail" >
     <i type="logical" name="LDIAG"> T  </i>
     <i type="logical" name="LSUBROT"> F  </i>
     <i name="WEIMIN">      0.00000000</i>
     <i name="EBREAK">      0.00000000</i>
     <i name="DEPER">      0.30000000</i>
     <i type="int" name="NRMM">     4</i>
     <i name="TIME">      0.40000000</i>
    </separator>
   </separator>
   <separator name="electronic mixer" >
    <i name="AMIX">      0.40000000</i>
    <i name="BMIX">      1.00000000</i>
    <i name="AMIN">      0.10000000</i>
    <i name="AMIX_MAG">      1.60000000</i>
    <i name="BMIX_MAG">      1.00000000</i>
    <separator name="electronic mixer details" >
     <i type="int" name="IMIX">     4</i>
     <i type="int" name="MAXMIX">   -45</i>
     <i name="WC">    100.00000000</i>
     <i type="int" name="INIMIX">     1</i>
     <i type="int" name="MIXPRE">     1</i>
     <i type="int" name="MREMOVE">     5</i>
    </separator>
   </separator>
   <separator name="electronic dipolcorrection" >
    <i type="logical" name="LDIPOL"> F  </i>
    <i type="logical" name="LMONO"> F  </i>
    <i type="int" name="IDIPOL">     0</i>
    <i name="EPSILON">      1.00000000</i>
    <v name="DIPOL">   -100.00000000   -100.00000000   -100.00000000</v>
    <i name="EFIELD">      0.00000000</i>
   </separator>
  </separator>
  <separator name="grids" >
   <i type="int" name="NGX">    20</i>
   <i type="int" name="NGY">    60</i>
   <i type="int" name="NGZ">   160</i>
   <i type="int" name="NGXF">    40</i>
   <i type="int" name="NGYF">   120</i>
   <i type="int" name="NGZF">   320</i>
   <i type="logical" name="ADDGRID"> F  </i>
  </separator>
  <separator name="ionic" >
   <i type="int" name="NSW">     0</i>
   <i type="int" name="IBRION">    -1</i>
   <i type="int" name="ISIF">     3</i>
   <i name="PSTRESS">      0.00000000</i>
   <i name="EDIFFG">      0.00001000</i>
   <i type="int" name="NFREE">     1</i>
   <i name="POTIM">      0.50000000</i>
   <i name="SMASS">     -3.00000000</i>
   <i name="SCALEE">      1.00000000</i>
  </separator>
  <separator name="ionic md" >
   <i name="TEBEG">      0.00010000</i>
   <i name="TEEND">      0.00010000</i>
   <i type="int" name="NBLOCK">     1</i>
   <i type="int" name="KBLOCK">     1</i>
   <i type="int" name="NPACO">   256</i>
   <i name="APACO">     16.00000000</i>
  </separator>
  <separator name="symmetry" >
   <i type="int" name="ISYM">     2</i>
   <i name="SYMPREC">      0.00001000</i>
  </separator>
  <separator name="dos" >
   <i type="logical" name="LORBIT"> F  </i>
   <v name="RWIGS">     -1.00000000     -1.00000000</v>
   <i type="int" name="NEDOS">   301</i>
   <i name="EMIN">     10.00000000</i>
   <i name="EMAX">    -10.00000000</i>
   <i name="EFERMI">      0.00000000</i>
  </separator>
  <separator name="writing" >
   <i type="int" name="NWRITE">     2</i>
   <i type="logical" name="LWAVE"> F  </i>
   <i type="logical" name="LCHARG"> F  </i>
   <i type="logical" name="LPARD"> F  </i>
   <i type="logical" name="LVTOT"> F  </i>
   <i type="logical" name="LVHAR"> F  </i>
   <i type="logical" name="LELF"> F  </i>
   <i type="logical" name="LOPTICS"> F  </i>
   <v name="STM">      0.00000000      0.00000000      0.00000000      0.00000000      0.00000000      0.00000000      0.00000000</v>
  </separator>
  <separator name="performance" >
   <i type="int" name="NPAR">     4</i>
   <i type="int" name="NSIM">     4</i>
   <i type="int" name="NBLK">    -1</i>
   <i type="logical" name="LPLANE"> T  </i>
   <i type="logical" name="LSCALAPACK"> T  </i>
   <i type="logical" name="LSCAAWARE"> F  </i>
   <i type="logical" name="LSCALU"> F  </i>
   <i type="logical" name="LASYNC"> F  </i>
   <i type="logical" name="LORBITALREAL"> F  </i>
  </separator>
  <separator name="miscellaneous" >
   <i type="int" name="IDIOT">     3</i>
   <i type="logical" name="LMUSIC"> F  </i>
   <v name="POMASS">     30.97400000     28.08500000</v>
   <v name="DARWINR">      0.00000000      0.00000000</v>
   <v name="DARWINV">      1.00000000      1.00000000</v>
   <i type="logical" name="LCORR"> T  </i>
  </separator>
  <i type="logical" name="GGA_COMPAT"> T  </i>
  <i type="logical" name="LBERRY"> F  </i>
  <i type="int" name="ICORELEVEL">     0</i>
  <i type="logical" name="LDAU"> F  </i>
  <i type="int" name="I_CONSTRAINED_M">     0</i>
  <separator name="electronic exchange-correlation" >
   <i type="string" name="GGA">BO</i>
   <i type="int" name="VOSKOWN">     0</i>
   <i type="logical" name="LHFCALC"> F  </i>
   <i type="string" name="PRECFOCK"></i>
   <i type="logical" name="LSYMGRAD"> F  </i>
   <i type="logical" name="LHFONE"> F  </i>
   <i type="logical" name="LRHFCALC"> F  </i>
   <i type="logical" name="LTHOMAS"> F  </i>
   <i type="logical" name="LMODELHF"> F  </i>
   <i name="ENCUT4O">     -1.00000000</i>
   <i type="int" name="EXXOEP">     0</i>
   <i type="int" name="FOURORBIT">     0</i>
   <i name="AEXX">      0.00000000</i>
   <i name="HFALPHA">      0.00000000</i>
   <i name="MCALPHA">      0.00000000</i>
   <i name="ALDAX">      1.00000000</i>
   <i name="AGGAX">      1.00000000</i>
   <i name="ALDAC">      1.00000000</i>
   <i name="AGGAC">      0.00000000</i>
   <i type="int" name="NKREDX">     1</i>
   <i type="int" name="NKREDY">     1</i>
   <i type="int" name="NKREDZ">     1</i>
   <i type="logical" name="SHIFTRED"> F  </i>
   <i type="logical" name="ODDONLY"> F  </i>
   <i type="logical" name="EVENONLY"> F  </i>
   <i type="int" name="LMAXFOCK">     0</i>
   <i type="int" name="NMAXFOCKAE">     0</i>
   <i type="logical" name="LFOCKAEDFT"> F  </i>
   <i name="HFSCREEN">      0.00000000</i>
   <i name="HFSCREENC">      0.00000000</i>
   <i type="int" name="NBANDSGWLOW">     0</i>
  </separator>
  <separator name="vdW DFT" >
   <i type="logical" name="LUSE_VDW"> T  </i>
   <i name="Zab_VDW">     -0.84910000</i>
   <i name="PARAM1">      0.18333333</i>
   <i name="PARAM2">      0.22000000</i>
   <i name="PARAM3">      0.00000000</i>
  </separator>
  <separator name="model GW" >
   <i type="int" name="MODEL_GW">     0</i>
   <i name="MODEL_EPS0">     25.05800243</i>
   <i name="MODEL_ALPHA">      1.00000000</i>
  </separator>
  <separator name="linear response parameters" >
   <i type="logical" name="LEPSILON"> F  </i>
   <i type="logical" name="LRPA"> F  </i>
   <i type="logical" name="LNABLA"> F  </i>
   <i type="logical" name="LVEL"> F  </i>
   <i type="int" name="KINTER">     0</i>
   <i name="CSHIFT">      0.10000000</i>
   <i name="OMEGAMAX">     -1.00000000</i>
   <i name="DEG_THRESHOLD">      0.00200000</i>
  </separator>
  <separator name="orbital magnetization" >
   <i type="logical" name="NUCIND"> F  </i>
   <v name="MAGPOS">      0.00000000      0.00000000      0.00000000</v>
   <i type="logical" name="LNICSALL"> T  </i>
   <i type="logical" name="ORBITALMAG"> F  </i>
   <i type="logical" name="LMAGBLOCH"> F  </i>
   <i type="logical" name="LCHIMAG"> F  </i>
   <i type="logical" name="LGAUGE"> T  </i>
   <i type="int" name="MAGATOM">     0</i>
   <v name="MAGDIPOL">      0.00000000      0.00000000      0.00000000</v>
   <v name="AVECCONST">      0.00000000      0.00000000      0.00000000</v>
  </separator>
  <separator name="response functions" >
   <i type="logical" name="LADDER"> F  </i>
   <i type="logical" name="LFXC"> F  </i>
   <i type="logical" name="LHARTREE"> T  </i>
   <i type="int" name="IBSE">     0</i>
   <i type="logical" name="LTCTE"> F  </i>
   <i type="logical" name="LTETE"> F  </i>
   <i type="logical" name="LTRIPLET"> F  </i>
   <i type="logical" name="LFXCEPS"> F  </i>
   <i type="logical" name="LFXHEG"> F  </i>
   <i type="logical" name="L2ORDER"> F  </i>
   <i type="logical" name="LUSEW"> F  </i>
   <i name="ENCUTGW">     -2.00000000</i>
   <i name="ENCUTGWSOFT">     -2.00000000</i>
   <i name="ENCUTLF">     -1.00000000</i>
   <i type="int" name="LMAXMP2">    -1</i>
   <i name="SCISSOR">      0.00000000</i>
   <i type="int" name="NOMEGA">     0</i>
   <i type="int" name="NOMEGAR">     0</i>
   <i type="int" name="NBANDSGW">    -1</i>
   <i type="int" name="NBANDSO">    -1</i>
   <i type="int" name="NBANDSV">    -1</i>
   <i type="int" name="NELM">     1</i>
   <i type="int" name="DIM">     3</i>
   <i type="int" name="ANTIRES">     0</i>
   <i name="OMEGAMAX">    -30.00000000</i>
   <i name="OMEGAMIN">    -30.00000000</i>
   <i name="OMEGATL">   -200.00000000</i>
   <i type="int" name="OMEGAGRID">     0</i>
   <i name="CSHIFT">     -0.10000000</i>
   <i type="logical" name="SELFENERGY"> F  </i>
   <i type="logical" name="LSPECTRAL"> F  </i>
   <i type="logical" name="ODDONLYGW"> F  </i>
   <i type="logical" name="EVENONLYGW"> F  </i>
   <i type="int" name="NKREDLFX">     1</i>
   <i type="int" name="NKREDLFY">     1</i>
   <i type="int" name="NKREDLFZ">     1</i>
   <i type="int" name="MAXMEM">  1800</i>
   <i type="int" name="TELESCOPE">     0</i>
   <i type="int" name="TAUPAR">     1</i>
  </separator>
  <separator name="External order field" >
   <i name="OFIELD_KAPPA">      0.00000000</i>
   <v name="OFIELD_K">      0.00000000      0.00000000      0.00000000</v>
   <i name="OFIELD_Q6_NEAR">      0.00000000</i>
   <i name="OFIELD_Q6_FAR">      0.00000000</i>
   <i name="OFIELD_A">      0.00000000</i>
  </separator>
 </parameters>
 <atominfo>
  <atoms>      24 </atoms>
  <types>       2 </types>
  <array name="atoms" >
   <dimension dim="1">ion</dimension>
   <field type="string">element</field>
   <field type="int">atomtype</field>
   <set>
    <rc><c>P </c><c>   1</c></rc>
    <rc><c>P </c><c>   1</c></rc>
    <rc><c>P </c><c>   1</c></rc>
    <rc><c>P </c><c>   1</c></rc>
    <rc><c>P </c><c>   1</c></rc>
    <rc><c>P </c><c>   1</c></rc>
    <rc><c>P </c><c>   1</c></rc>
    <rc><c>P </c><c>   1</c></rc>
    <rc><c>P </c><c>   1</c></rc>
    <rc><c>P </c><c>   1</c></rc>
    <rc><c>P </c><c>   1</c></rc>
    <rc><c>P </c><c>   1</c></rc>
    <rc><c>Si</c><c>   2</c></rc>
    <rc><c>Si</c><c>   2</c></rc>
    <rc><c>Si</c><c>   2</c></rc>
    <rc><c>Si</c><c>   2</c></rc>
    <rc><c>Si</c><c>   2</c></rc>
    <rc><c>Si</c><c>   2</c></rc>
    <rc><c>Si</c><c>   2</c></rc>
    <rc><c>Si</c><c>   2</c></rc>
    <rc><c>Si</c><c>   2</c></rc>
    <rc><c>Si</c><c>   2</c></rc>
    <rc><c>Si</c><c>   2</c></rc>
    <rc><c>Si</c><c>   2</c></rc>
   </set>
  </array>
  <array name="atomtypes" >
   <dimension dim="1">type</dimension>
   <field type="int">atomspertype</field>
   <field type="string">element</field>
   <field>mass</field>
   <field>valence</field>
   <field type="string">pseudopotential</field>
   <set>
    <rc><c>  12</c><c>P </c><c>     30.97400000</c><c>      5.00000000</c><c>  PAW_PBE P 17Jan2003                   </c></rc>
    <rc><c>  12</c><c>Si</c><c>     28.08500000</c><c>      4.00000000</c><c> PAW_PBE Si 05Jan2001                   </c></rc>
   </set>
  </array>
 </atominfo>
 <structure name="initialpos" >
  <crystal>
   <varray name="basis" >
    <v>       3.54040000       0.00000000       0.00000000 </v>
    <v>      -1.77020000      10.29434800       0.00000000 </v>
    <v>       0.00000000       0.00000000      27.50142900 </v>
   </varray>
   <i name="volume">   1002.32009712 </i>
   <varray name="rec_basis" >
    <v>       0.28245396       0.04857034       0.00000000 </v>
    <v>       0.00000000       0.09714068       0.00000000 </v>
    <v>       0.00000000       0.00000000       0.03636175 </v>
   </varray>
  </crystal>
  <varray name="positions" >
   <v>       0.11402300       0.22804500       0.23316207 </v>
   <v>       0.41402300       0.22804500       0.51499159 </v>
   <v>       0.45808900       0.91617900       0.20939482 </v>
   <v>       0.75808900       0.91617900       0.49122434 </v>
   <v>       0.31085400       0.62170900       0.08414979 </v>
   <v>       0.31085400       0.62170900       0.36597930 </v>
   <v>       0.99923000       0.99846000       0.08631254 </v>
   <v>       0.99923000       0.99846000       0.36814206 </v>
   <v>       0.65492700       0.30985400       0.06041748 </v>
   <v>       0.65492700       0.30985400       0.34224700 </v>
   <v>       0.76973800       0.53947500       0.20725292 </v>
   <v>       0.06973800       0.53947500       0.48908244 </v>
   <v>       0.93971600       0.87943300       0.15783749 </v>
   <v>       0.23971600       0.87943300       0.43966701 </v>
   <v>       0.20515200       0.41030300       0.18578822 </v>
   <v>       0.50515200       0.41030300       0.46761774 </v>
   <v>       0.20184900       0.40369900       0.09969156 </v>
   <v>       0.20184900       0.40369900       0.38152107 </v>
   <v>       0.56380500       0.12761000       0.10779021 </v>
   <v>       0.56380500       0.12761000       0.38961973 </v>
   <v>       0.56710600       0.13421200       0.19387616 </v>
   <v>       0.86710600       0.13421200       0.47570568 </v>
   <v>       0.82923400       0.65846800       0.13571444 </v>
   <v>       0.12923400       0.65846800       0.41754396 </v>
  </varray>
 </structure>
 <calculation>
  <scstep>
   <time name="dav">   65.49   65.51</time>
   <time name="total">   82.13   82.16</time>
   <energy>
    <i name="alphaZ">     36.80884744 </i>
    <i name="ewald">  11903.49586869 </i>
    <i name="hartreedc"> -14950.39003795 </i>
    <i name="XCdc">    -88.11706107 </i>
    <i name="pawpsdc">   1056.43050070 </i>
    <i name="pawaedc">   -732.41190547 </i>
    <i name="eentropy">     -0.03614696 </i>
    <i name="bandstr">    -88.74640425 </i>
    <i name="atom">   3354.04126044 </i>
    <i name="e_fr_energy">    491.07492158 </i>
    <i name="e_wo_entrp">    491.11106854 </i>
    <i name="e_0_energy">    491.09299506 </i>
   </energy>
  </scstep>
  <scstep>
   <time name="dav">   81.78   81.79</time>
   <time name="total">   81.79   81.81</time>
   <energy>
    <i name="e_fr_energy">    -68.29818379 </i>
    <i name="e_wo_entrp">    -68.28848596 </i>
    <i name="e_0_energy">    -68.29333488 </i>
   </energy>
  </scstep>
  <scstep>
   <time name="dav">   75.38   75.39</time>
   <time name="total">   75.39   75.40</time>
   <energy>
    <i name="e_fr_energy">   -124.60716533 </i>
    <i name="e_wo_entrp">   -124.60710543 </i>
    <i name="e_0_energy">   -124.60713538 </i>
   </energy>
  </scstep>
  <scstep>
   <time name="dav">   90.10   90.12</time>
   <time name="total">   90.11   90.13</time>
   <energy>
    <i name="e_fr_energy">   -127.15783458 </i>
    <i name="e_wo_entrp">   -127.15778999 </i>
    <i name="e_0_energy">   -127.15781229 </i>
   </energy>
  </scstep>
  <scstep>
   <time name="dav">   83.05   83.07</time>
   <time name="total">   87.16   87.18</time>
   <energy>
    <i name="e_fr_energy">   -127.21423164 </i>
    <i name="e_wo_entrp">   -127.21418686 </i>
    <i name="e_0_energy">   -127.21420925 </i>
   </energy>
  </scstep>
  <scstep>
   <time name="dav">   75.26   75.28</time>
   <time name="total">   94.75   94.78</time>
   <energy>
    <i name="e_fr_energy">   -124.11165262 </i>
    <i name="e_wo_entrp">   -124.11067655 </i>
    <i name="e_0_energy">   -124.11116459 </i>
   </energy>
  </scstep>
  <scstep>
   <time name="dav">   74.53   74.54</time>
   <time name="total">   93.71   93.73</time>
   <energy>
    <i name="e_fr_energy">   -123.93245815 </i>
    <i name="e_wo_entrp">   -123.92899465 </i>
    <i name="e_0_energy">   -123.93072640 </i>
   </energy>
  </scstep>
  <scstep>
   <time name="dav">   74.52   74.53</time>
   <time name="total">   93.89   93.91</time>
   <energy>
    <i name="e_fr_energy">   -123.83378602 </i>
    <i name="e_wo_entrp">   -123.83076209 </i>
    <i name="e_0_energy">   -123.83227406 </i>
   </energy>
  </scstep>
  <scstep>
   <time name="dav">   80.91   80.93</time>
   <time name="total">  100.31  100.33</time>
   <energy>
    <i name="e_fr_energy">   -123.85727525 </i>
    <i name="e_wo_entrp">   -123.85375828 </i>
    <i name="e_0_energy">   -123.85551676 </i>
   </energy>
  </scstep>
  <scstep>
   <time name="dav">   77.73   77.75</time>
   <time name="total">   97.21   97.28</time>
   <energy>
    <i name="e_fr_energy">   -123.84495928 </i>
    <i name="e_wo_entrp">   -123.84161896 </i>
    <i name="e_0_energy">   -123.84328912 </i>
   </energy>
  </scstep>
  <scstep>
   <time name="dav">   77.62   77.63</time>
   <time name="total">   96.81   96.83</time>
   <energy>
    <i name="e_fr_energy">   -123.83668378 </i>
    <i name="e_wo_entrp">   -123.83347874 </i>
    <i name="e_0_energy">   -123.83508126 </i>
   </energy>
  </scstep>
  <scstep>
   <time name="dav">   76.10   76.12</time>
   <time name="total">   95.75   95.77</time>
   <energy>
    <i name="e_fr_energy">   -123.83408792 </i>
    <i name="e_wo_entrp">   -123.83087084 </i>
    <i name="e_0_energy">   -123.83247938 </i>
   </energy>
  </scstep>
  <scstep>
   <time name="dav">   77.37   77.39</time>
   <time name="total">   96.50   96.52</time>
   <energy>
    <i name="e_fr_energy">   -123.83202705 </i>
    <i name="e_wo_entrp">   -123.82883194 </i>
    <i name="e_0_energy">   -123.83042950 </i>
   </energy>
  </scstep>
  <scstep>
   <time name="dav">   86.93   86.95</time>
   <time name="total">  107.04  107.07</time>
   <energy>
    <i name="e_fr_energy">   -123.83134557 </i>
    <i name="e_wo_entrp">   -123.82816342 </i>
    <i name="e_0_energy">   -123.82975449 </i>
   </energy>
  </scstep>
  <scstep>
   <time name="dav">   79.30   79.31</time>
   <time name="total">   99.68   99.71</time>
   <energy>
    <i name="e_fr_energy">   -123.83110017 </i>
    <i name="e_wo_entrp">   -123.82792872 </i>
    <i name="e_0_energy">   -123.82951444 </i>
   </energy>
  </scstep>
  <scstep>
   <time name="dav">   72.75   72.76</time>
   <time name="total">   92.00   92.09</time>
   <energy>
    <i name="e_fr_energy">   -123.83137015 </i>
    <i name="e_wo_entrp">   -123.82820227 </i>
    <i name="e_0_energy">   -123.82978621 </i>
   </energy>
  </scstep>
  <scstep>
   <time name="dav">   72.24   72.26</time>
   <time name="total">   91.42   91.48</time>
   <energy>
    <i name="e_fr_energy">   -123.83171580 </i>
    <i name="e_wo_entrp">   -123.82854617 </i>
    <i name="e_0_energy">   -123.83013099 </i>
   </energy>
  </scstep>
  <scstep>
   <time name="dav">   72.35   72.37</time>
   <time name="total">   92.56   92.58</time>
   <energy>
    <i name="e_fr_energy">   -123.83183018 </i>
    <i name="e_wo_entrp">   -123.82866076 </i>
    <i name="e_0_energy">   -123.83024547 </i>
   </energy>
  </scstep>
  <scstep>
   <time name="dav">   59.79   59.81</time>
   <time name="total">   78.93   78.94</time>
   <energy>
    <i name="e_fr_energy">   -123.83188129 </i>
    <i name="e_wo_entrp">   -123.82871217 </i>
    <i name="e_0_energy">   -123.83029673 </i>
   </energy>
  </scstep>
  <scstep>
   <time name="dav">   65.28   65.30</time>
   <time name="total">   84.64   84.66</time>
   <energy>
    <i name="e_fr_energy">   -123.83186927 </i>
    <i name="e_wo_entrp">   -123.82870072 </i>
    <i name="e_0_energy">   -123.83028500 </i>
   </energy>
  </scstep>
  <scstep>
   <time name="dav">   62.30   62.40</time>
   <time name="total">   81.15   81.28</time>
   <energy>
    <i name="e_fr_energy">   -123.83181487 </i>
    <i name="e_wo_entrp">   -123.82864639 </i>
    <i name="e_0_energy">   -123.83023063 </i>
   </energy>
  </scstep>
  <scstep>
   <time name="dav">   60.79   60.81</time>
   <time name="total">   79.82   79.84</time>
   <energy>
    <i name="e_fr_energy">   -123.83175916 </i>
    <i name="e_wo_entrp">   -123.82859072 </i>
    <i name="e_0_energy">   -123.83017494 </i>
   </energy>
  </scstep>
  <scstep>
   <time name="dav">   57.67   57.68</time>
   <time name="total">   76.60   76.62</time>
   <energy>
    <i name="e_fr_energy">   -123.83174101 </i>
    <i name="e_wo_entrp">   -123.82857266 </i>
    <i name="e_0_energy">   -123.83015684 </i>
   </energy>
  </scstep>
  <scstep>
   <time name="dav">   60.61   60.81</time>
   <time name="total">   80.04   80.24</time>
   <energy>
    <i name="e_fr_energy">   -123.83172504 </i>
    <i name="e_wo_entrp">   -123.82855678 </i>
    <i name="e_0_energy">   -123.83014091 </i>
   </energy>
  </scstep>
  <scstep>
   <time name="dav">   55.17   55.18</time>
   <time name="total">   74.17   74.18</time>
   <energy>
    <i name="e_fr_energy">   -123.83172139 </i>
    <i name="e_wo_entrp">   -123.82855310 </i>
    <i name="e_0_energy">   -123.83013725 </i>
   </energy>
  </scstep>
  <scstep>
   <time name="dav">   57.04   57.07</time>
   <time name="total">   75.97   76.03</time>
   <energy>
    <i name="e_fr_energy">   -123.83171851 </i>
    <i name="e_wo_entrp">   -123.82855026 </i>
    <i name="e_0_energy">   -123.83013439 </i>
   </energy>
  </scstep>
  <scstep>
   <time name="dav">   53.54   53.55</time>
   <time name="total">   68.90   68.99</time>
   <energy>
    <i name="alphaZ">     36.80884744 </i>
    <i name="ewald">  11903.49586869 </i>
    <i name="hartreedc"> -15042.60418363 </i>
    <i name="XCdc">    -79.90185106 </i>
    <i name="pawpsdc">   1175.61180168 </i>
    <i name="pawaedc">   -854.88536862 </i>
    <i name="eentropy">     -0.00316827 </i>
    <i name="bandstr">   -616.39492498 </i>
    <i name="atom">   3354.04126044 </i>
    <i name="e_fr_energy">   -123.83171830 </i>
    <i name="e_wo_entrp">   -123.82855003 </i>
    <i name="e_0_energy">   -123.83013416 </i>
   </energy>
  </scstep>
  <structure>
   <crystal>
    <varray name="basis" >
     <v>       3.54040000       0.00000000       0.00000000 </v>
     <v>      -1.77020000      10.29434800       0.00000000 </v>
     <v>       0.00000000       0.00000000      27.50142900 </v>
    </varray>
    <i name="volume">   1002.32009712 </i>
    <varray name="rec_basis" >
     <v>       0.28245396       0.04857034       0.00000000 </v>
     <v>       0.00000000       0.09714068       0.00000000 </v>
     <v>       0.00000000       0.00000000       0.03636175 </v>
    </varray>
   </crystal>
   <varray name="positions" >
    <v>       0.11402300       0.22804500       0.23316207 </v>
    <v>       0.41402300       0.22804500       0.51499159 </v>
    <v>       0.45808900       0.91617900       0.20939482 </v>
    <v>       0.75808900       0.91617900       0.49122434 </v>
    <v>       0.31085400       0.62170900       0.08414979 </v>
    <v>       0.31085400       0.62170900       0.36597930 </v>
    <v>       0.99923000       0.99846000       0.08631254 </v>
    <v>       0.99923000       0.99846000       0.36814206 </v>
    <v>       0.65492700       0.30985400       0.06041748 </v>
    <v>       0.65492700       0.30985400       0.34224700 </v>
    <v>       0.76973800       0.53947500       0.20725292 </v>
    <v>       0.06973800       0.53947500       0.48908244 </v>
    <v>       0.93971600       0.87943300       0.15783749 </v>
    <v>       0.23971600       0.87943300       0.43966701 </v>
    <v>       0.20515200       0.41030300       0.18578822 </v>
    <v>       0.50515200       0.41030300       0.46761774 </v>
    <v>       0.20184900       0.40369900       0.09969156 </v>
    <v>       0.20184900       0.40369900       0.38152107 </v>
    <v>       0.56380500       0.12761000       0.10779021 </v>
    <v>       0.56380500       0.12761000       0.38961973 </v>
    <v>       0.56710600       0.13421200       0.19387616 </v>
    <v>       0.86710600       0.13421200       0.47570568 </v>
    <v>       0.82923400       0.65846800       0.13571444 </v>
    <v>       0.12923400       0.65846800       0.41754396 </v>
   </varray>
  </structure>
  <varray name="forces" >
   <v>       0.04716466      -0.05473516      -0.02333836 </v>
   <v>      -0.38640806       0.26061301       0.45564566 </v>
   <v>       0.00379569      -0.01859086       0.07717572 </v>
   <v>      -0.25545857       0.10854865       0.29955034 </v>
   <v>      -0.00056791      -0.01016992       0.01702485 </v>
   <v>      10.60759298      -5.92997723     -21.55358853 </v>
   <v>       0.00489195      -0.00340993      -0.00496256 </v>
   <v>       1.71831600      -0.52579211      -0.32784299 </v>
   <v>       0.00140853       0.00257908       0.00750703 </v>
   <v>       0.50555612      -0.06922978      -0.43634851 </v>
   <v>       0.00069941       0.00439395       0.08659232 </v>
   <v>      -0.76686343       0.31625541       0.62132106 </v>
   <v>       0.00169937       0.00765269       0.00622434 </v>
   <v>      -1.30866666       0.22157803      -0.19715799 </v>
   <v>      -0.00096427      -0.00369676       0.04447600 </v>
   <v>      -1.06617566       0.01359134      -0.68433904 </v>
   <v>      -0.00095099      -0.00254237      -0.02249796 </v>
   <v>       1.21390611      -0.12509724       0.62421967 </v>
   <v>       0.00423492      -0.02194967       0.00028869 </v>
   <v>       0.86674263       0.01182292       0.47650914 </v>
   <v>      -0.00912953      -0.01189730      -0.02296793 </v>
   <v>      -1.10179540       0.03098775      -0.67070268 </v>
   <v>       0.00261184       0.02475350      -0.00305057 </v>
   <v>     -10.08163975       5.77431200      21.23026231 </v>
  </varray>
  <varray name="stress" >
   <v>       6.61215986      -8.96123296     -44.28324216 </v>
   <v>      -8.96123294       5.65578846      18.62286772 </v>
   <v>     -44.28324200      18.62286775      47.71261367 </v>
  </varray>
  <energy>
   <i name="e_fr_energy">   -123.83171830 </i>
   <i name="e_wo_entrp">   -123.83013416 </i>
   <i name="e_0_energy">     -0.00316827 </i>
  </energy>
  <time name="totalsc"> 2483.62 2484.90</time>
  <eigenvalues>
   <array>
    <dimension dim="1">band</dimension>
    <dimension dim="2">kpoint</dimension>
    <dimension dim="3">spin</dimension>
    <field>eigene</field>
    <field>occ</field>
    <set>
     <set comment="spin 1">
      <set comment="kpoint 1">
       <r>  -13.7684    1.0000 </r>
       <r>  -13.4758    1.0000 </r>
       <r>  -13.0553    1.0000 </r>
       <r>  -12.7377    1.0000 </r>
       <r>  -12.5125    1.0000 </r>
       <r>  -12.4097    1.0000 </r>
       <r>  -12.2871    1.0000 </r>
       <r>  -12.0169    1.0000 </r>
       <r>  -11.4997    1.0000 </r>
       <r>  -11.3704    1.0000 </r>
       <r>  -11.1794    1.0000 </r>
       <r>  -10.9257    1.0000 </r>
       <r>   -8.0201    1.0000 </r>
       <r>   -7.9400    1.0000 </r>
       <r>   -7.7628    1.0000 </r>
       <r>   -7.6274    1.0000 </r>
       <r>   -6.8228    1.0000 </r>
       <r>   -6.6590    1.0000 </r>
       <r>   -6.5553    1.0000 </r>
       <r>   -6.4278    1.0000 </r>
       <r>   -5.7960    1.0000 </r>
       <r>   -5.7512    1.0000 </r>
       <r>   -4.8653    1.0000 </r>
       <r>   -4.6831    1.0000 </r>
       <r>   -4.0336    1.0000 </r>
       <r>   -3.7852    1.0000 </r>
       <r>   -3.6322    1.0000 </r>
       <r>   -3.4674    1.0000 </r>
       <r>   -3.1794    1.0000 </r>
       <r>   -2.9920    1.0000 </r>
       <r>   -2.9044    1.0000 </r>
       <r>   -2.8666    1.0000 </r>
       <r>   -2.7811    1.0000 </r>
       <r>   -2.7048    1.0000 </r>
       <r>   -2.6299    1.0000 </r>
       <r>   -2.4250    1.0000 </r>
       <r>   -2.3702    1.0000 </r>
       <r>   -2.3218    1.0000 </r>
       <r>   -2.2101    1.0000 </r>
       <r>   -2.1495    1.0000 </r>
       <r>   -1.9860    1.0000 </r>
       <r>   -1.9142    1.0000 </r>
       <r>   -1.7838    1.0000 </r>
       <r>   -1.7324    1.0000 </r>
       <r>   -1.6650    1.0000 </r>
       <r>   -1.5790    1.0000 </r>
       <r>   -1.5250    1.0000 </r>
       <r>   -1.4246    1.0000 </r>
       <r>   -1.3680    1.0000 </r>
       <r>   -1.1845    1.0000 </r>
       <r>   -1.0497    1.0000 </r>
       <r>   -1.0009    1.0000 </r>
       <r>   -0.5986    1.0000 </r>
       <r>   -0.2016    0.9970 </r>
       <r>    0.8449    0.0000 </r>
       <r>    1.0123    0.0000 </r>
       <r>    1.2441    0.0000 </r>
       <r>    1.3722    0.0000 </r>
       <r>    1.4105    0.0000 </r>
       <r>    1.6549    0.0000 </r>
       <r>    1.7637    0.0000 </r>
       <r>    1.7863    0.0000 </r>
       <r>    1.9853    0.0000 </r>
       <r>    2.0606    0.0000 </r>
       <r>    2.2061    0.0000 </r>
       <r>    2.3678    0.0000 </r>
       <r>    2.5005    0.0000 </r>
       <r>    2.5599    0.0000 </r>
      </set>
      <set comment="kpoint 2">
       <r>  -13.7185    1.0000 </r>
       <r>  -13.4145    1.0000 </r>
       <r>  -13.0068    1.0000 </r>
       <r>  -12.6855    1.0000 </r>
       <r>  -12.4564    1.0000 </r>
       <r>  -12.3539    1.0000 </r>
       <r>  -12.2308    1.0000 </r>
       <r>  -11.9548    1.0000 </r>
       <r>  -11.4492    1.0000 </r>
       <r>  -11.3215    1.0000 </r>
       <r>  -11.1301    1.0000 </r>
       <r>  -10.8773    1.0000 </r>
       <r>   -8.0311    1.0000 </r>
       <r>   -7.9628    1.0000 </r>
       <r>   -7.7258    1.0000 </r>
       <r>   -7.6066    1.0000 </r>
       <r>   -6.7892    1.0000 </r>
       <r>   -6.6370    1.0000 </r>
       <r>   -6.5353    1.0000 </r>
       <r>   -6.4219    1.0000 </r>
       <r>   -5.7588    1.0000 </r>
       <r>   -5.7151    1.0000 </r>
       <r>   -4.8862    1.0000 </r>
       <r>   -4.6860    1.0000 </r>
       <r>   -4.0466    1.0000 </r>
       <r>   -3.8216    1.0000 </r>
       <r>   -3.6650    1.0000 </r>
       <r>   -3.5767    1.0000 </r>
       <r>   -3.4269    1.0000 </r>
       <r>   -3.3097    1.0000 </r>
       <r>   -3.2146    1.0000 </r>
       <r>   -3.1614    1.0000 </r>
       <r>   -3.1076    1.0000 </r>
       <r>   -2.9530    1.0000 </r>
       <r>   -2.8294    1.0000 </r>
       <r>   -2.6717    1.0000 </r>
       <r>   -2.5399    1.0000 </r>
       <r>   -2.4135    1.0000 </r>
       <r>   -2.3350    1.0000 </r>
       <r>   -2.2375    1.0000 </r>
       <r>   -2.1293    1.0000 </r>
       <r>   -2.0478    1.0000 </r>
       <r>   -1.9745    1.0000 </r>
       <r>   -1.9038    1.0000 </r>
       <r>   -1.8569    1.0000 </r>
       <r>   -1.7768    1.0000 </r>
       <r>   -1.6670    1.0000 </r>
       <r>   -1.4731    1.0000 </r>
       <r>   -1.4356    1.0000 </r>
       <r>   -1.3502    1.0000 </r>
       <r>   -1.1201    1.0000 </r>
       <r>   -0.9814    1.0000 </r>
       <r>   -0.6128    1.0000 </r>
       <r>   -0.1910    0.9954 </r>
       <r>    1.1732    0.0000 </r>
       <r>    1.3023    0.0000 </r>
       <r>    1.5824    0.0000 </r>
       <r>    1.6407    0.0000 </r>
       <r>    1.8246    0.0000 </r>
       <r>    1.9780    0.0000 </r>
       <r>    2.0448    0.0000 </r>
       <r>    2.1913    0.0000 </r>
       <r>    2.2575    0.0000 </r>
       <r>    2.2840    0.0000 </r>
       <r>    2.3594    0.0000 </r>
       <r>    2.4820    0.0000 </r>
       <r>    2.6721    0.0000 </r>
       <r>    2.8260    0.0000 </r>
      </set>
      <set comment="kpoint 3">
       <r>  -13.5739    1.0000 </r>
       <r>  -13.2316    1.0000 </r>
       <r>  -12.8612    1.0000 </r>
       <r>  -12.5298    1.0000 </r>
       <r>  -12.2901    1.0000 </r>
       <r>  -12.1888    1.0000 </r>
       <r>  -12.0661    1.0000 </r>
       <r>  -11.7724    1.0000 </r>
       <r>  -11.3012    1.0000 </r>
       <r>  -11.1796    1.0000 </r>
       <r>  -10.9864    1.0000 </r>
       <r>  -10.7386    1.0000 </r>
       <r>   -8.1071    1.0000 </r>
       <r>   -7.9810    1.0000 </r>
       <r>   -7.6844    1.0000 </r>
       <r>   -7.5938    1.0000 </r>
       <r>   -6.7193    1.0000 </r>
       <r>   -6.6164    1.0000 </r>
       <r>   -6.4766    1.0000 </r>
       <r>   -6.4334    1.0000 </r>
       <r>   -5.6740    1.0000 </r>
       <r>   -5.6314    1.0000 </r>
       <r>   -5.0702    1.0000 </r>
       <r>   -4.8024    1.0000 </r>
       <r>   -4.4521    1.0000 </r>
       <r>   -4.1560    1.0000 </r>
       <r>   -4.0405    1.0000 </r>
       <r>   -3.9612    1.0000 </r>
       <r>   -3.9535    1.0000 </r>
       <r>   -3.8838    1.0000 </r>
       <r>   -3.7009    1.0000 </r>
       <r>   -3.5927    1.0000 </r>
       <r>   -3.5265    1.0000 </r>
       <r>   -3.2994    1.0000 </r>
       <r>   -3.1972    1.0000 </r>
       <r>   -3.1101    1.0000 </r>
       <r>   -3.0091    1.0000 </r>
       <r>   -2.9061    1.0000 </r>
       <r>   -2.8662    1.0000 </r>
       <r>   -2.6405    1.0000 </r>
       <r>   -2.3880    1.0000 </r>
       <r>   -2.3149    1.0000 </r>
       <r>   -2.1490    1.0000 </r>
       <r>   -2.0885    1.0000 </r>
       <r>   -1.9945    1.0000 </r>
       <r>   -1.8605    1.0000 </r>
       <r>   -1.7953    1.0000 </r>
       <r>   -1.7028    1.0000 </r>
       <r>   -1.5879    1.0000 </r>
       <r>   -1.4588    1.0000 </r>
       <r>   -1.1570    1.0000 </r>
       <r>   -0.9752    1.0000 </r>
       <r>   -0.6936    1.0000 </r>
       <r>   -0.2473    0.9997 </r>
       <r>    1.3224    0.0000 </r>
       <r>    1.4231    0.0000 </r>
       <r>    1.8436    0.0000 </r>
       <r>    2.0076    0.0000 </r>
       <r>    2.2163    0.0000 </r>
       <r>    2.2908    0.0000 </r>
       <r>    2.3675    0.0000 </r>
       <r>    2.5095    0.0000 </r>
       <r>    2.6119    0.0000 </r>
       <r>    2.6919    0.0000 </r>
       <r>    2.7660    0.0000 </r>
       <r>    2.9529    0.0000 </r>
       <r>    3.0173    0.0000 </r>
       <r>    3.1066    0.0000 </r>
      </set>
      <set comment="kpoint 4">
       <r>  -13.3530    1.0000 </r>
       <r>  -12.9307    1.0000 </r>
       <r>  -12.6187    1.0000 </r>
       <r>  -12.2735    1.0000 </r>
       <r>  -12.0198    1.0000 </r>
       <r>  -11.9220    1.0000 </r>
       <r>  -11.8060    1.0000 </r>
       <r>  -11.4847    1.0000 </r>
       <r>  -11.0685    1.0000 </r>
       <r>  -10.9630    1.0000 </r>
       <r>  -10.7646    1.0000 </r>
       <r>  -10.5357    1.0000 </r>
       <r>   -8.2947    1.0000 </r>
       <r>   -8.0337    1.0000 </r>
       <r>   -7.7581    1.0000 </r>
       <r>   -7.7276    1.0000 </r>
       <r>   -6.8143    1.0000 </r>
       <r>   -6.6373    1.0000 </r>
       <r>   -6.5685    1.0000 </r>
       <r>   -6.4380    1.0000 </r>
       <r>   -5.7151    1.0000 </r>
       <r>   -5.6706    1.0000 </r>
       <r>   -5.4272    1.0000 </r>
       <r>   -5.2751    1.0000 </r>
       <r>   -4.9702    1.0000 </r>
       <r>   -4.7498    1.0000 </r>
       <r>   -4.5441    1.0000 </r>
       <r>   -4.5252    1.0000 </r>
       <r>   -4.4418    1.0000 </r>
       <r>   -4.4030    1.0000 </r>
       <r>   -4.1832    1.0000 </r>
       <r>   -4.1196    1.0000 </r>
       <r>   -3.8147    1.0000 </r>
       <r>   -3.7410    1.0000 </r>
       <r>   -3.5582    1.0000 </r>
       <r>   -3.4041    1.0000 </r>
       <r>   -3.2460    1.0000 </r>
       <r>   -3.1137    1.0000 </r>
       <r>   -2.9361    1.0000 </r>
       <r>   -2.8169    1.0000 </r>
       <r>   -2.6613    1.0000 </r>
       <r>   -2.4802    1.0000 </r>
       <r>   -2.3824    1.0000 </r>
       <r>   -2.3119    1.0000 </r>
       <r>   -2.0403    1.0000 </r>
       <r>   -1.8425    1.0000 </r>
       <r>   -1.7898    1.0000 </r>
       <r>   -1.7369    1.0000 </r>
       <r>   -1.6672    1.0000 </r>
       <r>   -1.4846    1.0000 </r>
       <r>   -1.3984    1.0000 </r>
       <r>   -1.0664    1.0000 </r>
       <r>   -0.9473    1.0000 </r>
       <r>   -0.3887    1.0000 </r>
       <r>    0.8219    0.0000 </r>
       <r>    1.1925    0.0000 </r>
       <r>    1.6764    0.0000 </r>
       <r>    1.8613    0.0000 </r>
       <r>    1.9615    0.0000 </r>
       <r>    2.0904    0.0000 </r>
       <r>    2.2911    0.0000 </r>
       <r>    2.3998    0.0000 </r>
       <r>    2.4522    0.0000 </r>
       <r>    2.6547    0.0000 </r>
       <r>    2.7472    0.0000 </r>
       <r>    2.9387    0.0000 </r>
       <r>    2.9701    0.0000 </r>
       <r>    3.0320    0.0000 </r>
      </set>
      <set comment="kpoint 5">
       <r>  -13.0930    1.0000 </r>
       <r>  -12.5191    1.0000 </r>
       <r>  -12.2796    1.0000 </r>
       <r>  -11.9252    1.0000 </r>
       <r>  -11.6604    1.0000 </r>
       <r>  -11.5709    1.0000 </r>
       <r>  -11.4778    1.0000 </r>
       <r>  -11.1264    1.0000 </r>
       <r>  -10.7848    1.0000 </r>
       <r>  -10.7190    1.0000 </r>
       <r>  -10.5106    1.0000 </r>
       <r>  -10.3501    1.0000 </r>
       <r>   -8.5892    1.0000 </r>
       <r>   -8.2892    1.0000 </r>
       <r>   -8.0294    1.0000 </r>
       <r>   -8.0177    1.0000 </r>
       <r>   -7.2380    1.0000 </r>
       <r>   -6.9311    1.0000 </r>
       <r>   -6.8364    1.0000 </r>
       <r>   -6.6163    1.0000 </r>
       <r>   -6.2264    1.0000 </r>
       <r>   -6.1004    1.0000 </r>
       <r>   -5.8988    1.0000 </r>
       <r>   -5.6333    1.0000 </r>
       <r>   -5.1540    1.0000 </r>
       <r>   -5.1038    1.0000 </r>
       <r>   -4.9982    1.0000 </r>
       <r>   -4.7543    1.0000 </r>
       <r>   -4.6889    1.0000 </r>
       <r>   -4.6344    1.0000 </r>
       <r>   -4.4116    1.0000 </r>
       <r>   -4.2509    1.0000 </r>
       <r>   -4.1669    1.0000 </r>
       <r>   -4.0629    1.0000 </r>
       <r>   -3.5866    1.0000 </r>
       <r>   -3.3304    1.0000 </r>
       <r>   -3.2255    1.0000 </r>
       <r>   -3.1626    1.0000 </r>
       <r>   -3.0165    1.0000 </r>
       <r>   -2.9369    1.0000 </r>
       <r>   -2.7896    1.0000 </r>
       <r>   -2.6129    1.0000 </r>
       <r>   -2.5860    1.0000 </r>
       <r>   -2.3782    1.0000 </r>
       <r>   -2.1364    1.0000 </r>
       <r>   -1.9930    1.0000 </r>
       <r>   -1.8316    1.0000 </r>
       <r>   -1.8124    1.0000 </r>
       <r>   -1.7641    1.0000 </r>
       <r>   -1.6561    1.0000 </r>
       <r>   -1.4458    1.0000 </r>
       <r>   -1.3244    1.0000 </r>
       <r>   -1.2295    1.0000 </r>
       <r>   -0.6211    1.0000 </r>
       <r>    0.4270    0.0000 </r>
       <r>    0.8555    0.0000 </r>
       <r>    1.3860    0.0000 </r>
       <r>    1.4742    0.0000 </r>
       <r>    1.6771    0.0000 </r>
       <r>    1.8605    0.0000 </r>
       <r>    2.0552    0.0000 </r>
       <r>    2.1233    0.0000 </r>
       <r>    2.2788    0.0000 </r>
       <r>    2.3894    0.0000 </r>
       <r>    2.4573    0.0000 </r>
       <r>    2.7358    0.0000 </r>
       <r>    2.7814    0.0000 </r>
       <r>    2.8831    0.0000 </r>
      </set>
      <set comment="kpoint 6">
       <r>  -12.8544    1.0000 </r>
       <r>  -12.0109    1.0000 </r>
       <r>  -11.8524    1.0000 </r>
       <r>  -11.5061    1.0000 </r>
       <r>  -11.2477    1.0000 </r>
       <r>  -11.1817    1.0000 </r>
       <r>  -11.1398    1.0000 </r>
       <r>  -10.7833    1.0000 </r>
       <r>  -10.5654    1.0000 </r>
       <r>  -10.5404    1.0000 </r>
       <r>  -10.3908    1.0000 </r>
       <r>  -10.3343    1.0000 </r>
       <r>   -8.7669    1.0000 </r>
       <r>   -8.7423    1.0000 </r>
       <r>   -8.3109    1.0000 </r>
       <r>   -8.2765    1.0000 </r>
       <r>   -7.7268    1.0000 </r>
       <r>   -7.3941    1.0000 </r>
       <r>   -7.3496    1.0000 </r>
       <r>   -7.1067    1.0000 </r>
       <r>   -6.8608    1.0000 </r>
       <r>   -6.6971    1.0000 </r>
       <r>   -6.5957    1.0000 </r>
       <r>   -5.9068    1.0000 </r>
       <r>   -5.1708    1.0000 </r>
       <r>   -5.1329    1.0000 </r>
       <r>   -4.9051    1.0000 </r>
       <r>   -4.6643    1.0000 </r>
       <r>   -4.5410    1.0000 </r>
       <r>   -4.4629    1.0000 </r>
       <r>   -4.2376    1.0000 </r>
       <r>   -4.1874    1.0000 </r>
       <r>   -4.1214    1.0000 </r>
       <r>   -4.0046    1.0000 </r>
       <r>   -3.6716    1.0000 </r>
       <r>   -3.5904    1.0000 </r>
       <r>   -3.4512    1.0000 </r>
       <r>   -3.2060    1.0000 </r>
       <r>   -3.1367    1.0000 </r>
       <r>   -3.0910    1.0000 </r>
       <r>   -2.9254    1.0000 </r>
       <r>   -2.7529    1.0000 </r>
       <r>   -2.5666    1.0000 </r>
       <r>   -2.3929    1.0000 </r>
       <r>   -2.3107    1.0000 </r>
       <r>   -2.2132    1.0000 </r>
       <r>   -2.0134    1.0000 </r>
       <r>   -1.9618    1.0000 </r>
       <r>   -1.8482    1.0000 </r>
       <r>   -1.7812    1.0000 </r>
       <r>   -1.6124    1.0000 </r>
       <r>   -1.4217    1.0000 </r>
       <r>   -1.2887    1.0000 </r>
       <r>   -0.8274    1.0000 </r>
       <r>    0.2179    0.0007 </r>
       <r>    0.5964    0.0000 </r>
       <r>    0.9795    0.0000 </r>
       <r>    1.2703    0.0000 </r>
       <r>    1.4872    0.0000 </r>
       <r>    1.7599    0.0000 </r>
       <r>    1.8166    0.0000 </r>
       <r>    1.9026    0.0000 </r>
       <r>    2.1094    0.0000 </r>
       <r>    2.1855    0.0000 </r>
       <r>    2.3244    0.0000 </r>
       <r>    2.3789    0.0000 </r>
       <r>    2.5534    0.0000 </r>
       <r>    2.7700    0.0000 </r>
      </set>
      <set comment="kpoint 7">
       <r>  -12.7089    1.0000 </r>
       <r>  -11.4379    1.0000 </r>
       <r>  -11.3869    1.0000 </r>
       <r>  -11.0835    1.0000 </r>
       <r>  -11.0425    1.0000 </r>
       <r>  -10.8855    1.0000 </r>
       <r>  -10.8617    1.0000 </r>
       <r>  -10.7786    1.0000 </r>
       <r>  -10.6638    1.0000 </r>
       <r>  -10.5713    1.0000 </r>
       <r>  -10.4826    1.0000 </r>
       <r>  -10.3115    1.0000 </r>
       <r>   -9.0621    1.0000 </r>
       <r>   -8.6246    1.0000 </r>
       <r>   -8.3741    1.0000 </r>
       <r>   -8.2842    1.0000 </r>
       <r>   -8.0148    1.0000 </r>
       <r>   -7.9694    1.0000 </r>
       <r>   -7.6667    1.0000 </r>
       <r>   -7.5056    1.0000 </r>
       <r>   -7.3496    1.0000 </r>
       <r>   -7.2205    1.0000 </r>
       <r>   -7.1165    1.0000 </r>
       <r>   -6.0733    1.0000 </r>
       <r>   -5.0684    1.0000 </r>
       <r>   -4.8535    1.0000 </r>
       <r>   -4.6820    1.0000 </r>
       <r>   -4.4436    1.0000 </r>
       <r>   -4.3480    1.0000 </r>
       <r>   -4.2781    1.0000 </r>
       <r>   -4.1632    1.0000 </r>
       <r>   -3.9947    1.0000 </r>
       <r>   -3.9602    1.0000 </r>
       <r>   -3.8665    1.0000 </r>
       <r>   -3.7694    1.0000 </r>
       <r>   -3.6695    1.0000 </r>
       <r>   -3.6112    1.0000 </r>
       <r>   -3.5046    1.0000 </r>
       <r>   -3.4217    1.0000 </r>
       <r>   -3.2339    1.0000 </r>
       <r>   -3.1912    1.0000 </r>
       <r>   -2.9444    1.0000 </r>
       <r>   -2.6408    1.0000 </r>
       <r>   -2.4536    1.0000 </r>
       <r>   -2.3639    1.0000 </r>
       <r>   -2.2824    1.0000 </r>
       <r>   -2.1263    1.0000 </r>
       <r>   -2.0488    1.0000 </r>
       <r>   -1.9558    1.0000 </r>
       <r>   -1.7195    1.0000 </r>
       <r>   -1.6321    1.0000 </r>
       <r>   -1.4624    1.0000 </r>
       <r>   -1.3260    1.0000 </r>
       <r>   -0.8958    1.0000 </r>
       <r>    0.1560    0.0105 </r>
       <r>    0.4495    0.0000 </r>
       <r>    0.7337    0.0000 </r>
       <r>    1.1128    0.0000 </r>
       <r>    1.4460    0.0000 </r>
       <r>    1.6387    0.0000 </r>
       <r>    1.6974    0.0000 </r>
       <r>    1.7522    0.0000 </r>
       <r>    1.9176    0.0000 </r>
       <r>    2.1381    0.0000 </r>
       <r>    2.1552    0.0000 </r>
       <r>    2.4236    0.0000 </r>
       <r>    2.4848    0.0000 </r>
       <r>    2.5788    0.0000 </r>
      </set>
      <set comment="kpoint 8">
       <r>  -13.7258    1.0000 </r>
       <r>  -13.4205    1.0000 </r>
       <r>  -13.1842    1.0000 </r>
       <r>  -12.9111    1.0000 </r>
       <r>  -12.5155    1.0000 </r>
       <r>  -12.4031    1.0000 </r>
       <r>  -12.1463    1.0000 </r>
       <r>  -11.8063    1.0000 </r>
       <r>  -11.5233    1.0000 </r>
       <r>  -11.4154    1.0000 </r>
       <r>  -11.1759    1.0000 </r>
       <r>  -10.9348    1.0000 </r>
       <r>   -8.4558    1.0000 </r>
       <r>   -8.3941    1.0000 </r>
       <r>   -7.3470    1.0000 </r>
       <r>   -7.1619    1.0000 </r>
       <r>   -6.7593    1.0000 </r>
       <r>   -6.6066    1.0000 </r>
       <r>   -6.5657    1.0000 </r>
       <r>   -6.4774    1.0000 </r>
       <r>   -5.7319    1.0000 </r>
       <r>   -5.6639    1.0000 </r>
       <r>   -4.7885    1.0000 </r>
       <r>   -4.5815    1.0000 </r>
       <r>   -4.1507    1.0000 </r>
       <r>   -3.9613    1.0000 </r>
       <r>   -3.7833    1.0000 </r>
       <r>   -3.4719    1.0000 </r>
       <r>   -3.3059    1.0000 </r>
       <r>   -3.0652    1.0000 </r>
       <r>   -3.0449    1.0000 </r>
       <r>   -2.9305    1.0000 </r>
       <r>   -2.7798    1.0000 </r>
       <r>   -2.6449    1.0000 </r>
       <r>   -2.5245    1.0000 </r>
       <r>   -2.4467    1.0000 </r>
       <r>   -2.3713    1.0000 </r>
       <r>   -2.3230    1.0000 </r>
       <r>   -2.2924    1.0000 </r>
       <r>   -2.0967    1.0000 </r>
       <r>   -2.0057    1.0000 </r>
       <r>   -1.9267    1.0000 </r>
       <r>   -1.8900    1.0000 </r>
       <r>   -1.8179    1.0000 </r>
       <r>   -1.6620    1.0000 </r>
       <r>   -1.5646    1.0000 </r>
       <r>   -1.4044    1.0000 </r>
       <r>   -1.3281    1.0000 </r>
       <r>   -1.2989    1.0000 </r>
       <r>   -1.1114    1.0000 </r>
       <r>   -1.0182    1.0000 </r>
       <r>   -0.9565    1.0000 </r>
       <r>   -0.6290    1.0000 </r>
       <r>   -0.1561    0.9825 </r>
       <r>    0.7969    0.0000 </r>
       <r>    1.1074    0.0000 </r>
       <r>    1.2612    0.0000 </r>
       <r>    1.3888    0.0000 </r>
       <r>    1.4582    0.0000 </r>
       <r>    1.6124    0.0000 </r>
       <r>    1.7728    0.0000 </r>
       <r>    1.7930    0.0000 </r>
       <r>    1.9123    0.0000 </r>
       <r>    2.1136    0.0000 </r>
       <r>    2.2996    0.0000 </r>
       <r>    2.3879    0.0000 </r>
       <r>    2.6183    0.0000 </r>
       <r>    2.7200    0.0000 </r>
      </set>
      <set comment="kpoint 9">
       <r>  -13.6677    1.0000 </r>
       <r>  -13.3437    1.0000 </r>
       <r>  -13.1548    1.0000 </r>
       <r>  -12.8921    1.0000 </r>
       <r>  -12.4584    1.0000 </r>
       <r>  -12.3458    1.0000 </r>
       <r>  -12.0728    1.0000 </r>
       <r>  -11.7067    1.0000 </r>
       <r>  -11.4720    1.0000 </r>
       <r>  -11.3741    1.0000 </r>
       <r>  -11.1283    1.0000 </r>
       <r>  -10.8905    1.0000 </r>
       <r>   -8.5123    1.0000 </r>
       <r>   -8.4157    1.0000 </r>
       <r>   -7.2999    1.0000 </r>
       <r>   -7.1218    1.0000 </r>
       <r>   -6.7683    1.0000 </r>
       <r>   -6.6138    1.0000 </r>
       <r>   -6.4966    1.0000 </r>
       <r>   -6.4231    1.0000 </r>
       <r>   -5.6777    1.0000 </r>
       <r>   -5.6120    1.0000 </r>
       <r>   -4.7934    1.0000 </r>
       <r>   -4.6267    1.0000 </r>
       <r>   -4.2148    1.0000 </r>
       <r>   -4.0343    1.0000 </r>
       <r>   -3.7641    1.0000 </r>
       <r>   -3.5876    1.0000 </r>
       <r>   -3.5347    1.0000 </r>
       <r>   -3.3645    1.0000 </r>
       <r>   -3.3042    1.0000 </r>
       <r>   -3.1314    1.0000 </r>
       <r>   -2.9810    1.0000 </r>
       <r>   -2.9364    1.0000 </r>
       <r>   -2.8792    1.0000 </r>
       <r>   -2.6369    1.0000 </r>
       <r>   -2.5725    1.0000 </r>
       <r>   -2.4345    1.0000 </r>
       <r>   -2.4086    1.0000 </r>
       <r>   -2.2573    1.0000 </r>
       <r>   -2.2418    1.0000 </r>
       <r>   -2.1568    1.0000 </r>
       <r>   -2.0789    1.0000 </r>
       <r>   -1.9492    1.0000 </r>
       <r>   -1.7848    1.0000 </r>
       <r>   -1.7406    1.0000 </r>
       <r>   -1.6757    1.0000 </r>
       <r>   -1.3816    1.0000 </r>
       <r>   -1.3090    1.0000 </r>
       <r>   -1.2253    1.0000 </r>
       <r>   -1.0467    1.0000 </r>
       <r>   -0.9261    1.0000 </r>
       <r>   -0.6277    1.0000 </r>
       <r>   -0.1617    0.9857 </r>
       <r>    1.1081    0.0000 </r>
       <r>    1.3738    0.0000 </r>
       <r>    1.5218    0.0000 </r>
       <r>    1.6742    0.0000 </r>
       <r>    1.8430    0.0000 </r>
       <r>    1.9335    0.0000 </r>
       <r>    2.0162    0.0000 </r>
       <r>    2.1762    0.0000 </r>
       <r>    2.2577    0.0000 </r>
       <r>    2.3738    0.0000 </r>
       <r>    2.5606    0.0000 </r>
       <r>    2.6684    0.0000 </r>
       <r>    2.7250    0.0000 </r>
       <r>    2.9049    0.0000 </r>
      </set>
      <set comment="kpoint 10">
       <r>  -13.5219    1.0000 </r>
       <r>  -13.1474    1.0000 </r>
       <r>  -13.0105    1.0000 </r>
       <r>  -12.7556    1.0000 </r>
       <r>  -12.2904    1.0000 </r>
       <r>  -12.1796    1.0000 </r>
       <r>  -11.9113    1.0000 </r>
       <r>  -11.5089    1.0000 </r>
       <r>  -11.3173    1.0000 </r>
       <r>  -11.2346    1.0000 </r>
       <r>  -10.9836    1.0000 </r>
       <r>  -10.7494    1.0000 </r>
       <r>   -8.5766    1.0000 </r>
       <r>   -8.4061    1.0000 </r>
       <r>   -7.2634    1.0000 </r>
       <r>   -7.1251    1.0000 </r>
       <r>   -6.7573    1.0000 </r>
       <r>   -6.5913    1.0000 </r>
       <r>   -6.4626    1.0000 </r>
       <r>   -6.3915    1.0000 </r>
       <r>   -5.6089    1.0000 </r>
       <r>   -5.5488    1.0000 </r>
       <r>   -4.9272    1.0000 </r>
       <r>   -4.7787    1.0000 </r>
       <r>   -4.5227    1.0000 </r>
       <r>   -4.3210    1.0000 </r>
       <r>   -4.2615    1.0000 </r>
       <r>   -4.2108    1.0000 </r>
       <r>   -3.9286    1.0000 </r>
       <r>   -3.8251    1.0000 </r>
       <r>   -3.6420    1.0000 </r>
       <r>   -3.5960    1.0000 </r>
       <r>   -3.4693    1.0000 </r>
       <r>   -3.3373    1.0000 </r>
       <r>   -3.1607    1.0000 </r>
       <r>   -3.0669    1.0000 </r>
       <r>   -2.9040    1.0000 </r>
       <r>   -2.8514    1.0000 </r>
       <r>   -2.7762    1.0000 </r>
       <r>   -2.6787    1.0000 </r>
       <r>   -2.5364    1.0000 </r>
       <r>   -2.4417    1.0000 </r>
       <r>   -2.3224    1.0000 </r>
       <r>   -2.2471    1.0000 </r>
       <r>   -1.9872    1.0000 </r>
       <r>   -1.8647    1.0000 </r>
       <r>   -1.8205    1.0000 </r>
       <r>   -1.6622    1.0000 </r>
       <r>   -1.4249    1.0000 </r>
       <r>   -1.3656    1.0000 </r>
       <r>   -1.0881    1.0000 </r>
       <r>   -0.9290    1.0000 </r>
       <r>   -0.6932    1.0000 </r>
       <r>   -0.2378    0.9994 </r>
       <r>    1.2832    0.0000 </r>
       <r>    1.4168    0.0000 </r>
       <r>    1.7075    0.0000 </r>
       <r>    1.8522    0.0000 </r>
       <r>    2.0704    0.0000 </r>
       <r>    2.1925    0.0000 </r>
       <r>    2.3837    0.0000 </r>
       <r>    2.5400    0.0000 </r>
       <r>    2.7916    0.0000 </r>
       <r>    2.8265    0.0000 </r>
       <r>    2.9249    0.0000 </r>
       <r>    2.9951    0.0000 </r>
       <r>    3.1220    0.0000 </r>
       <r>    3.1468    0.0000 </r>
      </set>
      <set comment="kpoint 11">
       <r>  -13.3097    1.0000 </r>
       <r>  -12.8366    1.0000 </r>
       <r>  -12.7481    1.0000 </r>
       <r>  -12.5043    1.0000 </r>
       <r>  -12.0186    1.0000 </r>
       <r>  -11.9127    1.0000 </r>
       <r>  -11.6760    1.0000 </r>
       <r>  -11.2323    1.0000 </r>
       <r>  -11.0734    1.0000 </r>
       <r>  -11.0129    1.0000 </r>
       <r>  -10.7564    1.0000 </r>
       <r>  -10.5323    1.0000 </r>
       <r>   -8.7071    1.0000 </r>
       <r>   -8.4161    1.0000 </r>
       <r>   -7.3667    1.0000 </r>
       <r>   -7.3123    1.0000 </r>
       <r>   -6.8543    1.0000 </r>
       <r>   -6.6315    1.0000 </r>
       <r>   -6.5871    1.0000 </r>
       <r>   -6.4677    1.0000 </r>
       <r>   -5.7663    1.0000 </r>
       <r>   -5.6651    1.0000 </r>
       <r>   -5.2683    1.0000 </r>
       <r>   -5.1434    1.0000 </r>
       <r>   -4.9675    1.0000 </r>
       <r>   -4.9288    1.0000 </r>
       <r>   -4.7484    1.0000 </r>
       <r>   -4.5994    1.0000 </r>
       <r>   -4.4957    1.0000 </r>
       <r>   -4.4108    1.0000 </r>
       <r>   -4.1875    1.0000 </r>
       <r>   -3.9628    1.0000 </r>
       <r>   -3.7180    1.0000 </r>
       <r>   -3.6758    1.0000 </r>
       <r>   -3.5485    1.0000 </r>
       <r>   -3.3180    1.0000 </r>
       <r>   -3.1476    1.0000 </r>
       <r>   -3.0295    1.0000 </r>
       <r>   -3.0020    1.0000 </r>
       <r>   -2.8444    1.0000 </r>
       <r>   -2.6335    1.0000 </r>
       <r>   -2.5016    1.0000 </r>
       <r>   -2.4621    1.0000 </r>
       <r>   -2.3849    1.0000 </r>
       <r>   -2.1055    1.0000 </r>
       <r>   -1.9208    1.0000 </r>
       <r>   -1.8586    1.0000 </r>
       <r>   -1.7324    1.0000 </r>
       <r>   -1.7016    1.0000 </r>
       <r>   -1.4962    1.0000 </r>
       <r>   -1.3297    1.0000 </r>
       <r>   -1.0140    1.0000 </r>
       <r>   -0.9300    1.0000 </r>
       <r>   -0.4049    1.0000 </r>
       <r>    0.8696    0.0000 </r>
       <r>    1.1283    0.0000 </r>
       <r>    1.4353    0.0000 </r>
       <r>    1.5373    0.0000 </r>
       <r>    1.6625    0.0000 </r>
       <r>    1.8670    0.0000 </r>
       <r>    2.1874    0.0000 </r>
       <r>    2.3546    0.0000 </r>
       <r>    2.5519    0.0000 </r>
       <r>    2.6424    0.0000 </r>
       <r>    2.7837    0.0000 </r>
       <r>    3.0763    0.0000 </r>
       <r>    3.1111    0.0000 </r>
       <r>    3.2425    0.0000 </r>
      </set>
      <set comment="kpoint 12">
       <r>  -13.0664    1.0000 </r>
       <r>  -12.4212    1.0000 </r>
       <r>  -12.3707    1.0000 </r>
       <r>  -12.1453    1.0000 </r>
       <r>  -11.6584    1.0000 </r>
       <r>  -11.5631    1.0000 </r>
       <r>  -11.3914    1.0000 </r>
       <r>  -10.9183    1.0000 </r>
       <r>  -10.7791    1.0000 </r>
       <r>  -10.7492    1.0000 </r>
       <r>  -10.4920    1.0000 </r>
       <r>  -10.3270    1.0000 </r>
       <r>   -8.9060    1.0000 </r>
       <r>   -8.5269    1.0000 </r>
       <r>   -7.8407    1.0000 </r>
       <r>   -7.6403    1.0000 </r>
       <r>   -7.2288    1.0000 </r>
       <r>   -7.0489    1.0000 </r>
       <r>   -6.8958    1.0000 </r>
       <r>   -6.7283    1.0000 </r>
       <r>   -6.1352    1.0000 </r>
       <r>   -6.0875    1.0000 </r>
       <r>   -5.8530    1.0000 </r>
       <r>   -5.7129    1.0000 </r>
       <r>   -5.3183    1.0000 </r>
       <r>   -5.1856    1.0000 </r>
       <r>   -4.9928    1.0000 </r>
       <r>   -4.8731    1.0000 </r>
       <r>   -4.5716    1.0000 </r>
       <r>   -4.4563    1.0000 </r>
       <r>   -4.3492    1.0000 </r>
       <r>   -4.2628    1.0000 </r>
       <r>   -3.9514    1.0000 </r>
       <r>   -3.8416    1.0000 </r>
       <r>   -3.7710    1.0000 </r>
       <r>   -3.2802    1.0000 </r>
       <r>   -3.1883    1.0000 </r>
       <r>   -3.0367    1.0000 </r>
       <r>   -2.9382    1.0000 </r>
       <r>   -2.8934    1.0000 </r>
       <r>   -2.7974    1.0000 </r>
       <r>   -2.6263    1.0000 </r>
       <r>   -2.5011    1.0000 </r>
       <r>   -2.3920    1.0000 </r>
       <r>   -2.2612    1.0000 </r>
       <r>   -2.1344    1.0000 </r>
       <r>   -1.9472    1.0000 </r>
       <r>   -1.8831    1.0000 </r>
       <r>   -1.8154    1.0000 </r>
       <r>   -1.6872    1.0000 </r>
       <r>   -1.5142    1.0000 </r>
       <r>   -1.3090    1.0000 </r>
       <r>   -1.1922    1.0000 </r>
       <r>   -0.6443    1.0000 </r>
       <r>    0.4502    0.0000 </r>
       <r>    0.8163    0.0000 </r>
       <r>    0.9824    0.0000 </r>
       <r>    1.2914    0.0000 </r>
       <r>    1.3529    0.0000 </r>
       <r>    1.5515    0.0000 </r>
       <r>    1.9856    0.0000 </r>
       <r>    2.2152    0.0000 </r>
       <r>    2.3709    0.0000 </r>
       <r>    2.4611    0.0000 </r>
       <r>    2.5192    0.0000 </r>
       <r>    2.6813    0.0000 </r>
       <r>    2.8718    0.0000 </r>
       <r>    2.9971    0.0000 </r>
      </set>
      <set comment="kpoint 13">
       <r>  -12.8437    1.0000 </r>
       <r>  -11.9217    1.0000 </r>
       <r>  -11.8957    1.0000 </r>
       <r>  -11.6954    1.0000 </r>
       <r>  -11.2450    1.0000 </r>
       <r>  -11.1748    1.0000 </r>
       <r>  -11.1124    1.0000 </r>
       <r>  -10.6597    1.0000 </r>
       <r>  -10.5397    1.0000 </r>
       <r>  -10.5351    1.0000 </r>
       <r>  -10.4033    1.0000 </r>
       <r>  -10.3075    1.0000 </r>
       <r>   -8.8963    1.0000 </r>
       <r>   -8.6858    1.0000 </r>
       <r>   -8.3922    1.0000 </r>
       <r>   -8.0446    1.0000 </r>
       <r>   -7.7166    1.0000 </r>
       <r>   -7.6785    1.0000 </r>
       <r>   -7.2934    1.0000 </r>
       <r>   -7.2529    1.0000 </r>
       <r>   -6.7530    1.0000 </r>
       <r>   -6.6307    1.0000 </r>
       <r>   -6.5958    1.0000 </r>
       <r>   -5.9474    1.0000 </r>
       <r>   -5.2861    1.0000 </r>
       <r>   -5.2274    1.0000 </r>
       <r>   -4.8769    1.0000 </r>
       <r>   -4.7246    1.0000 </r>
       <r>   -4.5894    1.0000 </r>
       <r>   -4.3536    1.0000 </r>
       <r>   -4.2205    1.0000 </r>
       <r>   -4.0579    1.0000 </r>
       <r>   -4.0211    1.0000 </r>
       <r>   -3.7977    1.0000 </r>
       <r>   -3.6226    1.0000 </r>
       <r>   -3.3627    1.0000 </r>
       <r>   -3.2900    1.0000 </r>
       <r>   -3.2210    1.0000 </r>
       <r>   -3.1360    1.0000 </r>
       <r>   -3.0609    1.0000 </r>
       <r>   -2.9028    1.0000 </r>
       <r>   -2.8710    1.0000 </r>
       <r>   -2.6560    1.0000 </r>
       <r>   -2.4692    1.0000 </r>
       <r>   -2.4369    1.0000 </r>
       <r>   -2.2377    1.0000 </r>
       <r>   -2.0504    1.0000 </r>
       <r>   -2.0053    1.0000 </r>
       <r>   -1.9143    1.0000 </r>
       <r>   -1.7945    1.0000 </r>
       <r>   -1.6233    1.0000 </r>
       <r>   -1.4888    1.0000 </r>
       <r>   -1.3193    1.0000 </r>
       <r>   -0.8589    1.0000 </r>
       <r>    0.2336    0.0003 </r>
       <r>    0.5502    0.0000 </r>
       <r>    0.7771    0.0000 </r>
       <r>    1.2086    0.0000 </r>
       <r>    1.2978    0.0000 </r>
       <r>    1.4275    0.0000 </r>
       <r>    1.7690    0.0000 </r>
       <r>    1.8813    0.0000 </r>
       <r>    2.1039    0.0000 </r>
       <r>    2.2245    0.0000 </r>
       <r>    2.3635    0.0000 </r>
       <r>    2.5770    0.0000 </r>
       <r>    2.6702    0.0000 </r>
       <r>    2.7176    0.0000 </r>
      </set>
      <set comment="kpoint 14">
       <r>  -12.7066    1.0000 </r>
       <r>  -11.4002    1.0000 </r>
       <r>  -11.3627    1.0000 </r>
       <r>  -11.2003    1.0000 </r>
       <r>  -11.0494    1.0000 </r>
       <r>  -10.8939    1.0000 </r>
       <r>  -10.8686    1.0000 </r>
       <r>  -10.7961    1.0000 </r>
       <r>  -10.6352    1.0000 </r>
       <r>  -10.5169    1.0000 </r>
       <r>  -10.4891    1.0000 </r>
       <r>  -10.2972    1.0000 </r>
       <r>   -8.8808    1.0000 </r>
       <r>   -8.5524    1.0000 </r>
       <r>   -8.4906    1.0000 </r>
       <r>   -8.3352    1.0000 </r>
       <r>   -8.2614    1.0000 </r>
       <r>   -7.8713    1.0000 </r>
       <r>   -7.7427    1.0000 </r>
       <r>   -7.4518    1.0000 </r>
       <r>   -7.3084    1.0000 </r>
       <r>   -7.2481    1.0000 </r>
       <r>   -7.0772    1.0000 </r>
       <r>   -6.0435    1.0000 </r>
       <r>   -5.1219    1.0000 </r>
       <r>   -4.9548    1.0000 </r>
       <r>   -4.6546    1.0000 </r>
       <r>   -4.4201    1.0000 </r>
       <r>   -4.3442    1.0000 </r>
       <r>   -4.2116    1.0000 </r>
       <r>   -4.1163    1.0000 </r>
       <r>   -4.0662    1.0000 </r>
       <r>   -3.9633    1.0000 </r>
       <r>   -3.8661    1.0000 </r>
       <r>   -3.7685    1.0000 </r>
       <r>   -3.5975    1.0000 </r>
       <r>   -3.5811    1.0000 </r>
       <r>   -3.4233    1.0000 </r>
       <r>   -3.2660    1.0000 </r>
       <r>   -3.1982    1.0000 </r>
       <r>   -3.1201    1.0000 </r>
       <r>   -2.9296    1.0000 </r>
       <r>   -2.6174    1.0000 </r>
       <r>   -2.5720    1.0000 </r>
       <r>   -2.5385    1.0000 </r>
       <r>   -2.4227    1.0000 </r>
       <r>   -2.0941    1.0000 </r>
       <r>   -2.0607    1.0000 </r>
       <r>   -1.9341    1.0000 </r>
       <r>   -1.7009    1.0000 </r>
       <r>   -1.6545    1.0000 </r>
       <r>   -1.5049    1.0000 </r>
       <r>   -1.3737    1.0000 </r>
       <r>   -0.9321    1.0000 </r>
       <r>    0.1513    0.0126 </r>
       <r>    0.4271    0.0000 </r>
       <r>    0.7560    0.0000 </r>
       <r>    1.1593    0.0000 </r>
       <r>    1.4907    0.0000 </r>
       <r>    1.5760    0.0000 </r>
       <r>    1.6288    0.0000 </r>
       <r>    1.7247    0.0000 </r>
       <r>    1.8495    0.0000 </r>
       <r>    2.1481    0.0000 </r>
       <r>    2.2574    0.0000 </r>
       <r>    2.3536    0.0000 </r>
       <r>    2.5159    0.0000 </r>
       <r>    2.5432    0.0000 </r>
      </set>
      <set comment="kpoint 15">
       <r>  -12.7095    1.0000 </r>
       <r>  -11.4712    1.0000 </r>
       <r>  -11.3886    1.0000 </r>
       <r>  -11.0375    1.0000 </r>
       <r>  -11.0066    1.0000 </r>
       <r>  -10.8783    1.0000 </r>
       <r>  -10.8489    1.0000 </r>
       <r>  -10.7467    1.0000 </r>
       <r>  -10.6900    1.0000 </r>
       <r>  -10.6392    1.0000 </r>
       <r>  -10.4816    1.0000 </r>
       <r>  -10.3215    1.0000 </r>
       <r>   -9.0633    1.0000 </r>
       <r>   -8.6931    1.0000 </r>
       <r>   -8.3677    1.0000 </r>
       <r>   -8.2731    1.0000 </r>
       <r>   -8.0228    1.0000 </r>
       <r>   -7.8786    1.0000 </r>
       <r>   -7.5978    1.0000 </r>
       <r>   -7.5385    1.0000 </r>
       <r>   -7.3967    1.0000 </r>
       <r>   -7.2161    1.0000 </r>
       <r>   -7.1550    1.0000 </r>
       <r>   -5.9944    1.0000 </r>
       <r>   -5.0691    1.0000 </r>
       <r>   -4.6961    1.0000 </r>
       <r>   -4.6603    1.0000 </r>
       <r>   -4.5165    1.0000 </r>
       <r>   -4.3855    1.0000 </r>
       <r>   -4.3102    1.0000 </r>
       <r>   -4.1714    1.0000 </r>
       <r>   -4.1357    1.0000 </r>
       <r>   -3.9440    1.0000 </r>
       <r>   -3.9199    1.0000 </r>
       <r>   -3.8205    1.0000 </r>
       <r>   -3.7427    1.0000 </r>
       <r>   -3.6473    1.0000 </r>
       <r>   -3.5640    1.0000 </r>
       <r>   -3.3088    1.0000 </r>
       <r>   -3.2899    1.0000 </r>
       <r>   -3.0400    1.0000 </r>
       <r>   -2.7468    1.0000 </r>
       <r>   -2.6473    1.0000 </r>
       <r>   -2.5419    1.0000 </r>
       <r>   -2.3852    1.0000 </r>
       <r>   -2.3141    1.0000 </r>
       <r>   -2.1073    1.0000 </r>
       <r>   -2.0603    1.0000 </r>
       <r>   -1.9317    1.0000 </r>
       <r>   -1.7386    1.0000 </r>
       <r>   -1.6114    1.0000 </r>
       <r>   -1.4766    1.0000 </r>
       <r>   -1.3591    1.0000 </r>
       <r>   -0.9001    1.0000 </r>
       <r>    0.1101    0.0487 </r>
       <r>    0.4814    0.0000 </r>
       <r>    0.8872    0.0000 </r>
       <r>    1.2025    0.0000 </r>
       <r>    1.4482    0.0000 </r>
       <r>    1.7201    0.0000 </r>
       <r>    1.8146    0.0000 </r>
       <r>    1.8654    0.0000 </r>
       <r>    1.8885    0.0000 </r>
       <r>    2.1567    0.0000 </r>
       <r>    2.2267    0.0000 </r>
       <r>    2.3409    0.0000 </r>
       <r>    2.4284    0.0000 </r>
       <r>    2.6394    0.0000 </r>
      </set>
      <set comment="kpoint 16">
       <r>  -12.8564    1.0000 </r>
       <r>  -12.0375    1.0000 </r>
       <r>  -11.8469    1.0000 </r>
       <r>  -11.4215    1.0000 </r>
       <r>  -11.2464    1.0000 </r>
       <r>  -11.1782    1.0000 </r>
       <r>  -11.1435    1.0000 </r>
       <r>  -10.8632    1.0000 </r>
       <r>  -10.5682    1.0000 </r>
       <r>  -10.5424    1.0000 </r>
       <r>  -10.3863    1.0000 </r>
       <r>  -10.3198    1.0000 </r>
       <r>   -8.9268    1.0000 </r>
       <r>   -8.6772    1.0000 </r>
       <r>   -8.4251    1.0000 </r>
       <r>   -7.9848    1.0000 </r>
       <r>   -7.7293    1.0000 </r>
       <r>   -7.3755    1.0000 </r>
       <r>   -7.2858    1.0000 </r>
       <r>   -7.2526    1.0000 </r>
       <r>   -6.8345    1.0000 </r>
       <r>   -6.7468    1.0000 </r>
       <r>   -6.5997    1.0000 </r>
       <r>   -5.8047    1.0000 </r>
       <r>   -5.2399    1.0000 </r>
       <r>   -4.9882    1.0000 </r>
       <r>   -4.8453    1.0000 </r>
       <r>   -4.7873    1.0000 </r>
       <r>   -4.6056    1.0000 </r>
       <r>   -4.3951    1.0000 </r>
       <r>   -4.3316    1.0000 </r>
       <r>   -4.2021    1.0000 </r>
       <r>   -4.1075    1.0000 </r>
       <r>   -4.0242    1.0000 </r>
       <r>   -3.7327    1.0000 </r>
       <r>   -3.6587    1.0000 </r>
       <r>   -3.4619    1.0000 </r>
       <r>   -3.3410    1.0000 </r>
       <r>   -3.1276    1.0000 </r>
       <r>   -3.0235    1.0000 </r>
       <r>   -2.9114    1.0000 </r>
       <r>   -2.7067    1.0000 </r>
       <r>   -2.5569    1.0000 </r>
       <r>   -2.4067    1.0000 </r>
       <r>   -2.2979    1.0000 </r>
       <r>   -2.1735    1.0000 </r>
       <r>   -2.0036    1.0000 </r>
       <r>   -1.8833    1.0000 </r>
       <r>   -1.8172    1.0000 </r>
       <r>   -1.7680    1.0000 </r>
       <r>   -1.6555    1.0000 </r>
       <r>   -1.4761    1.0000 </r>
       <r>   -1.2917    1.0000 </r>
       <r>   -0.7798    1.0000 </r>
       <r>    0.1998    0.0017 </r>
       <r>    0.6005    0.0000 </r>
       <r>    1.1417    0.0000 </r>
       <r>    1.3023    0.0000 </r>
       <r>    1.5059    0.0000 </r>
       <r>    1.8317    0.0000 </r>
       <r>    1.9664    0.0000 </r>
       <r>    2.1172    0.0000 </r>
       <r>    2.1856    0.0000 </r>
       <r>    2.2224    0.0000 </r>
       <r>    2.3215    0.0000 </r>
       <r>    2.3829    0.0000 </r>
       <r>    2.4913    0.0000 </r>
       <r>    2.6492    0.0000 </r>
      </set>
      <set comment="kpoint 17">
       <r>  -13.0938    1.0000 </r>
       <r>  -12.5314    1.0000 </r>
       <r>  -12.2795    1.0000 </r>
       <r>  -11.8837    1.0000 </r>
       <r>  -11.6580    1.0000 </r>
       <r>  -11.5696    1.0000 </r>
       <r>  -11.4797    1.0000 </r>
       <r>  -11.1725    1.0000 </r>
       <r>  -10.7844    1.0000 </r>
       <r>  -10.7108    1.0000 </r>
       <r>  -10.5005    1.0000 </r>
       <r>  -10.3561    1.0000 </r>
       <r>   -8.5638    1.0000 </r>
       <r>   -8.4895    1.0000 </r>
       <r>   -8.1216    1.0000 </r>
       <r>   -7.5793    1.0000 </r>
       <r>   -7.2294    1.0000 </r>
       <r>   -6.9365    1.0000 </r>
       <r>   -6.8572    1.0000 </r>
       <r>   -6.7935    1.0000 </r>
       <r>   -6.1944    1.0000 </r>
       <r>   -6.0940    1.0000 </r>
       <r>   -5.9079    1.0000 </r>
       <r>   -5.6534    1.0000 </r>
       <r>   -5.2587    1.0000 </r>
       <r>   -5.0837    1.0000 </r>
       <r>   -4.8373    1.0000 </r>
       <r>   -4.7632    1.0000 </r>
       <r>   -4.7375    1.0000 </r>
       <r>   -4.5768    1.0000 </r>
       <r>   -4.4110    1.0000 </r>
       <r>   -4.2520    1.0000 </r>
       <r>   -4.1812    1.0000 </r>
       <r>   -4.1039    1.0000 </r>
       <r>   -3.6724    1.0000 </r>
       <r>   -3.3939    1.0000 </r>
       <r>   -3.2201    1.0000 </r>
       <r>   -3.1195    1.0000 </r>
       <r>   -3.0124    1.0000 </r>
       <r>   -2.9002    1.0000 </r>
       <r>   -2.7770    1.0000 </r>
       <r>   -2.6617    1.0000 </r>
       <r>   -2.5326    1.0000 </r>
       <r>   -2.3460    1.0000 </r>
       <r>   -2.1513    1.0000 </r>
       <r>   -1.9591    1.0000 </r>
       <r>   -1.8301    1.0000 </r>
       <r>   -1.8039    1.0000 </r>
       <r>   -1.7346    1.0000 </r>
       <r>   -1.6528    1.0000 </r>
       <r>   -1.5347    1.0000 </r>
       <r>   -1.3634    1.0000 </r>
       <r>   -1.2247    1.0000 </r>
       <r>   -0.5403    1.0000 </r>
       <r>    0.4278    0.0000 </r>
       <r>    0.8181    0.0000 </r>
       <r>    1.3471    0.0000 </r>
       <r>    1.6005    0.0000 </r>
       <r>    1.7480    0.0000 </r>
       <r>    1.9830    0.0000 </r>
       <r>    2.0395    0.0000 </r>
       <r>    2.2488    0.0000 </r>
       <r>    2.3196    0.0000 </r>
       <r>    2.4334    0.0000 </r>
       <r>    2.4885    0.0000 </r>
       <r>    2.7052    0.0000 </r>
       <r>    2.7433    0.0000 </r>
       <r>    2.8130    0.0000 </r>
      </set>
      <set comment="kpoint 18">
       <r>  -13.3469    1.0000 </r>
       <r>  -12.9265    1.0000 </r>
       <r>  -12.6420    1.0000 </r>
       <r>  -12.2881    1.0000 </r>
       <r>  -12.0195    1.0000 </r>
       <r>  -11.9205    1.0000 </r>
       <r>  -11.7810    1.0000 </r>
       <r>  -11.4675    1.0000 </r>
       <r>  -11.0722    1.0000 </r>
       <r>  -10.9667    1.0000 </r>
       <r>  -10.7572    1.0000 </r>
       <r>  -10.5343    1.0000 </r>
       <r>   -8.3367    1.0000 </r>
       <r>   -8.3080    1.0000 </r>
       <r>   -7.7173    1.0000 </r>
       <r>   -7.3065    1.0000 </r>
       <r>   -6.8112    1.0000 </r>
       <r>   -6.6400    1.0000 </r>
       <r>   -6.5742    1.0000 </r>
       <r>   -6.5217    1.0000 </r>
       <r>   -5.7291    1.0000 </r>
       <r>   -5.6741    1.0000 </r>
       <r>   -5.5764    1.0000 </r>
       <r>   -5.2708    1.0000 </r>
       <r>   -4.9910    1.0000 </r>
       <r>   -4.7674    1.0000 </r>
       <r>   -4.5521    1.0000 </r>
       <r>   -4.5020    1.0000 </r>
       <r>   -4.4473    1.0000 </r>
       <r>   -4.3105    1.0000 </r>
       <r>   -4.1210    1.0000 </r>
       <r>   -4.0956    1.0000 </r>
       <r>   -3.8905    1.0000 </r>
       <r>   -3.7390    1.0000 </r>
       <r>   -3.6121    1.0000 </r>
       <r>   -3.3847    1.0000 </r>
       <r>   -3.2364    1.0000 </r>
       <r>   -3.0396    1.0000 </r>
       <r>   -2.9311    1.0000 </r>
       <r>   -2.7676    1.0000 </r>
       <r>   -2.6700    1.0000 </r>
       <r>   -2.4954    1.0000 </r>
       <r>   -2.3809    1.0000 </r>
       <r>   -2.3245    1.0000 </r>
       <r>   -2.0765    1.0000 </r>
       <r>   -1.8591    1.0000 </r>
       <r>   -1.8100    1.0000 </r>
       <r>   -1.7556    1.0000 </r>
       <r>   -1.6729    1.0000 </r>
       <r>   -1.4441    1.0000 </r>
       <r>   -1.3917    1.0000 </r>
       <r>   -1.0660    1.0000 </r>
       <r>   -1.0000    1.0000 </r>
       <r>   -0.3090    1.0000 </r>
       <r>    0.8615    0.0000 </r>
       <r>    1.1908    0.0000 </r>
       <r>    1.5150    0.0000 </r>
       <r>    1.8949    0.0000 </r>
       <r>    2.0056    0.0000 </r>
       <r>    2.1136    0.0000 </r>
       <r>    2.2194    0.0000 </r>
       <r>    2.3076    0.0000 </r>
       <r>    2.4369    0.0000 </r>
       <r>    2.6731    0.0000 </r>
       <r>    2.7730    0.0000 </r>
       <r>    2.8752    0.0000 </r>
       <r>    2.9831    0.0000 </r>
[...]
       <r>    2.7913    0.0000 </r>
      </set>
      <set comment="kpoint 54">
       <r>  -12.7072    1.0000 </r>
       <r>  -11.4278    1.0000 </r>
       <r>  -11.3961    1.0000 </r>
       <r>  -11.1053    1.0000 </r>
       <r>  -11.0441    1.0000 </r>
       <r>  -10.8864    1.0000 </r>
       <r>  -10.8604    1.0000 </r>
       <r>  -10.7835    1.0000 </r>
       <r>  -10.6574    1.0000 </r>
       <r>  -10.5576    1.0000 </r>
       <r>  -10.4888    1.0000 </r>
       <r>  -10.3062    1.0000 </r>
       <r>   -8.8875    1.0000 </r>
       <r>   -8.6024    1.0000 </r>
       <r>   -8.5366    1.0000 </r>
       <r>   -8.3744    1.0000 </r>
       <r>   -8.0539    1.0000 </r>
       <r>   -7.9497    1.0000 </r>
       <r>   -7.6609    1.0000 </r>
       <r>   -7.4956    1.0000 </r>
       <r>   -7.3408    1.0000 </r>
       <r>   -7.2243    1.0000 </r>
       <r>   -7.1070    1.0000 </r>
       <r>   -5.9336    1.0000 </r>
       <r>   -5.1875    1.0000 </r>
       <r>   -4.8834    1.0000 </r>
       <r>   -4.6752    1.0000 </r>
       <r>   -4.4261    1.0000 </r>
       <r>   -4.3627    1.0000 </r>
       <r>   -4.2488    1.0000 </r>
       <r>   -4.1506    1.0000 </r>
       <r>   -4.0186    1.0000 </r>
       <r>   -3.9525    1.0000 </r>
       <r>   -3.8742    1.0000 </r>
       <r>   -3.8115    1.0000 </r>
       <r>   -3.7071    1.0000 </r>
       <r>   -3.5600    1.0000 </r>
       <r>   -3.4795    1.0000 </r>
       <r>   -3.2768    1.0000 </r>
       <r>   -3.1952    1.0000 </r>
       <r>   -2.9939    1.0000 </r>
       <r>   -2.9160    1.0000 </r>
       <r>   -2.7498    1.0000 </r>
       <r>   -2.6350    1.0000 </r>
       <r>   -2.4607    1.0000 </r>
       <r>   -2.3085    1.0000 </r>
       <r>   -2.1293    1.0000 </r>
       <r>   -2.0432    1.0000 </r>
       <r>   -1.8807    1.0000 </r>
       <r>   -1.7205    1.0000 </r>
       <r>   -1.6603    1.0000 </r>
       <r>   -1.5233    1.0000 </r>
       <r>   -1.3965    1.0000 </r>
       <r>   -0.9257    1.0000 </r>
       <r>    0.1082    0.0516 </r>
       <r>    0.5262    0.0000 </r>
       <r>    0.8274    0.0000 </r>
       <r>    1.2178    0.0000 </r>
       <r>    1.4138    0.0000 </r>
       <r>    1.6605    0.0000 </r>
       <r>    1.7045    0.0000 </r>
       <r>    1.7564    0.0000 </r>
       <r>    1.9375    0.0000 </r>
       <r>    2.0989    0.0000 </r>
       <r>    2.1637    0.0000 </r>
       <r>    2.3820    0.0000 </r>
       <r>    2.5249    0.0000 </r>
       <r>    2.5978    0.0000 </r>
      </set>
     </set>
    </set>
   </array>
  </eigenvalues>
  <separator name="orbital magnetization" >
   <v name="MAGDIPOLOUT">      0.00000000      0.00000000      0.00000000</v>
  </separator>
  <dos>
   <i name="efermi">     -0.00705633 </i>
   <total>
    <array>
     <dimension dim="1">gridpoints</dimension>
     <dimension dim="2">spin</dimension>
     <field>energy</field>
     <field>total</field>
     <field>integrated</field>
     <set>
      <set comment="spin 1">
       <r>   -14.7684     0.0000     0.0000 </r>
       <r>   -14.7050     0.0000     0.0000 </r>
       <r>   -14.6416     0.0000     0.0000 </r>
       <r>   -14.5783     0.0000     0.0000 </r>
       <r>   -14.5149     0.0000     0.0000 </r>
       <r>   -14.4515     0.0000     0.0000 </r>
       <r>   -14.3881     0.0000     0.0000 </r>
       <r>   -14.3248     0.0000     0.0000 </r>
       <r>   -14.2614     0.0000     0.0000 </r>
       <r>   -14.1980     0.0000     0.0000 </r>
       <r>   -14.1346     0.0000     0.0000 </r>
       <r>   -14.0713     0.0000     0.0000 </r>
       <r>   -14.0079     0.0003     0.0000 </r>
       <r>   -13.9445     0.0059     0.0004 </r>
       <r>   -13.8811     0.0637     0.0044 </r>
       <r>   -13.8178     0.3660     0.0276 </r>
       <r>   -13.7544     1.1571     0.1009 </r>
       <r>   -13.6910     2.1176     0.2351 </r>
       <r>   -13.6276     2.5215     0.3950 </r>
       <r>   -13.5643     2.4690     0.5514 </r>
       <r>   -13.5009     2.4391     0.7060 </r>
       <r>   -13.4375     2.6473     0.8738 </r>
       <r>   -13.3742     3.3602     1.0867 </r>
       <r>   -13.3108     4.1049     1.3469 </r>
       <r>   -13.2474     4.1618     1.6106 </r>
       <r>   -13.1840     4.0600     1.8679 </r>
       <r>   -13.1207     4.6049     2.1597 </r>
       <r>   -13.0573     5.1711     2.4875 </r>
       <r>   -12.9939     4.8033     2.7919 </r>
       <r>   -12.9305     4.6301     3.0853 </r>
       <r>   -12.8672     5.5692     3.4382 </r>
       <r>   -12.8038     6.1553     3.8283 </r>
       <r>   -12.7404     5.6595     4.1870 </r>
       <r>   -12.6770     4.8094     4.4918 </r>
       <r>   -12.6137     4.0408     4.7479 </r>
       <r>   -12.5503     4.2917     5.0199 </r>
       <r>   -12.4869     5.5802     5.3735 </r>
       <r>   -12.4235     6.4868     5.7846 </r>
       <r>   -12.3602     6.8375     6.2179 </r>
       <r>   -12.2968     7.0389     6.6640 </r>
       <r>   -12.2334     6.5058     7.0763 </r>
       <r>   -12.1700     5.5498     7.4280 </r>
       <r>   -12.1067     5.2966     7.7637 </r>
       <r>   -12.0433     6.1078     8.1508 </r>
       <r>   -11.9799     7.3791     8.6184 </r>
       <r>   -11.9165     8.0061     9.1258 </r>
       <r>   -11.8532     7.3874     9.5940 </r>
       <r>   -11.7898     5.8677     9.9658 </r>
       <r>   -11.7264     4.9921    10.2822 </r>
       <r>   -11.6630     5.4467    10.6274 </r>
       <r>   -11.5997     6.2513    11.0236 </r>
       <r>   -11.5363     7.4203    11.4938 </r>
       <r>   -11.4729     9.5623    12.0998 </r>
       <r>   -11.4095    11.0794    12.8020 </r>
       <r>   -11.3462    10.3492    13.4578 </r>
       <r>   -11.2828     9.0666    14.0324 </r>
       <r>   -11.2194     9.7242    14.6487 </r>
       <r>   -11.1561    11.3470    15.3678 </r>
       <r>   -11.0927    11.6468    16.1059 </r>
       <r>   -11.0293    10.8028    16.7905 </r>
       <r>   -10.9659    10.1386    17.4331 </r>
       <r>   -10.9026    10.1142    18.0740 </r>
       <r>   -10.8392    10.6142    18.7467 </r>
       <r>   -10.7758    11.4732    19.4738 </r>
       <r>   -10.7124    11.1991    20.1836 </r>
       <r>   -10.6491     9.0761    20.7587 </r>
       <r>   -10.5857     8.4159    21.2921 </r>
       <r>   -10.5223     9.8419    21.9158 </r>
       <r>   -10.4589     9.4200    22.5128 </r>
       <r>   -10.3956     7.4483    22.9848 </r>
       <r>   -10.3322     6.7708    23.4139 </r>
       <r>   -10.2688     5.5887    23.7681 </r>
       <r>   -10.2054     2.8121    23.9463 </r>
       <r>   -10.1421     0.7427    23.9934 </r>
       <r>   -10.0787     0.0978    23.9996 </r>
       <r>   -10.0153     0.0063    24.0000 </r>
       <r>    -9.9519     0.0002    24.0000 </r>
       <r>    -9.8886     0.0000    24.0000 </r>
       <r>    -9.8252     0.0000    24.0000 </r>
       <r>    -9.7618     0.0000    24.0000 </r>
       <r>    -9.6984     0.0000    24.0000 </r>
       <r>    -9.6351     0.0000    24.0000 </r>
       <r>    -9.5717     0.0000    24.0000 </r>
       <r>    -9.5083     0.0000    24.0000 </r>
       <r>    -9.4449     0.0000    24.0000 </r>
       <r>    -9.3816     0.0000    24.0000 </r>
       <r>    -9.3182     0.0004    24.0000 </r>
       <r>    -9.2548     0.0076    24.0005 </r>
       <r>    -9.1914     0.0755    24.0053 </r>
       <r>    -9.1281     0.3544    24.0277 </r>
       <r>    -9.0647     0.8439    24.0812 </r>
       <r>    -9.0013     1.3509    24.1668 </r>
       <r>    -8.9379     2.2574    24.3099 </r>
       <r>    -8.8746     3.3196    24.5203 </r>
       <r>    -8.8112     3.4757    24.7405 </r>
       <r>    -8.7478     3.7411    24.9776 </r>
       <r>    -8.6845     5.0164    25.2955 </r>
       <r>    -8.6211     6.1175    25.6832 </r>
       <r>    -8.5577     6.6269    26.1032 </r>
       <r>    -8.4943     6.6332    26.5236 </r>
       <r>    -8.4310     6.7023    26.9484 </r>
       <r>    -8.3676     7.5913    27.4294 </r>
       <r>    -8.3042     7.9481    27.9332 </r>
       <r>    -8.2408     6.2876    28.3316 </r>
       <r>    -8.1775     3.8106    28.5731 </r>
       <r>    -8.1141     3.2036    28.7761 </r>
       <r>    -8.0507     4.8413    29.0830 </r>
       <r>    -7.9873     6.1806    29.4747 </r>
       <r>    -7.9240     5.2474    29.8072 </r>
       <r>    -7.8606     3.5864    30.0345 </r>
       <r>    -7.7972     3.5040    30.2565 </r>
       <r>    -7.7338     5.3269    30.5941 </r>
       <r>    -7.6705     6.8237    31.0266 </r>
       <r>    -7.6071     6.2998    31.4258 </r>
       <r>    -7.5437     5.0980    31.7489 </r>
       <r>    -7.4803     4.6196    32.0417 </r>
       <r>    -7.4170     5.4210    32.3852 </r>
       <r>    -7.3536     7.6069    32.8673 </r>
       <r>    -7.2902     9.9365    33.4970 </r>
       <r>    -7.2268    10.7003    34.1752 </r>
       <r>    -7.1635     9.2478    34.7612 </r>
       <r>    -7.1001     6.8802    35.1973 </r>
       <r>    -7.0367     5.1766    35.5253 </r>
       <r>    -6.9733     4.6353    35.8191 </r>
       <r>    -6.9100     5.4667    36.1655 </r>
       <r>    -6.8466     7.3386    36.6306 </r>
       <r>    -6.7832     9.1000    37.2073 </r>
       <r>    -6.7198    10.0670    37.8453 </r>
       <r>    -6.6565    11.4959    38.5739 </r>
       <r>    -6.5931    13.1939    39.4100 </r>
       <r>    -6.5297    12.3207    40.1908 </r>
       <r>    -6.4664     9.4854    40.7920 </r>
       <r>    -6.4030     6.5605    41.2077 </r>
       <r>    -6.3396     3.8794    41.4536 </r>
       <r>    -6.2762     2.5938    41.6180 </r>
       <r>    -6.2129     2.9471    41.8047 </r>
       <r>    -6.1495     3.8672    42.0498 </r>
       <r>    -6.0861     4.3268    42.3240 </r>
       <r>    -6.0227     3.8107    42.5655 </r>
       <r>    -5.9594     3.2924    42.7742 </r>
       <r>    -5.8960     3.6916    43.0081 </r>
       <r>    -5.8326     4.5705    43.2978 </r>
       <r>    -5.7692     6.2074    43.6912 </r>
       <r>    -5.7059     8.6922    44.2420 </r>
       <r>    -5.6425     9.9345    44.8716 </r>
       <r>    -5.5791     8.3549    45.4011 </r>
       <r>    -5.5157     5.2555    45.7342 </r>
       <r>    -5.4524     2.8612    45.9155 </r>
       <r>    -5.3890     2.2099    46.0555 </r>
       <r>    -5.3256     3.3486    46.2678 </r>
       <r>    -5.2622     5.4929    46.6159 </r>
       <r>    -5.1989     7.1341    47.0680 </r>
       <r>    -5.1355     7.7777    47.5609 </r>
       <r>    -5.0721     7.4900    48.0356 </r>
       <r>    -5.0087     7.1938    48.4915 </r>
       <r>    -4.9454     8.0320    49.0005 </r>
       <r>    -4.8820     9.2168    49.5846 </r>
       <r>    -4.8186     9.9964    50.2181 </r>
       <r>    -4.7552    10.2687    50.8689 </r>
       <r>    -4.6919    10.2039    51.5156 </r>
       <r>    -4.6285    10.3709    52.1728 </r>
       <r>    -4.5651    10.7853    52.8563 </r>
       <r>    -4.5017    11.2558    53.5696 </r>
       <r>    -4.4384    12.1256    54.3381 </r>
       <r>    -4.3750    12.7363    55.1453 </r>
       <r>    -4.3116    12.3458    55.9277 </r>
       <r>    -4.2482    12.4093    56.7141 </r>
       <r>    -4.1849    13.7581    57.5860 </r>
       <r>    -4.1215    14.6529    58.5146 </r>
       <r>    -4.0581    14.3437    59.4236 </r>
       <r>    -3.9948    14.1711    60.3217 </r>
       <r>    -3.9314    13.6963    61.1897 </r>
       <r>    -3.8680    12.3586    61.9729 </r>
       <r>    -3.8046    11.6546    62.7115 </r>
       <r>    -3.7413    11.9664    63.4699 </r>
       <r>    -3.6779    12.9818    64.2926 </r>
       <r>    -3.6145    14.4075    65.2057 </r>
       <r>    -3.5511    14.4226    66.1197 </r>
       <r>    -3.4878    12.6101    66.9189 </r>
       <r>    -3.4244    11.1020    67.6224 </r>
       <r>    -3.3610    11.5510    68.3545 </r>
       <r>    -3.2976    13.6258    69.2180 </r>
       <r>    -3.2343    15.4132    70.1948 </r>
       <r>    -3.1709    16.3638    71.2319 </r>
       <r>    -3.1075    17.0311    72.3112 </r>
       <r>    -3.0441    17.4829    73.4192 </r>
       <r>    -2.9808    18.0344    74.5621 </r>
       <r>    -2.9174    18.5404    75.7371 </r>
       <r>    -2.8540    17.6913    76.8582 </r>
       <r>    -2.7906    15.1397    77.8177 </r>
       <r>    -2.7273    13.0794    78.6466 </r>
       <r>    -2.6639    13.7588    79.5186 </r>
       <r>    -2.6005    15.5745    80.5056 </r>
       <r>    -2.5371    16.0964    81.5257 </r>
       <r>    -2.4738    16.7471    82.5870 </r>
       <r>    -2.4104    18.2519    83.7437 </r>
       <r>    -2.3470    19.0103    84.9485 </r>
       <r>    -2.2836    17.4588    86.0549 </r>
       <r>    -2.2203    14.7306    86.9885 </r>
       <r>    -2.1569    13.5952    87.8500 </r>
       <r>    -2.0935    14.7836    88.7869 </r>
       <r>    -2.0301    16.4851    89.8317 </r>
       <r>    -1.9668    17.6469    90.9500 </r>
       <r>    -1.9034    18.6456    92.1317 </r>
       <r>    -1.8400    19.6718    93.3784 </r>
       <r>    -1.7767    20.4261    94.6729 </r>
       <r>    -1.7133    20.1423    95.9494 </r>
       <r>    -1.6499    17.7900    97.0768 </r>
       <r>    -1.5865    13.7601    97.9488 </r>
       <r>    -1.5232    11.3202    98.6662 </r>
       <r>    -1.4598    11.9988    99.4267 </r>
       <r>    -1.3964    13.8256   100.3028 </r>
       <r>    -1.3330    14.4133   101.2163 </r>
       <r>    -1.2697    12.1957   101.9892 </r>
       <r>    -1.2063     8.7164   102.5416 </r>
       <r>    -1.1429     6.7392   102.9687 </r>
       <r>    -1.0795     6.8968   103.4057 </r>
       <r>    -1.0162     8.4696   103.9425 </r>
       <r>    -0.9528     9.9273   104.5716 </r>
       <r>    -0.8894     9.2610   105.1585 </r>
       <r>    -0.8260     6.5425   105.5732 </r>
       <r>    -0.7627     4.3993   105.8520 </r>
       <r>    -0.6993     4.1214   106.1132 </r>
       <r>    -0.6359     4.7299   106.4129 </r>
       <r>    -0.5725     4.3378   106.6878 </r>
       <r>    -0.5092     2.6918   106.8584 </r>
       <r>    -0.4458     1.4803   106.9522 </r>
       <r>    -0.3824     1.4418   107.0436 </r>
       <r>    -0.3190     1.9209   107.1653 </r>
       <r>    -0.2557     2.6552   107.3336 </r>
       <r>    -0.1923     3.6523   107.5651 </r>
       <r>    -0.1289     3.7411   107.8021 </r>
       <r>    -0.0655     2.2812   107.9467 </r>
       <r>    -0.0022     0.8893   108.0031 </r>
       <r>     0.0612     0.8384   108.0562 </r>
       <r>     0.1246     1.7762   108.1688 </r>
       <r>     0.1880     2.6049   108.3339 </r>
       <r>     0.2513     2.4857   108.4914 </r>
       <r>     0.3147     1.6996   108.5991 </r>
       <r>     0.3781     1.6627   108.7045 </r>
       <r>     0.4415     2.8393   108.8844 </r>
       <r>     0.5048     3.6591   109.1163 </r>
       <r>     0.5682     3.2848   109.3245 </r>
       <r>     0.6316     2.3777   109.4752 </r>
       <r>     0.6949     2.0258   109.6035 </r>
       <r>     0.7583     3.2151   109.8073 </r>
       <r>     0.8217     4.9558   110.1214 </r>
       <r>     0.8851     5.2553   110.4544 </r>
       <r>     0.9484     4.2592   110.7243 </r>
       <r>     1.0118     3.5822   110.9514 </r>
       <r>     1.0752     4.1090   111.2118 </r>
       <r>     1.1386     5.6501   111.5698 </r>
       <r>     1.2019     7.0739   112.0181 </r>
       <r>     1.2653     8.2310   112.5398 </r>
       <r>     1.3287     9.6300   113.1501 </r>
       <r>     1.3921    10.8190   113.8357 </r>
       <r>     1.4554    11.1868   114.5447 </r>
       <r>     1.5188    10.8291   115.2310 </r>
       <r>     1.5822    10.7746   115.9138 </r>
       <r>     1.6456    11.6807   116.6540 </r>
       <r>     1.7089    12.6674   117.4568 </r>
       <r>     1.7723    12.8799   118.2731 </r>
       <r>     1.8357    13.1875   119.1088 </r>
       <r>     1.8991    13.3536   119.9551 </r>
       <r>     1.9624    12.4344   120.7431 </r>
       <r>     2.0258    11.5747   121.4767 </r>
       <r>     2.0892    12.5108   122.2695 </r>
       <r>     2.1526    14.6257   123.1964 </r>
       <r>     2.2159    15.9418   124.2067 </r>
       <r>     2.2793    16.5068   125.2528 </r>
       <r>     2.3427    16.8921   126.3234 </r>
       <r>     2.4061    16.4151   127.3637 </r>
       <r>     2.4694    14.9723   128.3125 </r>
       <r>     2.5328    13.8125   129.1879 </r>
       <r>     2.5962    13.3961   130.0368 </r>
       <r>     2.6596    13.4884   130.8917 </r>
       <r>     2.7229    13.6188   131.7547 </r>
       <r>     2.7863    13.1147   132.5859 </r>
       <r>     2.8497    11.4456   133.3112 </r>
       <r>     2.9130     9.3416   133.9032 </r>
       <r>     2.9764     8.0880   134.4158 </r>
       <r>     3.0398     7.4938   134.8907 </r>
       <r>     3.1032     6.5984   135.3089 </r>
       <r>     3.1665     5.1101   135.6327 </r>
       <r>     3.2299     3.3150   135.8428 </r>
       <r>     3.2933     1.7107   135.9512 </r>
       <r>     3.3567     0.6207   135.9906 </r>
       <r>     3.4200     0.1329   135.9990 </r>
       <r>     3.4834     0.0148   135.9999 </r>
       <r>     3.5468     0.0008   136.0000 </r>
       <r>     3.6102     0.0000   136.0000 </r>
       <r>     3.6735     0.0000   136.0000 </r>
       <r>     3.7369     0.0000   136.0000 </r>
       <r>     3.8003     0.0000   136.0000 </r>
       <r>     3.8637     0.0000   136.0000 </r>
       <r>     3.9270     0.0000   136.0000 </r>
       <r>     3.9904     0.0000   136.0000 </r>
       <r>     4.0538     0.0000   136.0000 </r>
       <r>     4.1172     0.0000   136.0000 </r>
       <r>     4.1805     0.0000   136.0000 </r>
       <r>     4.2439     0.0000   136.0000 </r>
      </set>
     </set>
    </array>
   </total>
  </dos>
 </calculation>
 <structure name="finalpos" >
  <crystal>
   <varray name="basis" >
    <v>       3.54040000       0.00000000       0.00000000 </v>
    <v>      -1.77020000      10.29434800       0.00000000 </v>
    <v>       0.00000000       0.00000000      27.50142900 </v>
   </varray>
   <i name="volume">   1002.32009712 </i>
   <varray name="rec_basis" >
    <v>       0.28245396       0.04857034       0.00000000 </v>
    <v>       0.00000000       0.09714068       0.00000000 </v>
    <v>       0.00000000       0.00000000       0.03636175 </v>
   </varray>
  </crystal>
  <varray name="positions" >
   <v>       0.11402300       0.22804500       0.23316207 </v>
   <v>       0.41402300       0.22804500       0.51499159 </v>
   <v>       0.45808900       0.91617900       0.20939482 </v>
   <v>       0.75808900       0.91617900       0.49122434 </v>
   <v>       0.31085400       0.62170900       0.08414979 </v>
   <v>       0.31085400       0.62170900       0.36597930 </v>
   <v>       0.99923000       0.99846000       0.08631254 </v>
   <v>       0.99923000       0.99846000       0.36814206 </v>
   <v>       0.65492700       0.30985400       0.06041748 </v>
   <v>       0.65492700       0.30985400       0.34224700 </v>
   <v>       0.76973800       0.53947500       0.20725292 </v>
   <v>       0.06973800       0.53947500       0.48908244 </v>
   <v>       0.93971600       0.87943300       0.15783749 </v>
   <v>       0.23971600       0.87943300       0.43966701 </v>
   <v>       0.20515200       0.41030300       0.18578822 </v>
   <v>       0.50515200       0.41030300       0.46761774 </v>
   <v>       0.20184900       0.40369900       0.09969156 </v>
   <v>       0.20184900       0.40369900       0.38152107 </v>
   <v>       0.56380500       0.12761000       0.10779021 </v>
   <v>       0.56380500       0.12761000       0.38961973 </v>
   <v>       0.56710600       0.13421200       0.19387616 </v>
   <v>       0.86710600       0.13421200       0.47570568 </v>
   <v>       0.82923400       0.65846800       0.13571444 </v>
   <v>       0.12923400       0.65846800       0.41754396 </v>
  </varray>
 </structure>
</modeling>
