  24  24   0   0
  0.4176334E+02  0.3540400E-09  0.1044544E-08  0.2750143E-08  0.5000000E-15
  1.000000000000000E-004
  CAR 
 unknown system                          
      4.10637693    -15.98061330  301      0.41518622      1.00000000
    -15.981  0.0000E+00  0.0000E+00
    -15.914  0.0000E+00  0.0000E+00
    -15.847  0.0000E+00  0.0000E+00
    -15.780  0.0000E+00  0.0000E+00
    -15.713  0.0000E+00  0.0000E+00
    -15.646  0.0000E+00  0.0000E+00
    -15.579  0.0000E+00  0.0000E+00
    -15.512  0.5870E-13  0.3931E-14
    -15.445  0.5342E-10  0.3581E-11
    -15.378  0.2029E-07  0.1362E-08
    -15.311  0.3241E-05  0.2184E-06
    -15.244  0.2209E-03  0.1501E-04
    -15.177  0.6559E-02  0.4542E-03
    -15.110  0.8751E-01  0.6313E-02
    -15.043  0.5441E+00  0.4275E-01
    -14.976  0.1632E+01  0.1520E+00
    -14.909  0.2448E+01  0.3159E+00
    -14.842  0.2170E+01  0.4611E+00
    -14.775  0.1922E+01  0.5898E+00
    -14.708  0.1688E+01  0.7029E+00
    -14.641  0.9283E+00  0.7650E+00
    -14.575  0.8187E+00  0.8199E+00
    -14.508  0.1515E+01  0.9213E+00
    -14.441  0.1518E+01  0.1023E+01
    -14.374  0.6799E+00  0.1068E+01
    -14.307  0.2656E+00  0.1086E+01
    -14.240  0.7115E+00  0.1134E+01
    -14.173  0.1541E+01  0.1237E+01
    -14.106  0.1473E+01  0.1336E+01
    -14.039  0.6181E+00  0.1377E+01
    -13.972  0.1959E+00  0.1390E+01
    -13.905  0.5350E+00  0.1426E+01
    -13.838  0.1414E+01  0.1521E+01
    -13.771  0.1790E+01  0.1641E+01
    -13.704  0.1642E+01  0.1750E+01
    -13.637  0.2401E+01  0.1911E+01
    -13.570  0.3562E+01  0.2150E+01
    -13.503  0.3447E+01  0.2381E+01
    -13.436  0.2475E+01  0.2546E+01
    -13.369  0.1838E+01  0.2669E+01
    -13.302  0.1539E+01  0.2772E+01
    -13.235  0.1457E+01  0.2870E+01
    -13.168  0.1927E+01  0.2999E+01
    -13.101  0.2750E+01  0.3183E+01
    -13.035  0.3095E+01  0.3390E+01
    -12.968  0.3009E+01  0.3592E+01
    -12.901  0.3350E+01  0.3816E+01
    -12.834  0.3953E+01  0.4081E+01
    -12.767  0.4446E+01  0.4378E+01
    -12.700  0.5300E+01  0.4733E+01
    -12.633  0.5696E+01  0.5115E+01
    -12.566  0.4655E+01  0.5426E+01
    -12.499  0.3617E+01  0.5669E+01
    -12.432  0.4237E+01  0.5952E+01
    -12.365  0.5373E+01  0.6312E+01
    -12.298  0.5670E+01  0.6692E+01
    -12.231  0.5768E+01  0.7078E+01
    -12.164  0.6262E+01  0.7497E+01
    -12.097  0.6392E+01  0.7925E+01
    -12.030  0.5646E+01  0.8303E+01
    -11.963  0.4733E+01  0.8620E+01
    -11.896  0.4496E+01  0.8921E+01
    -11.829  0.5381E+01  0.9281E+01
    -11.762  0.5869E+01  0.9674E+01
    -11.695  0.6044E+01  0.1008E+02
    -11.628  0.7399E+01  0.1057E+02
    -11.561  0.9164E+01  0.1119E+02
    -11.495  0.9827E+01  0.1185E+02
    -11.428  0.9467E+01  0.1248E+02
    -11.361  0.8144E+01  0.1303E+02
    -11.294  0.6366E+01  0.1345E+02
    -11.227  0.7715E+01  0.1397E+02
    -11.160  0.1245E+02  0.1480E+02
    -11.093  0.1438E+02  0.1576E+02
    -11.026  0.1256E+02  0.1661E+02
    -10.959  0.1150E+02  0.1738E+02
    -10.892  0.1035E+02  0.1807E+02
    -10.825  0.9608E+01  0.1871E+02
    -10.758  0.1017E+02  0.1939E+02
    -10.691  0.9258E+01  0.2001E+02
    -10.624  0.7323E+01  0.2050E+02
    -10.557  0.5786E+01  0.2089E+02
    -10.490  0.3980E+01  0.2116E+02
    -10.423  0.2328E+01  0.2131E+02
    -10.356  0.1599E+01  0.2142E+02
    -10.289  0.2102E+01  0.2156E+02
    -10.222  0.3018E+01  0.2176E+02
    -10.155  0.3600E+01  0.2200E+02
    -10.088  0.4451E+01  0.2230E+02
    -10.021  0.5510E+01  0.2267E+02
     -9.955  0.5926E+01  0.2307E+02
     -9.888  0.5354E+01  0.2343E+02
     -9.821  0.4160E+01  0.2370E+02
     -9.754  0.2759E+01  0.2389E+02
     -9.687  0.1287E+01  0.2398E+02
     -9.620  0.3295E+00  0.2400E+02
     -9.553  0.4015E-01  0.2400E+02
     -9.486  0.2188E-02  0.2400E+02
     -9.419  0.1024E-03  0.2400E+02
     -9.352  0.1982E-02  0.2400E+02
     -9.285  0.3395E-01  0.2400E+02
     -9.218  0.2613E+00  0.2402E+02
     -9.151  0.9420E+00  0.2408E+02
     -9.084  0.1753E+01  0.2420E+02
     -9.017  0.2361E+01  0.2436E+02
     -8.950  0.3824E+01  0.2461E+02
     -8.883  0.5845E+01  0.2501E+02
     -8.816  0.6376E+01  0.2543E+02
     -8.749  0.6005E+01  0.2583E+02
     -8.682  0.6645E+01  0.2628E+02
     -8.615  0.8037E+01  0.2682E+02
     -8.548  0.8309E+01  0.2737E+02
     -8.481  0.7736E+01  0.2789E+02
     -8.415  0.7811E+01  0.2842E+02
     -8.348  0.7236E+01  0.2890E+02
     -8.281  0.5334E+01  0.2926E+02
     -8.214  0.3878E+01  0.2952E+02
     -8.147  0.3239E+01  0.2973E+02
     -8.080  0.2735E+01  0.2992E+02
     -8.013  0.2473E+01  0.3008E+02
     -7.946  0.3100E+01  0.3029E+02
     -7.879  0.3717E+01  0.3054E+02
     -7.812  0.4068E+01  0.3081E+02
     -7.745  0.5053E+01  0.3115E+02
     -7.678  0.6544E+01  0.3159E+02
     -7.611  0.7796E+01  0.3211E+02
     -7.544  0.8284E+01  0.3266E+02
     -7.477  0.7720E+01  0.3318E+02
     -7.410  0.6681E+01  0.3363E+02
     -7.343  0.6314E+01  0.3405E+02
     -7.276  0.7497E+01  0.3455E+02
     -7.209  0.9360E+01  0.3518E+02
     -7.142  0.9209E+01  0.3580E+02
     -7.075  0.7251E+01  0.3628E+02
     -7.008  0.7715E+01  0.3680E+02
     -6.941  0.1125E+02  0.3755E+02
     -6.875  0.1409E+02  0.3850E+02
     -6.808  0.1413E+02  0.3944E+02
     -6.741  0.1099E+02  0.4018E+02
     -6.674  0.7479E+01  0.4068E+02
     -6.607  0.6030E+01  0.4108E+02
     -6.540  0.5353E+01  0.4144E+02
     -6.473  0.4841E+01  0.4176E+02
     -6.406  0.4330E+01  0.4205E+02
     -6.339  0.3707E+01  0.4230E+02
     -6.272  0.3231E+01  0.4252E+02
     -6.205  0.2699E+01  0.4270E+02
     -6.138  0.3120E+01  0.4291E+02
     -6.071  0.4509E+01  0.4321E+02
     -6.004  0.5215E+01  0.4356E+02
     -5.937  0.5744E+01  0.4394E+02
     -5.870  0.6964E+01  0.4441E+02
     -5.803  0.6905E+01  0.4487E+02
     -5.736  0.4757E+01  0.4519E+02
     -5.669  0.2259E+01  0.4534E+02
     -5.602  0.1232E+01  0.4543E+02
     -5.535  0.2206E+01  0.4557E+02
     -5.468  0.3961E+01  0.4584E+02
     -5.401  0.5254E+01  0.4619E+02
     -5.335  0.6746E+01  0.4664E+02
     -5.268  0.8805E+01  0.4723E+02
     -5.201  0.1002E+02  0.4790E+02
     -5.134  0.9037E+01  0.4851E+02
     -5.067  0.8122E+01  0.4905E+02
     -5.000  0.8462E+01  0.4962E+02
     -4.933  0.9176E+01  0.5023E+02
     -4.866  0.1045E+02  0.5093E+02
     -4.799  0.1126E+02  0.5168E+02
     -4.732  0.1017E+02  0.5237E+02
     -4.665  0.8321E+01  0.5292E+02
     -4.598  0.7184E+01  0.5340E+02
     -4.531  0.7675E+01  0.5392E+02
     -4.464  0.9992E+01  0.5459E+02
     -4.397  0.1169E+02  0.5537E+02
     -4.330  0.1171E+02  0.5615E+02
     -4.263  0.1213E+02  0.5697E+02
     -4.196  0.1316E+02  0.5785E+02
     -4.129  0.1341E+02  0.5875E+02
     -4.062  0.1177E+02  0.5953E+02
     -3.995  0.1009E+02  0.6021E+02
     -3.928  0.1158E+02  0.6098E+02
     -3.861  0.1356E+02  0.6189E+02
     -3.795  0.1273E+02  0.6274E+02
     -3.728  0.1064E+02  0.6346E+02
     -3.661  0.9880E+01  0.6412E+02
     -3.594  0.1128E+02  0.6487E+02
     -3.527  0.1379E+02  0.6580E+02
     -3.460  0.1580E+02  0.6685E+02
     -3.393  0.1641E+02  0.6795E+02
     -3.326  0.1604E+02  0.6903E+02
     -3.259  0.1596E+02  0.7010E+02
     -3.192  0.1682E+02  0.7122E+02
     -3.125  0.1731E+02  0.7238E+02
     -3.058  0.1608E+02  0.7346E+02
     -2.991  0.1362E+02  0.7437E+02
     -2.924  0.1270E+02  0.7522E+02
     -2.857  0.1458E+02  0.7620E+02
     -2.790  0.1683E+02  0.7732E+02
     -2.723  0.1803E+02  0.7853E+02
     -2.656  0.1814E+02  0.7974E+02
     -2.589  0.1759E+02  0.8092E+02
     -2.522  0.1660E+02  0.8203E+02
     -2.455  0.1469E+02  0.8302E+02
     -2.388  0.1325E+02  0.8390E+02
     -2.321  0.1489E+02  0.8490E+02
     -2.255  0.1846E+02  0.8614E+02
     -2.188  0.2022E+02  0.8749E+02
     -2.121  0.1980E+02  0.8882E+02
     -2.054  0.1999E+02  0.9016E+02
     -1.987  0.2019E+02  0.9151E+02
     -1.920  0.1882E+02  0.9277E+02
     -1.853  0.1660E+02  0.9388E+02
     -1.786  0.1337E+02  0.9478E+02
     -1.719  0.1032E+02  0.9547E+02
     -1.652  0.1016E+02  0.9615E+02
     -1.585  0.1084E+02  0.9687E+02
     -1.518  0.9173E+01  0.9749E+02
     -1.451  0.7109E+01  0.9796E+02
     -1.384  0.6793E+01  0.9842E+02
     -1.317  0.7780E+01  0.9894E+02
     -1.250  0.8223E+01  0.9949E+02
     -1.183  0.7220E+01  0.9997E+02
     -1.116  0.6896E+01  0.1004E+03
     -1.049  0.7703E+01  0.1010E+03
     -0.982  0.7759E+01  0.1015E+03
     -0.915  0.7845E+01  0.1020E+03
     -0.848  0.8302E+01  0.1026E+03
     -0.781  0.6670E+01  0.1030E+03
     -0.715  0.3871E+01  0.1033E+03
     -0.648  0.3461E+01  0.1035E+03
     -0.581  0.4014E+01  0.1038E+03
     -0.514  0.2678E+01  0.1039E+03
     -0.447  0.1098E+01  0.1040E+03
     -0.380  0.1360E+01  0.1041E+03
     -0.313  0.2991E+01  0.1043E+03
     -0.246  0.4204E+01  0.1046E+03
     -0.179  0.4463E+01  0.1049E+03
     -0.112  0.3904E+01  0.1051E+03
     -0.045  0.3645E+01  0.1054E+03
      0.022  0.5268E+01  0.1057E+03
      0.089  0.6868E+01  0.1062E+03
      0.156  0.6002E+01  0.1066E+03
      0.223  0.3935E+01  0.1069E+03
      0.290  0.3981E+01  0.1071E+03
      0.357  0.6234E+01  0.1075E+03
      0.424  0.7712E+01  0.1081E+03
      0.491  0.6381E+01  0.1085E+03
      0.558  0.3985E+01  0.1088E+03
      0.625  0.4218E+01  0.1090E+03
      0.692  0.6909E+01  0.1095E+03
      0.759  0.7912E+01  0.1100E+03
      0.826  0.7113E+01  0.1105E+03
      0.892  0.6626E+01  0.1110E+03
      0.959  0.6781E+01  0.1114E+03
      1.026  0.7713E+01  0.1119E+03
      1.093  0.1008E+02  0.1126E+03
      1.160  0.1245E+02  0.1134E+03
      1.227  0.1234E+02  0.1143E+03
      1.294  0.1080E+02  0.1150E+03
      1.361  0.1006E+02  0.1157E+03
      1.428  0.1025E+02  0.1163E+03
      1.495  0.1026E+02  0.1170E+03
      1.562  0.9983E+01  0.1177E+03
      1.629  0.1002E+02  0.1184E+03
      1.696  0.1073E+02  0.1191E+03
      1.763  0.1199E+02  0.1199E+03
      1.830  0.1279E+02  0.1207E+03
      1.897  0.1354E+02  0.1217E+03
      1.964  0.1463E+02  0.1226E+03
      2.031  0.1581E+02  0.1237E+03
      2.098  0.1711E+02  0.1248E+03
      2.165  0.1803E+02  0.1260E+03
      2.232  0.1764E+02  0.1272E+03
      2.299  0.1539E+02  0.1283E+03
      2.366  0.1299E+02  0.1291E+03
      2.432  0.1224E+02  0.1299E+03
      2.499  0.1281E+02  0.1308E+03
      2.566  0.1398E+02  0.1317E+03
      2.633  0.1351E+02  0.1326E+03
      2.700  0.1043E+02  0.1333E+03
      2.767  0.8109E+01  0.1339E+03
      2.834  0.7934E+01  0.1344E+03
      2.901  0.8000E+01  0.1349E+03
      2.968  0.6943E+01  0.1354E+03
      3.035  0.4706E+01  0.1357E+03
      3.102  0.2489E+01  0.1359E+03
      3.169  0.1120E+01  0.1360E+03
      3.236  0.3626E+00  0.1360E+03
      3.303  0.6264E-01  0.1360E+03
      3.370  0.4959E-02  0.1360E+03
      3.437  0.1707E-03  0.1360E+03
      3.504  0.2504E-05  0.1360E+03
      3.571  0.1548E-07  0.1360E+03
      3.638  0.4007E-10  0.1360E+03
      3.705  0.4317E-13  0.1360E+03
      3.772  0.0000E+00  0.1360E+03
      3.839  0.0000E+00  0.1360E+03
      3.906  0.0000E+00  0.1360E+03
      3.972  0.0000E+00  0.1360E+03
      4.039  0.0000E+00  0.1360E+03
      4.106  0.0000E+00  0.1360E+03
