       N       E                     dE             d eps       ncg     rms          rms(c)
DAV:   1     0.493102493895E+03    0.49310E+03   -0.28685E+04  7352   0.790E+02
DAV:   2    -0.671145490855E+02   -0.56022E+03   -0.54554E+03  9748   0.190E+02
DAV:   3    -0.122902885599E+03   -0.55788E+02   -0.54911E+02  8860   0.620E+01
DAV:   4    -0.125436161632E+03   -0.25333E+01   -0.25124E+01 11032   0.140E+01
DAV:   5    -0.125496302173E+03   -0.60141E-01   -0.60037E-01 10024   0.210E+00    0.994E+00
DAV:   6    -0.123194718175E+03    0.23016E+01   -0.85493E+00  8680   0.699E+00    0.554E+00
DAV:   7    -0.123005771738E+03    0.18895E+00   -0.47750E+00  9208   0.605E+00    0.269E+00
DAV:   8    -0.122930345110E+03    0.75427E-01   -0.17216E+00  8952   0.371E+00    0.110E+00
DAV:   9    -0.122925027388E+03    0.53177E-02   -0.23311E-01  8680   0.145E+00    0.546E-01
DAV:  10    -0.122900800628E+03    0.24227E-01   -0.44605E-02  9072   0.659E-01    0.197E-01
DAV:  11    -0.122892160012E+03    0.86406E-02   -0.13517E-02  9152   0.348E-01    0.878E-02
DAV:  12    -0.122887713698E+03    0.44463E-02   -0.20424E-03  9048   0.143E-01    0.486E-02
DAV:  13    -0.122882975565E+03    0.47381E-02   -0.50284E-04  9472   0.869E-02    0.243E-02
DAV:  14    -0.122880564834E+03    0.24107E-02   -0.25770E-04  9312   0.537E-02    0.138E-02
DAV:  15    -0.122880089121E+03    0.47571E-03   -0.93412E-05  9112   0.365E-02    0.784E-03
DAV:  16    -0.122880394009E+03   -0.30489E-03   -0.78521E-05  8184   0.246E-02    0.470E-03
DAV:  17    -0.122880837759E+03   -0.44375E-03   -0.10672E-04  8408   0.214E-02    0.274E-03
DAV:  18    -0.122881063568E+03   -0.22581E-03   -0.71373E-05  7712   0.158E-02    0.165E-03
DAV:  19    -0.122881078845E+03   -0.15277E-04   -0.30484E-05  7132   0.118E-02    0.104E-03
DAV:  20    -0.122881055497E+03    0.23348E-04   -0.17879E-05  6780   0.934E-03    0.698E-04
DAV:  21    -0.122881047024E+03    0.84723E-05   -0.85135E-06  6380   0.776E-03    0.474E-04
DAV:  22    -0.122881029209E+03    0.17815E-04   -0.71552E-06  6032   0.771E-03    0.272E-04
DAV:  23    -0.122881001454E+03    0.27755E-04   -0.32373E-06  6100   0.577E-03    0.170E-04
DAV:  24    -0.122880969264E+03    0.32190E-04   -0.47193E-06  6484   0.644E-03    0.937E-05
DAV:  25    -0.122880949074E+03    0.20190E-04   -0.23893E-06  6296   0.553E-03    0.460E-05
DAV:  26    -0.122880938198E+03    0.10876E-04   -0.23228E-06  6176   0.550E-03    0.225E-05
DAV:  27    -0.122880941521E+03   -0.33236E-05   -0.13227E-06  5672   0.436E-03    0.139E-05
DAV:  28    -0.122880944075E+03   -0.25539E-05   -0.12194E-06  5960   0.436E-03    0.682E-06
DAV:  29    -0.122880944644E+03   -0.56839E-06   -0.10470E-06  5704   0.393E-03
   1 F= -.12288094E+03 E0= -.12286177E+03  d E =-.383567E-01
