 vasp.5.3.5 31Mar14 (build Oct 29 2014 16:16:03) complex                        
  
 executed on          Linux-UFHPC date 2016.02.09  18:53:31
 running on    8 total cores
 distrk:  each k-point on    8 cores,    1 groups
 distr:  one band on NCORES_PER_BAND=   2 cores,    4 groups


--------------------------------------------------------------------------------------------------------


 INCAR:
 POTCAR:    PAW_PBE P 17Jan2003                   
 POTCAR:   PAW_PBE Si 05Jan2001                   

 ----------------------------------------------------------------------------- 
|                                                                             |
|  ADVICE TO THIS USER RUNNING 'VASP/VAMP'   (HEAR YOUR MASTER'S VOICE ...):  |
|                                                                             |
|      You have switched on vdW-DFT.                                          |
|      This routine was written and supplied by Jiri Klimes.                  |
|      We recommed that you carefully read and cite the following             |
|      publication                                                            |
|      J. Klimes, D.R. Bowler, A. Michelides                                  |
|        J. Phys.: Cond Matt. 22 022201 (2010)                                |
|      J. Klimes, D.R. Bowler, A. Michelides                                  |
|        Phys. Rev. B. 83, 195131 (2011)                                      |
|      and references therein.                                                |
|                                                                             |
 ----------------------------------------------------------------------------- 

 POTCAR:    PAW_PBE P 17Jan2003                   
   VRHFIN =P : s2p3                                                             
   LEXCH  = PE                                                                  
   EATOM  =   176.0430 eV,   12.9388 Ry                                         
                                                                                
   TITEL  = PAW_PBE P 17Jan2003                                                 
   LULTRA =        F    use ultrasoft PP ?                                      
   IUNSCR =        1    unscreen: 0-lin 1-nonlin 2-no                           
   RPACOR =    1.500    partial core radius                                     
   POMASS =   30.974; ZVAL   =    5.000    mass and valenz                      
   RCORE  =    1.900    outmost cutoff radius                                   
   RWIGS  =    2.330; RWIGS  =    1.233    wigner-seitz radius (au A)           
   ENMAX  =  270.000; ENMIN  =  191.280 eV                                      
   ICORE  =        2    local potential                                         
   LCOR   =        T    correct aug charges                                     
   LPAW   =        T    paw PP                                                  
   EAUG   =  342.924                                                            
   DEXC   =    -.002                                                            
   RMAX   =    2.887    core radius for proj-oper                               
   RAUG   =    1.300    factor for augmentation sphere                          
   RDEP   =    1.931    radius for radial grids                                 
   QCUT   =   -4.330; QGAM   =    8.659    optimization parameters              
                                                                                
   Description                                                                  
     l     E      TYP  RCUT    TYP  RCUT                                        
     0   .000     23  1.900                                                     
     0   .000     23  1.900                                                     
     1   .000     23  1.900                                                     
     1   .000     23  1.900                                                     
     2   .000     23  1.900                                                     
  local pseudopotential read in
  partial core-charges read in
  atomic valenz-charges read in
  non local Contribution for L=           0  read in
    real space projection operators read in
  non local Contribution for L=           0  read in
    real space projection operators read in
  non local Contribution for L=           1  read in
    real space projection operators read in
  non local Contribution for L=           1  read in
    real space projection operators read in
    PAW grid and wavefunctions read in
 
   number of l-projection  operators is LMAX  =           4
   number of lm-projection operators is LMMAX =           8
 
 POTCAR:   PAW_PBE Si 05Jan2001                   
   VRHFIN =Si: s2p2                                                             
   LEXCH  = PE                                                                  
   EATOM  =   103.0669 eV,    7.5752 Ry                                         
                                                                                
   TITEL  = PAW_PBE Si 05Jan2001                                                
   LULTRA =        F    use ultrasoft PP ?                                      
   IUNSCR =        1    unscreen: 0-lin 1-nonlin 2-no                           
   RPACOR =    1.500    partial core radius                                     
   POMASS =   28.085; ZVAL   =    4.000    mass and valenz                      
   RCORE  =    1.900    outmost cutoff radius                                   
   RWIGS  =    2.480; RWIGS  =    1.312    wigner-seitz radius (au A)           
   ENMAX  =  245.345; ENMIN  =  184.009 eV                                      
   ICORE  =        2    local potential                                         
   LCOR   =        T    correct aug charges                                     
   LPAW   =        T    paw PP                                                  
   EAUG   =  322.069                                                            
   DEXC   =    -.007                                                            
   RMAX   =    2.944    core radius for proj-oper                               
   RAUG   =    1.300    factor for augmentation sphere                          
   RDEP   =    1.993    radius for radial grids                                 
   QCUT   =   -4.246; QGAM   =    8.493    optimization parameters              
                                                                                
   Description                                                                  
     l     E      TYP  RCUT    TYP  RCUT                                        
     0   .000     23  1.900                                                     
     0   .000     23  1.900                                                     
     1   .000     23  1.900                                                     
     1   .000     23  1.900                                                     
     2   .000      7  1.900                                                     
  local pseudopotential read in
  partial core-charges read in
  atomic valenz-charges read in
  non local Contribution for L=           0  read in
    real space projection operators read in
  non local Contribution for L=           0  read in
    real space projection operators read in
  non local Contribution for L=           1  read in
    real space projection operators read in
  non local Contribution for L=           1  read in
    real space projection operators read in
    PAW grid and wavefunctions read in
 
   number of l-projection  operators is LMAX  =           4
   number of lm-projection operators is LMMAX =           8
 
 Optimization of the real space projectors (new method)

 maximal supplied QI-value         = 19.84
 optimisation between [QCUT,QGAM] = [  8.73, 17.66] = [ 21.34, 87.33] Ry 
 Optimized for a Real-space Cutoff    1.50 Angstroem

   l    n(q)    QCUT    max X(q) W(low)/X(q) W(high)/X(q)  e(spline) 
   0      8     8.731     6.651    0.16E-04    0.15E-04    0.77E-08
   0      8     8.731    90.285    0.16E-03    0.90E-04    0.16E-06
   1      7     8.731     4.328    0.47E-04    0.36E-04    0.45E-07
   1      7     8.731    54.583    0.13E-03    0.39E-03    0.20E-06
 Optimization of the real space projectors (new method)

 maximal supplied QI-value         = 19.84
 optimisation between [QCUT,QGAM] = [  8.73, 17.66] = [ 21.34, 87.33] Ry 
 Optimized for a Real-space Cutoff    1.46 Angstroem

   l    n(q)    QCUT    max X(q) W(low)/X(q) W(high)/X(q)  e(spline) 
   0      8     8.731     8.708    0.16E-04    0.11E-04    0.68E-08
   0      8     8.731   106.241    0.24E-03    0.77E-04    0.13E-06
   1      7     8.731     5.901    0.34E-04    0.38E-04    0.36E-07
   1      7     8.731    73.241    0.12E-03    0.39E-03    0.15E-06

 ----------------------------------------------------------------------------- 
|                                                                             |
|  ADVICE TO THIS USER RUNNING 'VASP/VAMP'   (HEAR YOUR MASTER'S VOICE ...):  |
|                                                                             |
|      You enforced a specific xc-type in the INCAR file,                     |
|      a different type was found on the POTCAR file                          |
|          I HOPE YOU KNOW, WHAT YOU ARE  DOING                               |
|                                                                             |
 ----------------------------------------------------------------------------- 

  PAW_PBE P 17Jan2003                   :
 energy of atom  1       EATOM= -176.0430
 kinetic energy error for atom=    0.0040 (will be added to EATOM!!)
 PAW_PBE Si 05Jan2001                   :
 energy of atom  2       EATOM= -103.0669
 kinetic energy error for atom=    0.0021 (will be added to EATOM!!)
 
 
 POSCAR: Si12                                    
  positions in direct lattice
  No initial velocities read in
 exchange correlation table for  LEXCH =       42
   RHO(1)=    0.500       N(1)  =     2000
   RHO(2)=  100.500       N(2)  =     4000
 


--------------------------------------------------------------------------------------------------------


 ion  position               nearest neighbor table
   1  0.114  0.228  0.233-  15 2.28  21 2.29  21 2.29
   2  0.014  0.928  0.515-  16 2.28  22 2.29  22 2.29
   3  0.458  0.916  0.209-  21 2.28  13 2.30  13 2.30
   4  0.358  0.616  0.491-  22 2.28  14 2.30  14 2.30
   5  0.311  0.622  0.084-  17 2.28  23 2.30  23 2.30
   6  0.311  0.622  0.366-  18 2.28  14 2.61  14 2.84
   7  0.999  0.998  0.086-  19 2.29  19 2.29  13 2.32
   8  0.999  0.998  0.368-  20 2.29  20 2.29  16 2.97
   9  0.655  0.310  0.060-  19 2.28  17 2.29  17 2.29
  10  0.655  0.310  0.342-  24 2.14  20 2.28  18 2.29  18 2.29
  11  0.770  0.539  0.207-  15 2.29  15 2.29  23 2.32
  12  0.670  0.239  0.489-  16 2.29  16 2.29  24 2.32  20 2.97
  13  0.940  0.879  0.158-   3 2.30   3 2.30   7 2.32  23 2.35
  14  0.840  0.579  0.440-   4 2.30   4 2.30  24 2.35   6 2.61   6 2.84  18 2.89  18 3.10
  15  0.205  0.410  0.186-   1 2.28  11 2.29  11 2.29  17 2.37
  16  0.105  0.110  0.468-   2 2.28  12 2.29  12 2.29  20 2.68  20 2.90   8 2.97
  17  0.202  0.404  0.100-   5 2.28   9 2.29   9 2.29  15 2.37
  18  0.202  0.404  0.382-  24 1.93  24 2.23   6 2.28  10 2.29  10 2.29  14 2.89  14 3.10
  19  0.564  0.128  0.108-   9 2.28   7 2.29   7 2.29  21 2.37
  20  0.564  0.128  0.390-  10 2.28   8 2.29   8 2.29  24 2.50  16 2.68  16 2.90  12 2.97
  21  0.567  0.134  0.194-   3 2.28   1 2.29   1 2.29  19 2.37
  22  0.467  0.834  0.476-   4 2.28   2 2.29   2 2.29
  23  0.829  0.658  0.136-   5 2.30   5 2.30  11 2.32  13 2.35
  24  0.729  0.358  0.418-  18 1.93  10 2.14  18 2.23  12 2.32  14 2.35  20 2.50
 
  LATTYP: Found a base centered orthorhombic cell.
 ALAT       =     3.5404000000
 B/A-ratio  =     5.8153587165
 C/A-ratio  =     7.7678875268
  
  Lattice vectors:
  
 A1 = (   1.7702000000,  10.2943480000,   0.0000000000)
 A2 = (   1.7702000000, -10.2943480000,   0.0000000000)
 A3 = (   0.0000000000,   0.0000000000, -27.5014290000)


Analysis of symmetry for initial positions (statically):
=====================================================================
 Subroutine PRICEL returns:
 Original cell was already a primitive cell.
 

 Routine SETGRP: Setting up the symmetry group for a 
 base centered orthorhombic supercell.


 Subroutine GETGRP returns: Found  1 space group operations
 (whereof  1 operations were pure point group operations)
 out of a pool of  8 trial point group operations.


The static configuration has the point symmetry C_1 .


Analysis of symmetry for dynamics (positions and initial velocities):
=====================================================================
 Subroutine PRICEL returns:
 Original cell was already a primitive cell.
 

 Routine SETGRP: Setting up the symmetry group for a 
 base centered orthorhombic supercell.


 Subroutine GETGRP returns: Found  1 space group operations
 (whereof  1 operations were pure point group operations)
 out of a pool of  8 trial point group operations.


The dynamic configuration has the point symmetry C_1 .
 
 
 KPOINTS: pymatgen generated KPOINTS with grid den

Automatic generation of k-mesh.
Space group operators:
 irot       det(A)        alpha          n_x          n_y          n_z        tau_x        tau_y        tau_z
    1     1.000000     0.000000     1.000000     0.000000     0.000000     0.000000     0.000000     0.000000
 
 Subroutine IBZKPT returns following result:
 ===========================================
 
 Found     54 irreducible k-points:
 
 Following reciprocal coordinates:
            Coordinates               Weight
  0.000000  0.000000  0.000000      1.000000
  0.076923 -0.000000  0.000000      2.000000
  0.153846 -0.000000  0.000000      2.000000
  0.230769 -0.000000  0.000000      2.000000
  0.307692 -0.000000  0.000000      2.000000
  0.384615 -0.000000  0.000000      2.000000
  0.461538 -0.000000  0.000000      2.000000
  0.000000  0.250000  0.000000      2.000000
  0.076923  0.250000  0.000000      2.000000
  0.153846  0.250000  0.000000      2.000000
  0.230769  0.250000  0.000000      2.000000
  0.307692  0.250000  0.000000      2.000000
  0.384615  0.250000  0.000000      2.000000
  0.461538  0.250000  0.000000      2.000000
 -0.461538  0.250000  0.000000      2.000000
 -0.384615  0.250000  0.000000      2.000000
 -0.307692  0.250000  0.000000      2.000000
 -0.230769  0.250000  0.000000      2.000000
 -0.153846  0.250000  0.000000      2.000000
 -0.076923  0.250000  0.000000      2.000000
  0.000000  0.500000  0.000000      1.000000
  0.076923  0.500000  0.000000      2.000000
  0.153846  0.500000  0.000000      2.000000
  0.230769  0.500000  0.000000      2.000000
  0.307692  0.500000  0.000000      2.000000
  0.384615  0.500000  0.000000      2.000000
  0.461538  0.500000  0.000000      2.000000
  0.000000  0.000000  0.500000      1.000000
  0.076923 -0.000000  0.500000      2.000000
  0.153846 -0.000000  0.500000      2.000000
  0.230769 -0.000000  0.500000      2.000000
  0.307692 -0.000000  0.500000      2.000000
  0.384615 -0.000000  0.500000      2.000000
  0.461538 -0.000000  0.500000      2.000000
  0.000000  0.250000  0.500000      2.000000
  0.076923  0.250000  0.500000      2.000000
  0.153846  0.250000  0.500000      2.000000
  0.230769  0.250000  0.500000      2.000000
  0.307692  0.250000  0.500000      2.000000
  0.384615  0.250000  0.500000      2.000000
  0.461538  0.250000  0.500000      2.000000
 -0.461538  0.250000  0.500000      2.000000
 -0.384615  0.250000  0.500000      2.000000
 -0.307692  0.250000  0.500000      2.000000
 -0.230769  0.250000  0.500000      2.000000
 -0.153846  0.250000  0.500000      2.000000
 -0.076923  0.250000  0.500000      2.000000
  0.000000  0.500000  0.500000      1.000000
  0.076923  0.500000  0.500000      2.000000
  0.153846  0.500000  0.500000      2.000000
  0.230769  0.500000  0.500000      2.000000
  0.307692  0.500000  0.500000      2.000000
  0.384615  0.500000  0.500000      2.000000
  0.461538  0.500000  0.500000      2.000000
 
 Following cartesian coordinates:
            Coordinates               Weight
  0.000000  0.000000  0.000000      1.000000
  0.021727  0.003736  0.000000      2.000000
  0.043454  0.007472  0.000000      2.000000
  0.065182  0.011209  0.000000      2.000000
  0.086909  0.014945  0.000000      2.000000
  0.108636  0.018681  0.000000      2.000000
  0.130363  0.022417  0.000000      2.000000
  0.000000  0.024285  0.000000      2.000000
  0.021727  0.028021  0.000000      2.000000
  0.043454  0.031758  0.000000      2.000000
  0.065182  0.035494  0.000000      2.000000
  0.086909  0.039230  0.000000      2.000000
  0.108636  0.042966  0.000000      2.000000
  0.130363  0.046702  0.000000      2.000000
 -0.130363  0.001868  0.000000      2.000000
 -0.108636  0.005604  0.000000      2.000000
 -0.086909  0.009340  0.000000      2.000000
 -0.065182  0.013077  0.000000      2.000000
 -0.043454  0.016813  0.000000      2.000000
 -0.021727  0.020549  0.000000      2.000000
  0.000000  0.048570  0.000000      1.000000
  0.021727  0.052307  0.000000      2.000000
  0.043454  0.056043  0.000000      2.000000
  0.065182  0.059779  0.000000      2.000000
  0.086909  0.063515  0.000000      2.000000
  0.108636  0.067251  0.000000      2.000000
  0.130363  0.070987  0.000000      2.000000
  0.000000  0.000000  0.018181      1.000000
  0.021727  0.003736  0.018181      2.000000
  0.043454  0.007472  0.018181      2.000000
  0.065182  0.011209  0.018181      2.000000
  0.086909  0.014945  0.018181      2.000000
  0.108636  0.018681  0.018181      2.000000
  0.130363  0.022417  0.018181      2.000000
  0.000000  0.024285  0.018181      2.000000
  0.021727  0.028021  0.018181      2.000000
  0.043454  0.031758  0.018181      2.000000
  0.065182  0.035494  0.018181      2.000000
  0.086909  0.039230  0.018181      2.000000
  0.108636  0.042966  0.018181      2.000000
  0.130363  0.046702  0.018181      2.000000
 -0.130363  0.001868  0.018181      2.000000
 -0.108636  0.005604  0.018181      2.000000
 -0.086909  0.009340  0.018181      2.000000
 -0.065182  0.013077  0.018181      2.000000
 -0.043454  0.016813  0.018181      2.000000
 -0.021727  0.020549  0.018181      2.000000
  0.000000  0.048570  0.018181      1.000000
  0.021727  0.052307  0.018181      2.000000
  0.043454  0.056043  0.018181      2.000000
  0.065182  0.059779  0.018181      2.000000
  0.086909  0.063515  0.018181      2.000000
  0.108636  0.067251  0.018181      2.000000
  0.130363  0.070987  0.018181      2.000000
 


--------------------------------------------------------------------------------------------------------




 Dimension of arrays:
   k-points           NKPTS =     54   k-points in BZ     NKDIM =     54   number of bands    NBANDS=     68
   number of dos      NEDOS =    301   number of ions     NIONS =     24
   non local maximal  LDIM  =      4   non local SUM 2l+1 LMDIM =      8
   total plane-waves  NPLWV = 192000
   max r-space proj   IRMAX =   2772   max aug-charges    IRDMAX=   6603
   dimension x,y,z NGX =    20 NGY =   60 NGZ =  160
   dimension x,y,z NGXF=    40 NGYF=  120 NGZF=  320
   support grid    NGXF=    40 NGYF=  120 NGZF=  320
   ions per type =              12  12
 NGX,Y,Z   is equivalent  to a cutoff of   9.39,  9.55,  9.67 a.u.
 NGXF,Y,Z  is equivalent  to a cutoff of  18.78, 19.10, 19.34 a.u.


 I would recommend the setting:
   dimension x,y,z NGX =    20 NGY =   59 NGZ =  155
 SYSTEM =  unknown system                          
 POSCAR =  Si12                                    

 Startparameter for this run:
   NWRITE =      2    write-flag & timer
   PREC   = accura    normal or accurate (medium, high low for compatibility)
   ISTART =      0    job   : 0-new  1-cont  2-samecut
   ICHARG =      2    charge: 1-file 2-atom 10-const
   ISPIN  =      1    spin polarized calculation?
   LNONCOLLINEAR =      F non collinear calculations
   LSORBIT =      F    spin-orbit coupling
   INIWAV =      1    electr: 0-lowe 1-rand  2-diag
   LASPH  =      F    aspherical Exc in radial PAW
   METAGGA=      F    non-selfconsistent MetaGGA calc.

 Electronic Relaxation 1
   ENCUT  =  300.0 eV  22.05 Ry    4.70 a.u.   5.00 14.75 38.84*2*pi/ulx,y,z
   ENINI  =  300.0     initial cutoff
   ENAUG  =  342.9 eV  augmentation charge cutoff
   NELM   =     60;   NELMIN=  2; NELMDL= -5     # of ELM steps 
   EDIFF  = 0.1E-05   stopping-criterion for ELM
   LREAL  =      T    real-space projection
   NLSPLINE    = F    spline interpolate recip. space projectors
   LCOMPAT=      F    compatible to vasp.4.4
   GGA_COMPAT  = T    GGA compatible to vasp.4.4-vasp.4.6
   LMAXPAW     = -100 max onsite density
   LMAXMIX     =    2 max onsite mixed and CHGCAR
   VOSKOWN=      0    Vosko Wilk Nusair interpolation
   ROPT   =   -0.00025  -0.00025
 Ionic relaxation
   EDIFFG = 0.1E-04   stopping-criterion for IOM
   NSW    =      0    number of steps for IOM
   NBLOCK =      1;   KBLOCK =      1    inner block; outer block 
   IBRION =     -1    ionic relax: 0-MD 1-quasi-New 2-CG
   NFREE  =      1    steps in history (QN), initial steepest desc. (CG)
   ISIF   =      3    stress and relaxation
   IWAVPR =     10    prediction:  0-non 1-charg 2-wave 3-comb
   ISYM   =      2    0-nonsym 1-usesym 2-fastsym
   LCORR  =      T    Harris-Foulkes like correction to forces

   POTIM  = 0.5000    time-step for ionic-motion
   TEIN   =    0.0    initial temperature
   TEBEG  =    0.0;   TEEND  =   0.0 temperature during run
   SMASS  =  -3.00    Nose mass-parameter (am)
   estimated Nose-frequenzy (Omega)   =  0.10E-29 period in steps =****** mass=  -0.286E-27a.u.
   SCALEE = 1.0000    scale energy and forces
   NPACO  =    256;   APACO  = 16.0  distance and # of slots for P.C.
   PSTRESS=    0.0 pullay stress

  Mass of Ions in am
   POMASS =  30.97 28.09
  Ionic Valenz
   ZVAL   =   5.00  4.00
  Atomic Wigner-Seitz radii
   RWIGS  =  -1.00 -1.00
  virtual crystal weights 
   VCA    =   1.00  1.00
   NELECT =     108.0000    total number of electrons
   NUPDOWN=      -1.0000    fix difference up-down

 DOS related values:
   EMIN   =  10.00;   EMAX   =-10.00  energy-range for DOS
   EFERMI =   0.00
   ISMEAR =     0;   SIGMA  =   0.10  broadening in eV -4-tet -1-fermi 0-gaus

 Electronic relaxation 2 (details)
   IALGO  =     38    algorithm
   LDIAG  =      T    sub-space diagonalisation (order eigenvalues)
   LSUBROT=      F    optimize rotation matrix (better conditioning)
   TURBO    =      0    0=normal 1=particle mesh
   IRESTART =      0    0=no restart 2=restart with 2 vectors
   NREBOOT  =      0    no. of reboots
   NMIN     =      0    reboot dimension
   EREF     =   0.00    reference energy to select bands
   IMIX   =      4    mixing-type and parameters
     AMIX     =   0.40;   BMIX     =  1.00
     AMIX_MAG =   1.60;   BMIX_MAG =  1.00
     AMIN     =   0.10
     WC   =   100.;   INIMIX=   1;  MIXPRE=   1;  MAXMIX= -45

 Intra band minimization:
   WEIMIN = 0.0000     energy-eigenvalue tresh-hold
   EBREAK =  0.37E-08  absolut break condition
   DEPER  =   0.30     relativ break condition  

   TIME   =   0.40     timestep for ELM

  volume/ion in A,a.u.               =      41.76       281.83
  Fermi-wavevector in a.u.,A,eV,Ry     =   0.779018  1.472130  8.256946  0.606868
  Thomas-Fermi vector in A             =   1.882034
 
 Write flags
   LWAVE  =      F    write WAVECAR
   LCHARG =      F    write CHGCAR
   LVTOT  =      F    write LOCPOT, total local potential
   LVHAR  =      F    write LOCPOT, Hartree potential only
   LELF   =      F    write electronic localiz. function (ELF)
   LORBIT =      0    0 simple, 1 ext, 2 COOP (PROOUT)


 Dipole corrections
   LMONO  =      F    monopole corrections only (constant potential shift)
   LDIPOL =      F    correct potential (dipole corrections)
   IDIPOL =      0    1-x, 2-y, 3-z, 4-all directions 
   EPSILON=  1.0000000 bulk dielectric constant

 Exchange correlation treatment:
   GGA     =    BO    GGA type
   LEXCH   =    42    internal setting for exchange type
   VOSKOWN=      0    Vosko Wilk Nusair interpolation
   LHFCALC =     F    Hartree Fock is set to
   LHFONE  =     F    Hartree Fock one center treatment
   AEXX    =    0.0000 exact exchange contribution

 vdW DFT:
   LUSE_VDW   =     T    switch on vdW DFT
   Zab_VDW    =-.8491    correlation parameter
   PARAM1     =0.1833
   PARAM2     =0.2200
   PARAM3     =0.0000

 Linear response parameters
   LEPSILON=     F    determine dielectric tensor
   LRPA    =     F    only Hartree local field effects (RPA)
   LNABLA  =     F    use nabla operator in PAW spheres
   LVEL    =     F    velocity operator in full k-point grid
   LINTERFAST=   F  fast interpolation
   KINTER  =     0    interpolate to denser k-point grid
   CSHIFT  =0.1000    complex shift for real part using Kramers Kronig
   OMEGAMAX=  -1.0    maximum frequency
   DEG_THRESHOLD= 0.2000000E-02 threshold for treating states as degnerate
   RTIME   =    0.100 relaxation time in fs

 Orbital magnetization related:
   ORBITALMAG=     F  switch on orbital magnetization
   LCHIMAG   =     F  perturbation theory with respect to B field
   DQ        =  0.001000  dq finite difference perturbation B field



--------------------------------------------------------------------------------------------------------


 Static calculation
 charge density and potential will be updated during run
 non-spin polarized calculation
 Variant of blocked Davidson
 Davidson routine will perform the subspace rotation
 perform sub-space diagonalisation
    after iterative eigenvector-optimisation
 modified Broyden-mixing scheme, WC =      100.0
 initial mixing is a Kerker type mixing with AMIX =  0.4000 and BMIX =      1.0000
 Hartree-type preconditioning will be used
 using additional bands           14
 real space projection scheme for non local part
 use partial core corrections
 calculate Harris-corrections to forces 
   (improved forces if not selfconsistent)
 use gradient corrections 
 use of overlap-Matrix (Vanderbilt PP)
 Gauss-broadening in eV      SIGMA  =   0.10


--------------------------------------------------------------------------------------------------------


  energy-cutoff  :      300.00
  volume of cell :     1002.32
      direct lattice vectors                 reciprocal lattice vectors
     3.540400000  0.000000000  0.000000000     0.282453960  0.048570342  0.000000000
    -1.770200000 10.294348000  0.000000000     0.000000000  0.097140683  0.000000000
     0.000000000  0.000000000 27.501429000     0.000000000  0.000000000  0.036361747

  length of vectors
     3.540400000 10.445439617 27.501429000     0.286599577  0.097140683  0.036361747


 
 k-points in units of 2pi/SCALE and weight: pymatgen generated KPOINTS with grid den
   0.00000000  0.00000000  0.00000000       0.010
   0.02172723  0.00373618  0.00000000       0.019
   0.04345446  0.00747236  0.00000000       0.019
   0.06518168  0.01120854  0.00000000       0.019
   0.08690891  0.01494472  0.00000000       0.019
   0.10863614  0.01868090  0.00000000       0.019
   0.13036337  0.02241708  0.00000000       0.019
   0.00000000  0.02428517  0.00000000       0.019
   0.02172723  0.02802135  0.00000000       0.019
   0.04345446  0.03175753  0.00000000       0.019
   0.06518168  0.03549371  0.00000000       0.019
   0.08690891  0.03922989  0.00000000       0.019
   0.10863614  0.04296607  0.00000000       0.019
   0.13036337  0.04670225  0.00000000       0.019
  -0.13036337  0.00186809  0.00000000       0.019
  -0.10863614  0.00560427  0.00000000       0.019
  -0.08690891  0.00934045  0.00000000       0.019
  -0.06518168  0.01307663  0.00000000       0.019
  -0.04345446  0.01681281  0.00000000       0.019
  -0.02172723  0.02054899  0.00000000       0.019
   0.00000000  0.04857034  0.00000000       0.010
   0.02172723  0.05230652  0.00000000       0.019
   0.04345446  0.05604270  0.00000000       0.019
   0.06518168  0.05977888  0.00000000       0.019
   0.08690891  0.06351506  0.00000000       0.019
   0.10863614  0.06725124  0.00000000       0.019
   0.13036337  0.07098742  0.00000000       0.019
   0.00000000  0.00000000  0.01818087       0.010
   0.02172723  0.00373618  0.01818087       0.019
   0.04345446  0.00747236  0.01818087       0.019
   0.06518168  0.01120854  0.01818087       0.019
   0.08690891  0.01494472  0.01818087       0.019
   0.10863614  0.01868090  0.01818087       0.019
   0.13036337  0.02241708  0.01818087       0.019
   0.00000000  0.02428517  0.01818087       0.019
   0.02172723  0.02802135  0.01818087       0.019
   0.04345446  0.03175753  0.01818087       0.019
   0.06518168  0.03549371  0.01818087       0.019
   0.08690891  0.03922989  0.01818087       0.019
   0.10863614  0.04296607  0.01818087       0.019
   0.13036337  0.04670225  0.01818087       0.019
  -0.13036337  0.00186809  0.01818087       0.019
  -0.10863614  0.00560427  0.01818087       0.019
  -0.08690891  0.00934045  0.01818087       0.019
  -0.06518168  0.01307663  0.01818087       0.019
  -0.04345446  0.01681281  0.01818087       0.019
  -0.02172723  0.02054899  0.01818087       0.019
   0.00000000  0.04857034  0.01818087       0.010
   0.02172723  0.05230652  0.01818087       0.019
   0.04345446  0.05604270  0.01818087       0.019
   0.06518168  0.05977888  0.01818087       0.019
   0.08690891  0.06351506  0.01818087       0.019
   0.10863614  0.06725124  0.01818087       0.019
   0.13036337  0.07098742  0.01818087       0.019
 
 k-points in reciprocal lattice and weights: pymatgen generated KPOINTS with grid den
   0.00000000  0.00000000  0.00000000       0.010
   0.07692308 -0.00000000  0.00000000       0.019
   0.15384615 -0.00000000  0.00000000       0.019
   0.23076923 -0.00000000  0.00000000       0.019
   0.30769231 -0.00000000  0.00000000       0.019
   0.38461538 -0.00000000  0.00000000       0.019
   0.46153846 -0.00000000  0.00000000       0.019
   0.00000000  0.25000000  0.00000000       0.019
   0.07692308  0.25000000  0.00000000       0.019
   0.15384615  0.25000000  0.00000000       0.019
   0.23076923  0.25000000  0.00000000       0.019
   0.30769231  0.25000000  0.00000000       0.019
   0.38461538  0.25000000  0.00000000       0.019
   0.46153846  0.25000000  0.00000000       0.019
  -0.46153846  0.25000000  0.00000000       0.019
  -0.38461538  0.25000000  0.00000000       0.019
  -0.30769231  0.25000000  0.00000000       0.019
  -0.23076923  0.25000000  0.00000000       0.019
  -0.15384615  0.25000000  0.00000000       0.019
  -0.07692308  0.25000000  0.00000000       0.019
   0.00000000  0.50000000  0.00000000       0.010
   0.07692308  0.50000000  0.00000000       0.019
   0.15384615  0.50000000  0.00000000       0.019
   0.23076923  0.50000000  0.00000000       0.019
   0.30769231  0.50000000  0.00000000       0.019
   0.38461538  0.50000000  0.00000000       0.019
   0.46153846  0.50000000  0.00000000       0.019
   0.00000000  0.00000000  0.50000000       0.010
   0.07692308 -0.00000000  0.50000000       0.019
   0.15384615 -0.00000000  0.50000000       0.019
   0.23076923 -0.00000000  0.50000000       0.019
   0.30769231 -0.00000000  0.50000000       0.019
   0.38461538 -0.00000000  0.50000000       0.019
   0.46153846 -0.00000000  0.50000000       0.019
   0.00000000  0.25000000  0.50000000       0.019
   0.07692308  0.25000000  0.50000000       0.019
   0.15384615  0.25000000  0.50000000       0.019
   0.23076923  0.25000000  0.50000000       0.019
   0.30769231  0.25000000  0.50000000       0.019
   0.38461538  0.25000000  0.50000000       0.019
   0.46153846  0.25000000  0.50000000       0.019
  -0.46153846  0.25000000  0.50000000       0.019
  -0.38461538  0.25000000  0.50000000       0.019
  -0.30769231  0.25000000  0.50000000       0.019
  -0.23076923  0.25000000  0.50000000       0.019
  -0.15384615  0.25000000  0.50000000       0.019
  -0.07692308  0.25000000  0.50000000       0.019
   0.00000000  0.50000000  0.50000000       0.010
   0.07692308  0.50000000  0.50000000       0.019
   0.15384615  0.50000000  0.50000000       0.019
   0.23076923  0.50000000  0.50000000       0.019
   0.30769231  0.50000000  0.50000000       0.019
   0.38461538  0.50000000  0.50000000       0.019
   0.46153846  0.50000000  0.50000000       0.019
 
 position of ions in fractional coordinates (direct lattice) 
   0.11402300  0.22804500  0.23316207
   0.01402300  0.92804500  0.51499159
   0.45808900  0.91617900  0.20939482
   0.35808900  0.61617900  0.49122434
   0.31085400  0.62170900  0.08414979
   0.31085400  0.62170900  0.36597930
   0.99923000  0.99846000  0.08631254
   0.99923000  0.99846000  0.36814206
   0.65492700  0.30985400  0.06041748
   0.65492700  0.30985400  0.34224700
   0.76973800  0.53947500  0.20725292
   0.66973800  0.23947500  0.48908244
   0.93971600  0.87943300  0.15783749
   0.83971600  0.57943300  0.43966701
   0.20515200  0.41030300  0.18578822
   0.10515200  0.11030300  0.46761774
   0.20184900  0.40369900  0.09969156
   0.20184900  0.40369900  0.38152107
   0.56380500  0.12761000  0.10779021
   0.56380500  0.12761000  0.38961973
   0.56710600  0.13421200  0.19387616
   0.46710600  0.83421200  0.47570568
   0.82923400  0.65846800  0.13571444
   0.72923400  0.35846800  0.41754396
 
 position of ions in cartesian coordinates  (Angst):
   0.00000177  2.34757459  6.41229012
  -1.59317823  9.55361819 14.16300462
  -0.00000177  9.43146546  5.75865686
   0.17701823  6.34316106 13.50937136
  -0.00000177  6.40008880  2.31423934
  -0.00000177  6.40008880 10.06495384
   1.77020000 10.27849470  2.37371832
   1.77020000 10.27849470 10.12443282
   1.77020000  3.18974491  1.66156717
   1.77020000  3.18974491  9.41228167
   1.77020177  5.55354339  5.69975143
   1.94722177  2.46523899 13.45046593
   1.77019823  9.05318934  4.34075665
   1.94721823  5.96488494 12.09147115
   0.00000177  4.22380187  5.10944151
   0.17702177  1.13549747 12.86015601
  -0.00000177  4.15581799  2.74166024
  -0.00000177  4.15581799 10.49237474
   1.77020000  1.31366175  2.96438477
   1.77020000  1.31366175 10.71509927
   1.77020000  1.38162503  5.33187152
   0.17702000  8.58766863 13.08258602
   1.77020000  6.77849874  3.73234107
   1.94722000  3.69019434 11.48305557
 


--------------------------------------------------------------------------------------------------------


 k-point  1 :   0.0000 0.0000 0.0000  plane waves:   11717
 k-point  2 :   0.0769-0.0000 0.0000  plane waves:   11762
 k-point  3 :   0.1538-0.0000 0.0000  plane waves:   11805
 k-point  4 :   0.2308-0.0000 0.0000  plane waves:   11824
 k-point  5 :   0.3077-0.0000 0.0000  plane waves:   11875
 k-point  6 :   0.3846-0.0000 0.0000  plane waves:   11864
 k-point  7 :   0.4615-0.0000 0.0000  plane waves:   11883
 k-point  8 :   0.0000 0.2500 0.0000  plane waves:   11683
 k-point  9 :   0.0769 0.2500 0.0000  plane waves:   11756
 k-point 10 :   0.1538 0.2500 0.0000  plane waves:   11807
 k-point 11 :   0.2308 0.2500 0.0000  plane waves:   11853
 k-point 12 :   0.3077 0.2500 0.0000  plane waves:   11866
 k-point 13 :   0.3846 0.2500 0.0000  plane waves:   11889
 k-point 14 :   0.4615 0.2500 0.0000  plane waves:   11885
 k-point 15 :  -0.4615 0.2500 0.0000  plane waves:   11886
 k-point 16 :  -0.3846 0.2500 0.0000  plane waves:   11867
 k-point 17 :  -0.3077 0.2500 0.0000  plane waves:   11849
 k-point 18 :  -0.2308 0.2500 0.0000  plane waves:   11827
 k-point 19 :  -0.1538 0.2500 0.0000  plane waves:   11801
 k-point 20 :  -0.0769 0.2500 0.0000  plane waves:   11757
 k-point 21 :   0.0000 0.5000 0.0000  plane waves:   11710
 k-point 22 :   0.0769 0.5000 0.0000  plane waves:   11762
 k-point 23 :   0.1538 0.5000 0.0000  plane waves:   11782
 k-point 24 :   0.2308 0.5000 0.0000  plane waves:   11841
 k-point 25 :   0.3077 0.5000 0.0000  plane waves:   11876
 k-point 26 :   0.3846 0.5000 0.0000  plane waves:   11889
 k-point 27 :   0.4615 0.5000 0.0000  plane waves:   11881
 k-point 28 :   0.0000 0.0000 0.5000  plane waves:   11698
 k-point 29 :   0.0769-0.0000 0.5000  plane waves:   11752
 k-point 30 :   0.1538-0.0000 0.5000  plane waves:   11800
 k-point 31 :   0.2308-0.0000 0.5000  plane waves:   11834
 k-point 32 :   0.3077-0.0000 0.5000  plane waves:   11850
 k-point 33 :   0.3846-0.0000 0.5000  plane waves:   11888
 k-point 34 :   0.4615-0.0000 0.5000  plane waves:   11896
 k-point 35 :   0.0000 0.2500 0.5000  plane waves:   11714
 k-point 36 :   0.0769 0.2500 0.5000  plane waves:   11754
 k-point 37 :   0.1538 0.2500 0.5000  plane waves:   11802
 k-point 38 :   0.2308 0.2500 0.5000  plane waves:   11840
 k-point 39 :   0.3077 0.2500 0.5000  plane waves:   11858
 k-point 40 :   0.3846 0.2500 0.5000  plane waves:   11896
 k-point 41 :   0.4615 0.2500 0.5000  plane waves:   11886
 k-point 42 :  -0.4615 0.2500 0.5000  plane waves:   11852
 k-point 43 :  -0.3846 0.2500 0.5000  plane waves:   11838
 k-point 44 :  -0.3077 0.2500 0.5000  plane waves:   11842
 k-point 45 :  -0.2308 0.2500 0.5000  plane waves:   11840
 k-point 46 :  -0.1538 0.2500 0.5000  plane waves:   11804
 k-point 47 :  -0.0769 0.2500 0.5000  plane waves:   11748
 k-point 48 :   0.0000 0.5000 0.5000  plane waves:   11724
 k-point 49 :   0.0769 0.5000 0.5000  plane waves:   11748
 k-point 50 :   0.1538 0.5000 0.5000  plane waves:   11814
 k-point 51 :   0.2308 0.5000 0.5000  plane waves:   11832
 k-point 52 :   0.3077 0.5000 0.5000  plane waves:   11868
 k-point 53 :   0.3846 0.5000 0.5000  plane waves:   11892
 k-point 54 :   0.4615 0.5000 0.5000  plane waves:   11878

 maximum and minimum number of plane-waves per node :      5964     5832

 maximum number of plane-waves:     11896
 maximum index in each direction: 
   IXMAX=    5   IYMAX=   14   IZMAX=   38
   IXMIN=   -5   IYMIN=  -15   IZMIN=  -39

 WARNING: aliasing errors must be expected set NGX to  22 to avoid them
 NGY is ok and might be reduce to  60
 NGZ is ok and might be reduce to 156
 aliasing errors are usually negligible using standard VASP settings
 and one can safely disregard these warnings

 real space projection operators:
  total allocation   :       3793.25 KBytes
  max/ min on nodes  :       1899.38       1893.88


 parallel 3D FFT for wavefunctions:
    minimum data exchange during FFTs selected (reduces bandwidth)
 parallel 3D FFT for charge:
    minimum data exchange during FFTs selected (reduces bandwidth)


 total amount of memory used by VASP on root node   146493. kBytes
========================================================================

   base      :      30000. kBytes
   nonlr-proj:       3452. kBytes
   fftplans  :       9347. kBytes
   grid      :      14649. kBytes
   one-center:         36. kBytes
   wavefun   :      89009. kBytes
 
     INWAV:  cpu time    0.00: real time    0.00
 Broyden mixing: mesh for mixing (old mesh)
   NGX =  9   NGY = 29   NGZ = 77
  (NGX  = 40   NGY  =120   NGZ  =320)
  gives a total of  20097 points

 initial charge density was supplied:
 charge density of overlapping atoms calculated
 number of electron     108.0000000 magnetization 
 keeping initial charge density in first step


--------------------------------------------------------------------------------------------------------


 Maximum index for non-local projection operator         1333
 Maximum index for augmentation-charges          822 (set IRDMAX)


--------------------------------------------------------------------------------------------------------


 First call to EWALD:  gamma=   0.177
 Maximum number of real-space cells 7x 3x 1
 Maximum number of reciprocal cells 1x 3x 7

 FEWALD executed in parallel
    FEWALD:  cpu time    0.00: real time    0.00


----------------------------------------- Iteration    1(   1)  ---------------------------------------


vdW kernel read from vdw_kernel.bindat
  0.0000  0.2424  0.5071  0.7962  1.1119  1.4567  1.8333  2.2446  2.6937  3.1842
  3.7199  4.3049  4.9438  5.6415  6.4036  7.2358  8.1446  9.1372 10.2212 11.4050
 12.6979 14.1099 15.6519 17.3360 19.1751 21.1837 23.3773 25.7729 28.3892 31.2465
 34.3669 37.7748 41.4965 45.5611 50.0000
 
    POTLOK:  cpu time   17.86: real time   17.86
    SETDIJ:  cpu time    0.02: real time    0.02
     EDDAV:  cpu time   87.06: real time   87.08
       DOS:  cpu time    0.01: real time    0.01
    --------------------------------------------
      LOOP:  cpu time  104.94: real time  104.97

 eigenvalue-minimisations  :  7352
 total energy-change (2. order) : 0.4931025E+03  (-0.2868482E+04)
 number of electron     108.0000000 magnetization 
 augmentation part      108.0000000 magnetization 

 Free energy of the ion-electron system (eV)
  ---------------------------------------------------
  alpha Z        PSCENC =        36.80884744
  Ewald energy   TEWEN  =     11986.75010126
  -Hartree energ DENC   =    -15031.26415968
  -exchange      EXHF   =         0.00000000
  -V(xc)+E(xc)   XCENC  =       -87.36624772
  PAW double counting   =      1056.43050070     -732.41190547
  entropy T*S    EENTRO =        -0.04133331
  eigenvalues    EBANDS =       -89.84456977
  atomic energy  EATOM  =      3354.04126044
  ---------------------------------------------------
  free energy    TOTEN  =       493.10249389 eV

  energy without entropy =      493.14382720  energy(sigma->0) =      493.12316055


--------------------------------------------------------------------------------------------------------




----------------------------------------- Iteration    1(   2)  ---------------------------------------


     EDDAV:  cpu time  105.47: real time  105.50
       DOS:  cpu time    0.01: real time    0.01
    --------------------------------------------
      LOOP:  cpu time  105.48: real time  105.51

 eigenvalue-minimisations  :  9748
 total energy-change (2. order) :-0.5602170E+03  (-0.5455373E+03)
 number of electron     108.0000000 magnetization 
 augmentation part      108.0000000 magnetization 

 Free energy of the ion-electron system (eV)
  ---------------------------------------------------
  alpha Z        PSCENC =        36.80884744
  Ewald energy   TEWEN  =     11986.75010126
  -Hartree energ DENC   =    -15031.26415968
  -exchange      EXHF   =         0.00000000
  -V(xc)+E(xc)   XCENC  =       -87.36624772
  PAW double counting   =      1056.43050070     -732.41190547
  entropy T*S    EENTRO =        -0.02781138
  eigenvalues    EBANDS =      -650.07513468
  atomic energy  EATOM  =      3354.04126044
  ---------------------------------------------------
  free energy    TOTEN  =       -67.11454909 eV

  energy without entropy =      -67.08673771  energy(sigma->0) =      -67.10064340


--------------------------------------------------------------------------------------------------------




----------------------------------------- Iteration    1(   3)  ---------------------------------------


     EDDAV:  cpu time   99.97: real time   99.99
       DOS:  cpu time    0.01: real time    0.01
    --------------------------------------------
      LOOP:  cpu time   99.98: real time  100.00

 eigenvalue-minimisations  :  8860
 total energy-change (2. order) :-0.5578834E+02  (-0.5491137E+02)
 number of electron     108.0000000 magnetization 
 augmentation part      108.0000000 magnetization 

 Free energy of the ion-electron system (eV)
  ---------------------------------------------------
  alpha Z        PSCENC =        36.80884744
  Ewald energy   TEWEN  =     11986.75010126
  -Hartree energ DENC   =    -15031.26415968
  -exchange      EXHF   =         0.00000000
  -V(xc)+E(xc)   XCENC  =       -87.36624772
  PAW double counting   =      1056.43050070     -732.41190547
  entropy T*S    EENTRO =        -0.02360059
  eigenvalues    EBANDS =      -705.86768198
  atomic energy  EATOM  =      3354.04126044
  ---------------------------------------------------
  free energy    TOTEN  =      -122.90288560 eV

  energy without entropy =     -122.87928501  energy(sigma->0) =     -122.89108530


--------------------------------------------------------------------------------------------------------




----------------------------------------- Iteration    1(   4)  ---------------------------------------


     EDDAV:  cpu time  111.38: real time  111.40
       DOS:  cpu time    0.01: real time    0.01
    --------------------------------------------
      LOOP:  cpu time  111.39: real time  111.41

 eigenvalue-minimisations  : 11032
 total energy-change (2. order) :-0.2533276E+01  (-0.2512382E+01)
 number of electron     108.0000000 magnetization 
 augmentation part      108.0000000 magnetization 

 Free energy of the ion-electron system (eV)
  ---------------------------------------------------
  alpha Z        PSCENC =        36.80884744
  Ewald energy   TEWEN  =     11986.75010126
  -Hartree energ DENC   =    -15031.26415968
  -exchange      EXHF   =         0.00000000
  -V(xc)+E(xc)   XCENC  =       -87.36624772
  PAW double counting   =      1056.43050070     -732.41190547
  entropy T*S    EENTRO =        -0.02420635
  eigenvalues    EBANDS =      -708.40035226
  atomic energy  EATOM  =      3354.04126044
  ---------------------------------------------------
  free energy    TOTEN  =      -125.43616163 eV

  energy without entropy =     -125.41195528  energy(sigma->0) =     -125.42405846


--------------------------------------------------------------------------------------------------------




----------------------------------------- Iteration    1(   5)  ---------------------------------------


     EDDAV:  cpu time  103.46: real time  103.48
       DOS:  cpu time    0.01: real time    0.01
    CHARGE:  cpu time    5.40: real time    5.40
    MIXING:  cpu time    0.02: real time    0.02
    --------------------------------------------
      LOOP:  cpu time  108.89: real time  108.91

 eigenvalue-minimisations  : 10024
 total energy-change (2. order) :-0.6014054E-01  (-0.6003658E-01)
 number of electron     107.9999994 magnetization 
 augmentation part       -9.5504946 magnetization 

 Broyden mixing:
  rms(total) = 0.99431E+00    rms(broyden)= 0.99411E+00
  rms(prec ) = 0.10738E+01
  weight for this iteration     100.00

 Free energy of the ion-electron system (eV)
  ---------------------------------------------------
  alpha Z        PSCENC =        36.80884744
  Ewald energy   TEWEN  =     11986.75010126
  -Hartree energ DENC   =    -15031.26415968
  -exchange      EXHF   =         0.00000000
  -V(xc)+E(xc)   XCENC  =       -87.36624772
  PAW double counting   =      1056.43050070     -732.41190547
  entropy T*S    EENTRO =        -0.02423666
  eigenvalues    EBANDS =      -708.46046249
  atomic energy  EATOM  =      3354.04126044
  ---------------------------------------------------
  free energy    TOTEN  =      -125.49630217 eV

  energy without entropy =     -125.47206551  energy(sigma->0) =     -125.48418384


--------------------------------------------------------------------------------------------------------




----------------------------------------- Iteration    1(   6)  ---------------------------------------


    POTLOK:  cpu time   15.79: real time   15.80
    SETDIJ:  cpu time    0.02: real time    0.02
     EDDAV:  cpu time  106.92: real time  106.95
       DOS:  cpu time    0.01: real time    0.01
    CHARGE:  cpu time    5.52: real time    5.52
    MIXING:  cpu time    0.02: real time    0.02
    --------------------------------------------
      LOOP:  cpu time  128.28: real time  128.31

 eigenvalue-minimisations  :  8680
 total energy-change (2. order) : 0.2301584E+01  (-0.8549294E+00)
 number of electron     107.9999994 magnetization 
 augmentation part       -9.4225421 magnetization 

 Broyden mixing:
  rms(total) = 0.55425E+00    rms(broyden)= 0.55423E+00
  rms(prec ) = 0.59445E+00
  weight for this iteration     100.00

 eigenvalues of (default mixing * dielectric matrix)
  average eigenvalue GAMMA=   1.7402
  1.7402

 Free energy of the ion-electron system (eV)
  ---------------------------------------------------
  alpha Z        PSCENC =        36.80884744
  Ewald energy   TEWEN  =     11986.75010126
  -Hartree energ DENC   =    -15076.62951728
  -exchange      EXHF   =         0.00000000
  -V(xc)+E(xc)   XCENC  =       -84.42262728
  PAW double counting   =      1112.38737030     -789.93436041
  entropy T*S    EENTRO =        -0.03816923
  eigenvalues    EBANDS =      -662.15762342
  atomic energy  EATOM  =      3354.04126044
  ---------------------------------------------------
  free energy    TOTEN  =      -123.19471817 eV

  energy without entropy =     -123.15654895  energy(sigma->0) =     -123.17563356


--------------------------------------------------------------------------------------------------------




----------------------------------------- Iteration    1(   7)  ---------------------------------------


    POTLOK:  cpu time   16.28: real time   16.28
    SETDIJ:  cpu time    0.01: real time    0.01
     EDDAV:  cpu time  105.88: real time  105.90
       DOS:  cpu time    0.01: real time    0.01
    CHARGE:  cpu time    5.57: real time    5.57
    MIXING:  cpu time    0.02: real time    0.02
    --------------------------------------------
      LOOP:  cpu time  127.77: real time  127.81

 eigenvalue-minimisations  :  9208
 total energy-change (2. order) : 0.1889464E+00  (-0.4774970E+00)
 number of electron     107.9999994 magnetization 
 augmentation part       -9.3520243 magnetization 

 Broyden mixing:
  rms(total) = 0.26852E+00    rms(broyden)= 0.26850E+00
  rms(prec ) = 0.31486E+00
  weight for this iteration     100.00

 eigenvalues of (default mixing * dielectric matrix)
  average eigenvalue GAMMA=   1.4297
  0.7253  2.1341

 Free energy of the ion-electron system (eV)
  ---------------------------------------------------
  alpha Z        PSCENC =        36.80884744
  Ewald energy   TEWEN  =     11986.75010126
  -Hartree energ DENC   =    -15089.76596620
  -exchange      EXHF   =         0.00000000
  -V(xc)+E(xc)   XCENC  =       -81.96461242
  PAW double counting   =      1149.62266333     -828.22904837
  entropy T*S    EENTRO =        -0.03530978
  eigenvalues    EBANDS =      -650.23370745
  atomic energy  EATOM  =      3354.04126044
  ---------------------------------------------------
  free energy    TOTEN  =      -123.00577174 eV

  energy without entropy =     -122.97046196  energy(sigma->0) =     -122.98811685


--------------------------------------------------------------------------------------------------------




----------------------------------------- Iteration    1(   8)  ---------------------------------------


    POTLOK:  cpu time   16.35: real time   16.36
    SETDIJ:  cpu time    0.01: real time    0.01
     EDDAV:  cpu time  106.77: real time  106.79
       DOS:  cpu time    0.01: real time    0.01
    CHARGE:  cpu time    5.39: real time    5.39
    MIXING:  cpu time    0.02: real time    0.02
    --------------------------------------------
      LOOP:  cpu time  128.55: real time  128.58

 eigenvalue-minimisations  :  8952
 total energy-change (2. order) : 0.7542663E-01  (-0.1721567E+00)
 number of electron     107.9999994 magnetization 
 augmentation part       -9.3176818 magnetization 

 Broyden mixing:
  rms(total) = 0.11023E+00    rms(broyden)= 0.11022E+00
  rms(prec ) = 0.11768E+00
  weight for this iteration     100.00

 eigenvalues of (default mixing * dielectric matrix)
  average eigenvalue GAMMA=   1.4150
  2.3522  1.2736  0.6193

 Free energy of the ion-electron system (eV)
  ---------------------------------------------------
  alpha Z        PSCENC =        36.80884744
  Ewald energy   TEWEN  =     11986.75010126
  -Hartree energ DENC   =    -15113.47185651
  -exchange      EXHF   =         0.00000000
  -V(xc)+E(xc)   XCENC  =       -80.63705122
  PAW double counting   =      1164.55146054     -843.58174754
  entropy T*S    EENTRO =        -0.03781960
  eigenvalues    EBANDS =      -627.35353993
  atomic energy  EATOM  =      3354.04126044
  ---------------------------------------------------
  free energy    TOTEN  =      -122.93034511 eV

  energy without entropy =     -122.89252551  energy(sigma->0) =     -122.91143531


--------------------------------------------------------------------------------------------------------




----------------------------------------- Iteration    1(   9)  ---------------------------------------


    POTLOK:  cpu time   16.31: real time   16.31
    SETDIJ:  cpu time    0.01: real time    0.01
     EDDAV:  cpu time  101.36: real time  101.38
       DOS:  cpu time    0.01: real time    0.01
    CHARGE:  cpu time    5.18: real time    5.18
    MIXING:  cpu time    0.02: real time    0.02
    --------------------------------------------
      LOOP:  cpu time  122.89: real time  122.92

 eigenvalue-minimisations  :  8680
 total energy-change (2. order) : 0.5317722E-02  (-0.2331081E-01)
 number of electron     107.9999994 magnetization 
 augmentation part       -9.3140702 magnetization 

 Broyden mixing:
  rms(total) = 0.54626E-01    rms(broyden)= 0.54622E-01
  rms(prec ) = 0.58748E-01
  weight for this iteration     100.00

 eigenvalues of (default mixing * dielectric matrix)
  average eigenvalue GAMMA=   1.4176
  2.4409  1.7079  0.8642  0.6573

 Free energy of the ion-electron system (eV)
  ---------------------------------------------------
  alpha Z        PSCENC =        36.80884744
  Ewald energy   TEWEN  =     11986.75010126
  -Hartree energ DENC   =    -15116.76979638
  -exchange      EXHF   =         0.00000000
  -V(xc)+E(xc)   XCENC  =       -80.20067656
  PAW double counting   =      1163.95216255     -842.98224099
  entropy T*S    EENTRO =        -0.03881364
  eigenvalues    EBANDS =      -624.48587151
  atomic energy  EATOM  =      3354.04126044
  ---------------------------------------------------
  free energy    TOTEN  =      -122.92502739 eV

  energy without entropy =     -122.88621375  energy(sigma->0) =     -122.90562057


--------------------------------------------------------------------------------------------------------




----------------------------------------- Iteration    1(  10)  ---------------------------------------


    POTLOK:  cpu time   16.29: real time   16.29
    SETDIJ:  cpu time    0.01: real time    0.01
     EDDAV:  cpu time  105.16: real time  105.18
       DOS:  cpu time    0.01: real time    0.01
    CHARGE:  cpu time    5.26: real time    5.26
    MIXING:  cpu time    0.02: real time    0.02
    --------------------------------------------
      LOOP:  cpu time  126.75: real time  126.78

 eigenvalue-minimisations  :  9072
 total energy-change (2. order) : 0.2422676E-01  (-0.4460530E-02)
 number of electron     107.9999994 magnetization 
 augmentation part       -9.3200747 magnetization 

 Broyden mixing:
  rms(total) = 0.19706E-01    rms(broyden)= 0.19704E-01
  rms(prec ) = 0.23055E-01
  weight for this iteration     100.00

 eigenvalues of (default mixing * dielectric matrix)
  average eigenvalue GAMMA=   1.3848
  2.6235  1.6587  1.1635  0.6806  0.7974

 Free energy of the ion-electron system (eV)
  ---------------------------------------------------
  alpha Z        PSCENC =        36.80884744
  Ewald energy   TEWEN  =     11986.75010126
  -Hartree energ DENC   =    -15117.25478272
  -exchange      EXHF   =         0.00000000
  -V(xc)+E(xc)   XCENC  =       -80.12306223
  PAW double counting   =      1159.74299698     -838.66552607
  entropy T*S    EENTRO =        -0.03789943
  eigenvalues    EBANDS =      -624.16273631
  atomic energy  EATOM  =      3354.04126044
  ---------------------------------------------------
  free energy    TOTEN  =      -122.90080063 eV

  energy without entropy =     -122.86290120  energy(sigma->0) =     -122.88185091


--------------------------------------------------------------------------------------------------------




----------------------------------------- Iteration    1(  11)  ---------------------------------------


    POTLOK:  cpu time   16.29: real time   16.29
    SETDIJ:  cpu time    0.01: real time    0.02
     EDDAV:  cpu time  104.62: real time  104.64
       DOS:  cpu time    0.01: real time    0.01
    CHARGE:  cpu time    5.03: real time    5.03
    MIXING:  cpu time    0.02: real time    0.02
    --------------------------------------------
      LOOP:  cpu time  125.98: real time  126.01

 eigenvalue-minimisations  :  9152
 total energy-change (2. order) : 0.8640616E-02  (-0.1351662E-02)
 number of electron     107.9999994 magnetization 
 augmentation part       -9.3212534 magnetization 

 Broyden mixing:
  rms(total) = 0.87773E-02    rms(broyden)= 0.87758E-02
  rms(prec ) = 0.10782E-01
  weight for this iteration     100.00

 eigenvalues of (default mixing * dielectric matrix)
  average eigenvalue GAMMA=   1.3234
  2.6425  1.6815  1.3149  0.9147  0.6933  0.6933

 Free energy of the ion-electron system (eV)
  ---------------------------------------------------
  alpha Z        PSCENC =        36.80884744
  Ewald energy   TEWEN  =     11986.75010126
  -Hartree energ DENC   =    -15118.93950950
  -exchange      EXHF   =         0.00000000
  -V(xc)+E(xc)   XCENC  =       -80.05707951
  PAW double counting   =      1158.80607821     -837.70188846
  entropy T*S    EENTRO =        -0.03860358
  eigenvalues    EBANDS =      -622.56136632
  atomic energy  EATOM  =      3354.04126044
  ---------------------------------------------------
  free energy    TOTEN  =      -122.89216001 eV

  energy without entropy =     -122.85355643  energy(sigma->0) =     -122.87285822


--------------------------------------------------------------------------------------------------------




----------------------------------------- Iteration    1(  12)  ---------------------------------------


    POTLOK:  cpu time   16.32: real time   16.32
    SETDIJ:  cpu time    0.01: real time    0.01
     EDDAV:  cpu time  102.61: real time  102.63
       DOS:  cpu time    0.01: real time    0.01
    CHARGE:  cpu time    5.12: real time    5.12
    MIXING:  cpu time    0.02: real time    0.02
    --------------------------------------------
      LOOP:  cpu time  124.09: real time  124.12

 eigenvalue-minimisations  :  9048
 total energy-change (2. order) : 0.4446314E-02  (-0.2042418E-03)
 number of electron     107.9999994 magnetization 
 augmentation part       -9.3206774 magnetization 

 Broyden mixing:
  rms(total) = 0.48575E-02    rms(broyden)= 0.48572E-02
  rms(prec ) = 0.63245E-02
  weight for this iteration     100.00

 eigenvalues of (default mixing * dielectric matrix)
  average eigenvalue GAMMA=   1.3564
  2.6772  1.9284  1.3544  1.2862  0.8865  0.6812  0.6812

 Free energy of the ion-electron system (eV)
  ---------------------------------------------------
  alpha Z        PSCENC =        36.80884744
  Ewald energy   TEWEN  =     11986.75010126
  -Hartree energ DENC   =    -15119.82313081
  -exchange      EXHF   =         0.00000000
  -V(xc)+E(xc)   XCENC  =       -80.04827348
  PAW double counting   =      1158.22468212     -837.10495660
  entropy T*S    EENTRO =        -0.03833196
  eigenvalues    EBANDS =      -621.69791212
  atomic energy  EATOM  =      3354.04126044
  ---------------------------------------------------
  free energy    TOTEN  =      -122.88771370 eV

  energy without entropy =     -122.84938173  energy(sigma->0) =     -122.86854772


--------------------------------------------------------------------------------------------------------




----------------------------------------- Iteration    1(  13)  ---------------------------------------


    POTLOK:  cpu time   16.32: real time   16.32
    SETDIJ:  cpu time    0.01: real time    0.01
     EDDAV:  cpu time  106.77: real time  106.79
       DOS:  cpu time    0.01: real time    0.01
    CHARGE:  cpu time    5.04: real time    5.04
    MIXING:  cpu time    0.02: real time    0.02
    --------------------------------------------
      LOOP:  cpu time  128.17: real time  128.20

 eigenvalue-minimisations  :  9472
 total energy-change (2. order) : 0.4738133E-02  (-0.5028376E-04)
 number of electron     107.9999994 magnetization 
 augmentation part       -9.3210326 magnetization 

 Broyden mixing:
  rms(total) = 0.24326E-02    rms(broyden)= 0.24324E-02
  rms(prec ) = 0.37430E-02
  weight for this iteration     100.00

 eigenvalues of (default mixing * dielectric matrix)
  average eigenvalue GAMMA=   1.3971
  2.7418  2.3365  1.4589  1.4589  0.9111  0.9111  0.6795  0.6795

 Free energy of the ion-electron system (eV)
  ---------------------------------------------------
  alpha Z        PSCENC =        36.80884744
  Ewald energy   TEWEN  =     11986.75010126
  -Hartree energ DENC   =    -15120.70021635
  -exchange      EXHF   =         0.00000000
  -V(xc)+E(xc)   XCENC  =       -80.04502969
  PAW double counting   =      1157.58639020     -836.44988705
  entropy T*S    EENTRO =        -0.03832542
  eigenvalues    EBANDS =      -620.83611641
  atomic energy  EATOM  =      3354.04126044
  ---------------------------------------------------
  free energy    TOTEN  =      -122.88297557 eV

  energy without entropy =     -122.84465015  energy(sigma->0) =     -122.86381286


--------------------------------------------------------------------------------------------------------




----------------------------------------- Iteration    1(  14)  ---------------------------------------


    POTLOK:  cpu time   16.26: real time   16.26
    SETDIJ:  cpu time    0.01: real time    0.02
     EDDAV:  cpu time  103.71: real time  103.73
       DOS:  cpu time    0.01: real time    0.01
    CHARGE:  cpu time    4.35: real time    4.35
    MIXING:  cpu time    0.02: real time    0.02
    --------------------------------------------
      LOOP:  cpu time  124.36: real time  124.39

 eigenvalue-minimisations  :  9312
 total energy-change (2. order) : 0.2410731E-02  (-0.2576991E-04)
 number of electron     107.9999994 magnetization 
 augmentation part       -9.3210077 magnetization 

 Broyden mixing:
  rms(total) = 0.13799E-02    rms(broyden)= 0.13798E-02
  rms(prec ) = 0.23118E-02
  weight for this iteration     100.00

 eigenvalues of (default mixing * dielectric matrix)
  average eigenvalue GAMMA=   1.4408
  2.9755  2.5171  1.5451  1.4832  1.2507  0.9106  0.9106  0.6780  0.6965

 Free energy of the ion-electron system (eV)
  ---------------------------------------------------
  alpha Z        PSCENC =        36.80884744
  Ewald energy   TEWEN  =     11986.75010126
  -Hartree energ DENC   =    -15121.66047944
  -exchange      EXHF   =         0.00000000
  -V(xc)+E(xc)   XCENC  =       -80.04123633
  PAW double counting   =      1157.27001381     -836.12562622
  entropy T*S    EENTRO =        -0.03838539
  eigenvalues    EBANDS =      -619.88506041
  atomic energy  EATOM  =      3354.04126044
  ---------------------------------------------------
  free energy    TOTEN  =      -122.88056483 eV

  energy without entropy =     -122.84217944  energy(sigma->0) =     -122.86137214


--------------------------------------------------------------------------------------------------------




----------------------------------------- Iteration    1(  15)  ---------------------------------------


    POTLOK:  cpu time   15.25: real time   15.25
    SETDIJ:  cpu time    0.01: real time    0.01
     EDDAV:  cpu time   92.85: real time   92.87
       DOS:  cpu time    0.01: real time    0.01
    CHARGE:  cpu time    4.37: real time    4.37
    MIXING:  cpu time    0.02: real time    0.02
    --------------------------------------------
      LOOP:  cpu time  112.52: real time  112.55

 eigenvalue-minimisations  :  9112
 total energy-change (2. order) : 0.4757138E-03  (-0.9341245E-05)
 number of electron     107.9999994 magnetization 
 augmentation part       -9.3207653 magnetization 

 Broyden mixing:
  rms(total) = 0.78397E-03    rms(broyden)= 0.78392E-03
  rms(prec ) = 0.13960E-02
  weight for this iteration     100.00

 eigenvalues of (default mixing * dielectric matrix)
  average eigenvalue GAMMA=   1.5038
  3.3447  2.6717  1.8711  1.4505  1.4505  0.9559  0.9559  0.9552  0.6728  0.7096

 Free energy of the ion-electron system (eV)
  ---------------------------------------------------
  alpha Z        PSCENC =        36.80884744
  Ewald energy   TEWEN  =     11986.75010126
  -Hartree energ DENC   =    -15122.47695476
  -exchange      EXHF   =         0.00000000
  -V(xc)+E(xc)   XCENC  =       -80.03656520
  PAW double counting   =      1157.19381815     -836.04799865
  entropy T*S    EENTRO =        -0.03834573
  eigenvalues    EBANDS =      -619.07425208
  atomic energy  EATOM  =      3354.04126044
  ---------------------------------------------------
  free energy    TOTEN  =      -122.88008912 eV

  energy without entropy =     -122.84174339  energy(sigma->0) =     -122.86091626


--------------------------------------------------------------------------------------------------------




----------------------------------------- Iteration    1(  16)  ---------------------------------------


    POTLOK:  cpu time   15.42: real time   15.43
    SETDIJ:  cpu time    0.01: real time    0.01
     EDDAV:  cpu time   85.86: real time   85.87
       DOS:  cpu time    0.01: real time    0.01
    CHARGE:  cpu time    4.36: real time    4.36
    MIXING:  cpu time    0.02: real time    0.02
    --------------------------------------------
      LOOP:  cpu time  105.68: real time  105.71

 eigenvalue-minimisations  :  8184
 total energy-change (2. order) :-0.3048888E-03  (-0.7852088E-05)
 number of electron     107.9999994 magnetization 
 augmentation part       -9.3206973 magnetization 

 Broyden mixing:
  rms(total) = 0.46982E-03    rms(broyden)= 0.46976E-03
  rms(prec ) = 0.83565E-03
  weight for this iteration     100.00

 eigenvalues of (default mixing * dielectric matrix)
  average eigenvalue GAMMA=   1.5992
  4.2367  2.7124  2.0834  1.8004  1.2991  1.2991  0.9223  0.9223  0.9310  0.6720
  0.7129

 Free energy of the ion-electron system (eV)
  ---------------------------------------------------
  alpha Z        PSCENC =        36.80884744
  Ewald energy   TEWEN  =     11986.75010126
  -Hartree energ DENC   =    -15123.12322890
  -exchange      EXHF   =         0.00000000
  -V(xc)+E(xc)   XCENC  =       -80.03317497
  PAW double counting   =      1157.20791797     -836.06253212
  entropy T*S    EENTRO =        -0.03836414
  eigenvalues    EBANDS =      -618.43122099
  atomic energy  EATOM  =      3354.04126044
  ---------------------------------------------------
  free energy    TOTEN  =      -122.88039401 eV

  energy without entropy =     -122.84202987  energy(sigma->0) =     -122.86121194


--------------------------------------------------------------------------------------------------------




----------------------------------------- Iteration    1(  17)  ---------------------------------------


    POTLOK:  cpu time   15.22: real time   15.23
    SETDIJ:  cpu time    0.01: real time    0.01
     EDDAV:  cpu time   87.38: real time   87.40
       DOS:  cpu time    0.01: real time    0.01
    CHARGE:  cpu time    4.35: real time    4.35
    MIXING:  cpu time    0.02: real time    0.02
    --------------------------------------------
      LOOP:  cpu time  107.00: real time  107.02

 eigenvalue-minimisations  :  8408
 total energy-change (2. order) :-0.4437497E-03  (-0.1067161E-04)
 number of electron     107.9999994 magnetization 
 augmentation part       -9.3206374 magnetization 

 Broyden mixing:
  rms(total) = 0.27396E-03    rms(broyden)= 0.27394E-03
  rms(prec ) = 0.49283E-03
  weight for this iteration     100.00

 eigenvalues of (default mixing * dielectric matrix)
  average eigenvalue GAMMA=   1.6712
  5.0230  2.8044  2.4384  1.7166  1.3946  1.3946  1.1629  0.6721  0.7145  0.9240
  0.9240  0.8854

 Free energy of the ion-electron system (eV)
  ---------------------------------------------------
  alpha Z        PSCENC =        36.80884744
  Ewald energy   TEWEN  =     11986.75010126
  -Hartree energ DENC   =    -15123.59153766
  -exchange      EXHF   =         0.00000000
  -V(xc)+E(xc)   XCENC  =       -80.03063355
  PAW double counting   =      1157.22961105     -836.08474948
  entropy T*S    EENTRO =        -0.03835364
  eigenvalues    EBANDS =      -617.96538363
  atomic energy  EATOM  =      3354.04126044
  ---------------------------------------------------
  free energy    TOTEN  =      -122.88083776 eV

  energy without entropy =     -122.84248412  energy(sigma->0) =     -122.86166094


--------------------------------------------------------------------------------------------------------




----------------------------------------- Iteration    1(  18)  ---------------------------------------


    POTLOK:  cpu time   15.21: real time   15.22
    SETDIJ:  cpu time    0.01: real time    0.01
     EDDAV:  cpu time   82.20: real time   82.21
       DOS:  cpu time    0.01: real time    0.01
    CHARGE:  cpu time    4.34: real time    4.34
    MIXING:  cpu time    0.02: real time    0.02
    --------------------------------------------
      LOOP:  cpu time  101.80: real time  101.82

 eigenvalue-minimisations  :  7712
 total energy-change (2. order) :-0.2258086E-03  (-0.7137278E-05)
 number of electron     107.9999994 magnetization 
 augmentation part       -9.3206081 magnetization 

 Broyden mixing:
  rms(total) = 0.16524E-03    rms(broyden)= 0.16523E-03
  rms(prec ) = 0.30959E-03
  weight for this iteration     100.00

 eigenvalues of (default mixing * dielectric matrix)
  average eigenvalue GAMMA=   1.7520
  5.8795  2.9211  2.5351  1.8262  1.8262  1.3061  1.3061  0.6721  0.7143  1.0263
  0.9349  0.9349  0.8929

 Free energy of the ion-electron system (eV)
  ---------------------------------------------------
  alpha Z        PSCENC =        36.80884744
  Ewald energy   TEWEN  =     11986.75010126
  -Hartree energ DENC   =    -15123.84703237
  -exchange      EXHF   =         0.00000000
  -V(xc)+E(xc)   XCENC  =       -80.02936387
  PAW double counting   =      1157.24928412     -836.10482137
  entropy T*S    EENTRO =        -0.03835782
  eigenvalues    EBANDS =      -617.71098139
  atomic energy  EATOM  =      3354.04126044
  ---------------------------------------------------
  free energy    TOTEN  =      -122.88106357 eV

  energy without entropy =     -122.84270574  energy(sigma->0) =     -122.86188466


--------------------------------------------------------------------------------------------------------




----------------------------------------- Iteration    1(  19)  ---------------------------------------


    POTLOK:  cpu time   15.02: real time   15.02
    SETDIJ:  cpu time    0.01: real time    0.02
     EDDAV:  cpu time   77.37: real time   77.38
       DOS:  cpu time    0.01: real time    0.01
    CHARGE:  cpu time    4.34: real time    4.34
    MIXING:  cpu time    0.02: real time    0.02
    --------------------------------------------
      LOOP:  cpu time   96.78: real time   96.80

 eigenvalue-minimisations  :  7132
 total energy-change (2. order) :-0.1527727E-04  (-0.3048371E-05)
 number of electron     107.9999994 magnetization 
 augmentation part       -9.3205879 magnetization 

 Broyden mixing:
  rms(total) = 0.10446E-03    rms(broyden)= 0.10446E-03
  rms(prec ) = 0.18887E-03
  weight for this iteration     100.00

 eigenvalues of (default mixing * dielectric matrix)
  average eigenvalue GAMMA=   1.8083
  6.3448  3.1889  2.6890  2.3016  1.5477  1.5477  1.2976  1.2976  0.6721  0.7141
  0.9311  0.9311  0.9260  0.9260

 Free energy of the ion-electron system (eV)
  ---------------------------------------------------
  alpha Z        PSCENC =        36.80884744
  Ewald energy   TEWEN  =     11986.75010126
  -Hartree energ DENC   =    -15124.01699643
  -exchange      EXHF   =         0.00000000
  -V(xc)+E(xc)   XCENC  =       -80.02872138
  PAW double counting   =      1157.24604637     -836.10140453
  entropy T*S    EENTRO =        -0.03835644
  eigenvalues    EBANDS =      -617.54185559
  atomic energy  EATOM  =      3354.04126044
  ---------------------------------------------------
  free energy    TOTEN  =      -122.88107884 eV

  energy without entropy =     -122.84272241  energy(sigma->0) =     -122.86190063


--------------------------------------------------------------------------------------------------------




----------------------------------------- Iteration    1(  20)  ---------------------------------------


    POTLOK:  cpu time   15.04: real time   15.04
    SETDIJ:  cpu time    0.01: real time    0.01
     EDDAV:  cpu time   74.75: real time   74.77
       DOS:  cpu time    0.01: real time    0.01
    CHARGE:  cpu time    4.30: real time    4.30
    MIXING:  cpu time    0.02: real time    0.02
    --------------------------------------------
      LOOP:  cpu time   94.13: real time   94.15

 eigenvalue-minimisations  :  6780
 total energy-change (2. order) : 0.2334832E-04  (-0.1787873E-05)
 number of electron     107.9999994 magnetization 
 augmentation part       -9.3205888 magnetization 

 Broyden mixing:
  rms(total) = 0.69816E-04    rms(broyden)= 0.69811E-04
  rms(prec ) = 0.11840E-03
  weight for this iteration     100.00

 eigenvalues of (default mixing * dielectric matrix)
  average eigenvalue GAMMA=   1.8655
  6.8573  3.5680  2.7850  2.3665  1.7928  1.7928  1.3189  1.3189  0.6721  0.7139
  1.0376  0.9346  0.9346  0.9446  0.9446

 Free energy of the ion-electron system (eV)
  ---------------------------------------------------
  alpha Z        PSCENC =        36.80884744
  Ewald energy   TEWEN  =     11986.75010126
  -Hartree energ DENC   =    -15124.09173121
  -exchange      EXHF   =         0.00000000
  -V(xc)+E(xc)   XCENC  =       -80.02858925
  PAW double counting   =      1157.23683866     -836.09194096
  entropy T*S    EENTRO =        -0.03835502
  eigenvalues    EBANDS =      -617.46748687
  atomic energy  EATOM  =      3354.04126044
  ---------------------------------------------------
  free energy    TOTEN  =      -122.88105550 eV

  energy without entropy =     -122.84270048  energy(sigma->0) =     -122.86187799


--------------------------------------------------------------------------------------------------------




----------------------------------------- Iteration    1(  21)  ---------------------------------------


    POTLOK:  cpu time   15.12: real time   15.12
    SETDIJ:  cpu time    0.01: real time    0.02
     EDDAV:  cpu time   71.90: real time   71.92
       DOS:  cpu time    0.01: real time    0.01
    CHARGE:  cpu time    4.37: real time    4.37
    MIXING:  cpu time    0.02: real time    0.02
    --------------------------------------------
      LOOP:  cpu time   91.44: real time   91.46

 eigenvalue-minimisations  :  6380
 total energy-change (2. order) : 0.8472315E-05  (-0.8513474E-06)
 number of electron     107.9999994 magnetization 
 augmentation part       -9.3205915 magnetization 

 Broyden mixing:
  rms(total) = 0.47422E-04    rms(broyden)= 0.47419E-04
  rms(prec ) = 0.76123E-04
  weight for this iteration     100.00

 eigenvalues of (default mixing * dielectric matrix)
  average eigenvalue GAMMA=   1.9312
  7.0981  4.5074  2.8342  2.6142  2.0771  1.5268  1.5268  1.3046  1.3046  0.6721
  0.7141  0.9284  0.9284  1.0477  0.9076  0.9076

 Free energy of the ion-electron system (eV)
  ---------------------------------------------------
  alpha Z        PSCENC =        36.80884744
  Ewald energy   TEWEN  =     11986.75010126
  -Hartree energ DENC   =    -15124.12324089
  -exchange      EXHF   =         0.00000000
  -V(xc)+E(xc)   XCENC  =       -80.02859809
  PAW double counting   =      1157.23335938     -836.08839860
  entropy T*S    EENTRO =        -0.03835613
  eigenvalues    EBANDS =      -617.43602184
  atomic energy  EATOM  =      3354.04126044
  ---------------------------------------------------
  free energy    TOTEN  =      -122.88104702 eV

  energy without entropy =     -122.84269089  energy(sigma->0) =     -122.86186896


--------------------------------------------------------------------------------------------------------




----------------------------------------- Iteration    1(  22)  ---------------------------------------


    POTLOK:  cpu time   15.03: real time   15.03
    SETDIJ:  cpu time    0.01: real time    0.02
     EDDAV:  cpu time   69.39: real time   69.40
       DOS:  cpu time    0.01: real time    0.01
    CHARGE:  cpu time    4.36: real time    4.37
    MIXING:  cpu time    0.02: real time    0.02
    --------------------------------------------
      LOOP:  cpu time   88.83: real time   88.85

 eigenvalue-minimisations  :  6032
 total energy-change (2. order) : 0.1781498E-04  (-0.7155184E-06)
 number of electron     107.9999994 magnetization 
 augmentation part       -9.3205872 magnetization 

 Broyden mixing:
  rms(total) = 0.27194E-04    rms(broyden)= 0.27192E-04
  rms(prec ) = 0.42031E-04
  weight for this iteration     100.00

 eigenvalues of (default mixing * dielectric matrix)
  average eigenvalue GAMMA=   1.9757
  7.5426  5.0180  2.9774  2.6724  2.1449  1.6738  1.6738  1.3081  1.3081  0.6721
  0.7141  1.1547  0.9379  0.9379  0.9103  0.9701  0.9701

 Free energy of the ion-electron system (eV)
  ---------------------------------------------------
  alpha Z        PSCENC =        36.80884744
  Ewald energy   TEWEN  =     11986.75010126
  -Hartree energ DENC   =    -15124.13965460
  -exchange      EXHF   =         0.00000000
  -V(xc)+E(xc)   XCENC  =       -80.02862953
  PAW double counting   =      1157.23413676     -836.08922127
  entropy T*S    EENTRO =        -0.03835653
  eigenvalues    EBANDS =      -617.41951319
  atomic energy  EATOM  =      3354.04126044
  ---------------------------------------------------
  free energy    TOTEN  =      -122.88102921 eV

  energy without entropy =     -122.84267268  energy(sigma->0) =     -122.86185094


--------------------------------------------------------------------------------------------------------




----------------------------------------- Iteration    1(  23)  ---------------------------------------


    POTLOK:  cpu time   15.09: real time   15.09
    SETDIJ:  cpu time    0.02: real time    0.02
     EDDAV:  cpu time   71.27: real time   71.29
       DOS:  cpu time    0.01: real time    0.01
    CHARGE:  cpu time    4.36: real time    4.36
    MIXING:  cpu time    0.02: real time    0.02
    --------------------------------------------
      LOOP:  cpu time   90.77: real time   90.79

 eigenvalue-minimisations  :  6100
 total energy-change (2. order) : 0.2775523E-04  (-0.3237323E-06)
 number of electron     107.9999994 magnetization 
 augmentation part       -9.3205880 magnetization 

 Broyden mixing:
  rms(total) = 0.16974E-04    rms(broyden)= 0.16973E-04
  rms(prec ) = 0.23892E-04
  weight for this iteration     100.00

 eigenvalues of (default mixing * dielectric matrix)
  average eigenvalue GAMMA=   2.0504
  7.5546  6.1696  3.2517  2.7376  2.4204  2.0034  1.5348  1.5348  1.2704  1.2704
  0.6721  0.7141  1.1087  0.9371  0.9371  0.9068  0.9415  0.9415

 Free energy of the ion-electron system (eV)
  ---------------------------------------------------
  alpha Z        PSCENC =        36.80884744
  Ewald energy   TEWEN  =     11986.75010126
  -Hartree energ DENC   =    -15124.14767383
  -exchange      EXHF   =         0.00000000
  -V(xc)+E(xc)   XCENC  =       -80.02862780
  PAW double counting   =      1157.23429209     -836.08938332
  entropy T*S    EENTRO =        -0.03835653
  eigenvalues    EBANDS =      -617.41146122
  atomic energy  EATOM  =      3354.04126044
  ---------------------------------------------------
  free energy    TOTEN  =      -122.88100145 eV

[...]
     31      -4.1209      2.00000
     32      -3.8810      2.00000
     33      -3.7290      2.00000
     34      -3.4458      2.00000
     35      -3.3816      2.00000
     36      -3.2939      2.00000
     37      -3.2251      2.00000
     38      -3.0253      2.00000
     39      -2.8129      2.00000
     40      -2.7424      2.00000
     41      -2.6985      2.00000
     42      -2.6193      2.00000
     43      -2.3541      2.00000
     44      -2.1734      2.00000
     45      -2.0710      2.00000
     46      -1.9707      2.00000
     47      -1.9285      2.00000
     48      -1.8697      2.00000
     49      -1.5429      2.00000
     50      -1.2185      2.00000
     51      -1.0787      2.00000
     52      -0.9398      2.00000
     53      -0.1524      2.00000
     54       0.3627      1.54214
     55       0.6719      0.00028
     56       1.0406      0.00000
     57       1.1577      0.00000
     58       1.3413      0.00000
     59       1.4693      0.00000
     60       1.8768      0.00000
     61       2.0933      0.00000
     62       2.1876      0.00000
     63       2.4175      0.00000
     64       2.5550      0.00000
     65       2.6205      0.00000
     66       2.8588      0.00000
     67       2.9313      0.00000
     68       3.0961      0.00000

 k-point    52 :       0.3077    0.5000    0.5000
  band No.  band energies     occupation 
      1     -14.1760      2.00000
      2     -12.6748      2.00000
      3     -12.3231      2.00000
      4     -12.0210      2.00000
      5     -11.8133      2.00000
      6     -11.4977      2.00000
      7     -11.1818      2.00000
      8     -10.9677      2.00000
      9     -10.8304      2.00000
     10     -10.5559      2.00000
     11     -10.4973      2.00000
     12      -9.8739      2.00000
     13      -9.0860      2.00000
     14      -8.4506      2.00000
     15      -8.1642      2.00000
     16      -7.9408      2.00000
     17      -7.3144      2.00000
     18      -7.2273      2.00000
     19      -7.1347      2.00000
     20      -6.9288      2.00000
     21      -6.5610      2.00000
     22      -6.3380      2.00000
     23      -6.0937      2.00000
     24      -5.8720      2.00000
     25      -5.5183      2.00000
     26      -5.2435      2.00000
     27      -5.0613      2.00000
     28      -4.8374      2.00000
     29      -4.6456      2.00000
     30      -4.4913      2.00000
     31      -4.2403      2.00000
     32      -4.1320      2.00000
     33      -3.8900      2.00000
     34      -3.5248      2.00000
     35      -3.4251      2.00000
     36      -3.3444      2.00000
     37      -3.2376      2.00000
     38      -3.1113      2.00000
     39      -3.0505      2.00000
     40      -2.8971      2.00000
     41      -2.6890      2.00000
     42      -2.6139      2.00000
     43      -2.5017      2.00000
     44      -2.4010      2.00000
     45      -2.2467      2.00000
     46      -2.1209      2.00000
     47      -2.0829      2.00000
     48      -2.0082      2.00000
     49      -1.8916      2.00000
     50      -1.6037      2.00000
     51      -1.4401      2.00000
     52      -0.9070      2.00000
     53      -0.1713      2.00000
     54       0.1237      1.99996
     55       0.4752      0.39607
     56       0.9606      0.00000
     57       1.1022      0.00000
     58       1.1730      0.00000
     59       1.4059      0.00000
     60       1.7487      0.00000
     61       1.9490      0.00000
     62       2.0266      0.00000
     63       2.1206      0.00000
     64       2.2304      0.00000
     65       2.3318      0.00000
     66       2.3778      0.00000
     67       2.5900      0.00000
     68       2.8288      0.00000

 k-point    53 :       0.3846    0.5000    0.5000
  band No.  band energies     occupation 
      1     -13.8266      2.00000
      2     -12.1982      2.00000
      3     -11.8263      2.00000
      4     -11.5683      2.00000
      5     -11.4188      2.00000
      6     -11.1391      2.00000
      7     -10.9384      2.00000
      8     -10.7749      2.00000
      9     -10.6978      2.00000
     10     -10.6217      2.00000
     11     -10.1402      2.00000
     12     -10.0515      2.00000
     13      -9.0703      2.00000
     14      -8.6213      2.00000
     15      -8.4173      2.00000
     16      -8.3721      2.00000
     17      -7.7798      2.00000
     18      -7.7008      2.00000
     19      -7.5540      2.00000
     20      -7.2227      2.00000
     21      -6.9472      2.00000
     22      -6.8774      2.00000
     23      -6.8198      2.00000
     24      -6.4461      2.00000
     25      -5.4609      2.00000
     26      -5.2508      2.00000
     27      -4.8894      2.00000
     28      -4.8294      2.00000
     29      -4.6737      2.00000
     30      -4.2990      2.00000
     31      -4.1975      2.00000
     32      -4.1414      2.00000
     33      -3.9539      2.00000
     34      -3.6946      2.00000
     35      -3.6516      2.00000
     36      -3.4259      2.00000
     37      -3.3365      2.00000
     38      -3.2702      2.00000
     39      -3.0863      2.00000
     40      -3.0455      2.00000
     41      -2.8623      2.00000
     42      -2.6815      2.00000
     43      -2.5901      2.00000
     44      -2.4553      2.00000
     45      -2.3100      2.00000
     46      -2.2854      2.00000
     47      -2.2316      2.00000
     48      -2.1842      2.00000
     49      -2.0444      2.00000
     50      -1.9331      2.00000
     51      -1.5909      2.00000
     52      -0.8559      2.00000
     53      -0.2673      2.00000
     54       0.0349      2.00000
     55       0.3602      1.56332
     56       0.8431      0.00000
     57       1.0958      0.00000
     58       1.3043      0.00000
     59       1.3536      0.00000
     60       1.4960      0.00000
     61       1.7229      0.00000
     62       1.8146      0.00000
     63       1.9274      0.00000
     64       1.9994      0.00000
     65       2.0711      0.00000
     66       2.1929      0.00000
     67       2.2659      0.00000
     68       2.5582      0.00000

 k-point    54 :       0.4615    0.5000    0.5000
  band No.  band energies     occupation 
      1     -13.5732      2.00000
      2     -11.6557      2.00000
      3     -11.3288      2.00000
      4     -11.1474      2.00000
      5     -11.1263      2.00000
      6     -11.0080      2.00000
      7     -10.9633      2.00000
      8     -10.8834      2.00000
      9     -10.7793      2.00000
     10     -10.7273      2.00000
     11     -10.2439      2.00000
     12      -9.7960      2.00000
     13      -8.8949      2.00000
     14      -8.8257      2.00000
     15      -8.6071      2.00000
     16      -8.4146      2.00000
     17      -8.2815      2.00000
     18      -7.7989      2.00000
     19      -7.7314      2.00000
     20      -7.6463      2.00000
     21      -7.4567      2.00000
     22      -7.3282      2.00000
     23      -7.2396      2.00000
     24      -6.5951      2.00000
     25      -5.2473      2.00000
     26      -5.1097      2.00000
     27      -4.7834      2.00000
     28      -4.6269      2.00000
     29      -4.5276      2.00000
     30      -4.3619      2.00000
     31      -4.2332      2.00000
     32      -4.1008      2.00000
     33      -3.9271      2.00000
     34      -3.8115      2.00000
     35      -3.7278      2.00000
     36      -3.5068      2.00000
     37      -3.4292      2.00000
     38      -3.3901      2.00000
     39      -3.1971      2.00000
     40      -3.1438      2.00000
     41      -3.0175      2.00000
     42      -2.8604      2.00000
     43      -2.7419      2.00000
     44      -2.5689      2.00000
     45      -2.5049      2.00000
     46      -2.3369      2.00000
     47      -2.2419      2.00000
     48      -2.1437      2.00000
     49      -2.0440      2.00000
     50      -1.8621      2.00000
     51      -1.6757      2.00000
     52      -0.8575      2.00000
     53      -0.3041      2.00000
     54       0.0703      2.00000
     55       0.2858      1.93265
     56       0.7050      0.00004
     57       1.1364      0.00000
     58       1.1698      0.00000
     59       1.2884      0.00000
     60       1.4260      0.00000
     61       1.6138      0.00000
     62       1.8045      0.00000
     63       1.8412      0.00000
     64       1.8950      0.00000
     65       2.0049      0.00000
     66       2.1410      0.00000
     67       2.2448      0.00000
     68       2.4163      0.00000


--------------------------------------------------------------------------------------------------------


 soft charge-density along one line, spin component           1
         0         1         2         3         4         5         6         7         8         9
 total charge-density along one line
 
 pseudopotential strength for first ion, spin component:           1
 29.823   0.008  -0.001  -0.022  -0.000  -0.000  -0.001  -0.000
  0.008   0.009   0.000  -0.000   0.000  -0.000   0.000  -0.000
 -0.001   0.000   6.557  -0.001  -0.000  -0.003   0.000   0.000
 -0.022  -0.000  -0.001   6.552  -0.000   0.000  -0.003   0.000
 -0.000   0.000  -0.000  -0.000   6.558   0.000   0.000  -0.003
 -0.000  -0.000  -0.003   0.000   0.000   0.015  -0.000  -0.000
 -0.001   0.000   0.000  -0.003   0.000  -0.000   0.015   0.000
 -0.000  -0.000   0.000   0.000  -0.003  -0.000   0.000   0.015
 total augmentation occupancy for first ion, spin component:           1
  1.805  -0.381   0.006   0.250   0.000   0.001   0.110  -0.000
 -0.381   1.245   0.019   0.838  -0.000   0.002  -0.436   0.000
  0.006   0.019   1.148   0.012   0.000  -0.504   0.012   0.000
  0.250   0.838   0.012   1.300   0.000   0.012  -0.423  -0.000
  0.000  -0.000   0.000   0.000   1.148   0.000  -0.000  -0.530
  0.001   0.002  -0.504   0.012   0.000   0.292  -0.014  -0.000
  0.110  -0.436   0.012  -0.423  -0.000  -0.014   0.228   0.000
 -0.000   0.000   0.000  -0.000  -0.530  -0.000   0.000   0.328


------------------------ aborting loop because EDIFF is reached ----------------------------------------


    CHARGE:  cpu time    4.31: real time    4.31
    FORLOC:  cpu time    0.07: real time    0.07
    FORNL :  cpu time   24.34: real time   24.34
    STRESS:  cpu time   72.43: real time   72.44
    FORCOR:  cpu time   15.69: real time   15.70
    FORHAR:  cpu time    0.19: real time    0.19
    MIXING:  cpu time    0.02: real time    0.02
    OFIELD:  cpu time    0.00: real time    0.00

  FORCE on cell =-STRESS in cart. coord.  units (eV):
  Direction    XX          YY          ZZ          XY          YZ          ZX
  --------------------------------------------------------------------------------------
  Alpha Z    36.80885    36.80885    36.80885
  Ewald   14502.12472 13893.55600-16408.93827    11.75264    32.60499   -13.85094
  Hartree 14969.73542 14564.55729-14410.14467     2.48299    13.40072    -0.05747
  E(xc)    -357.21665  -357.24176  -355.48042    -0.01119     0.17598     0.07092
  Local  -31017.20668-30020.23086 29236.43122   -13.51851   -43.85264    10.49777
  n-local  1158.77630  1153.05721  1139.26435     1.61412    -1.55322    -3.78795
  augment  -201.92796  -202.75761  -203.84003    -0.15283     0.11398    -0.21749
  Kinetic   924.17310   936.40192   974.11116     1.39082    -0.73021     6.98244
  Fock        0.00000     0.00000     0.00000     0.00000     0.00000     0.00000
  -------------------------------------------------------------------------------------
  Total      15.26709     4.15103     8.21219     3.55806     0.15961    -0.36271
  in kB      24.40397     6.63530    13.12693     5.68744     0.25513    -0.57979
  external pressure =       14.72 kB  Pullay stress =        0.00 kB


 VOLUME and BASIS-vectors are now :
 -----------------------------------------------------------------------------
  energy-cutoff  :      300.00
  volume of cell :     1002.32
      direct lattice vectors                 reciprocal lattice vectors
     3.540400000  0.000000000  0.000000000     0.282453960  0.048570342  0.000000000
    -1.770200000 10.294348000  0.000000000     0.000000000  0.097140683  0.000000000
     0.000000000  0.000000000 27.501429000     0.000000000  0.000000000  0.036361747

  length of vectors
     3.540400000 10.445439617 27.501429000     0.286599577  0.097140683  0.036361747


 FORCES acting on ions
    electron-ion (+dipol)            ewald-force                    non-local-force                 convergence-correction
 -----------------------------------------------------------------------------------------------
   0.109E-01 0.117E+02 0.316E+02   0.658E-02 -.115E+02 -.271E+02   -.127E-01 -.273E+00 -.442E+01   -.751E-08 0.226E-05 0.364E-05
   0.107E+00 0.124E+02 -.554E+03   -.627E-02 -.126E+02 0.557E+03   -.690E-01 0.215E+00 -.336E+01   0.285E-07 0.248E-06 -.156E-05
   -.617E-02 0.645E+02 0.459E+02   0.208E-04 -.661E+02 -.416E+02   0.527E-02 0.158E+01 -.417E+01   -.111E-07 -.117E-05 0.338E-06
   -.855E-01 0.174E+02 -.526E+03   0.343E+00 -.185E+02 0.530E+03   0.583E-02 0.115E+01 -.312E+01   -.324E-08 0.200E-05 -.456E-05
   0.824E-03 -.576E+02 0.526E+03   0.910E-04 0.592E+02 -.531E+03   -.478E-03 -.155E+01 0.428E+01   -.116E-07 -.169E-05 -.608E-05
   -.244E+01 -.111E+03 -.580E+02   0.273E+01 0.113E+03 0.568E+02   -.770E+00 -.329E+01 0.193E+01   0.288E-07 0.155E-06 0.216E-05
   -.802E-03 0.542E+02 0.526E+03   0.166E-04 -.561E+02 -.530E+03   0.495E-03 0.193E+01 0.417E+01   0.538E-08 0.311E-06 -.354E-05
   -.178E+00 0.112E+03 -.806E+02   -.227E+00 -.115E+03 0.795E+02   -.971E-01 0.343E+01 0.202E+01   -.658E-07 -.781E-06 0.377E-05
   0.154E-04 0.184E+01 0.573E+03   -.866E-04 -.204E+01 -.577E+03   0.119E-02 0.197E+00 0.479E+01   0.214E-06 0.274E-05 -.446E-05
   0.303E+01 0.269E+01 0.287E+02   -.279E+01 -.341E+01 -.300E+02   -.973E+00 -.665E-01 -.160E+01   -.928E-06 0.175E-05 0.120E-05
   -.565E-03 -.671E+02 0.603E+02   -.206E-02 0.690E+02 -.560E+02   0.271E-02 -.197E+01 -.412E+01   -.200E-07 -.122E-05 0.182E-05
   0.193E-01 -.359E+02 -.554E+03   0.286E+00 0.375E+02 0.557E+03   0.402E-01 -.129E+01 -.226E+01   -.225E-06 -.249E-05 -.753E-07
   0.928E-02 0.311E+02 0.208E+03   -.353E-04 -.332E+02 -.208E+03   -.644E-02 0.214E+01 0.351E+00   0.831E-09 -.102E-05 -.342E-05
   0.435E+01 -.457E+02 -.264E+03   -.367E+01 0.434E+02 0.265E+03   -.615E+00 0.294E+01 -.266E+01   0.101E-08 0.105E-05 0.765E-06
   0.608E-02 -.128E+02 0.140E+03   0.760E-03 0.132E+02 -.143E+03   -.667E-02 -.299E+00 0.255E+01   0.106E-07 0.901E-07 -.101E-05
   0.160E+01 0.210E+02 -.333E+03   -.133E+01 -.222E+02 0.333E+03   -.327E-02 0.352E+00 -.901E-01   0.127E-06 -.533E-06 0.238E-05
   -.399E-02 -.537E+01 0.346E+03   0.818E-04 0.580E+01 -.344E+03   0.168E-02 -.445E+00 -.254E+01   -.408E-07 0.220E-06 -.537E-05
   -.148E+02 -.389E+02 -.108E+03   0.131E+02 0.404E+02 0.113E+03   0.698E+01 0.268E+01 -.984E+01   0.366E-06 0.148E-05 0.871E-06
   0.614E-03 0.103E+02 0.335E+03   -.113E-04 -.105E+02 -.333E+03   -.177E-02 0.201E+00 -.239E+01   0.131E-07 0.156E-05 -.429E-05
   -.282E+00 0.597E+02 -.141E+03   0.305E+00 -.619E+02 0.140E+03   -.425E+00 -.243E+00 -.211E+00   -.938E-07 -.225E-06 0.196E-05
   -.700E-02 0.130E+02 0.127E+03   -.325E-03 -.135E+02 -.130E+03   0.905E-02 0.527E+00 0.264E+01   0.742E-08 0.118E-05 -.941E-06
   -.786E-01 0.845E+01 -.297E+03   -.136E-01 -.747E+01 0.295E+03   0.848E-01 -.756E+00 0.245E+01   -.856E-08 0.298E-06 -.340E-06
   -.124E-02 -.321E+02 0.254E+03   -.119E-03 0.342E+02 -.253E+03   0.250E-02 -.209E+01 -.360E+00   0.166E-08 -.354E-06 -.433E-05
   0.115E+02 -.125E+02 -.277E+03   -.872E+01 0.179E+02 0.276E+03   -.689E+01 -.690E+01 0.883E+01   -.172E-06 0.105E-05 0.207E-05
 -----------------------------------------------------------------------------------------------
   0.274E+01 0.182E+01 0.715E+01   -.178E-13 0.888E-13 0.114E-12   -.273E+01 -.182E+01 -.715E+01   -.784E-06 0.692E-05 -.190E-04
 
 
 POSITION                                       TOTAL-FORCE (eV/Angst)
 -----------------------------------------------------------------------------------
      0.00000      2.34757      6.41229         0.004515     -0.014995      0.009629
     -1.59318      9.55362     14.16300         0.031798      0.060847      0.025483
     -0.00000      9.43147      5.75866        -0.001164     -0.009131      0.104127
      0.17702      6.34316     13.50937         0.262983      0.102790      0.806675
     -0.00000      6.40009      2.31424         0.000154     -0.000906      0.001863
     -0.00000      6.40009     10.06495        -0.478046     -0.674267      0.740016
      1.77020     10.27849      2.37372        -0.000574      0.011810      0.013519
      1.77020     10.27849     10.12443        -0.502545      0.715394      0.909544
      1.77020      3.18974      1.66157         0.000840     -0.005233     -0.001384
      1.77020      3.18974      9.41228        -0.734548     -0.788545     -2.897882
      1.77020      5.55354      5.69975        -0.000195      0.005853      0.114205
      1.94722      2.46524     13.45047         0.345413      0.325538      0.072002
      1.77020      9.05319      4.34076         0.002524     -0.005912      0.010201
      1.94722      5.96488     12.09147         0.064316      0.696956     -1.649281
      0.00000      4.22380      5.10944        -0.000111      0.069746      0.005790
      0.17702      1.13550     12.86016         0.264192     -0.853737      0.078432
     -0.00000      4.15582      2.74166        -0.002519     -0.012569     -0.011579
     -0.00000      4.15582     10.49237         5.267283      4.130029     -4.999770
      1.77020      1.31366      2.96438        -0.001455      0.021139     -0.043064
      1.77020      1.31366     10.71510        -0.402591     -2.476893     -1.480688
      1.77020      1.38163      5.33187         0.001438     -0.066072      0.043954
      0.17702      8.58767     13.08259        -0.007653      0.221652     -0.080595
      1.77020      6.77850      3.73234         0.000866     -0.016770      0.002016
      1.94722      3.69019     11.48306        -4.114922     -1.436723      8.226787
 -----------------------------------------------------------------------------------
    total drift:                                0.006796     -0.000417      0.003856


--------------------------------------------------------------------------------------------------------



  FREE ENERGIE OF THE ION-ELECTRON SYSTEM (eV)
  ---------------------------------------------------
  free  energy   TOTEN  =      -122.88094464 eV

  energy  without entropy=     -122.84258797  energy(sigma->0) =     -122.86176631
 


--------------------------------------------------------------------------------------------------------


    POTLOK:  cpu time   15.68: real time   15.68


--------------------------------------------------------------------------------------------------------


     LOOP+:  cpu time 3231.71: real time 3232.43
    4ORBIT:  cpu time    0.00: real time    0.00

 total amount of memory used by VASP on root node   146493. kBytes
========================================================================

   base      :      30000. kBytes
   nonlr-proj:       3452. kBytes
   fftplans  :       9347. kBytes
   grid      :      14649. kBytes
   one-center:         36. kBytes
   wavefun   :      89009. kBytes
 
  
  
 General timing and accounting informations for this job:
 ========================================================
  
                  Total CPU time used (sec):     3253.088
                            User time (sec):     3215.497
                          System time (sec):       37.591
                         Elapsed time (sec):     3254.860
  
                   Maximum memory used (kb):      335280.
                   Average memory used (kb):           0.
  
                          Minor page faults:      8341061
                          Major page faults:           11
                 Voluntary context switches:         1839
