<?xml version="1.0" encoding="ISO-8859-1"?>
<modeling>
 <generator>
  <i name="program" type="string">vasp </i>
  <i name="version" type="string">5.3.5  </i>
  <i name="subversion" type="string">31Mar14 (build Oct 29 2014 16:16:03) complex                          parallel </i>
  <i name="platform" type="string">Linux-UFHPC </i>
  <i name="date" type="string">2016 02 09 </i>
  <i name="time" type="string">18:16:23 </i>
 </generator>
 <incar>
  <i type="string" name="PREC">accurate</i>
  <i type="int" name="IBRION">     2</i>
  <i name="EDIFF">      0.00000100</i>
  <i type="int" name="NSW">     0</i>
  <i type="int" name="ISIF">     3</i>
  <i name="ENCUT">    300.00000000</i>
  <i type="string" name="LREAL"> Auto</i>
  <i type="int" name="ISMEAR">     0</i>
  <i name="SIGMA">      0.10000000</i>
  <i type="logical" name="LWAVE"> F  </i>
  <i type="logical" name="LCHARG"> F  </i>
  <i type="logical" name="LAECHG"> F  </i>
  <i type="string" name="GGA"> Bo</i>
  <i name="PARAM1">      0.18333333</i>
  <i name="PARAM2">      0.22000000</i>
  <i type="logical" name="LUSE_VDW"> T  </i>
  <i name="AGGAC">      0.00000000</i>
 </incar>
 <kpoints>
  <generation param="Gamma">
   <v type="int" name="divisions">      13        4        2 </v>
   <v name="usershift">      0.00000000       0.00000000       0.00000000 </v>
   <v name="genvec1">      0.07692308      -0.00000000       0.00000000 </v>
   <v name="genvec2">      0.00000000       0.25000000       0.00000000 </v>
   <v name="genvec3">      0.00000000       0.00000000       0.50000000 </v>
   <v name="shift">      0.00000000       0.00000000       0.00000000 </v>
  </generation>
  <varray name="kpointlist" >
   <v>       0.00000000       0.00000000       0.00000000 </v>
   <v>       0.07692308      -0.00000000       0.00000000 </v>
   <v>       0.15384615      -0.00000000       0.00000000 </v>
   <v>       0.23076923      -0.00000000       0.00000000 </v>
   <v>       0.30769231      -0.00000000       0.00000000 </v>
   <v>       0.38461538      -0.00000000       0.00000000 </v>
   <v>       0.46153846      -0.00000000       0.00000000 </v>
   <v>       0.00000000       0.25000000       0.00000000 </v>
   <v>       0.07692308       0.25000000       0.00000000 </v>
   <v>       0.15384615       0.25000000       0.00000000 </v>
   <v>       0.23076923       0.25000000       0.00000000 </v>
   <v>       0.30769231       0.25000000       0.00000000 </v>
   <v>       0.38461538       0.25000000       0.00000000 </v>
   <v>       0.46153846       0.25000000       0.00000000 </v>
   <v>      -0.46153846       0.25000000       0.00000000 </v>
   <v>      -0.38461538       0.25000000       0.00000000 </v>
   <v>      -0.30769231       0.25000000       0.00000000 </v>
   <v>      -0.23076923       0.25000000       0.00000000 </v>
   <v>      -0.15384615       0.25000000       0.00000000 </v>
   <v>      -0.07692308       0.25000000       0.00000000 </v>
   <v>       0.00000000       0.50000000       0.00000000 </v>
   <v>       0.07692308       0.50000000       0.00000000 </v>
   <v>       0.15384615       0.50000000       0.00000000 </v>
   <v>       0.23076923       0.50000000       0.00000000 </v>
   <v>       0.30769231       0.50000000       0.00000000 </v>
   <v>       0.38461538       0.50000000       0.00000000 </v>
   <v>       0.46153846       0.50000000       0.00000000 </v>
   <v>       0.00000000       0.00000000       0.50000000 </v>
   <v>       0.07692308      -0.00000000       0.50000000 </v>
   <v>       0.15384615      -0.00000000       0.50000000 </v>
   <v>       0.23076923      -0.00000000       0.50000000 </v>
   <v>       0.30769231      -0.00000000       0.50000000 </v>
   <v>       0.38461538      -0.00000000       0.50000000 </v>
   <v>       0.46153846      -0.00000000       0.50000000 </v>
   <v>       0.00000000       0.25000000       0.50000000 </v>
   <v>       0.07692308       0.25000000       0.50000000 </v>
   <v>       0.15384615       0.25000000       0.50000000 </v>
   <v>       0.23076923       0.25000000       0.50000000 </v>
   <v>       0.30769231       0.25000000       0.50000000 </v>
   <v>       0.38461538       0.25000000       0.50000000 </v>
   <v>       0.46153846       0.25000000       0.50000000 </v>
   <v>      -0.46153846       0.25000000       0.50000000 </v>
   <v>      -0.38461538       0.25000000       0.50000000 </v>
   <v>      -0.30769231       0.25000000       0.50000000 </v>
   <v>      -0.23076923       0.25000000       0.50000000 </v>
   <v>      -0.15384615       0.25000000       0.50000000 </v>
   <v>      -0.07692308       0.25000000       0.50000000 </v>
   <v>       0.00000000       0.50000000       0.50000000 </v>
   <v>       0.07692308       0.50000000       0.50000000 </v>
   <v>       0.15384615       0.50000000       0.50000000 </v>
   <v>       0.23076923       0.50000000       0.50000000 </v>
   <v>       0.30769231       0.50000000       0.50000000 </v>
   <v>       0.38461538       0.50000000       0.50000000 </v>
   <v>       0.46153846       0.50000000       0.50000000 </v>
  </varray>
  <varray name="weights" >
   <v>       0.00961538 </v>
   <v>       0.01923077 </v>
   <v>       0.01923077 </v>
   <v>       0.01923077 </v>
   <v>       0.01923077 </v>
   <v>       0.01923077 </v>
   <v>       0.01923077 </v>
   <v>       0.01923077 </v>
   <v>       0.01923077 </v>
   <v>       0.01923077 </v>
   <v>       0.01923077 </v>
   <v>       0.01923077 </v>
   <v>       0.01923077 </v>
   <v>       0.01923077 </v>
   <v>       0.01923077 </v>
   <v>       0.01923077 </v>
   <v>       0.01923077 </v>
   <v>       0.01923077 </v>
   <v>       0.01923077 </v>
   <v>       0.01923077 </v>
   <v>       0.00961538 </v>
   <v>       0.01923077 </v>
   <v>       0.01923077 </v>
   <v>       0.01923077 </v>
   <v>       0.01923077 </v>
   <v>       0.01923077 </v>
   <v>       0.01923077 </v>
   <v>       0.00961538 </v>
   <v>       0.01923077 </v>
   <v>       0.01923077 </v>
   <v>       0.01923077 </v>
   <v>       0.01923077 </v>
   <v>       0.01923077 </v>
   <v>       0.01923077 </v>
   <v>       0.01923077 </v>
   <v>       0.01923077 </v>
   <v>       0.01923077 </v>
   <v>       0.01923077 </v>
   <v>       0.01923077 </v>
   <v>       0.01923077 </v>
   <v>       0.01923077 </v>
   <v>       0.01923077 </v>
   <v>       0.01923077 </v>
   <v>       0.01923077 </v>
   <v>       0.01923077 </v>
   <v>       0.01923077 </v>
   <v>       0.01923077 </v>
   <v>       0.00961538 </v>
   <v>       0.01923077 </v>
   <v>       0.01923077 </v>
   <v>       0.01923077 </v>
   <v>       0.01923077 </v>
   <v>       0.01923077 </v>
   <v>       0.01923077 </v>
  </varray>
 </kpoints>
 <parameters>
  <separator name="general" >
   <i type="string" name="SYSTEM">unknown system</i>
   <i type="logical" name="LCOMPAT"> F  </i>
  </separator>
  <separator name="electronic" >
   <i type="string" name="PREC">accura</i>
   <i name="ENMAX">    300.00000000</i>
   <i name="ENAUG">    342.92400000</i>
   <i name="EDIFF">      0.00000100</i>
   <i type="int" name="IALGO">    38</i>
   <i type="int" name="IWAVPR">    10</i>
   <i type="int" name="NBANDS">    68</i>
   <i name="NELECT">    108.00000000</i>
   <i type="int" name="TURBO">     0</i>
   <i type="int" name="IRESTART">     0</i>
   <i type="int" name="NREBOOT">     0</i>
   <i type="int" name="NMIN">     0</i>
   <i name="EREF">      0.00000000</i>
   <separator name="electronic smearing" >
    <i type="int" name="ISMEAR">     0</i>
    <i name="SIGMA">      0.10000000</i>
    <i name="KSPACING">      0.50000000</i>
    <i type="logical" name="KGAMMA"> T  </i>
   </separator>
   <separator name="electronic projectors" >
    <i type="logical" name="LREAL"> T  </i>
    <v name="ROPT">     -0.00025000     -0.00025000</v>
    <i type="int" name="LMAXPAW">  -100</i>
    <i type="int" name="LMAXMIX">     2</i>
    <i type="logical" name="NLSPLINE"> F  </i>
   </separator>
   <separator name="electronic startup" >
    <i type="int" name="ISTART">     0</i>
    <i type="int" name="ICHARG">     2</i>
    <i type="int" name="INIWAV">     1</i>
   </separator>
   <separator name="electronic spin" >
    <i type="int" name="ISPIN">     1</i>
    <i type="logical" name="LNONCOLLINEAR"> F  </i>
    <v name="MAGMOM">      1.00000000      1.00000000      1.00000000      1.00000000      1.00000000      1.00000000      1.00000000      1.00000000      1.00000000      1.00000000      1.00000000      1.00000000      1.00000000      1.00000000      1.00000000      1.00000000      1.00000000      1.00000000      1.00000000      1.00000000
      1.00000000      1.00000000      1.00000000      1.00000000</v>
    <i name="NUPDOWN">     -1.00000000</i>
    <i type="logical" name="LSORBIT"> F  </i>
    <v name="SAXIS">      0.00000000      0.00000000      1.00000000</v>
    <i type="logical" name="LSPIRAL"> F  </i>
    <v name="QSPIRAL">      0.00000000      0.00000000      0.00000000</v>
    <i type="logical" name="LZEROZ"> F  </i>
   </separator>
   <separator name="electronic exchange-correlation" >
    <i type="logical" name="LASPH"> F  </i>
    <i type="logical" name="LMETAGGA"> F  </i>
   </separator>
   <separator name="electronic convergence" >
    <i type="int" name="NELM">    60</i>
    <i type="int" name="NELMDL">    -5</i>
    <i type="int" name="NELMIN">     2</i>
    <i name="ENINI">    300.00000000</i>
    <separator name="electronic convergence detail" >
     <i type="logical" name="LDIAG"> T  </i>
     <i type="logical" name="LSUBROT"> F  </i>
     <i name="WEIMIN">      0.00000000</i>
     <i name="EBREAK">      0.00000000</i>
     <i name="DEPER">      0.30000000</i>
     <i type="int" name="NRMM">     4</i>
     <i name="TIME">      0.40000000</i>
    </separator>
   </separator>
   <separator name="electronic mixer" >
    <i name="AMIX">      0.40000000</i>
    <i name="BMIX">      1.00000000</i>
    <i name="AMIN">      0.10000000</i>
    <i name="AMIX_MAG">      1.60000000</i>
    <i name="BMIX_MAG">      1.00000000</i>
    <separator name="electronic mixer details" >
     <i type="int" name="IMIX">     4</i>
     <i type="int" name="MAXMIX">   -45</i>
     <i name="WC">    100.00000000</i>
     <i type="int" name="INIMIX">     1</i>
     <i type="int" name="MIXPRE">     1</i>
     <i type="int" name="MREMOVE">     5</i>
    </separator>
   </separator>
   <separator name="electronic dipolcorrection" >
    <i type="logical" name="LDIPOL"> F  </i>
    <i type="logical" name="LMONO"> F  </i>
    <i type="int" name="IDIPOL">     0</i>
    <i name="EPSILON">      1.00000000</i>
    <v name="DIPOL">   -100.00000000   -100.00000000   -100.00000000</v>
    <i name="EFIELD">      0.00000000</i>
   </separator>
  </separator>
  <separator name="grids" >
   <i type="int" name="NGX">    20</i>
   <i type="int" name="NGY">    60</i>
   <i type="int" name="NGZ">   160</i>
   <i type="int" name="NGXF">    40</i>
   <i type="int" name="NGYF">   120</i>
   <i type="int" name="NGZF">   320</i>
   <i type="logical" name="ADDGRID"> F  </i>
  </separator>
  <separator name="ionic" >
   <i type="int" name="NSW">     0</i>
   <i type="int" name="IBRION">    -1</i>
   <i type="int" name="ISIF">     3</i>
   <i name="PSTRESS">      0.00000000</i>
   <i name="EDIFFG">      0.00001000</i>
   <i type="int" name="NFREE">     1</i>
   <i name="POTIM">      0.50000000</i>
   <i name="SMASS">     -3.00000000</i>
   <i name="SCALEE">      1.00000000</i>
  </separator>
  <separator name="ionic md" >
   <i name="TEBEG">      0.00010000</i>
   <i name="TEEND">      0.00010000</i>
   <i type="int" name="NBLOCK">     1</i>
   <i type="int" name="KBLOCK">     1</i>
   <i type="int" name="NPACO">   256</i>
   <i name="APACO">     16.00000000</i>
  </separator>
  <separator name="symmetry" >
   <i type="int" name="ISYM">     2</i>
   <i name="SYMPREC">      0.00001000</i>
  </separator>
  <separator name="dos" >
   <i type="logical" name="LORBIT"> F  </i>
   <v name="RWIGS">     -1.00000000     -1.00000000</v>
   <i type="int" name="NEDOS">   301</i>
   <i name="EMIN">     10.00000000</i>
   <i name="EMAX">    -10.00000000</i>
   <i name="EFERMI">      0.00000000</i>
  </separator>
  <separator name="writing" >
   <i type="int" name="NWRITE">     2</i>
   <i type="logical" name="LWAVE"> F  </i>
   <i type="logical" name="LCHARG"> F  </i>
   <i type="logical" name="LPARD"> F  </i>
   <i type="logical" name="LVTOT"> F  </i>
   <i type="logical" name="LVHAR"> F  </i>
   <i type="logical" name="LELF"> F  </i>
   <i type="logical" name="LOPTICS"> F  </i>
   <v name="STM">      0.00000000      0.00000000      0.00000000      0.00000000      0.00000000      0.00000000      0.00000000</v>
  </separator>
  <separator name="performance" >
   <i type="int" name="NPAR">     4</i>
   <i type="int" name="NSIM">     4</i>
   <i type="int" name="NBLK">    -1</i>
   <i type="logical" name="LPLANE"> T  </i>
   <i type="logical" name="LSCALAPACK"> T  </i>
   <i type="logical" name="LSCAAWARE"> F  </i>
   <i type="logical" name="LSCALU"> F  </i>
   <i type="logical" name="LASYNC"> F  </i>
   <i type="logical" name="LORBITALREAL"> F  </i>
  </separator>
  <separator name="miscellaneous" >
   <i type="int" name="IDIOT">     3</i>
   <i type="logical" name="LMUSIC"> F  </i>
   <v name="POMASS">     30.97400000     28.08500000</v>
   <v name="DARWINR">      0.00000000      0.00000000</v>
   <v name="DARWINV">      1.00000000      1.00000000</v>
   <i type="logical" name="LCORR"> T  </i>
  </separator>
  <i type="logical" name="GGA_COMPAT"> T  </i>
  <i type="logical" name="LBERRY"> F  </i>
  <i type="int" name="ICORELEVEL">     0</i>
  <i type="logical" name="LDAU"> F  </i>
  <i type="int" name="I_CONSTRAINED_M">     0</i>
  <separator name="electronic exchange-correlation" >
   <i type="string" name="GGA">BO</i>
   <i type="int" name="VOSKOWN">     0</i>
   <i type="logical" name="LHFCALC"> F  </i>
   <i type="string" name="PRECFOCK"></i>
   <i type="logical" name="LSYMGRAD"> F  </i>
   <i type="logical" name="LHFONE"> F  </i>
   <i type="logical" name="LRHFCALC"> F  </i>
   <i type="logical" name="LTHOMAS"> F  </i>
   <i type="logical" name="LMODELHF"> F  </i>
   <i name="ENCUT4O">     -1.00000000</i>
   <i type="int" name="EXXOEP">     0</i>
   <i type="int" name="FOURORBIT">     0</i>
   <i name="AEXX">      0.00000000</i>
   <i name="HFALPHA">      0.00000000</i>
   <i name="MCALPHA">      0.00000000</i>
   <i name="ALDAX">      1.00000000</i>
   <i name="AGGAX">      1.00000000</i>
   <i name="ALDAC">      1.00000000</i>
   <i name="AGGAC">      0.00000000</i>
   <i type="int" name="NKREDX">     1</i>
   <i type="int" name="NKREDY">     1</i>
   <i type="int" name="NKREDZ">     1</i>
   <i type="logical" name="SHIFTRED"> F  </i>
   <i type="logical" name="ODDONLY"> F  </i>
   <i type="logical" name="EVENONLY"> F  </i>
   <i type="int" name="LMAXFOCK">     0</i>
   <i type="int" name="NMAXFOCKAE">     0</i>
   <i type="logical" name="LFOCKAEDFT"> F  </i>
   <i name="HFSCREEN">      0.00000000</i>
   <i name="HFSCREENC">      0.00000000</i>
   <i type="int" name="NBANDSGWLOW">     0</i>
  </separator>
  <separator name="vdW DFT" >
   <i type="logical" name="LUSE_VDW"> T  </i>
   <i name="Zab_VDW">     -0.84910000</i>
   <i name="PARAM1">      0.18333333</i>
   <i name="PARAM2">      0.22000000</i>
   <i name="PARAM3">      0.00000000</i>
  </separator>
  <separator name="model GW" >
   <i type="int" name="MODEL_GW">     0</i>
   <i name="MODEL_EPS0">     25.05800243</i>
   <i name="MODEL_ALPHA">      1.00000000</i>
  </separator>
  <separator name="linear response parameters" >
   <i type="logical" name="LEPSILON"> F  </i>
   <i type="logical" name="LRPA"> F  </i>
   <i type="logical" name="LNABLA"> F  </i>
   <i type="logical" name="LVEL"> F  </i>
   <i type="int" name="KINTER">     0</i>
   <i name="CSHIFT">      0.10000000</i>
   <i name="OMEGAMAX">     -1.00000000</i>
   <i name="DEG_THRESHOLD">      0.00200000</i>
  </separator>
  <separator name="orbital magnetization" >
   <i type="logical" name="NUCIND"> F  </i>
   <v name="MAGPOS">      0.00000000      0.00000000      0.00000000</v>
   <i type="logical" name="LNICSALL"> T  </i>
   <i type="logical" name="ORBITALMAG"> F  </i>
   <i type="logical" name="LMAGBLOCH"> F  </i>
   <i type="logical" name="LCHIMAG"> F  </i>
   <i type="logical" name="LGAUGE"> T  </i>
   <i type="int" name="MAGATOM">     0</i>
   <v name="MAGDIPOL">      0.00000000      0.00000000      0.00000000</v>
   <v name="AVECCONST">      0.00000000      0.00000000      0.00000000</v>
  </separator>
  <separator name="response functions" >
   <i type="logical" name="LADDER"> F  </i>
   <i type="logical" name="LFXC"> F  </i>
   <i type="logical" name="LHARTREE"> T  </i>
   <i type="int" name="IBSE">     0</i>
   <i type="logical" name="LTCTE"> F  </i>
   <i type="logical" name="LTETE"> F  </i>
   <i type="logical" name="LTRIPLET"> F  </i>
   <i type="logical" name="LFXCEPS"> F  </i>
   <i type="logical" name="LFXHEG"> F  </i>
   <i type="logical" name="L2ORDER"> F  </i>
   <i type="logical" name="LUSEW"> F  </i>
   <i name="ENCUTGW">     -2.00000000</i>
   <i name="ENCUTGWSOFT">     -2.00000000</i>
   <i name="ENCUTLF">     -1.00000000</i>
   <i type="int" name="LMAXMP2">    -1</i>
   <i name="SCISSOR">      0.00000000</i>
   <i type="int" name="NOMEGA">     0</i>
   <i type="int" name="NOMEGAR">     0</i>
   <i type="int" name="NBANDSGW">    -1</i>
   <i type="int" name="NBANDSO">    -1</i>
   <i type="int" name="NBANDSV">    -1</i>
   <i type="int" name="NELM">     1</i>
   <i type="int" name="DIM">     3</i>
   <i type="int" name="ANTIRES">     0</i>
   <i name="OMEGAMAX">    -30.00000000</i>
   <i name="OMEGAMIN">    -30.00000000</i>
   <i name="OMEGATL">   -200.00000000</i>
   <i type="int" name="OMEGAGRID">     0</i>
   <i name="CSHIFT">     -0.10000000</i>
   <i type="logical" name="SELFENERGY"> F  </i>
   <i type="logical" name="LSPECTRAL"> F  </i>
   <i type="logical" name="ODDONLYGW"> F  </i>
   <i type="logical" name="EVENONLYGW"> F  </i>
   <i type="int" name="NKREDLFX">     1</i>
   <i type="int" name="NKREDLFY">     1</i>
   <i type="int" name="NKREDLFZ">     1</i>
   <i type="int" name="MAXMEM">  1800</i>
   <i type="int" name="TELESCOPE">     0</i>
   <i type="int" name="TAUPAR">     1</i>
  </separator>
  <separator name="External order field" >
   <i name="OFIELD_KAPPA">      0.00000000</i>
   <v name="OFIELD_K">      0.00000000      0.00000000      0.00000000</v>
   <i name="OFIELD_Q6_NEAR">      0.00000000</i>
   <i name="OFIELD_Q6_FAR">      0.00000000</i>
   <i name="OFIELD_A">      0.00000000</i>
  </separator>
 </parameters>
 <atominfo>
  <atoms>      24 </atoms>
  <types>       2 </types>
  <array name="atoms" >
   <dimension dim="1">ion</dimension>
   <field type="string">element</field>
   <field type="int">atomtype</field>
   <set>
    <rc><c>P </c><c>   1</c></rc>
    <rc><c>P </c><c>   1</c></rc>
    <rc><c>P </c><c>   1</c></rc>
    <rc><c>P </c><c>   1</c></rc>
    <rc><c>P </c><c>   1</c></rc>
    <rc><c>P </c><c>   1</c></rc>
    <rc><c>P </c><c>   1</c></rc>
    <rc><c>P </c><c>   1</c></rc>
    <rc><c>P </c><c>   1</c></rc>
    <rc><c>P </c><c>   1</c></rc>
    <rc><c>P </c><c>   1</c></rc>
    <rc><c>P </c><c>   1</c></rc>
    <rc><c>Si</c><c>   2</c></rc>
    <rc><c>Si</c><c>   2</c></rc>
    <rc><c>Si</c><c>   2</c></rc>
    <rc><c>Si</c><c>   2</c></rc>
    <rc><c>Si</c><c>   2</c></rc>
    <rc><c>Si</c><c>   2</c></rc>
    <rc><c>Si</c><c>   2</c></rc>
    <rc><c>Si</c><c>   2</c></rc>
    <rc><c>Si</c><c>   2</c></rc>
    <rc><c>Si</c><c>   2</c></rc>
    <rc><c>Si</c><c>   2</c></rc>
    <rc><c>Si</c><c>   2</c></rc>
   </set>
  </array>
  <array name="atomtypes" >
   <dimension dim="1">type</dimension>
   <field type="int">atomspertype</field>
   <field type="string">element</field>
   <field>mass</field>
   <field>valence</field>
   <field type="string">pseudopotential</field>
   <set>
    <rc><c>  12</c><c>P </c><c>     30.97400000</c><c>      5.00000000</c><c>  PAW_PBE P 17Jan2003                   </c></rc>
    <rc><c>  12</c><c>Si</c><c>     28.08500000</c><c>      4.00000000</c><c> PAW_PBE Si 05Jan2001                   </c></rc>
   </set>
  </array>
 </atominfo>
 <structure name="initialpos" >
  <crystal>
   <varray name="basis" >
    <v>       3.54040000       0.00000000       0.00000000 </v>
    <v>      -1.77020000      10.29434800       0.00000000 </v>
    <v>       0.00000000       0.00000000      27.50142900 </v>
   </varray>
   <i name="volume">   1002.32009712 </i>
   <varray name="rec_basis" >
    <v>       0.28245396       0.04857034       0.00000000 </v>
    <v>       0.00000000       0.09714068       0.00000000 </v>
    <v>       0.00000000       0.00000000       0.03636175 </v>
   </varray>
  </crystal>
  <varray name="positions" >
   <v>       0.11402300       0.22804500       0.23316207 </v>
   <v>       0.71402300       0.42804500       0.51499159 </v>
   <v>       0.45808900       0.91617900       0.20939482 </v>
   <v>       0.05808900       0.11617900       0.49122434 </v>
   <v>       0.31085400       0.62170900       0.08414979 </v>
   <v>       0.31085400       0.62170900       0.36597930 </v>
   <v>       0.99923000       0.99846000       0.08631254 </v>
   <v>       0.99923000       0.99846000       0.36814206 </v>
   <v>       0.65492700       0.30985400       0.06041748 </v>
   <v>       0.65492700       0.30985400       0.34224700 </v>
   <v>       0.76973800       0.53947500       0.20725292 </v>
   <v>       0.36973800       0.73947500       0.48908244 </v>
   <v>       0.93971600       0.87943300       0.15783749 </v>
   <v>       0.53971600       0.07943300       0.43966701 </v>
   <v>       0.20515200       0.41030300       0.18578822 </v>
   <v>       0.80515200       0.61030300       0.46761774 </v>
   <v>       0.20184900       0.40369900       0.09969156 </v>
   <v>       0.20184900       0.40369900       0.38152107 </v>
   <v>       0.56380500       0.12761000       0.10779021 </v>
   <v>       0.56380500       0.12761000       0.38961973 </v>
   <v>       0.56710600       0.13421200       0.19387616 </v>
   <v>       0.16710600       0.33421200       0.47570568 </v>
   <v>       0.82923400       0.65846800       0.13571444 </v>
   <v>       0.42923400       0.85846800       0.41754396 </v>
  </varray>
 </structure>
 <calculation>
  <scstep>
   <time name="dav">   67.02   67.05</time>
   <time name="total">   83.25   83.28</time>
   <energy>
    <i name="alphaZ">     36.80884744 </i>
    <i name="ewald">  11935.26001651 </i>
    <i name="hartreedc"> -14972.56792147 </i>
    <i name="XCdc">    -88.17284057 </i>
    <i name="pawpsdc">   1056.43050070 </i>
    <i name="pawaedc">   -732.41190547 </i>
    <i name="eentropy">     -0.04377954 </i>
    <i name="bandstr">    -88.22185497 </i>
    <i name="atom">   3354.04126044 </i>
    <i name="e_fr_energy">    501.12232307 </i>
    <i name="e_wo_entrp">    501.16610261 </i>
    <i name="e_0_energy">    501.14421284 </i>
   </energy>
  </scstep>
  <scstep>
   <time name="dav">   84.47   84.49</time>
   <time name="total">   84.48   84.50</time>
   <energy>
    <i name="e_fr_energy">    -58.08425811 </i>
    <i name="e_wo_entrp">    -58.05713786 </i>
    <i name="e_0_energy">    -58.07069799 </i>
   </energy>
  </scstep>
  <scstep>
   <time name="dav">   77.21   77.23</time>
   <time name="total">   77.22   77.24</time>
   <energy>
    <i name="e_fr_energy">   -115.10253801 </i>
    <i name="e_wo_entrp">   -115.07705928 </i>
    <i name="e_0_energy">   -115.08979865 </i>
   </energy>
  </scstep>
  <scstep>
   <time name="dav">   94.82   94.84</time>
   <time name="total">   94.83   94.85</time>
   <energy>
    <i name="e_fr_energy">   -117.80175338 </i>
    <i name="e_wo_entrp">   -117.77240380 </i>
    <i name="e_0_energy">   -117.78707859 </i>
   </energy>
  </scstep>
  <scstep>
   <time name="dav">   85.51   85.53</time>
   <time name="total">   89.94   89.96</time>
   <energy>
    <i name="e_fr_energy">   -117.85536443 </i>
    <i name="e_wo_entrp">   -117.82596759 </i>
    <i name="e_0_energy">   -117.84066601 </i>
   </energy>
  </scstep>
  <scstep>
   <time name="dav">   79.39   79.42</time>
   <time name="total">   98.59   98.62</time>
   <energy>
    <i name="e_fr_energy">   -113.76563866 </i>
    <i name="e_wo_entrp">   -113.73406821 </i>
    <i name="e_0_energy">   -113.74985343 </i>
   </energy>
  </scstep>
  <scstep>
   <time name="dav">   78.13   78.14</time>
   <time name="total">   97.25   97.27</time>
   <energy>
    <i name="e_fr_energy">   -113.93439790 </i>
    <i name="e_wo_entrp">   -113.90624712 </i>
    <i name="e_0_energy">   -113.92032251 </i>
   </energy>
  </scstep>
  <scstep>
   <time name="dav">   81.02   81.04</time>
   <time name="total">  100.16  100.19</time>
   <energy>
    <i name="e_fr_energy">   -113.73660994 </i>
    <i name="e_wo_entrp">   -113.71081685 </i>
    <i name="e_0_energy">   -113.72371340 </i>
   </energy>
  </scstep>
  <scstep>
   <time name="dav">   78.82   78.83</time>
   <time name="total">   97.92   97.94</time>
   <energy>
    <i name="e_fr_energy">   -113.71550939 </i>
    <i name="e_wo_entrp">   -113.68937017 </i>
    <i name="e_0_energy">   -113.70243978 </i>
   </energy>
  </scstep>
  <scstep>
   <time name="dav">   79.90   79.93</time>
   <time name="total">   99.07   99.10</time>
   <energy>
    <i name="e_fr_energy">   -113.71423965 </i>
    <i name="e_wo_entrp">   -113.68529507 </i>
    <i name="e_0_energy">   -113.69976736 </i>
   </energy>
  </scstep>
  <scstep>
   <time name="dav">   79.56   79.58</time>
   <time name="total">   98.66   98.68</time>
   <energy>
    <i name="e_fr_energy">   -113.70987712 </i>
    <i name="e_wo_entrp">   -113.68123724 </i>
    <i name="e_0_energy">   -113.69555718 </i>
   </energy>
  </scstep>
  <scstep>
   <time name="dav">   81.08   81.09</time>
   <time name="total">  100.25  100.27</time>
   <energy>
    <i name="e_fr_energy">   -113.70041612 </i>
    <i name="e_wo_entrp">   -113.67262120 </i>
    <i name="e_0_energy">   -113.68651866 </i>
   </energy>
  </scstep>
  <scstep>
   <time name="dav">   81.27   81.28</time>
   <time name="total">  100.42  100.44</time>
   <energy>
    <i name="e_fr_energy">   -113.69413930 </i>
    <i name="e_wo_entrp">   -113.66615890 </i>
    <i name="e_0_energy">   -113.68014910 </i>
   </energy>
  </scstep>
  <scstep>
   <time name="dav">   83.60   83.62</time>
   <time name="total">  102.78  102.81</time>
   <energy>
    <i name="e_fr_energy">   -113.69099164 </i>
    <i name="e_wo_entrp">   -113.66307472 </i>
    <i name="e_0_energy">   -113.67703318 </i>
   </energy>
  </scstep>
  <scstep>
   <time name="dav">   84.14   84.16</time>
   <time name="total">  103.61  103.63</time>
   <energy>
    <i name="e_fr_energy">   -113.69044012 </i>
    <i name="e_wo_entrp">   -113.66253644 </i>
    <i name="e_0_energy">   -113.67648828 </i>
   </energy>
  </scstep>
  <scstep>
   <time name="dav">   75.27   75.29</time>
   <time name="total">   94.82   94.84</time>
   <energy>
    <i name="e_fr_energy">   -113.69013548 </i>
    <i name="e_wo_entrp">   -113.66222731 </i>
    <i name="e_0_energy">   -113.67618140 </i>
   </energy>
  </scstep>
  <scstep>
   <time name="dav">   77.44   77.45</time>
   <time name="total">   96.97   96.99</time>
   <energy>
    <i name="e_fr_energy">   -113.69058354 </i>
    <i name="e_wo_entrp">   -113.66267468 </i>
    <i name="e_0_energy">   -113.67662911 </i>
   </energy>
  </scstep>
  <scstep>
   <time name="dav">   78.85   78.87</time>
   <time name="total">   98.26   98.28</time>
   <energy>
    <i name="e_fr_energy">   -113.69095891 </i>
    <i name="e_wo_entrp">   -113.66305872 </i>
    <i name="e_0_energy">   -113.67700881 </i>
   </energy>
  </scstep>
  <scstep>
   <time name="dav">   70.37   70.39</time>
   <time name="total">   89.80   89.82</time>
   <energy>
    <i name="e_fr_energy">   -113.69099881 </i>
    <i name="e_wo_entrp">   -113.66309146 </i>
    <i name="e_0_energy">   -113.67704514 </i>
   </energy>
  </scstep>
  <scstep>
   <time name="dav">   68.10   68.12</time>
   <time name="total">   87.32   87.34</time>
   <energy>
    <i name="e_fr_energy">   -113.69104527 </i>
    <i name="e_wo_entrp">   -113.66313714 </i>
    <i name="e_0_energy">   -113.67709120 </i>
   </energy>
  </scstep>
  <scstep>
   <time name="dav">   66.68   66.70</time>
   <time name="total">   85.90   85.92</time>
   <energy>
    <i name="e_fr_energy">   -113.69101545 </i>
    <i name="e_wo_entrp">   -113.66310950 </i>
    <i name="e_0_energy">   -113.67706248 </i>
   </energy>
  </scstep>
  <scstep>
   <time name="dav">   66.03   66.05</time>
   <time name="total">   85.17   85.19</time>
   <energy>
    <i name="e_fr_energy">   -113.69093341 </i>
    <i name="e_wo_entrp">   -113.66302686 </i>
    <i name="e_0_energy">   -113.67698014 </i>
   </energy>
  </scstep>
  <scstep>
   <time name="dav">   61.03   61.05</time>
   <time name="total">   80.19   80.21</time>
   <energy>
    <i name="e_fr_energy">   -113.69090476 </i>
    <i name="e_wo_entrp">   -113.66299837 </i>
    <i name="e_0_energy">   -113.67695156 </i>
   </energy>
  </scstep>
  <scstep>
   <time name="dav">   66.53   66.54</time>
   <time name="total">   85.69   85.71</time>
   <energy>
    <i name="e_fr_energy">   -113.69087490 </i>
    <i name="e_wo_entrp">   -113.66296879 </i>
    <i name="e_0_energy">   -113.67692185 </i>
   </energy>
  </scstep>
  <scstep>
   <time name="dav">   65.05   65.07</time>
   <time name="total">   84.32   84.33</time>
   <energy>
    <i name="e_fr_energy">   -113.69087289 </i>
    <i name="e_wo_entrp">   -113.66296653 </i>
    <i name="e_0_energy">   -113.67691971 </i>
   </energy>
  </scstep>
  <scstep>
   <time name="dav">   62.15   62.17</time>
   <time name="total">   81.42   81.44</time>
   <energy>
    <i name="e_fr_energy">   -113.69087093 </i>
    <i name="e_wo_entrp">   -113.66296453 </i>
    <i name="e_0_energy">   -113.67691773 </i>
   </energy>
  </scstep>
  <scstep>
   <time name="dav">   60.30   60.31</time>
   <time name="total">   79.85   79.87</time>
   <energy>
    <i name="e_fr_energy">   -113.69087359 </i>
    <i name="e_wo_entrp">   -113.66296733 </i>
    <i name="e_0_energy">   -113.67692046 </i>
   </energy>
  </scstep>
  <scstep>
   <time name="dav">   56.23   56.24</time>
   <time name="total">   75.92   75.94</time>
   <energy>
    <i name="e_fr_energy">   -113.69087495 </i>
    <i name="e_wo_entrp">   -113.66296866 </i>
    <i name="e_0_energy">   -113.67692181 </i>
   </energy>
  </scstep>
  <scstep>
   <time name="dav">   60.92   60.93</time>
   <time name="total">   75.87   75.88</time>
   <energy>
    <i name="alphaZ">     36.80884744 </i>
    <i name="ewald">  11935.26001651 </i>
    <i name="hartreedc"> -15066.57760706 </i>
    <i name="XCdc">    -80.45913238 </i>
    <i name="pawpsdc">   1178.51105729 </i>
    <i name="pawaedc">   -858.14707989 </i>
    <i name="eentropy">     -0.02790626 </i>
    <i name="bandstr">   -613.10033120 </i>
    <i name="atom">   3354.04126044 </i>
    <i name="e_fr_energy">   -113.69087511 </i>
    <i name="e_wo_entrp">   -113.66296885 </i>
    <i name="e_0_energy">   -113.67692198 </i>
   </energy>
  </scstep>
  <structure>
   <crystal>
    <varray name="basis" >
     <v>       3.54040000       0.00000000       0.00000000 </v>
     <v>      -1.77020000      10.29434800       0.00000000 </v>
     <v>       0.00000000       0.00000000      27.50142900 </v>
    </varray>
    <i name="volume">   1002.32009712 </i>
    <varray name="rec_basis" >
     <v>       0.28245396       0.04857034       0.00000000 </v>
     <v>       0.00000000       0.09714068       0.00000000 </v>
     <v>       0.00000000       0.00000000       0.03636175 </v>
    </varray>
   </crystal>
   <varray name="positions" >
    <v>       0.11402300       0.22804500       0.23316207 </v>
    <v>       0.71402300       0.42804500       0.51499159 </v>
    <v>       0.45808900       0.91617900       0.20939482 </v>
    <v>       0.05808900       0.11617900       0.49122434 </v>
    <v>       0.31085400       0.62170900       0.08414979 </v>
    <v>       0.31085400       0.62170900       0.36597930 </v>
    <v>       0.99923000       0.99846000       0.08631254 </v>
    <v>       0.99923000       0.99846000       0.36814206 </v>
    <v>       0.65492700       0.30985400       0.06041748 </v>
    <v>       0.65492700       0.30985400       0.34224700 </v>
    <v>       0.76973800       0.53947500       0.20725292 </v>
    <v>       0.36973800       0.73947500       0.48908244 </v>
    <v>       0.93971600       0.87943300       0.15783749 </v>
    <v>       0.53971600       0.07943300       0.43966701 </v>
    <v>       0.20515200       0.41030300       0.18578822 </v>
    <v>       0.80515200       0.61030300       0.46761774 </v>
    <v>       0.20184900       0.40369900       0.09969156 </v>
    <v>       0.20184900       0.40369900       0.38152107 </v>
    <v>       0.56380500       0.12761000       0.10779021 </v>
    <v>       0.56380500       0.12761000       0.38961973 </v>
    <v>       0.56710600       0.13421200       0.19387616 </v>
    <v>       0.16710600       0.33421200       0.47570568 </v>
    <v>       0.82923400       0.65846800       0.13571444 </v>
    <v>       0.42923400       0.85846800       0.41754396 </v>
   </varray>
  </structure>
  <varray name="forces" >
   <v>      -0.00000000      -0.06319142      -0.01125655 </v>
   <v>      -0.00000000       0.36516566      -0.28069903 </v>
   <v>      -0.00000000      -0.01450860       0.08453726 </v>
   <v>      -0.00000000       0.32395829       0.75153983 </v>
   <v>      -0.00000000      -0.00558496       0.00664490 </v>
   <v>      -0.00000000      -0.36426305       0.39308976 </v>
   <v>      -0.00000000       0.00137639      -0.00213303 </v>
   <v>       0.00000000      -1.49131546      -1.33465761 </v>
   <v>      -0.00000000       0.00079202       0.01770934 </v>
   <v>      -0.00000000       0.08373633      -0.28821321 </v>
   <v>      -0.00000000       0.00826203       0.09067037 </v>
   <v>      -0.00000000       0.27804697       0.64623763 </v>
   <v>      -0.00000000       0.00116662       0.00877836 </v>
   <v>      -0.00000000     -16.59604760      49.31949110 </v>
   <v>      -0.00000000       0.01878125       0.07025774 </v>
   <v>       0.00000000       0.23073456      -0.61363756 </v>
   <v>      -0.00000000       0.00100959      -0.03055726 </v>
   <v>      -0.00000000       0.12749935       1.30918514 </v>
   <v>      -0.00000000      -0.01650725      -0.01859760 </v>
   <v>      -0.00000000      17.67995474     -48.27111504 </v>
   <v>      -0.00000000      -0.02216934       0.00959692 </v>
   <v>      -0.00000000      -0.06802022      -1.13878912 </v>
   <v>      -0.00000000       0.00751792       0.00016045 </v>
   <v>       0.00000000      -0.48639381      -0.71824279 </v>
  </varray>
  <varray name="stress" >
   <v>      -0.61477444       0.00000000       0.00000000 </v>
   <v>       0.00000000       9.87306976     -29.70316435 </v>
   <v>       0.00000000     -29.70316462     103.34998380 </v>
  </varray>
  <energy>
   <i name="e_fr_energy">   -113.69087511 </i>
   <i name="e_wo_entrp">   -113.67692198 </i>
   <i name="e_0_energy">     -0.02790626 </i>
  </energy>
  <time name="totalsc"> 2743.57 2744.23</time>
  <eigenvalues>
   <array>
    <dimension dim="1">band</dimension>
    <dimension dim="2">kpoint</dimension>
    <dimension dim="3">spin</dimension>
    <field>eigene</field>
    <field>occ</field>
    <set>
     <set comment="spin 1">
      <set comment="kpoint 1">
       <r>  -14.2935    1.0000 </r>
       <r>  -13.5310    1.0000 </r>
       <r>  -12.8803    1.0000 </r>
       <r>  -12.7909    1.0000 </r>
       <r>  -12.4825    1.0000 </r>
       <r>  -12.2187    1.0000 </r>
       <r>  -12.1146    1.0000 </r>
       <r>  -12.0612    1.0000 </r>
       <r>  -11.4230    1.0000 </r>
       <r>  -11.1620    1.0000 </r>
       <r>  -10.9811    1.0000 </r>
       <r>  -10.1818    1.0000 </r>
       <r>   -8.3596    1.0000 </r>
       <r>   -8.0231    1.0000 </r>
       <r>   -7.8200    1.0000 </r>
       <r>   -7.6097    1.0000 </r>
       <r>   -6.9828    1.0000 </r>
       <r>   -6.8331    1.0000 </r>
       <r>   -6.5707    1.0000 </r>
       <r>   -6.4826    1.0000 </r>
       <r>   -5.8222    1.0000 </r>
       <r>   -5.7505    1.0000 </r>
       <r>   -4.7509    1.0000 </r>
       <r>   -4.4339    1.0000 </r>
       <r>   -4.2923    1.0000 </r>
       <r>   -4.0728    1.0000 </r>
       <r>   -3.7270    1.0000 </r>
       <r>   -3.6891    1.0000 </r>
       <r>   -3.4988    1.0000 </r>
       <r>   -3.1815    1.0000 </r>
       <r>   -3.0467    1.0000 </r>
       <r>   -2.8616    1.0000 </r>
       <r>   -2.8337    1.0000 </r>
       <r>   -2.7635    1.0000 </r>
       <r>   -2.4837    1.0000 </r>
       <r>   -2.4241    1.0000 </r>
       <r>   -2.3850    1.0000 </r>
       <r>   -2.1736    1.0000 </r>
       <r>   -2.1309    1.0000 </r>
       <r>   -2.0166    1.0000 </r>
       <r>   -1.9497    1.0000 </r>
       <r>   -1.8545    1.0000 </r>
       <r>   -1.7180    1.0000 </r>
       <r>   -1.6323    1.0000 </r>
       <r>   -1.5822    1.0000 </r>
       <r>   -1.4926    1.0000 </r>
       <r>   -1.4333    1.0000 </r>
       <r>   -1.4219    1.0000 </r>
       <r>   -1.3059    1.0000 </r>
       <r>   -1.1377    1.0000 </r>
       <r>   -0.9776    1.0000 </r>
       <r>   -0.6265    1.0000 </r>
       <r>   -0.3086    0.9685 </r>
       <r>   -0.1184    0.2033 </r>
       <r>    0.8556    0.0000 </r>
       <r>    0.8717    0.0000 </r>
       <r>    1.1842    0.0000 </r>
       <r>    1.2140    0.0000 </r>
       <r>    1.3343    0.0000 </r>
       <r>    1.6507    0.0000 </r>
       <r>    1.6687    0.0000 </r>
       <r>    1.7563    0.0000 </r>
       <r>    1.9338    0.0000 </r>
       <r>    1.9972    0.0000 </r>
       <r>    2.0913    0.0000 </r>
       <r>    2.1818    0.0000 </r>
       <r>    2.4416    0.0000 </r>
       <r>    2.5579    0.0000 </r>
      </set>
      <set comment="kpoint 2">
       <r>  -14.2317    1.0000 </r>
       <r>  -13.4697    1.0000 </r>
       <r>  -12.8244    1.0000 </r>
       <r>  -12.7388    1.0000 </r>
       <r>  -12.4268    1.0000 </r>
       <r>  -12.1631    1.0000 </r>
       <r>  -12.0566    1.0000 </r>
       <r>  -11.9997    1.0000 </r>
       <r>  -11.3741    1.0000 </r>
       <r>  -11.1147    1.0000 </r>
       <r>  -10.9327    1.0000 </r>
       <r>  -10.1483    1.0000 </r>
       <r>   -8.3274    1.0000 </r>
       <r>   -8.0598    1.0000 </r>
       <r>   -7.7832    1.0000 </r>
       <r>   -7.6791    1.0000 </r>
       <r>   -6.9573    1.0000 </r>
       <r>   -6.8016    1.0000 </r>
       <r>   -6.5602    1.0000 </r>
       <r>   -6.4769    1.0000 </r>
       <r>   -5.7894    1.0000 </r>
       <r>   -5.7309    1.0000 </r>
       <r>   -4.7592    1.0000 </r>
       <r>   -4.6959    1.0000 </r>
       <r>   -4.3433    1.0000 </r>
       <r>   -4.0330    1.0000 </r>
       <r>   -3.7294    1.0000 </r>
       <r>   -3.6973    1.0000 </r>
       <r>   -3.5827    1.0000 </r>
       <r>   -3.4252    1.0000 </r>
       <r>   -3.2818    1.0000 </r>
       <r>   -3.2252    1.0000 </r>
       <r>   -3.0954    1.0000 </r>
       <r>   -2.9496    1.0000 </r>
       <r>   -2.7322    1.0000 </r>
       <r>   -2.5831    1.0000 </r>
       <r>   -2.4821    1.0000 </r>
       <r>   -2.4600    1.0000 </r>
       <r>   -2.2997    1.0000 </r>
       <r>   -2.1886    1.0000 </r>
       <r>   -2.1588    1.0000 </r>
       <r>   -1.9845    1.0000 </r>
       <r>   -1.9545    1.0000 </r>
       <r>   -1.8344    1.0000 </r>
       <r>   -1.7511    1.0000 </r>
       <r>   -1.6498    1.0000 </r>
       <r>   -1.5027    1.0000 </r>
       <r>   -1.4035    1.0000 </r>
       <r>   -1.3197    1.0000 </r>
       <r>   -1.0948    1.0000 </r>
       <r>   -0.9113    1.0000 </r>
       <r>   -0.4242    0.9998 </r>
       <r>   -0.2741    0.9149 </r>
       <r>   -0.0937    0.1192 </r>
       <r>    0.5232    0.0000 </r>
       <r>    1.0253    0.0000 </r>
       <r>    1.2297    0.0000 </r>
       <r>    1.5567    0.0000 </r>
       <r>    1.5775    0.0000 </r>
       <r>    1.7738    0.0000 </r>
       <r>    2.0038    0.0000 </r>
       <r>    2.1197    0.0000 </r>
       <r>    2.2040    0.0000 </r>
       <r>    2.2592    0.0000 </r>
       <r>    2.3399    0.0000 </r>
       <r>    2.4763    0.0000 </r>
       <r>    2.6173    0.0000 </r>
       <r>    2.7351    0.0000 </r>
      </set>
      <set comment="kpoint 3">
       <r>  -14.0472    1.0000 </r>
       <r>  -13.2867    1.0000 </r>
       <r>  -12.6583    1.0000 </r>
       <r>  -12.5830    1.0000 </r>
       <r>  -12.2618    1.0000 </r>
       <r>  -11.9992    1.0000 </r>
       <r>  -11.8855    1.0000 </r>
       <r>  -11.8190    1.0000 </r>
       <r>  -11.2321    1.0000 </r>
       <r>  -10.9778    1.0000 </r>
       <r>  -10.7939    1.0000 </r>
       <r>  -10.0556    1.0000 </r>
       <r>   -8.2929    1.0000 </r>
       <r>   -8.1561    1.0000 </r>
       <r>   -7.8927    1.0000 </r>
       <r>   -7.7404    1.0000 </r>
       <r>   -6.9300    1.0000 </r>
       <r>   -6.7276    1.0000 </r>
       <r>   -6.5397    1.0000 </r>
       <r>   -6.4892    1.0000 </r>
       <r>   -5.7427    1.0000 </r>
       <r>   -5.6977    1.0000 </r>
       <r>   -5.2060    1.0000 </r>
       <r>   -4.8594    1.0000 </r>
       <r>   -4.3556    1.0000 </r>
       <r>   -4.1986    1.0000 </r>
       <r>   -4.1400    1.0000 </r>
       <r>   -4.0743    1.0000 </r>
       <r>   -3.9662    1.0000 </r>
       <r>   -3.7981    1.0000 </r>
       <r>   -3.7448    1.0000 </r>
       <r>   -3.6495    1.0000 </r>
       <r>   -3.5004    1.0000 </r>
       <r>   -3.3920    1.0000 </r>
       <r>   -3.1834    1.0000 </r>
       <r>   -3.0514    1.0000 </r>
       <r>   -2.9606    1.0000 </r>
       <r>   -2.9444    1.0000 </r>
       <r>   -2.7663    1.0000 </r>
       <r>   -2.5774    1.0000 </r>
       <r>   -2.3683    1.0000 </r>
       <r>   -2.1814    1.0000 </r>
       <r>   -2.1259    1.0000 </r>
       <r>   -2.0005    1.0000 </r>
       <r>   -1.8400    1.0000 </r>
       <r>   -1.7525    1.0000 </r>
       <r>   -1.6369    1.0000 </r>
       <r>   -1.5318    1.0000 </r>
       <r>   -1.2850    1.0000 </r>
       <r>   -1.1279    1.0000 </r>
       <r>   -0.8733    1.0000 </r>
       <r>   -0.5643    1.0000 </r>
       <r>   -0.3023    0.9616 </r>
       <r>   -0.0854    0.0974 </r>
       <r>    0.1595    0.0000 </r>
       <r>    0.8542    0.0000 </r>
       <r>    1.4506    0.0000 </r>
       <r>    1.6209    0.0000 </r>
       <r>    1.9503    0.0000 </r>
       <r>    2.1738    0.0000 </r>
       <r>    2.2623    0.0000 </r>
       <r>    2.4297    0.0000 </r>
       <r>    2.5811    0.0000 </r>
       <r>    2.6610    0.0000 </r>
       <r>    2.6879    0.0000 </r>
       <r>    2.9010    0.0000 </r>
       <r>    2.9514    0.0000 </r>
       <r>    3.0690    0.0000 </r>
      </set>
      <set comment="kpoint 4">
       <r>  -13.7426    1.0000 </r>
       <r>  -12.9856    1.0000 </r>
       <r>  -12.3872    1.0000 </r>
       <r>  -12.3267    1.0000 </r>
       <r>  -11.9946    1.0000 </r>
       <r>  -11.7367    1.0000 </r>
       <r>  -11.6118    1.0000 </r>
       <r>  -11.5329    1.0000 </r>
       <r>  -11.0153    1.0000 </r>
       <r>  -10.7707    1.0000 </r>
       <r>  -10.5908    1.0000 </r>
       <r>   -9.9327    1.0000 </r>
       <r>   -8.6951    1.0000 </r>
       <r>   -8.3493    1.0000 </r>
       <r>   -7.8913    1.0000 </r>
       <r>   -7.8138    1.0000 </r>
       <r>   -7.0551    1.0000 </r>
       <r>   -6.6933    1.0000 </r>
       <r>   -6.6239    1.0000 </r>
       <r>   -6.5510    1.0000 </r>
       <r>   -5.9595    1.0000 </r>
       <r>   -5.7265    1.0000 </r>
       <r>   -5.3951    1.0000 </r>
       <r>   -5.3285    1.0000 </r>
       <r>   -4.8122    1.0000 </r>
       <r>   -4.7410    1.0000 </r>
       <r>   -4.6182    1.0000 </r>
       <r>   -4.5794    1.0000 </r>
       <r>   -4.4981    1.0000 </r>
       <r>   -4.2871    1.0000 </r>
       <r>   -4.1828    1.0000 </r>
       <r>   -3.9829    1.0000 </r>
       <r>   -3.7718    1.0000 </r>
       <r>   -3.6258    1.0000 </r>
       <r>   -3.4698    1.0000 </r>
       <r>   -3.4514    1.0000 </r>
       <r>   -3.2322    1.0000 </r>
       <r>   -2.9867    1.0000 </r>
       <r>   -2.8516    1.0000 </r>
       <r>   -2.7035    1.0000 </r>
       <r>   -2.5749    1.0000 </r>
       <r>   -2.4354    1.0000 </r>
       <r>   -2.3076    1.0000 </r>
       <r>   -1.9487    1.0000 </r>
       <r>   -1.9107    1.0000 </r>
       <r>   -1.8446    1.0000 </r>
       <r>   -1.8022    1.0000 </r>
       <r>   -1.6980    1.0000 </r>
       <r>   -1.4604    1.0000 </r>
       <r>   -1.2307    1.0000 </r>
       <r>   -1.1416    1.0000 </r>
       <r>   -0.9224    1.0000 </r>
       <r>   -0.5462    1.0000 </r>
       <r>   -0.4419    0.9999 </r>
       <r>    0.0212    0.0025 </r>
       <r>    0.6975    0.0000 </r>
       <r>    1.4501    0.0000 </r>
       <r>    1.8623    0.0000 </r>
       <r>    1.9531    0.0000 </r>
       <r>    2.0190    0.0000 </r>
       <r>    2.1522    0.0000 </r>
       <r>    2.2725    0.0000 </r>
       <r>    2.3986    0.0000 </r>
       <r>    2.5000    0.0000 </r>
       <r>    2.6937    0.0000 </r>
       <r>    2.8423    0.0000 </r>
       <r>    2.9049    0.0000 </r>
       <r>    2.9735    0.0000 </r>
      </set>
      <set comment="kpoint 5">
       <r>  -13.3242    1.0000 </r>
       <r>  -12.5738    1.0000 </r>
       <r>  -12.0233    1.0000 </r>
       <r>  -11.9784    1.0000 </r>
       <r>  -11.6418    1.0000 </r>
       <r>  -11.3990    1.0000 </r>
       <r>  -11.2600    1.0000 </r>
       <r>  -11.1760    1.0000 </r>
       <r>  -10.7710    1.0000 </r>
       <r>  -10.5411    1.0000 </r>
       <r>  -10.4048    1.0000 </r>
       <r>   -9.8713    1.0000 </r>
       <r>   -9.4013    1.0000 </r>
       <r>   -8.6443    1.0000 </r>
       <r>   -8.0750    1.0000 </r>
       <r>   -7.7317    1.0000 </r>
       <r>   -7.3952    1.0000 </r>
       <r>   -6.9875    1.0000 </r>
       <r>   -6.8899    1.0000 </r>
       <r>   -6.6980    1.0000 </r>
       <r>   -6.5065    1.0000 </r>
       <r>   -6.1518    1.0000 </r>
       <r>   -5.9538    1.0000 </r>
       <r>   -5.5776    1.0000 </r>
       <r>   -5.2032    1.0000 </r>
       <r>   -5.1063    1.0000 </r>
       <r>   -4.8994    1.0000 </r>
       <r>   -4.7891    1.0000 </r>
       <r>   -4.6912    1.0000 </r>
       <r>   -4.4569    1.0000 </r>
       <r>   -4.3151    1.0000 </r>
       <r>   -4.2285    1.0000 </r>
       <r>   -4.1810    1.0000 </r>
       <r>   -3.5263    1.0000 </r>
       <r>   -3.4185    1.0000 </r>
       <r>   -3.3556    1.0000 </r>
       <r>   -3.1150    1.0000 </r>
       <r>   -3.0865    1.0000 </r>
       <r>   -3.0213    1.0000 </r>
       <r>   -2.8838    1.0000 </r>
       <r>   -2.7279    1.0000 </r>
       <r>   -2.6078    1.0000 </r>
       <r>   -2.4091    1.0000 </r>
       <r>   -2.2969    1.0000 </r>
       <r>   -2.0549    1.0000 </r>
       <r>   -1.9116    1.0000 </r>
       <r>   -1.8673    1.0000 </r>
       <r>   -1.8191    1.0000 </r>
       <r>   -1.7019    1.0000 </r>
       <r>   -1.6707    1.0000 </r>
       <r>   -1.3378    1.0000 </r>
       <r>   -1.1849    1.0000 </r>
       <r>   -0.8867    1.0000 </r>
       <r>   -0.5917    1.0000 </r>
       <r>   -0.1752    0.4892 </r>
       <r>    0.5285    0.0000 </r>
       <r>    1.1859    0.0000 </r>
       <r>    1.5866    0.0000 </r>
       <r>    1.7652    0.0000 </r>
       <r>    1.8712    0.0000 </r>
       <r>    1.9928    0.0000 </r>
       <r>    2.1172    0.0000 </r>
       <r>    2.2624    0.0000 </r>
       <r>    2.3569    0.0000 </r>
       <r>    2.3965    0.0000 </r>
       <r>    2.6345    0.0000 </r>
       <r>    2.7984    0.0000 </r>
       <r>    2.8219    0.0000 </r>
      </set>
      <set comment="kpoint 6">
       <r>  -12.8079    1.0000 </r>
       <r>  -12.0653    1.0000 </r>
       <r>  -11.5938    1.0000 </r>
       <r>  -11.5592    1.0000 </r>
       <r>  -11.2421    1.0000 </r>
       <r>  -11.0559    1.0000 </r>
       <r>  -10.9125    1.0000 </r>
       <r>  -10.8366    1.0000 </r>
       <r>  -10.6162    1.0000 </r>
       <r>  -10.4454    1.0000 </r>
       <r>  -10.4136    1.0000 </r>
       <r>  -10.2721    1.0000 </r>
       <r>   -9.6996    1.0000 </r>
       <r>   -8.8205    1.0000 </r>
       <r>   -8.3675    1.0000 </r>
       <r>   -7.8985    1.0000 </r>
       <r>   -7.5754    1.0000 </r>
       <r>   -7.4484    1.0000 </r>
       <r>   -7.4048    1.0000 </r>
       <r>   -7.0760    1.0000 </r>
       <r>   -6.8951    1.0000 </r>
       <r>   -6.7490    1.0000 </r>
       <r>   -6.6494    1.0000 </r>
       <r>   -6.2013    1.0000 </r>
       <r>   -5.2026    1.0000 </r>
       <r>   -4.9476    1.0000 </r>
       <r>   -4.7577    1.0000 </r>
       <r>   -4.6519    1.0000 </r>
       <r>   -4.5168    1.0000 </r>
       <r>   -4.3760    1.0000 </r>
       <r>   -4.2123    1.0000 </r>
       <r>   -4.0956    1.0000 </r>
       <r>   -4.0501    1.0000 </r>
       <r>   -3.7871    1.0000 </r>
       <r>   -3.6455    1.0000 </r>
       <r>   -3.4588    1.0000 </r>
       <r>   -3.2597    1.0000 </r>
       <r>   -3.2060    1.0000 </r>
       <r>   -3.1366    1.0000 </r>
       <r>   -2.9969    1.0000 </r>
       <r>   -2.7872    1.0000 </r>
       <r>   -2.6313    1.0000 </r>
       <r>   -2.5484    1.0000 </r>
       <r>   -2.3993    1.0000 </r>
       <r>   -2.2558    1.0000 </r>
       <r>   -2.1338    1.0000 </r>
       <r>   -2.0752    1.0000 </r>
       <r>   -2.0166    1.0000 </r>
       <r>   -1.8579    1.0000 </r>
       <r>   -1.7750    1.0000 </r>
       <r>   -1.5708    1.0000 </r>
       <r>   -1.3821    1.0000 </r>
       <r>   -1.0753    1.0000 </r>
       <r>   -0.6312    1.0000 </r>
       <r>   -0.2655    0.8943 </r>
       <r>    0.2640    0.0000 </r>
       <r>    0.8334    0.0000 </r>
       <r>    1.4054    0.0000 </r>
       <r>    1.6472    0.0000 </r>
       <r>    1.7000    0.0000 </r>
       <r>    1.8069    0.0000 </r>
       <r>    1.9525    0.0000 </r>
       <r>    2.0984    0.0000 </r>
       <r>    2.2688    0.0000 </r>
       <r>    2.3060    0.0000 </r>
       <r>    2.3369    0.0000 </r>
       <r>    2.5918    0.0000 </r>
       <r>    2.7336    0.0000 </r>
      </set>
      <set comment="kpoint 7">
       <r>  -12.2702    1.0000 </r>
       <r>  -11.4917    1.0000 </r>
       <r>  -11.2205    1.0000 </r>
       <r>  -11.1380    1.0000 </r>
       <r>  -11.1365    1.0000 </r>
       <r>  -10.9376    1.0000 </r>
       <r>  -10.8861    1.0000 </r>
       <r>  -10.8325    1.0000 </r>
       <r>  -10.7195    1.0000 </r>
       <r>  -10.6245    1.0000 </r>
       <r>  -10.3950    1.0000 </r>
       <r>  -10.3094    1.0000 </r>
       <r>   -9.8412    1.0000 </r>
       <r>   -8.6780    1.0000 </r>
       <r>   -8.4303    1.0000 </r>
       <r>   -8.0707    1.0000 </r>
       <r>   -8.0310    1.0000 </r>
       <r>   -7.8634    1.0000 </r>
       <r>   -7.5611    1.0000 </r>
       <r>   -7.3010    1.0000 </r>
       <r>   -7.2699    1.0000 </r>
       <r>   -7.1694    1.0000 </r>
       <r>   -7.0279    1.0000 </r>
       <r>   -6.5288    1.0000 </r>
       <r>   -4.9076    1.0000 </r>
       <r>   -4.7083    1.0000 </r>
       <r>   -4.6437    1.0000 </r>
       <r>   -4.4935    1.0000 </r>
       <r>   -4.3124    1.0000 </r>
       <r>   -4.2292    1.0000 </r>
       <r>   -4.0663    1.0000 </r>
       <r>   -3.9955    1.0000 </r>
       <r>   -3.9260    1.0000 </r>
       <r>   -3.8236    1.0000 </r>
       <r>   -3.7851    1.0000 </r>
       <r>   -3.5939    1.0000 </r>
       <r>   -3.5113    1.0000 </r>
       <r>   -3.4139    1.0000 </r>
       <r>   -3.2435    1.0000 </r>
       <r>   -3.1759    1.0000 </r>
       <r>   -2.9880    1.0000 </r>
       <r>   -2.8963    1.0000 </r>
       <r>   -2.6772    1.0000 </r>
       <r>   -2.3648    1.0000 </r>
       <r>   -2.3459    1.0000 </r>
       <r>   -2.2451    1.0000 </r>
       <r>   -2.1425    1.0000 </r>
       <r>   -2.0520    1.0000 </r>
       <r>   -1.8926    1.0000 </r>
       <r>   -1.7294    1.0000 </r>
       <r>   -1.6692    1.0000 </r>
       <r>   -1.5109    1.0000 </r>
       <r>   -1.0372    1.0000 </r>
       <r>   -0.7714    1.0000 </r>
       <r>   -0.2237    0.7449 </r>
       <r>   -0.0044    0.0073 </r>
       <r>    0.6331    0.0000 </r>
       <r>    1.3652    0.0000 </r>
       <r>    1.4835    0.0000 </r>
       <r>    1.5911    0.0000 </r>
       <r>    1.6848    0.0000 </r>
       <r>    1.8394    0.0000 </r>
       <r>    1.8996    0.0000 </r>
       <r>    2.1040    0.0000 </r>
       <r>    2.3201    0.0000 </r>
       <r>    2.4041    0.0000 </r>
       <r>    2.4825    0.0000 </r>
       <r>    2.6965    0.0000 </r>
      </set>
      <set comment="kpoint 8">
       <r>  -14.2870    1.0000 </r>
       <r>  -13.4757    1.0000 </r>
       <r>  -12.9650    1.0000 </r>
       <r>  -12.9351    1.0000 </r>
       <r>  -12.4815    1.0000 </r>
       <r>  -12.2226    1.0000 </r>
       <r>  -12.0149    1.0000 </r>
       <r>  -11.8577    1.0000 </r>
       <r>  -11.4681    1.0000 </r>
       <r>  -11.1960    1.0000 </r>
       <r>  -10.9899    1.0000 </r>
       <r>  -10.1294    1.0000 </r>
       <r>   -8.5127    1.0000 </r>
       <r>   -8.4791    1.0000 </r>
       <r>   -7.8044    1.0000 </r>
       <r>   -7.3792    1.0000 </r>
       <r>   -6.8029    1.0000 </r>
       <r>   -6.6608    1.0000 </r>
       <r>   -6.5886    1.0000 </r>
       <r>   -6.4439    1.0000 </r>
       <r>   -5.7426    1.0000 </r>
       <r>   -5.6535    1.0000 </r>
       <r>   -4.6516    1.0000 </r>
       <r>   -4.4069    1.0000 </r>
       <r>   -4.2940    1.0000 </r>
       <r>   -4.0217    1.0000 </r>
       <r>   -3.9256    1.0000 </r>
       <r>   -3.7577    1.0000 </r>
       <r>   -3.5264    1.0000 </r>
       <r>   -3.3500    1.0000 </r>
       <r>   -3.1182    1.0000 </r>
       <r>   -3.0285    1.0000 </r>
       <r>   -2.7452    1.0000 </r>
       <r>   -2.6991    1.0000 </r>
       <r>   -2.5441    1.0000 </r>
       <r>   -2.3869    1.0000 </r>
       <r>   -2.3726    1.0000 </r>
       <r>   -2.2695    1.0000 </r>
       <r>   -2.1371    1.0000 </r>
       <r>   -2.1178    1.0000 </r>
       <r>   -2.0375    1.0000 </r>
       <r>   -1.9653    1.0000 </r>
       <r>   -1.8706    1.0000 </r>
       <r>   -1.6440    1.0000 </r>
       <r>   -1.6178    1.0000 </r>
       <r>   -1.4136    1.0000 </r>
       <r>   -1.3525    1.0000 </r>
       <r>   -1.2972    1.0000 </r>
       <r>   -1.2011    1.0000 </r>
       <r>   -1.0966    1.0000 </r>
       <r>   -0.9580    1.0000 </r>
       <r>   -0.6930    1.0000 </r>
       <r>   -0.2841    0.9349 </r>
       <r>    0.0830    0.0001 </r>
       <r>    0.8136    0.0000 </r>
       <r>    0.9611    0.0000 </r>
       <r>    1.2165    0.0000 </r>
       <r>    1.3543    0.0000 </r>
       <r>    1.4392    0.0000 </r>
       <r>    1.6643    0.0000 </r>
       <r>    1.7261    0.0000 </r>
       <r>    1.7411    0.0000 </r>
       <r>    1.8334    0.0000 </r>
       <r>    1.9655    0.0000 </r>
       <r>    2.1664    0.0000 </r>
       <r>    2.2682    0.0000 </r>
       <r>    2.5456    0.0000 </r>
       <r>    2.6598    0.0000 </r>
      </set>
      <set comment="kpoint 9">
       <r>  -14.2239    1.0000 </r>
       <r>  -13.3988    1.0000 </r>
       <r>  -12.9457    1.0000 </r>
       <r>  -12.8897    1.0000 </r>
       <r>  -12.4244    1.0000 </r>
       <r>  -12.1670    1.0000 </r>
       <r>  -11.9403    1.0000 </r>
       <r>  -11.7582    1.0000 </r>
       <r>  -11.4268    1.0000 </r>
       <r>  -11.1543    1.0000 </r>
       <r>  -10.9456    1.0000 </r>
       <r>  -10.0877    1.0000 </r>
       <r>   -8.5663    1.0000 </r>
       <r>   -8.4623    1.0000 </r>
       <r>   -7.8952    1.0000 </r>
       <r>   -7.3306    1.0000 </r>
       <r>   -6.7934    1.0000 </r>
       <r>   -6.6694    1.0000 </r>
       <r>   -6.5197    1.0000 </r>
       <r>   -6.3736    1.0000 </r>
       <r>   -5.6953    1.0000 </r>
       <r>   -5.6161    1.0000 </r>
       <r>   -4.7326    1.0000 </r>
       <r>   -4.6673    1.0000 </r>
       <r>   -4.3724    1.0000 </r>
       <r>   -4.0781    1.0000 </r>
       <r>   -3.8675    1.0000 </r>
       <r>   -3.7378    1.0000 </r>
       <r>   -3.6109    1.0000 </r>
       <r>   -3.4826    1.0000 </r>
       <r>   -3.3805    1.0000 </r>
       <r>   -3.1285    1.0000 </r>
       <r>   -3.0806    1.0000 </r>
       <r>   -3.0033    1.0000 </r>
       <r>   -2.7236    1.0000 </r>
       <r>   -2.6625    1.0000 </r>
       <r>   -2.5615    1.0000 </r>
       <r>   -2.4858    1.0000 </r>
       <r>   -2.3324    1.0000 </r>
       <r>   -2.3141    1.0000 </r>
       <r>   -2.2605    1.0000 </r>
       <r>   -2.1356    1.0000 </r>
       <r>   -2.0004    1.0000 </r>
       <r>   -1.8320    1.0000 </r>
       <r>   -1.7534    1.0000 </r>
       <r>   -1.6808    1.0000 </r>
       <r>   -1.4842    1.0000 </r>
       <r>   -1.3239    1.0000 </r>
       <r>   -1.1076    1.0000 </r>
       <r>   -1.0333    1.0000 </r>
       <r>   -0.8932    1.0000 </r>
       <r>   -0.4191    0.9997 </r>
       <r>   -0.2914    0.9470 </r>
       <r>   -0.0151    0.0110 </r>
       <r>    0.6834    0.0000 </r>
       <r>    1.0391    0.0000 </r>
       <r>    1.3059    0.0000 </r>
       <r>    1.5941    0.0000 </r>
       <r>    1.6847    0.0000 </r>
       <r>    1.7930    0.0000 </r>
       <r>    1.9542    0.0000 </r>
       <r>    2.0347    0.0000 </r>
       <r>    2.2162    0.0000 </r>
       <r>    2.2784    0.0000 </r>
       <r>    2.4970    0.0000 </r>
       <r>    2.5434    0.0000 </r>
       <r>    2.6650    0.0000 </r>
       <r>    2.7452    0.0000 </r>
      </set>
      <set comment="kpoint 10">
       <r>  -14.0384    1.0000 </r>
       <r>  -13.2023    1.0000 </r>
       <r>  -12.8091    1.0000 </r>
       <r>  -12.7294    1.0000 </r>
       <r>  -12.2579    1.0000 </r>
       <r>  -12.0042    1.0000 </r>
       <r>  -11.7599    1.0000 </r>
       <r>  -11.5604    1.0000 </r>
       <r>  -11.2874    1.0000 </r>
       <r>  -11.0196    1.0000 </r>
       <r>  -10.8044    1.0000 </r>
       <r>   -9.9942    1.0000 </r>
       <r>   -8.6310    1.0000 </r>
       <r>   -8.3677    1.0000 </r>
       <r>   -8.1330    1.0000 </r>
       <r>   -7.2991    1.0000 </r>
       <r>   -6.8220    1.0000 </r>
       <r>   -6.6475    1.0000 </r>
       <r>   -6.4917    1.0000 </r>
       <r>   -6.3414    1.0000 </r>
       <r>   -5.6974    1.0000 </r>
       <r>   -5.6293    1.0000 </r>
       <r>   -5.0727    1.0000 </r>
       <r>   -4.8324    1.0000 </r>
       <r>   -4.5144    1.0000 </r>
       <r>   -4.3689    1.0000 </r>
       <r>   -4.2846    1.0000 </r>
       <r>   -4.0898    1.0000 </r>
       <r>   -3.9807    1.0000 </r>
       <r>   -3.8769    1.0000 </r>
       <r>   -3.6400    1.0000 </r>
       <r>   -3.5397    1.0000 </r>
       <r>   -3.4814    1.0000 </r>
       <r>   -3.3001    1.0000 </r>
       <r>   -3.1133    1.0000 </r>
       <r>   -3.0363    1.0000 </r>
       <r>   -2.9560    1.0000 </r>
       <r>   -2.8864    1.0000 </r>
       <r>   -2.8141    1.0000 </r>
       <r>   -2.6761    1.0000 </r>
       <r>   -2.5882    1.0000 </r>
       <r>   -2.3964    1.0000 </r>
       <r>   -2.2956    1.0000 </r>
       <r>   -1.9953    1.0000 </r>
       <r>   -1.8888    1.0000 </r>
       <r>   -1.7927    1.0000 </r>
       <r>   -1.5386    1.0000 </r>
       <r>   -1.4461    1.0000 </r>
       <r>   -1.1474    1.0000 </r>
       <r>   -1.0345    1.0000 </r>
       <r>   -0.8376    1.0000 </r>
       <r>   -0.7094    1.0000 </r>
       <r>   -0.3134    0.9730 </r>
       <r>   -0.0441    0.0300 </r>
       <r>    0.3713    0.0000 </r>
       <r>    0.8258    0.0000 </r>
       <r>    1.3812    0.0000 </r>
       <r>    1.6589    0.0000 </r>
       <r>    1.7775    0.0000 </r>
       <r>    2.0954    0.0000 </r>
       <r>    2.1831    0.0000 </r>
       <r>    2.3614    0.0000 </r>
       <r>    2.6365    0.0000 </r>
       <r>    2.7524    0.0000 </r>
       <r>    2.8413    0.0000 </r>
       <r>    2.9393    0.0000 </r>
       <r>    3.0630    0.0000 </r>
       <r>    3.0960    0.0000 </r>
      </set>
      <set comment="kpoint 11">
       <r>  -13.7333    1.0000 </r>
       <r>  -12.8909    1.0000 </r>
       <r>  -12.5576    1.0000 </r>
       <r>  -12.4596    1.0000 </r>
       <r>  -11.9899    1.0000 </r>
       <r>  -11.7437    1.0000 </r>
       <r>  -11.4835    1.0000 </r>
       <r>  -11.2838    1.0000 </r>
       <r>  -11.0656    1.0000 </r>
       <r>  -10.8105    1.0000 </r>
       <r>  -10.5870    1.0000 </r>
       <r>   -9.8776    1.0000 </r>
       <r>   -8.7624    1.0000 </r>
       <r>   -8.7386    1.0000 </r>
       <r>   -8.0887    1.0000 </r>
       <r>   -7.3849    1.0000 </r>
       <r>   -7.0164    1.0000 </r>
       <r>   -6.6872    1.0000 </r>
       <r>   -6.6360    1.0000 </r>
       <r>   -6.4225    1.0000 </r>
       <r>   -5.9681    1.0000 </r>
       <r>   -5.8081    1.0000 </r>
       <r>   -5.2017    1.0000 </r>
       <r>   -5.1710    1.0000 </r>
       <r>   -5.0208    1.0000 </r>
       <r>   -4.8227    1.0000 </r>
       <r>   -4.6613    1.0000 </r>
       <r>   -4.5792    1.0000 </r>
       <r>   -4.5485    1.0000 </r>
       <r>   -4.3306    1.0000 </r>
       <r>   -4.1159    1.0000 </r>
       <r>   -3.9995    1.0000 </r>
       <r>   -3.7283    1.0000 </r>
       <r>   -3.6314    1.0000 </r>
       <r>   -3.3246    1.0000 </r>
       <r>   -3.1990    1.0000 </r>
       <r>   -3.1475    1.0000 </r>
       <r>   -3.0811    1.0000 </r>
       <r>   -2.8920    1.0000 </r>
       <r>   -2.7694    1.0000 </r>
       <r>   -2.6532    1.0000 </r>
       <r>   -2.5200    1.0000 </r>
       <r>   -2.4270    1.0000 </r>
       <r>   -1.9954    1.0000 </r>
       <r>   -1.9585    1.0000 </r>
       <r>   -1.8216    1.0000 </r>
       <r>   -1.7646    1.0000 </r>
       <r>   -1.6506    1.0000 </r>
       <r>   -1.4109    1.0000 </r>
       <r>   -1.3764    1.0000 </r>
       <r>   -1.1309    1.0000 </r>
       <r>   -0.8553    1.0000 </r>
       <r>   -0.5228    1.0000 </r>
       <r>   -0.4045    0.9994 </r>
       <r>   -0.1040    0.1507 </r>
       <r>    0.7485    0.0000 </r>
       <r>    1.2734    0.0000 </r>
       <r>    1.4607    0.0000 </r>
       <r>    1.6056    0.0000 </r>
       <r>    1.9391    0.0000 </r>
       <r>    2.1020    0.0000 </r>
       <r>    2.2676    0.0000 </r>
       <r>    2.4732    0.0000 </r>
       <r>    2.5684    0.0000 </r>
       <r>    2.7304    0.0000 </r>
       <r>    2.8701    0.0000 </r>
       <r>    2.9444    0.0000 </r>
       <r>    3.0910    0.0000 </r>
      </set>
      <set comment="kpoint 12">
       <r>  -13.3148    1.0000 </r>
       <r>  -12.4742    1.0000 </r>
       <r>  -12.1985    1.0000 </r>
       <r>  -12.0920    1.0000 </r>
       <r>  -11.6378    1.0000 </r>
       <r>  -11.4089    1.0000 </r>
       <r>  -11.1355    1.0000 </r>
       <r>  -10.9701    1.0000 </r>
       <r>  -10.8019    1.0000 </r>
       <r>  -10.5762    1.0000 </r>
       <r>  -10.3813    1.0000 </r>
       <r>   -9.8250    1.0000 </r>
       <r>   -9.4347    1.0000 </r>
       <r>   -8.9611    1.0000 </r>
       <r>   -7.8423    1.0000 </r>
       <r>   -7.6978    1.0000 </r>
       <r>   -7.4245    1.0000 </r>
       <r>   -7.1028    1.0000 </r>
       <r>   -6.9529    1.0000 </r>
       <r>   -6.6626    1.0000 </r>
       <r>   -6.4675    1.0000 </r>
       <r>   -6.1797    1.0000 </r>
       <r>   -5.9084    1.0000 </r>
       <r>   -5.5773    1.0000 </r>
       <r>   -5.3710    1.0000 </r>
       <r>   -5.1214    1.0000 </r>
       <r>   -4.9301    1.0000 </r>
       <r>   -4.6318    1.0000 </r>
       <r>   -4.5746    1.0000 </r>
       <r>   -4.4093    1.0000 </r>
       <r>   -4.3181    1.0000 </r>
       <r>   -4.2778    1.0000 </r>
       <r>   -3.9999    1.0000 </r>
       <r>   -3.7130    1.0000 </r>
       <r>   -3.3335    1.0000 </r>
       <r>   -3.2668    1.0000 </r>
       <r>   -3.1304    1.0000 </r>
       <r>   -3.0007    1.0000 </r>
       <r>   -2.9307    1.0000 </r>
       <r>   -2.8507    1.0000 </r>
       <r>   -2.6854    1.0000 </r>
       <r>   -2.5262    1.0000 </r>
       <r>   -2.4198    1.0000 </r>
       <r>   -2.2857    1.0000 </r>
       <r>   -2.2435    1.0000 </r>
       <r>   -1.9506    1.0000 </r>
       <r>   -1.8728    1.0000 </r>
       <r>   -1.8446    1.0000 </r>
       <r>   -1.7418    1.0000 </r>
       <r>   -1.6633    1.0000 </r>
       <r>   -1.3696    1.0000 </r>
       <r>   -1.1692    1.0000 </r>
       <r>   -1.0155    1.0000 </r>
       <r>   -0.5758    1.0000 </r>
       <r>   -0.3397    0.9892 </r>
       <r>    0.5524    0.0000 </r>
       <r>    0.9151    0.0000 </r>
       <r>    1.2419    0.0000 </r>
       <r>    1.3079    0.0000 </r>
       <r>    1.8664    0.0000 </r>
       <r>    2.0364    0.0000 </r>
       <r>    2.1856    0.0000 </r>
       <r>    2.2224    0.0000 </r>
       <r>    2.3659    0.0000 </r>
       <r>    2.5149    0.0000 </r>
       <r>    2.6313    0.0000 </r>
       <r>    2.7385    0.0000 </r>
       <r>    2.8196    0.0000 </r>
      </set>
      <set comment="kpoint 13">
       <r>  -12.7993    1.0000 </r>
       <r>  -11.9706    1.0000 </r>
       <r>  -11.7483    1.0000 </r>
       <r>  -11.6536    1.0000 </r>
       <r>  -11.2415    1.0000 </r>
       <r>  -11.0657    1.0000 </r>
       <r>  -10.8120    1.0000 </r>
       <r>  -10.7135    1.0000 </r>
       <r>  -10.5910    1.0000 </r>
       <r>  -10.4676    1.0000 </r>
       <r>  -10.4570    1.0000 </r>
       <r>  -10.2229    1.0000 </r>
       <r>   -9.7054    1.0000 </r>
       <r>   -8.9511    1.0000 </r>
       <r>   -8.1024    1.0000 </r>
       <r>   -7.8802    1.0000 </r>
       <r>   -7.7693    1.0000 </r>
       <r>   -7.7032    1.0000 </r>
       <r>   -7.3488    1.0000 </r>
       <r>   -6.9774    1.0000 </r>
       <r>   -6.9315    1.0000 </r>
       <r>   -6.6843    1.0000 </r>
       <r>   -6.6482    1.0000 </r>
       <r>   -6.2373    1.0000 </r>
       <r>   -5.3340    1.0000 </r>
       <r>   -4.9923    1.0000 </r>
       <r>   -4.7766    1.0000 </r>
       <r>   -4.5767    1.0000 </r>
       <r>   -4.4908    1.0000 </r>
       <r>   -4.3378    1.0000 </r>
       <r>   -4.1764    1.0000 </r>
       <r>   -4.1038    1.0000 </r>
       <r>   -3.8537    1.0000 </r>
       <r>   -3.8129    1.0000 </r>
       <r>   -3.3780    1.0000 </r>
       <r>   -3.3422    1.0000 </r>
       <r>   -3.2791    1.0000 </r>
       <r>   -3.2083    1.0000 </r>
       <r>   -3.1154    1.0000 </r>
       <r>   -2.9488    1.0000 </r>
       <r>   -2.9084    1.0000 </r>
       <r>   -2.7110    1.0000 </r>
       <r>   -2.6024    1.0000 </r>
       <r>   -2.3836    1.0000 </r>
       <r>   -2.2633    1.0000 </r>
       <r>   -2.1006    1.0000 </r>
       <r>   -2.0565    1.0000 </r>
       <r>   -2.0001    1.0000 </r>
       <r>   -1.8567    1.0000 </r>
       <r>   -1.7723    1.0000 </r>
       <r>   -1.6191    1.0000 </r>
       <r>   -1.4691    1.0000 </r>
       <r>   -1.2431    1.0000 </r>
       <r>   -0.6403    1.0000 </r>
       <r>   -0.3431    0.9906 </r>
       <r>    0.2602    0.0000 </r>
       <r>    0.6453    0.0000 </r>
       <r>    1.2080    0.0000 </r>
       <r>    1.3362    0.0000 </r>
       <r>    1.7266    0.0000 </r>
       <r>    1.7865    0.0000 </r>
       <r>    1.8472    0.0000 </r>
       <r>    2.0109    0.0000 </r>
       <r>    2.2180    0.0000 </r>
       <r>    2.2595    0.0000 </r>
       <r>    2.5182    0.0000 </r>
       <r>    2.6124    0.0000 </r>
       <r>    2.6700    0.0000 </r>
      </set>
      <set comment="kpoint 14">
       <r>  -12.2647    1.0000 </r>
       <r>  -11.4212    1.0000 </r>
       <r>  -11.2532    1.0000 </r>
       <r>  -11.2477    1.0000 </r>
       <r>  -11.1502    1.0000 </r>
       <r>  -10.9499    1.0000 </r>
       <r>  -10.8765    1.0000 </r>
       <r>  -10.8506    1.0000 </r>
       <r>  -10.6898    1.0000 </r>
       <r>  -10.5702    1.0000 </r>
       <r>  -10.3483    1.0000 </r>
       <r>  -10.3115    1.0000 </r>
       <r>   -9.8522    1.0000 </r>
       <r>   -8.5446    1.0000 </r>
       <r>   -8.3898    1.0000 </r>
       <r>   -8.3188    1.0000 </r>
       <r>   -8.0201    1.0000 </r>
       <r>   -7.9209    1.0000 </r>
       <r>   -7.5070    1.0000 </r>
       <r>   -7.3071    1.0000 </r>
       <r>   -7.2070    1.0000 </r>
       <r>   -7.1267    1.0000 </r>
       <r>   -7.0819    1.0000 </r>
       <r>   -6.5563    1.0000 </r>
       <r>   -5.0098    1.0000 </r>
       <r>   -4.6434    1.0000 </r>
       <r>   -4.6122    1.0000 </r>
       <r>   -4.4618    1.0000 </r>
       <r>   -4.3929    1.0000 </r>
       <r>   -4.2327    1.0000 </r>
       <r>   -4.1386    1.0000 </r>
       <r>   -4.0049    1.0000 </r>
       <r>   -3.9165    1.0000 </r>
       <r>   -3.6924    1.0000 </r>
       <r>   -3.6513    1.0000 </r>
       <r>   -3.5159    1.0000 </r>
       <r>   -3.4628    1.0000 </r>
       <r>   -3.4351    1.0000 </r>
       <r>   -3.2501    1.0000 </r>
       <r>   -3.1345    1.0000 </r>
       <r>   -3.0139    1.0000 </r>
       <r>   -2.9485    1.0000 </r>
       <r>   -2.6282    1.0000 </r>
       <r>   -2.5881    1.0000 </r>
       <r>   -2.2512    1.0000 </r>
       <r>   -2.2193    1.0000 </r>
       <r>   -2.1106    1.0000 </r>
       <r>   -1.9977    1.0000 </r>
       <r>   -1.9568    1.0000 </r>
       <r>   -1.7991    1.0000 </r>
       <r>   -1.6773    1.0000 </r>
       <r>   -1.5373    1.0000 </r>
       <r>   -1.0723    1.0000 </r>
       <r>   -0.7902    1.0000 </r>
       <r>   -0.2257    0.7539 </r>
       <r>   -0.0244    0.0154 </r>
       <r>    0.6287    0.0000 </r>
       <r>    1.4070    0.0000 </r>
       <r>    1.4485    0.0000 </r>
       <r>    1.5545    0.0000 </r>
       <r>    1.6501    0.0000 </r>
       <r>    1.7263    0.0000 </r>
       <r>    1.8053    0.0000 </r>
       <r>    2.0749    0.0000 </r>
       <r>    2.1911    0.0000 </r>
       <r>    2.4385    0.0000 </r>
       <r>    2.4892    0.0000 </r>
       <r>    2.5626    0.0000 </r>
      </set>
      <set comment="kpoint 15">
       <r>  -12.2743    1.0000 </r>
       <r>  -11.5253    1.0000 </r>
       <r>  -11.2017    1.0000 </r>
       <r>  -11.1208    1.0000 </r>
       <r>  -11.0605    1.0000 </r>
       <r>  -10.9239    1.0000 </r>
       <r>  -10.8992    1.0000 </r>
       <r>  -10.7974    1.0000 </r>
       <r>  -10.7473    1.0000 </r>
       <r>  -10.6930    1.0000 </r>
       <r>  -10.4281    1.0000 </r>
       <r>  -10.3113    1.0000 </r>
       <r>   -9.8332    1.0000 </r>
       <r>   -8.7466    1.0000 </r>
       <r>   -8.4242    1.0000 </r>
       <r>   -8.0498    1.0000 </r>
       <r>   -7.9340    1.0000 </r>
       <r>   -7.7999    1.0000 </r>
       <r>   -7.5943    1.0000 </r>
       <r>   -7.3498    1.0000 </r>
       <r>   -7.2691    1.0000 </r>
       <r>   -7.2070    1.0000 </r>
       <r>   -7.0215    1.0000 </r>
       <r>   -6.5012    1.0000 </r>
       <r>   -4.7644    1.0000 </r>
       <r>   -4.7296    1.0000 </r>
       <r>   -4.6029    1.0000 </r>
       <r>   -4.5667    1.0000 </r>
       <r>   -4.3643    1.0000 </r>
       <r>   -4.1947    1.0000 </r>
       <r>   -4.0884    1.0000 </r>
       <r>   -3.9986    1.0000 </r>
       <r>   -3.9556    1.0000 </r>
       <r>   -3.8736    1.0000 </r>
       <r>   -3.8124    1.0000 </r>
       <r>   -3.6625    1.0000 </r>
       <r>   -3.5974    1.0000 </r>
       <r>   -3.4474    1.0000 </r>
       <r>   -3.3324    1.0000 </r>
       <r>   -3.0825    1.0000 </r>
       <r>   -2.8673    1.0000 </r>
       <r>   -2.7877    1.0000 </r>
       <r>   -2.6706    1.0000 </r>
       <r>   -2.3917    1.0000 </r>
       <r>   -2.3814    1.0000 </r>
       <r>   -2.2660    1.0000 </r>
       <r>   -2.1526    1.0000 </r>
       <r>   -2.0874    1.0000 </r>
       <r>   -1.8791    1.0000 </r>
       <r>   -1.6910    1.0000 </r>
       <r>   -1.6560    1.0000 </r>
       <r>   -1.4883    1.0000 </r>
       <r>   -1.0300    1.0000 </r>
       <r>   -0.7620    1.0000 </r>
       <r>   -0.2218    0.7362 </r>
       <r>    0.0185    0.0028 </r>
       <r>    0.7209    0.0000 </r>
       <r>    1.3613    0.0000 </r>
       <r>    1.5410    0.0000 </r>
       <r>    1.6519    0.0000 </r>
       <r>    1.7390    0.0000 </r>
       <r>    1.8109    0.0000 </r>
       <r>    1.9305    0.0000 </r>
       <r>    2.2021    0.0000 </r>
       <r>    2.2777    0.0000 </r>
       <r>    2.3832    0.0000 </r>
       <r>    2.4644    0.0000 </r>
       <r>    2.5985    0.0000 </r>
      </set>
      <set comment="kpoint 16">
       <r>  -12.8117    1.0000 </r>
       <r>  -12.0919    1.0000 </r>
       <r>  -11.5632    1.0000 </r>
       <r>  -11.4746    1.0000 </r>
       <r>  -11.2394    1.0000 </r>
       <r>  -11.0355    1.0000 </r>
       <r>  -10.9792    1.0000 </r>
       <r>  -10.9129    1.0000 </r>
       <r>  -10.6190    1.0000 </r>
       <r>  -10.4408    1.0000 </r>
       <r>  -10.3901    1.0000 </r>
       <r>  -10.2933    1.0000 </r>
       <r>   -9.6996    1.0000 </r>
       <r>   -8.7321    1.0000 </r>
       <r>   -8.4814    1.0000 </r>
       <r>   -7.9026    1.0000 </r>
       <r>   -7.5157    1.0000 </r>
       <r>   -7.4276    1.0000 </r>
       <r>   -7.3195    1.0000 </r>
       <r>   -7.1094    1.0000 </r>
       <r>   -6.8930    1.0000 </r>
       <r>   -6.7982    1.0000 </r>
       <r>   -6.6542    1.0000 </r>
       <r>   -6.1851    1.0000 </r>
       <r>   -5.0493    1.0000 </r>
       <r>   -4.9954    1.0000 </r>
       <r>   -4.8421    1.0000 </r>
       <r>   -4.7651    1.0000 </r>
       <r>   -4.4175    1.0000 </r>
       <r>   -4.3421    1.0000 </r>
       <r>   -4.2362    1.0000 </r>
       <r>   -4.0939    1.0000 </r>
       <r>   -4.0352    1.0000 </r>
       <r>   -3.7939    1.0000 </r>
       <r>   -3.7119    1.0000 </r>
       <r>   -3.4790    1.0000 </r>
       <r>   -3.3904    1.0000 </r>
       <r>   -3.2843    1.0000 </r>
       <r>   -3.1600    1.0000 </r>
       <r>   -2.9763    1.0000 </r>
       <r>   -2.7421    1.0000 </r>
       <r>   -2.6032    1.0000 </r>
       <r>   -2.5804    1.0000 </r>
       <r>   -2.4202    1.0000 </r>
       <r>   -2.2265    1.0000 </r>
       <r>   -2.1738    1.0000 </r>
       <r>   -2.0875    1.0000 </r>
       <r>   -1.9335    1.0000 </r>
       <r>   -1.8322    1.0000 </r>
       <r>   -1.7091    1.0000 </r>
       <r>   -1.5373    1.0000 </r>
       <r>   -1.3731    1.0000 </r>
       <r>   -1.0472    1.0000 </r>
       <r>   -0.6195    1.0000 </r>
       <r>   -0.2667    0.8975 </r>
       <r>    0.2849    0.0000 </r>
       <r>    0.9272    0.0000 </r>
       <r>    1.3799    0.0000 </r>
       <r>    1.6792    0.0000 </r>
       <r>    1.8602    0.0000 </r>
       <r>    1.9167    0.0000 </r>
       <r>    1.9952    0.0000 </r>
       <r>    2.1322    0.0000 </r>
       <r>    2.2846    0.0000 </r>
       <r>    2.3450    0.0000 </r>
       <r>    2.4387    0.0000 </r>
       <r>    2.5221    0.0000 </r>
       <r>    2.6374    0.0000 </r>
      </set>
      <set comment="kpoint 17">
       <r>  -13.3259    1.0000 </r>
       <r>  -12.5861    1.0000 </r>
       <r>  -12.0092    1.0000 </r>
       <r>  -11.9369    1.0000 </r>
       <r>  -11.6411    1.0000 </r>
       <r>  -11.3913    1.0000 </r>
       <r>  -11.2920    1.0000 </r>
       <r>  -11.2199    1.0000 </r>
       <r>  -10.7627    1.0000 </r>
       <r>  -10.5336    1.0000 </r>
       <r>  -10.4109    1.0000 </r>
       <r>   -9.8799    1.0000 </r>
       <r>   -9.3965    1.0000 </r>
       <r>   -8.5454    1.0000 </r>
       <r>   -8.1776    1.0000 </r>
       <r>   -7.7072    1.0000 </r>
       <r>   -7.3905    1.0000 </r>
       <r>   -6.9924    1.0000 </r>
       <r>   -6.8601    1.0000 </r>
       <r>   -6.7150    1.0000 </r>
       <r>   -6.5037    1.0000 </r>
       <r>   -6.1449    1.0000 </r>
       <r>   -5.9628    1.0000 </r>
       <r>   -5.5833    1.0000 </r>
       <r>   -5.1544    1.0000 </r>
       <r>   -5.1202    1.0000 </r>
       <r>   -4.9004    1.0000 </r>
       <r>   -4.8762    1.0000 </r>
       <r>   -4.6393    1.0000 </r>
       <r>   -4.4401    1.0000 </r>
       <r>   -4.3137    1.0000 </r>
       <r>   -4.2384    1.0000 </r>
       <r>   -4.1785    1.0000 </r>
       <r>   -3.5492    1.0000 </r>
       <r>   -3.4542    1.0000 </r>
       <r>   -3.4032    1.0000 </r>
       <r>   -3.1022    1.0000 </r>
       <r>   -3.0824    1.0000 </r>
       <r>   -3.0249    1.0000 </r>
       <r>   -2.8765    1.0000 </r>
       <r>   -2.7444    1.0000 </r>
       <r>   -2.6018    1.0000 </r>
       <r>   -2.4181    1.0000 </r>
       <r>   -2.2996    1.0000 </r>
       <r>   -2.0165    1.0000 </r>
       <r>   -1.9149    1.0000 </r>
       <r>   -1.8545    1.0000 </r>
       <r>   -1.8021    1.0000 </r>
       <r>   -1.6935    1.0000 </r>
       <r>   -1.6765    1.0000 </r>
       <r>   -1.3308    1.0000 </r>
       <r>   -1.1760    1.0000 </r>
       <r>   -0.8897    1.0000 </r>
       <r>   -0.5754    1.0000 </r>
       <r>   -0.1743    0.4842 </r>
       <r>    0.5368    0.0000 </r>
       <r>    1.2348    0.0000 </r>
       <r>    1.6235    0.0000 </r>
       <r>    1.8410    0.0000 </r>
       <r>    1.9601    0.0000 </r>
       <r>    1.9854    0.0000 </r>
       <r>    2.1566    0.0000 </r>
       <r>    2.2621    0.0000 </r>
       <r>    2.3773    0.0000 </r>
       <r>    2.4144    0.0000 </r>
       <r>    2.6135    0.0000 </r>
       <r>    2.7216    0.0000 </r>
       <r>    2.8066    0.0000 </r>
      </set>
      <set comment="kpoint 18">
       <r>  -13.7421    1.0000 </r>
       <r>  -12.9814    1.0000 </r>
       <r>  -12.3920    1.0000 </r>
       <r>  -12.3413    1.0000 </r>
       <r>  -11.9947    1.0000 </r>
       <r>  -11.7383    1.0000 </r>
       <r>  -11.6019    1.0000 </r>
       <r>  -11.5165    1.0000 </r>
       <r>  -11.0190    1.0000 </r>
       <r>  -10.7735    1.0000 </r>
       <r>  -10.5894    1.0000 </r>
       <r>   -9.9289    1.0000 </r>
       <r>   -8.6978    1.0000 </r>
       <r>   -8.3896    1.0000 </r>
       <r>   -7.9057    1.0000 </r>
       <r>   -7.7726    1.0000 </r>
       <r>   -7.0495    1.0000 </r>
       <r>   -6.6909    1.0000 </r>
       <r>   -6.6274    1.0000 </r>
       <r>   -6.5427    1.0000 </r>
       <r>   -5.9634    1.0000 </r>
       <r>   -5.7285    1.0000 </r>
       <r>   -5.3804    1.0000 </r>
       <r>   -5.3238    1.0000 </r>
       <r>   -4.8312    1.0000 </r>
       <r>   -4.7514    1.0000 </r>
       <r>   -4.6156    1.0000 </r>
       <r>   -4.5731    1.0000 </r>
       <r>   -4.5023    1.0000 </r>
       <r>   -4.2894    1.0000 </r>
       <r>   -4.1794    1.0000 </r>
       <r>   -3.9919    1.0000 </r>
       <r>   -3.7674    1.0000 </r>
       <r>   -3.6006    1.0000 </r>
       <r>   -3.4649    1.0000 </r>
       <r>   -3.4345    1.0000 </r>
       <r>   -3.2363    1.0000 </r>
       <r>   -2.9851    1.0000 </r>
       <r>   -2.8602    1.0000 </r>
       <r>   -2.7147    1.0000 </r>
       <r>   -2.5940    1.0000 </r>
       <r>   -2.4377    1.0000 </r>
       <r>   -2.3174    1.0000 </r>
       <r>   -1.9442    1.0000 </r>
       <r>   -1.8994    1.0000 </r>
       <r>   -1.8376    1.0000 </r>
       <r>   -1.7987    1.0000 </r>
       <r>   -1.7089    1.0000 </r>
       <r>   -1.4546    1.0000 </r>
       <r>   -1.2356    1.0000 </r>
       <r>   -1.1482    1.0000 </r>
[...]
       <r>    2.6426    0.0000 </r>
      </set>
      <set comment="kpoint 54">
       <r>  -12.2690    1.0000 </r>
       <r>  -11.4803    1.0000 </r>
       <r>  -11.2262    1.0000 </r>
       <r>  -11.1588    1.0000 </r>
       <r>  -11.1410    1.0000 </r>
       <r>  -10.9405    1.0000 </r>
       <r>  -10.8834    1.0000 </r>
       <r>  -10.8380    1.0000 </r>
       <r>  -10.7125    1.0000 </r>
       <r>  -10.6110    1.0000 </r>
       <r>  -10.3856    1.0000 </r>
       <r>  -10.3092    1.0000 </r>
       <r>   -9.8435    1.0000 </r>
       <r>   -8.6551    1.0000 </r>
       <r>   -8.4309    1.0000 </r>
       <r>   -8.1100    1.0000 </r>
       <r>   -8.0277    1.0000 </r>
       <r>   -7.8784    1.0000 </r>
       <r>   -7.5508    1.0000 </r>
       <r>   -7.2924    1.0000 </r>
       <r>   -7.2674    1.0000 </r>
       <r>   -7.1598    1.0000 </r>
       <r>   -7.0337    1.0000 </r>
       <r>   -6.5356    1.0000 </r>
       <r>   -4.9369    1.0000 </r>
       <r>   -4.6892    1.0000 </r>
       <r>   -4.6495    1.0000 </r>
       <r>   -4.4701    1.0000 </r>
       <r>   -4.3280    1.0000 </r>
       <r>   -4.2468    1.0000 </r>
       <r>   -4.0839    1.0000 </r>
       <r>   -3.9926    1.0000 </r>
       <r>   -3.9218    1.0000 </r>
       <r>   -3.7901    1.0000 </r>
       <r>   -3.7535    1.0000 </r>
       <r>   -3.5689    1.0000 </r>
       <r>   -3.4850    1.0000 </r>
       <r>   -3.4150    1.0000 </r>
       <r>   -3.2476    1.0000 </r>
       <r>   -3.1929    1.0000 </r>
       <r>   -3.0104    1.0000 </r>
       <r>   -2.9056    1.0000 </r>
       <r>   -2.6801    1.0000 </r>
       <r>   -2.3705    1.0000 </r>
       <r>   -2.3447    1.0000 </r>
       <r>   -2.2405    1.0000 </r>
       <r>   -2.1344    1.0000 </r>
       <r>   -2.0434    1.0000 </r>
       <r>   -1.8995    1.0000 </r>
       <r>   -1.7381    1.0000 </r>
       <r>   -1.6734    1.0000 </r>
       <r>   -1.5163    1.0000 </r>
       <r>   -1.0444    1.0000 </r>
       <r>   -0.7746    1.0000 </r>
       <r>   -0.2242    0.7475 </r>
       <r>   -0.0099    0.0090 </r>
       <r>    0.6230    0.0000 </r>
       <r>    1.3476    0.0000 </r>
       <r>    1.4812    0.0000 </r>
       <r>    1.5841    0.0000 </r>
       <r>    1.7029    0.0000 </r>
       <r>    1.8218    0.0000 </r>
       <r>    1.9090    0.0000 </r>
       <r>    2.0774    0.0000 </r>
       <r>    2.3045    0.0000 </r>
       <r>    2.3600    0.0000 </r>
       <r>    2.4723    0.0000 </r>
       <r>    2.7079    0.0000 </r>
      </set>
     </set>
    </set>
   </array>
  </eigenvalues>
  <separator name="orbital magnetization" >
   <v name="MAGDIPOLOUT">      0.00000000      0.00000000      0.00000000</v>
  </separator>
  <dos>
   <i name="efermi">     -0.17710202 </i>
   <total>
    <array>
     <dimension dim="1">gridpoints</dimension>
     <dimension dim="2">spin</dimension>
     <field>energy</field>
     <field>total</field>
     <field>integrated</field>
     <set>
      <set comment="spin 1">
       <r>   -15.2935     0.0000     0.0000 </r>
       <r>   -15.2287     0.0000     0.0000 </r>
       <r>   -15.1639     0.0000     0.0000 </r>
       <r>   -15.0991     0.0000     0.0000 </r>
       <r>   -15.0343     0.0000     0.0000 </r>
       <r>   -14.9694     0.0000     0.0000 </r>
       <r>   -14.9046     0.0000     0.0000 </r>
       <r>   -14.8398     0.0000     0.0000 </r>
       <r>   -14.7750     0.0000     0.0000 </r>
       <r>   -14.7102     0.0000     0.0000 </r>
       <r>   -14.6454     0.0000     0.0000 </r>
       <r>   -14.5806     0.0000     0.0000 </r>
       <r>   -14.5158     0.0015     0.0001 </r>
       <r>   -14.4510     0.0264     0.0018 </r>
       <r>   -14.3862     0.2192     0.0160 </r>
       <r>   -14.3214     0.9154     0.0753 </r>
       <r>   -14.2565     1.9927     0.2045 </r>
       <r>   -14.1917     2.3282     0.3554 </r>
       <r>   -14.1269     1.7593     0.4694 </r>
       <r>   -14.0621     1.6550     0.5767 </r>
       <r>   -13.9973     1.7021     0.6870 </r>
       <r>   -13.9325     0.9884     0.7510 </r>
       <r>   -13.8677     0.4052     0.7773 </r>
       <r>   -13.8029     0.7228     0.8241 </r>
       <r>   -13.7381     1.5176     0.9225 </r>
       <r>   -13.6733     1.5396     1.0223 </r>
       <r>   -13.6085     0.8375     1.0765 </r>
       <r>   -13.5437     0.7222     1.1233 </r>
       <r>   -13.4788     1.4233     1.2156 </r>
       <r>   -13.4140     2.3267     1.3664 </r>
       <r>   -13.3492     3.1788     1.5724 </r>
       <r>   -13.2844     3.5640     1.8034 </r>
       <r>   -13.2196     2.8812     1.9901 </r>
       <r>   -13.1548     1.9648     2.1174 </r>
       <r>   -13.0900     1.5843     2.2201 </r>
       <r>   -13.0252     2.0288     2.3516 </r>
       <r>   -12.9604     3.5864     2.5840 </r>
       <r>   -12.8956     5.4123     2.9348 </r>
       <r>   -12.8308     6.2218     3.3380 </r>
       <r>   -12.7659     5.6168     3.7020 </r>
       <r>   -12.7011     4.3130     3.9815 </r>
       <r>   -12.6363     3.5529     4.2118 </r>
       <r>   -12.5715     3.7562     4.4552 </r>
       <r>   -12.5067     4.5200     4.7482 </r>
       <r>   -12.4419     5.2977     5.0915 </r>
       <r>   -12.3771     5.2911     5.4344 </r>
       <r>   -12.3123     5.1793     5.7701 </r>
       <r>   -12.2475     5.9859     6.1580 </r>
       <r>   -12.1827     6.4231     6.5743 </r>
       <r>   -12.1179     6.3818     6.9879 </r>
       <r>   -12.0531     7.6016     7.4805 </r>
       <r>   -11.9882     9.2972     8.0831 </r>
       <r>   -11.9234     8.3888     8.6267 </r>
       <r>   -11.8586     5.9657     9.0134 </r>
       <r>   -11.7938     5.1667     9.3482 </r>
       <r>   -11.7290     5.9607     9.7345 </r>
       <r>   -11.6642     6.9127    10.1825 </r>
       <r>   -11.5994     7.5236    10.6701 </r>
       <r>   -11.5346     7.8092    11.1762 </r>
       <r>   -11.4698     8.0999    11.7012 </r>
       <r>   -11.4050     7.7341    12.2024 </r>
       <r>   -11.3402     6.8483    12.6462 </r>
       <r>   -11.2753     7.9566    13.1619 </r>
       <r>   -11.2105    10.5338    13.8446 </r>
       <r>   -11.1457    11.3933    14.5830 </r>
       <r>   -11.0809    10.7875    15.2821 </r>
       <r>   -11.0161    10.7548    15.9791 </r>
       <r>   -10.9513    11.2344    16.7072 </r>
       <r>   -10.8865    11.2773    17.4380 </r>
       <r>   -10.8217    11.3653    18.1746 </r>
       <r>   -10.7569    10.7268    18.8698 </r>
       <r>   -10.6921     8.5425    19.4234 </r>
       <r>   -10.6273     7.2861    19.8956 </r>
       <r>   -10.5625     7.3408    20.3714 </r>
       <r>   -10.4976     6.8544    20.8156 </r>
       <r>   -10.4328     7.0044    21.2696 </r>
       <r>   -10.3680     7.4199    21.7504 </r>
       <r>   -10.3032     6.3606    22.1627 </r>
       <r>   -10.2384     4.5609    22.4582 </r>
       <r>   -10.1736     3.3015    22.6722 </r>
       <r>   -10.1088     3.1999    22.8796 </r>
       <r>   -10.0440     3.4965    23.1062 </r>
       <r>    -9.9792     3.5424    23.3358 </r>
       <r>    -9.9144     4.0774    23.6000 </r>
       <r>    -9.8496     4.9323    23.9197 </r>
       <r>    -9.7847     4.4178    24.2060 </r>
       <r>    -9.7199     3.0421    24.4032 </r>
       <r>    -9.6551     2.0223    24.5342 </r>
       <r>    -9.5903     1.0130    24.5999 </r>
       <r>    -9.5255     0.5128    24.6331 </r>
       <r>    -9.4607     0.9813    24.6967 </r>
       <r>    -9.3959     1.6118    24.8011 </r>
       <r>    -9.3311     1.2932    24.8850 </r>
       <r>    -9.2663     0.4923    24.9169 </r>
       <r>    -9.2015     0.0889    24.9226 </r>
       <r>    -9.1367     0.0209    24.9240 </r>
       <r>    -9.0719     0.1307    24.9325 </r>
       <r>    -9.0070     0.6035    24.9716 </r>
       <r>    -8.9422     1.4222    25.0637 </r>
       <r>    -8.8774     2.0284    25.1952 </r>
       <r>    -8.8126     2.7879    25.3759 </r>
       <r>    -8.7478     4.4711    25.6656 </r>
       <r>    -8.6830     5.5655    26.0263 </r>
       <r>    -8.6182     4.9235    26.3454 </r>
       <r>    -8.5534     4.3202    26.6254 </r>
       <r>    -8.4886     4.9752    26.9478 </r>
       <r>    -8.4238     6.2704    27.3542 </r>
       <r>    -8.3590     6.8616    27.7989 </r>
       <r>    -8.2941     5.6484    28.1650 </r>
       <r>    -8.2293     3.8724    28.4159 </r>
       <r>    -8.1645     3.6462    28.6522 </r>
       <r>    -8.0997     4.9425    28.9726 </r>
       <r>    -8.0349     6.0421    29.3641 </r>
       <r>    -7.9701     6.3458    29.7754 </r>
       <r>    -7.9053     7.2259    30.2437 </r>
       <r>    -7.8405     8.2295    30.7770 </r>
       <r>    -7.7757     7.8332    31.2847 </r>
       <r>    -7.7109     6.4002    31.6995 </r>
       <r>    -7.6461     4.9615    32.0210 </r>
       <r>    -7.5813     4.3530    32.3032 </r>
       <r>    -7.5164     4.4739    32.5931 </r>
       <r>    -7.4516     5.2985    32.9365 </r>
       <r>    -7.3868     6.9999    33.3902 </r>
       <r>    -7.3220     8.0435    33.9114 </r>
       <r>    -7.2572     7.4379    34.3935 </r>
       <r>    -7.1924     5.9660    34.7801 </r>
       <r>    -7.1276     5.3462    35.1266 </r>
       <r>    -7.0628     6.5150    35.5488 </r>
       <r>    -6.9980     7.9733    36.0656 </r>
       <r>    -6.9332     8.0962    36.5903 </r>
       <r>    -6.8684     7.7128    37.0901 </r>
       <r>    -6.8035     8.0972    37.6149 </r>
       <r>    -6.7387     9.4937    38.2302 </r>
       <r>    -6.6739    11.7488    38.9916 </r>
       <r>    -6.6091    12.6804    39.8134 </r>
       <r>    -6.5443    11.7557    40.5753 </r>
       <r>    -6.4795    10.3665    41.2471 </r>
       <r>    -6.4147     7.6269    41.7414 </r>
       <r>    -6.3499     4.6428    42.0423 </r>
       <r>    -6.2851     3.5008    42.2692 </r>
       <r>    -6.2203     4.0746    42.5332 </r>
       <r>    -6.1555     4.3621    42.8159 </r>
       <r>    -6.0907     3.0936    43.0164 </r>
       <r>    -6.0258     2.1845    43.1580 </r>
       <r>    -5.9610     2.9890    43.3517 </r>
       <r>    -5.8962     3.5845    43.5840 </r>
       <r>    -5.8314     3.6099    43.8180 </r>
       <r>    -5.7666     4.9393    44.1381 </r>
       <r>    -5.7018     6.8235    44.5803 </r>
       <r>    -5.6370     7.1453    45.0434 </r>
       <r>    -5.5722     5.8024    45.4194 </r>
       <r>    -5.5074     3.7067    45.6597 </r>
       <r>    -5.4426     2.5017    45.8218 </r>
       <r>    -5.3778     3.1053    46.0231 </r>
       <r>    -5.3129     3.8726    46.2740 </r>
       <r>    -5.2481     4.0959    46.5395 </r>
       <r>    -5.1833     4.9773    46.8621 </r>
       <r>    -5.1185     5.7854    47.2370 </r>
       <r>    -5.0537     5.8453    47.6158 </r>
       <r>    -4.9889     6.3822    48.0294 </r>
       <r>    -4.9241     7.5484    48.5186 </r>
       <r>    -4.8593     8.8194    49.0902 </r>
       <r>    -4.7945    10.0590    49.7421 </r>
       <r>    -4.7297    11.4966    50.4872 </r>
       <r>    -4.6649    13.3029    51.3494 </r>
       <r>    -4.6001    14.1105    52.2638 </r>
       <r>    -4.5352    12.7265    53.0886 </r>
       <r>    -4.4704    10.8335    53.7907 </r>
       <r>    -4.4056    11.0403    54.5062 </r>
       <r>    -4.3408    13.2660    55.3660 </r>
       <r>    -4.2760    14.4293    56.3011 </r>
       <r>    -4.2112    13.3962    57.1693 </r>
       <r>    -4.1464    12.8763    58.0038 </r>
       <r>    -4.0816    13.9377    58.9071 </r>
       <r>    -4.0168    14.4006    59.8404 </r>
       <r>    -3.9520    12.8404    60.6726 </r>
       <r>    -3.8872    10.5102    61.3537 </r>
       <r>    -3.8223    10.0042    62.0021 </r>
       <r>    -3.7575    11.7078    62.7608 </r>
       <r>    -3.6927    13.1278    63.6116 </r>
       <r>    -3.6279    13.1630    64.4647 </r>
       <r>    -3.5631    13.1018    65.3138 </r>
       <r>    -3.4983    14.4467    66.2501 </r>
       <r>    -3.4335    15.7793    67.2727 </r>
       <r>    -3.3687    14.7311    68.2274 </r>
       <r>    -3.3039    13.0607    69.0739 </r>
       <r>    -3.2391    13.4011    69.9424 </r>
       <r>    -3.1743    15.4321    70.9425 </r>
       <r>    -3.1095    17.3940    72.0698 </r>
       <r>    -3.0446    18.2226    73.2508 </r>
       <r>    -2.9798    17.8769    74.4094 </r>
       <r>    -2.9150    16.6206    75.4865 </r>
       <r>    -2.8502    14.6929    76.4388 </r>
       <r>    -2.7854    13.0991    77.2877 </r>
       <r>    -2.7206    13.7944    78.1817 </r>
       <r>    -2.6558    15.5156    79.1872 </r>
       <r>    -2.5910    15.8322    80.2133 </r>
       <r>    -2.5262    14.7634    81.1701 </r>
       <r>    -2.4614    13.9459    82.0739 </r>
       <r>    -2.3966    15.0623    83.0501 </r>
       <r>    -2.3317    16.2412    84.1026 </r>
       <r>    -2.2669    15.9345    85.1353 </r>
       <r>    -2.2021    15.0004    86.1075 </r>
       <r>    -2.1373    14.7393    87.0627 </r>
       <r>    -2.0725    15.4304    88.0628 </r>
       <r>    -2.0077    16.5572    89.1358 </r>
       <r>    -1.9429    17.8256    90.2911 </r>
       <r>    -1.8781    18.9667    91.5203 </r>
       <r>    -1.8133    19.7545    92.8005 </r>
       <r>    -1.7485    19.1673    94.0427 </r>
       <r>    -1.6837    17.7224    95.1913 </r>
       <r>    -1.6189    15.1999    96.1764 </r>
       <r>    -1.5540    12.0598    96.9580 </r>
       <r>    -1.4892    10.9127    97.6652 </r>
       <r>    -1.4244    11.1751    98.3894 </r>
       <r>    -1.3596    10.8613    99.0934 </r>
       <r>    -1.2948     9.5021    99.7092 </r>
       <r>    -1.2300     8.6077   100.2670 </r>
       <r>    -1.1652     9.3078   100.8702 </r>
       <r>    -1.1004    10.3240   101.5393 </r>
       <r>    -1.0356    10.1253   102.1955 </r>
       <r>    -0.9708     9.0625   102.7829 </r>
       <r>    -0.9060     8.4952   103.3334 </r>
       <r>    -0.8411     7.9633   103.8495 </r>
       <r>    -0.7763     6.3890   104.2636 </r>
       <r>    -0.7115     4.9830   104.5865 </r>
       <r>    -0.6467     5.1054   104.9174 </r>
       <r>    -0.5819     5.9756   105.3047 </r>
       <r>    -0.5171     5.7742   105.6789 </r>
       <r>    -0.4523     5.2020   106.0160 </r>
       <r>    -0.3875     5.9102   106.3991 </r>
       <r>    -0.3227     7.6377   106.8940 </r>
       <r>    -0.2579     8.5533   107.4484 </r>
       <r>    -0.1931     7.0896   107.9078 </r>
       <r>    -0.1283     5.4114   108.2585 </r>
       <r>    -0.0634     5.6516   108.6248 </r>
       <r>     0.0014     6.1626   109.0242 </r>
       <r>     0.0662     4.7541   109.3323 </r>
       <r>     0.1310     2.6935   109.5069 </r>
       <r>     0.1958     2.1073   109.6434 </r>
       <r>     0.2606     2.4964   109.8052 </r>
       <r>     0.3254     2.3281   109.9561 </r>
       <r>     0.3902     1.6847   110.0653 </r>
       <r>     0.4550     1.6173   110.1701 </r>
       <r>     0.5198     2.4498   110.3289 </r>
       <r>     0.5846     3.6182   110.5634 </r>
       <r>     0.6495     4.5224   110.8565 </r>
       <r>     0.7143     5.1206   111.1883 </r>
       <r>     0.7791     5.2974   111.5316 </r>
       <r>     0.8439     5.0185   111.8569 </r>
       <r>     0.9087     4.2611   112.1330 </r>
       <r>     0.9735     3.3916   112.3528 </r>
       <r>     1.0383     2.7722   112.5325 </r>
       <r>     1.1031     2.4400   112.6906 </r>
       <r>     1.1679     3.2477   112.9011 </r>
       <r>     1.2327     5.5064   113.2580 </r>
       <r>     1.2975     7.7827   113.7624 </r>
       <r>     1.3623     9.1842   114.3576 </r>
       <r>     1.4272     9.5473   114.9763 </r>
       <r>     1.4920     8.8997   115.5531 </r>
       <r>     1.5568     8.9999   116.1364 </r>
       <r>     1.6216    10.9623   116.8468 </r>
       <r>     1.6864    12.7133   117.6708 </r>
       <r>     1.7512    13.3355   118.5350 </r>
       <r>     1.8160    14.0136   119.4432 </r>
       <r>     1.8808    14.2160   120.3646 </r>
       <r>     1.9456    13.5907   121.2454 </r>
       <r>     2.0104    13.2004   122.1009 </r>
       <r>     2.0752    13.3328   122.9649 </r>
       <r>     2.1401    14.4143   123.8991 </r>
       <r>     2.2049    16.1226   124.9440 </r>
       <r>     2.2697    17.1070   126.0527 </r>
       <r>     2.3345    16.1874   127.1018 </r>
       <r>     2.3993    14.5382   128.0440 </r>
       <r>     2.4641    14.0749   128.9561 </r>
       <r>     2.5289    14.2661   129.8807 </r>
       <r>     2.5937    14.1779   130.7996 </r>
       <r>     2.6585    14.3310   131.7283 </r>
       <r>     2.7233    14.2570   132.6523 </r>
       <r>     2.7881    12.7601   133.4793 </r>
       <r>     2.8529    10.4250   134.1549 </r>
       <r>     2.9178     8.5333   134.7079 </r>
       <r>     2.9826     6.8292   135.1505 </r>
       <r>     3.0474     5.2821   135.4929 </r>
       <r>     3.1122     4.1269   135.7603 </r>
       <r>     3.1770     2.5449   135.9252 </r>
       <r>     3.2418     0.9421   135.9863 </r>
       <r>     3.3066     0.1900   135.9986 </r>
       <r>     3.3714     0.0202   135.9999 </r>
       <r>     3.4362     0.0011   136.0000 </r>
       <r>     3.5010     0.0000   136.0000 </r>
       <r>     3.5658     0.0000   136.0000 </r>
       <r>     3.6307     0.0000   136.0000 </r>
       <r>     3.6955     0.0000   136.0000 </r>
       <r>     3.7603     0.0000   136.0000 </r>
       <r>     3.8251     0.0000   136.0000 </r>
       <r>     3.8899     0.0000   136.0000 </r>
       <r>     3.9547     0.0000   136.0000 </r>
       <r>     4.0195     0.0000   136.0000 </r>
       <r>     4.0843     0.0000   136.0000 </r>
       <r>     4.1491     0.0000   136.0000 </r>
      </set>
     </set>
    </array>
   </total>
  </dos>
 </calculation>
 <structure name="finalpos" >
  <crystal>
   <varray name="basis" >
    <v>       3.54040000       0.00000000       0.00000000 </v>
    <v>      -1.77020000      10.29434800       0.00000000 </v>
    <v>       0.00000000       0.00000000      27.50142900 </v>
   </varray>
   <i name="volume">   1002.32009712 </i>
   <varray name="rec_basis" >
    <v>       0.28245396       0.04857034       0.00000000 </v>
    <v>       0.00000000       0.09714068       0.00000000 </v>
    <v>       0.00000000       0.00000000       0.03636175 </v>
   </varray>
  </crystal>
  <varray name="positions" >
   <v>       0.11402300       0.22804500       0.23316207 </v>
   <v>       0.71402300       0.42804500       0.51499159 </v>
   <v>       0.45808900       0.91617900       0.20939482 </v>
   <v>       0.05808900       0.11617900       0.49122434 </v>
   <v>       0.31085400       0.62170900       0.08414979 </v>
   <v>       0.31085400       0.62170900       0.36597930 </v>
   <v>       0.99923000       0.99846000       0.08631254 </v>
   <v>       0.99923000       0.99846000       0.36814206 </v>
   <v>       0.65492700       0.30985400       0.06041748 </v>
   <v>       0.65492700       0.30985400       0.34224700 </v>
   <v>       0.76973800       0.53947500       0.20725292 </v>
   <v>       0.36973800       0.73947500       0.48908244 </v>
   <v>       0.93971600       0.87943300       0.15783749 </v>
   <v>       0.53971600       0.07943300       0.43966701 </v>
   <v>       0.20515200       0.41030300       0.18578822 </v>
   <v>       0.80515200       0.61030300       0.46761774 </v>
   <v>       0.20184900       0.40369900       0.09969156 </v>
   <v>       0.20184900       0.40369900       0.38152107 </v>
   <v>       0.56380500       0.12761000       0.10779021 </v>
   <v>       0.56380500       0.12761000       0.38961973 </v>
   <v>       0.56710600       0.13421200       0.19387616 </v>
   <v>       0.16710600       0.33421200       0.47570568 </v>
   <v>       0.82923400       0.65846800       0.13571444 </v>
   <v>       0.42923400       0.85846800       0.41754396 </v>
  </varray>
 </structure>
</modeling>
