<?xml version="1.0" encoding="ISO-8859-1"?>
<modeling>
 <generator>
  <i name="program" type="string">vasp </i>
  <i name="version" type="string">5.4.1  </i>
  <i name="subversion" type="string">24Jun15 (build May 10 2016 14:18:23) complex                          parallel </i>
  <i name="platform" type="string">IFC91_ompi </i>
  <i name="date" type="string">2016 12 09 </i>
  <i name="time" type="string">14:22:24 </i>
 </generator>
 <incar>
  <i type="string" name="PREC">accurate</i>
  <i type="string" name="ALGO"> Fast</i>
  <i type="int" name="ISPIN">     2</i>
  <i type="int" name="IBRION">     2</i>
  <i name="EDIFF">      0.00010000</i>
  <i type="int" name="NSW">     0</i>
  <i type="int" name="ISIF">     3</i>
  <i name="ENCUT">    500.00000000</i>
  <v name="MAGMOM">      6.00000000      0.50000000      0.50000000      6.00000000      0.50000000      0.50000000</v>
  <i type="string" name="LREAL"> Auto</i>
  <i type="int" name="ISMEAR">     1</i>
  <i name="SIGMA">      0.10000000</i>
  <i type="logical" name="LWAVE"> F  </i>
  <i type="logical" name="LCHARG"> F  </i>
  <i type="logical" name="LVTOT"> T  </i>
  <i type="logical" name="LVHAR"> T  </i>
  <i type="logical" name="LAECHG"> F  </i>
  <v type="int" name="KPOINT_BSE">    -1     0     0     0</v>
  <i type="string" name="GGA"> Bo</i>
  <i name="PARAM1">      0.18333333</i>
  <i name="PARAM2">      0.22000000</i>
  <i type="logical" name="LUSE_VDW"> T  </i>
  <i name="AGGAC">      0.00000000</i>
 </incar>
 <kpoints>
  <generation param="Gamma">
   <v type="int" name="divisions">      13       13        1 </v>
   <v name="usershift">      0.00000000       0.00000000       0.00000000 </v>
   <v name="genvec1">      0.07692308       0.00000000       0.00000000 </v>
   <v name="genvec2">      0.00000000       0.07692308       0.00000000 </v>
   <v name="genvec3">      0.00000000       0.00000000       1.00000000 </v>
   <v name="shift">      0.00000000       0.00000000       0.00000000 </v>
  </generation>
  <varray name="kpointlist" >
   <v>       0.00000000       0.00000000       0.00000000 </v>
   <v>       0.07692308      -0.00000000       0.00000000 </v>
   <v>       0.15384615       0.00000000       0.00000000 </v>
   <v>       0.23076923       0.00000000       0.00000000 </v>
   <v>       0.30769231      -0.00000000       0.00000000 </v>
   <v>       0.38461538       0.00000000       0.00000000 </v>
   <v>       0.46153846       0.00000000       0.00000000 </v>
   <v>       0.00000000       0.07692308       0.00000000 </v>
   <v>       0.07692308       0.07692308       0.00000000 </v>
   <v>       0.15384615       0.07692308       0.00000000 </v>
   <v>       0.23076923       0.07692308       0.00000000 </v>
   <v>       0.30769231       0.07692308       0.00000000 </v>
   <v>       0.38461538       0.07692308       0.00000000 </v>
   <v>       0.46153846       0.07692308       0.00000000 </v>
   <v>      -0.46153846       0.07692308       0.00000000 </v>
   <v>      -0.38461538       0.07692308       0.00000000 </v>
   <v>      -0.30769231       0.07692308       0.00000000 </v>
   <v>      -0.23076923       0.07692308       0.00000000 </v>
   <v>      -0.15384615       0.07692308       0.00000000 </v>
   <v>      -0.07692308       0.07692308       0.00000000 </v>
   <v>       0.00000000       0.15384615       0.00000000 </v>
   <v>       0.07692308       0.15384615       0.00000000 </v>
   <v>       0.15384615       0.15384615       0.00000000 </v>
   <v>       0.23076923       0.15384615       0.00000000 </v>
   <v>       0.30769231       0.15384615       0.00000000 </v>
   <v>       0.38461538       0.15384615       0.00000000 </v>
   <v>       0.46153846       0.15384615       0.00000000 </v>
   <v>      -0.46153846       0.15384615       0.00000000 </v>
   <v>      -0.38461538       0.15384615       0.00000000 </v>
   <v>      -0.30769231       0.15384615       0.00000000 </v>
   <v>      -0.23076923       0.15384615       0.00000000 </v>
   <v>      -0.15384615       0.15384615       0.00000000 </v>
   <v>      -0.07692308       0.15384615       0.00000000 </v>
   <v>       0.00000000       0.23076923       0.00000000 </v>
   <v>       0.07692308       0.23076923       0.00000000 </v>
   <v>       0.15384615       0.23076923       0.00000000 </v>
   <v>       0.23076923       0.23076923       0.00000000 </v>
   <v>       0.30769231       0.23076923       0.00000000 </v>
   <v>       0.38461538       0.23076923       0.00000000 </v>
   <v>       0.46153846       0.23076923       0.00000000 </v>
   <v>      -0.46153846       0.23076923       0.00000000 </v>
   <v>      -0.38461538       0.23076923       0.00000000 </v>
   <v>      -0.30769231       0.23076923       0.00000000 </v>
   <v>      -0.23076923       0.23076923       0.00000000 </v>
   <v>      -0.15384615       0.23076923       0.00000000 </v>
   <v>      -0.07692308       0.23076923       0.00000000 </v>
   <v>       0.00000000       0.30769231       0.00000000 </v>
   <v>       0.07692308       0.30769231       0.00000000 </v>
   <v>       0.15384615       0.30769231       0.00000000 </v>
   <v>       0.23076923       0.30769231       0.00000000 </v>
   <v>       0.30769231       0.30769231       0.00000000 </v>
   <v>       0.38461538       0.30769231       0.00000000 </v>
   <v>       0.46153846       0.30769231       0.00000000 </v>
   <v>      -0.46153846       0.30769231       0.00000000 </v>
   <v>      -0.38461538       0.30769231       0.00000000 </v>
   <v>      -0.30769231       0.30769231       0.00000000 </v>
   <v>      -0.23076923       0.30769231       0.00000000 </v>
   <v>      -0.15384615       0.30769231       0.00000000 </v>
   <v>      -0.07692308       0.30769231       0.00000000 </v>
   <v>       0.00000000       0.38461538       0.00000000 </v>
   <v>       0.07692308       0.38461538       0.00000000 </v>
   <v>       0.15384615       0.38461538       0.00000000 </v>
   <v>       0.23076923       0.38461538       0.00000000 </v>
   <v>       0.30769231       0.38461538       0.00000000 </v>
   <v>       0.38461538       0.38461538       0.00000000 </v>
   <v>       0.46153846       0.38461538       0.00000000 </v>
   <v>      -0.46153846       0.38461538       0.00000000 </v>
   <v>      -0.38461538       0.38461538       0.00000000 </v>
   <v>      -0.30769231       0.38461538       0.00000000 </v>
   <v>      -0.23076923       0.38461538       0.00000000 </v>
   <v>      -0.15384615       0.38461538       0.00000000 </v>
   <v>      -0.07692308       0.38461538       0.00000000 </v>
   <v>       0.00000000       0.46153846       0.00000000 </v>
   <v>       0.07692308       0.46153846       0.00000000 </v>
   <v>       0.15384615       0.46153846       0.00000000 </v>
   <v>       0.23076923       0.46153846       0.00000000 </v>
   <v>       0.30769231       0.46153846       0.00000000 </v>
   <v>       0.38461538       0.46153846       0.00000000 </v>
   <v>       0.46153846       0.46153846       0.00000000 </v>
   <v>      -0.46153846       0.46153846       0.00000000 </v>
   <v>      -0.38461538       0.46153846       0.00000000 </v>
   <v>      -0.30769231       0.46153846       0.00000000 </v>
   <v>      -0.23076923       0.46153846       0.00000000 </v>
   <v>      -0.15384615       0.46153846       0.00000000 </v>
   <v>      -0.07692308       0.46153846       0.00000000 </v>
  </varray>
  <varray name="weights" >
   <v>       0.00591716 </v>
   <v>       0.01183432 </v>
   <v>       0.01183432 </v>
   <v>       0.01183432 </v>
   <v>       0.01183432 </v>
   <v>       0.01183432 </v>
   <v>       0.01183432 </v>
   <v>       0.01183432 </v>
   <v>       0.01183432 </v>
   <v>       0.01183432 </v>
   <v>       0.01183432 </v>
   <v>       0.01183432 </v>
   <v>       0.01183432 </v>
   <v>       0.01183432 </v>
   <v>       0.01183432 </v>
   <v>       0.01183432 </v>
   <v>       0.01183432 </v>
   <v>       0.01183432 </v>
   <v>       0.01183432 </v>
   <v>       0.01183432 </v>
   <v>       0.01183432 </v>
   <v>       0.01183432 </v>
   <v>       0.01183432 </v>
   <v>       0.01183432 </v>
   <v>       0.01183432 </v>
   <v>       0.01183432 </v>
   <v>       0.01183432 </v>
   <v>       0.01183432 </v>
   <v>       0.01183432 </v>
   <v>       0.01183432 </v>
   <v>       0.01183432 </v>
   <v>       0.01183432 </v>
   <v>       0.01183432 </v>
   <v>       0.01183432 </v>
   <v>       0.01183432 </v>
   <v>       0.01183432 </v>
   <v>       0.01183432 </v>
   <v>       0.01183432 </v>
   <v>       0.01183432 </v>
   <v>       0.01183432 </v>
   <v>       0.01183432 </v>
   <v>       0.01183432 </v>
   <v>       0.01183432 </v>
   <v>       0.01183432 </v>
   <v>       0.01183432 </v>
   <v>       0.01183432 </v>
   <v>       0.01183432 </v>
   <v>       0.01183432 </v>
   <v>       0.01183432 </v>
   <v>       0.01183432 </v>
   <v>       0.01183432 </v>
   <v>       0.01183432 </v>
   <v>       0.01183432 </v>
   <v>       0.01183432 </v>
   <v>       0.01183432 </v>
   <v>       0.01183432 </v>
   <v>       0.01183432 </v>
   <v>       0.01183432 </v>
   <v>       0.01183432 </v>
   <v>       0.01183432 </v>
   <v>       0.01183432 </v>
   <v>       0.01183432 </v>
   <v>       0.01183432 </v>
   <v>       0.01183432 </v>
   <v>       0.01183432 </v>
   <v>       0.01183432 </v>
   <v>       0.01183432 </v>
   <v>       0.01183432 </v>
   <v>       0.01183432 </v>
   <v>       0.01183432 </v>
   <v>       0.01183432 </v>
   <v>       0.01183432 </v>
   <v>       0.01183432 </v>
   <v>       0.01183432 </v>
   <v>       0.01183432 </v>
   <v>       0.01183432 </v>
   <v>       0.01183432 </v>
   <v>       0.01183432 </v>
   <v>       0.01183432 </v>
   <v>       0.01183432 </v>
   <v>       0.01183432 </v>
   <v>       0.01183432 </v>
   <v>       0.01183432 </v>
   <v>       0.01183432 </v>
   <v>       0.01183432 </v>
  </varray>
 </kpoints>
 <parameters>
  <separator name="general" >
   <i type="string" name="SYSTEM">unknown system</i>
   <i type="logical" name="LCOMPAT"> F  </i>
  </separator>
  <separator name="electronic" >
   <i type="string" name="PREC">accura</i>
   <i name="ENMAX">    500.00000000</i>
   <i name="ENAUG">    392.42700000</i>
   <i name="EDIFF">      0.00010000</i>
   <i type="int" name="IALGO">    68</i>
   <i type="int" name="IWAVPR">    10</i>
   <i type="int" name="NBANDS">    36</i>
   <i name="NELECT">     48.00000000</i>
   <i type="int" name="TURBO">     0</i>
   <i type="int" name="IRESTART">     0</i>
   <i type="int" name="NREBOOT">     0</i>
   <i type="int" name="NMIN">     0</i>
   <i name="EREF">      0.00000000</i>
   <separator name="electronic smearing" >
    <i type="int" name="ISMEAR">     1</i>
    <i name="SIGMA">      0.10000000</i>
    <i name="KSPACING">      0.50000000</i>
    <i type="logical" name="KGAMMA"> T  </i>
   </separator>
   <separator name="electronic projectors" >
    <i type="logical" name="LREAL"> T  </i>
    <v name="ROPT">     -0.00025000     -0.00025000     -0.00025000     -0.00025000</v>
    <i type="int" name="LMAXPAW">  -100</i>
    <i type="int" name="LMAXMIX">     2</i>
    <i type="logical" name="NLSPLINE"> F  </i>
   </separator>
   <separator name="electronic startup" >
    <i type="int" name="ISTART">     0</i>
    <i type="int" name="ICHARG">     2</i>
    <i type="int" name="INIWAV">     1</i>
   </separator>
   <separator name="electronic spin" >
    <i type="int" name="ISPIN">     2</i>
    <i type="logical" name="LNONCOLLINEAR"> F  </i>
    <v name="MAGMOM">      6.00000000      0.50000000      0.50000000      6.00000000      0.50000000      0.50000000</v>
    <i name="NUPDOWN">     -1.00000000</i>
    <i type="logical" name="LSORBIT"> F  </i>
    <v name="SAXIS">      0.00000000      0.00000000      1.00000000</v>
    <i type="logical" name="LSPIRAL"> F  </i>
    <v name="QSPIRAL">      0.00000000      0.00000000      0.00000000</v>
    <i type="logical" name="LZEROZ"> F  </i>
   </separator>
   <separator name="electronic exchange-correlation" >
    <i type="logical" name="LASPH"> F  </i>
    <i type="logical" name="LMETAGGA"> F  </i>
   </separator>
   <separator name="electronic convergence" >
    <i type="int" name="NELM">    60</i>
    <i type="int" name="NELMDL">     0</i>
    <i type="int" name="NELMIN">     2</i>
    <i name="ENINI">    500.00000000</i>
    <separator name="electronic convergence detail" >
     <i type="logical" name="LDIAG"> T  </i>
     <i type="logical" name="LSUBROT"> F  </i>
     <i name="WEIMIN">      0.00000000</i>
     <i name="EBREAK">      0.00000069</i>
     <i name="DEPER">      0.30000000</i>
     <i type="int" name="NRMM">     4</i>
     <i name="TIME">      0.40000000</i>
    </separator>
   </separator>
   <separator name="electronic mixer" >
    <i name="AMIX">      0.40000000</i>
    <i name="BMIX">      1.00000000</i>
    <i name="AMIN">      0.10000000</i>
    <i name="AMIX_MAG">      1.60000000</i>
    <i name="BMIX_MAG">      1.00000000</i>
    <separator name="electronic mixer details" >
     <i type="int" name="IMIX">     4</i>
     <i type="logical" name="MIXFIRST"> F  </i>
     <i type="int" name="MAXMIX">   -45</i>
     <i name="WC">    100.00000000</i>
     <i type="int" name="INIMIX">     1</i>
     <i type="int" name="MIXPRE">     1</i>
     <i type="int" name="MREMOVE">     5</i>
    </separator>
   </separator>
   <separator name="electronic dipolcorrection" >
    <i type="logical" name="LDIPOL"> F  </i>
    <i type="logical" name="LMONO"> F  </i>
    <i type="int" name="IDIPOL">     0</i>
    <i name="EPSILON">      1.00000000</i>
    <v name="DIPOL">   -100.00000000   -100.00000000   -100.00000000</v>
    <i name="EFIELD">      0.00000000</i>
   </separator>
  </separator>
  <separator name="grids" >
   <i type="int" name="NGX">    24</i>
   <i type="int" name="NGY">    24</i>
   <i type="int" name="NGZ">   180</i>
   <i type="int" name="NGXF">    48</i>
   <i type="int" name="NGYF">    48</i>
   <i type="int" name="NGZF">   360</i>
   <i type="logical" name="ADDGRID"> F  </i>
  </separator>
  <separator name="ionic" >
   <i type="int" name="NSW">     0</i>
   <i type="int" name="IBRION">    -1</i>
   <i type="int" name="ISIF">     3</i>
   <i name="PSTRESS">      0.00000000</i>
   <i name="EDIFFG">      0.00100000</i>
   <i type="int" name="NFREE">     1</i>
   <i name="POTIM">      0.50000000</i>
   <i name="SMASS">     -3.00000000</i>
   <i name="SCALEE">      1.00000000</i>
  </separator>
  <separator name="ionic md" >
   <i name="TEBEG">      0.00010000</i>
   <i name="TEEND">      0.00010000</i>
   <i type="int" name="NBLOCK">     1</i>
   <i type="int" name="KBLOCK">     1</i>
   <i type="int" name="NPACO">   256</i>
   <i name="APACO">     16.00000000</i>
  </separator>
  <separator name="symmetry" >
   <i type="int" name="ISYM">     2</i>
   <i name="SYMPREC">      0.00001000</i>
  </separator>
  <separator name="dos" >
   <i type="logical" name="LORBIT"> F  </i>
   <v name="RWIGS">     -1.00000000     -1.00000000     -1.00000000     -1.00000000</v>
   <i type="int" name="NEDOS">   301</i>
   <i name="EMIN">     10.00000000</i>
   <i name="EMAX">    -10.00000000</i>
   <i name="EFERMI">      0.00000000</i>
  </separator>
  <separator name="writing" >
   <i type="int" name="NWRITE">     2</i>
   <i type="logical" name="LWAVE"> F  </i>
   <i type="logical" name="LCHARG"> F  </i>
   <i type="logical" name="LPARD"> F  </i>
   <i type="logical" name="LVTOT"> F  </i>
   <i type="logical" name="LVHAR"> T  </i>
   <i type="logical" name="LELF"> F  </i>
   <i type="logical" name="LOPTICS"> F  </i>
   <v name="STM">      0.00000000      0.00000000      0.00000000      0.00000000      0.00000000      0.00000000      0.00000000</v>
  </separator>
  <separator name="performance" >
   <i type="int" name="NPAR">     4</i>
   <i type="int" name="NSIM">     4</i>
   <i type="int" name="NBLK">    -1</i>
   <i type="logical" name="LPLANE"> T  </i>
   <i type="logical" name="LSCALAPACK"> T  </i>
   <i type="logical" name="LSCAAWARE"> F  </i>
   <i type="logical" name="LSCALU"> F  </i>
   <i type="logical" name="LASYNC"> F  </i>
   <i type="logical" name="LORBITALREAL"> F  </i>
  </separator>
  <separator name="miscellaneous" >
   <i type="int" name="IDIOT">     3</i>
   <i type="logical" name="LMUSIC"> F  </i>
   <v name="POMASS">     95.94000000     32.06600000     95.94000000     32.06600000</v>
   <v name="DARWINR">      0.00000000      0.00000000      0.00000000      0.00000000</v>
   <v name="DARWINV">      1.00000000      1.00000000      1.00000000      1.00000000</v>
   <i type="logical" name="LCORR"> T  </i>
  </separator>
  <i type="logical" name="GGA_COMPAT"> T  </i>
  <i type="logical" name="LBERRY"> F  </i>
  <i type="int" name="ICORELEVEL">     0</i>
  <i type="logical" name="LDAU"> F  </i>
  <i type="int" name="I_CONSTRAINED_M">     0</i>
  <separator name="electronic exchange-correlation" >
   <i type="string" name="GGA">BO</i>
   <i type="int" name="VOSKOWN">     0</i>
   <i type="logical" name="LHFCALC"> F  </i>
   <i type="string" name="PRECFOCK"></i>
   <i type="logical" name="LSYMGRAD"> F  </i>
   <i type="logical" name="LHFONE"> F  </i>
   <i type="logical" name="LRHFCALC"> F  </i>
   <i type="logical" name="LTHOMAS"> F  </i>
   <i type="logical" name="LMODELHF"> F  </i>
   <i name="ENCUT4O">     -1.00000000</i>
   <i type="int" name="EXXOEP">     0</i>
   <i type="int" name="FOURORBIT">     0</i>
   <i name="AEXX">      0.00000000</i>
   <i name="HFALPHA">      0.00000000</i>
   <i name="MCALPHA">      0.00000000</i>
   <i name="ALDAX">      1.00000000</i>
   <i name="AGGAX">      1.00000000</i>
   <i name="ALDAC">      1.00000000</i>
   <i name="AGGAC">      0.00000000</i>
   <i type="int" name="NKREDX">     1</i>
   <i type="int" name="NKREDY">     1</i>
   <i type="int" name="NKREDZ">     1</i>
   <i type="logical" name="SHIFTRED"> F  </i>
   <i type="logical" name="ODDONLY"> F  </i>
   <i type="logical" name="EVENONLY"> F  </i>
   <i type="int" name="LMAXFOCK">     0</i>
   <i type="int" name="NMAXFOCKAE">     0</i>
   <i type="logical" name="LFOCKAEDFT"> F  </i>
   <i name="HFSCREEN">      0.00000000</i>
   <i name="HFSCREENC">      0.00000000</i>
   <i type="int" name="NBANDSGWLOW">     0</i>
  </separator>
  <separator name="vdW DFT" >
   <i type="logical" name="LUSE_VDW"> T  </i>
   <i name="Zab_VDW">     -0.84910000</i>
   <i name="PARAM1">      0.18333333</i>
   <i name="PARAM2">      0.22000000</i>
   <i name="PARAM3">      0.00000000</i>
  </separator>
  <separator name="model GW" >
   <i type="int" name="MODEL_GW">     0</i>
   <i name="MODEL_EPS0">     20.39722663</i>
   <i name="MODEL_ALPHA">      1.00000000</i>
  </separator>
  <separator name="linear response parameters" >
   <i type="logical" name="LEPSILON"> F  </i>
   <i type="logical" name="LRPA"> F  </i>
   <i type="logical" name="LNABLA"> F  </i>
   <i type="logical" name="LVEL"> F  </i>
   <i type="int" name="KINTER">     0</i>
   <i name="CSHIFT">      0.10000000</i>
   <i name="OMEGAMAX">     -1.00000000</i>
   <i name="DEG_THRESHOLD">      0.00200000</i>
  </separator>
  <separator name="orbital magnetization" >
   <i type="logical" name="NUCIND"> F  </i>
   <v name="MAGPOS">      0.00000000      0.00000000      0.00000000</v>
   <i type="logical" name="LNICSALL"> T  </i>
   <i type="logical" name="ORBITALMAG"> F  </i>
   <i type="logical" name="LMAGBLOCH"> F  </i>
   <i type="logical" name="LCHIMAG"> F  </i>
   <i type="logical" name="LGAUGE"> T  </i>
   <i type="int" name="MAGATOM">     0</i>
   <v name="MAGDIPOL">      0.00000000      0.00000000      0.00000000</v>
   <v name="AVECCONST">      0.00000000      0.00000000      0.00000000</v>
  </separator>
  <separator name="response functions" >
   <i type="logical" name="LADDER"> F  </i>
   <i type="logical" name="LFXC"> F  </i>
   <i type="logical" name="LHARTREE"> T  </i>
   <i type="int" name="IBSE">     0</i>
   <v type="int" name="KPOINT">    -1     0     0     0</v>
   <i type="logical" name="LTCTE"> F  </i>
   <i type="logical" name="LTETE"> F  </i>
   <i type="logical" name="LTRIPLET"> F  </i>
   <i type="logical" name="LFXCEPS"> F  </i>
   <i type="logical" name="LFXHEG"> F  </i>
   <i type="int" name="NATURALO">     0</i>
   <i type="logical" name="L2ORDER"> F  </i>
   <i type="logical" name="LUSEW"> F  </i>
   <i name="ENCUTGW">     -2.00000000</i>
   <i name="ENCUTGWSOFT">     -2.00000000</i>
   <i name="ENCUTLF">     -1.00000000</i>
   <i type="int" name="LMAXMP2">    -1</i>
   <i name="SCISSOR">      0.00000000</i>
   <i type="int" name="NOMEGA">     0</i>
   <i type="int" name="NOMEGAR">     0</i>
   <i type="int" name="NBANDSGW">    -1</i>
   <i type="int" name="NBANDSO">    -1</i>
   <i type="int" name="NBANDSV">    -1</i>
   <i type="int" name="NELM">     1</i>
   <i type="int" name="NELMHF">     1</i>
   <i type="int" name="DIM">     3</i>
   <i type="int" name="ANTIRES">     0</i>
   <i name="OMEGAMAX">    -30.00000000</i>
   <i name="OMEGAMIN">    -30.00000000</i>
   <i name="OMEGATL">   -200.00000000</i>
   <i type="int" name="OMEGAGRID">     0</i>
   <i name="CSHIFT">     -0.10000000</i>
   <i type="logical" name="SELFENERGY"> F  </i>
   <i type="logical" name="LSPECTRAL"> F  </i>
   <i type="logical" name="LSPECTRALGW"> F  </i>
   <i type="logical" name="LSINGLES"> F  </i>
   <i type="logical" name="LFERMIGW"> F  </i>
   <i type="logical" name="ODDONLYGW"> F  </i>
   <i type="logical" name="EVENONLYGW"> F  </i>
   <i type="int" name="NKREDLFX">     1</i>
   <i type="int" name="NKREDLFY">     1</i>
   <i type="int" name="NKREDLFZ">     1</i>
   <i type="int" name="MAXMEM">  1800</i>
   <i type="int" name="TELESCOPE">     0</i>
   <i type="int" name="TAUPAR">     1</i>
   <i type="int" name="OMEGAPAR">    -1</i>
   <i name="LAMBDA">      1.00000000</i>
  </separator>
  <separator name="External order field" >
   <i name="OFIELD_KAPPA">      0.00000000</i>
   <v name="OFIELD_K">      0.00000000      0.00000000      0.00000000</v>
   <i name="OFIELD_Q6_NEAR">      0.00000000</i>
   <i name="OFIELD_Q6_FAR">      0.00000000</i>
   <i name="OFIELD_A">      0.00000000</i>
  </separator>
 </parameters>
 <atominfo>
  <atoms>       6 </atoms>
  <types>       4 </types>
  <array name="atoms" >
   <dimension dim="1">ion</dimension>
   <field type="string">element</field>
   <field type="int">atomtype</field>
   <set>
    <rc><c>Mo</c><c>   1</c></rc>
    <rc><c>S </c><c>   2</c></rc>
    <rc><c>S </c><c>   2</c></rc>
    <rc><c>Mo</c><c>   3</c></rc>
    <rc><c>S </c><c>   4</c></rc>
    <rc><c>S </c><c>   4</c></rc>
   </set>
  </array>
  <array name="atomtypes" >
   <dimension dim="1">type</dimension>
   <field type="int">atomspertype</field>
   <field type="string">element</field>
   <field>mass</field>
   <field>valence</field>
   <field type="string">pseudopotential</field>
   <set>
    <rc><c>   1</c><c>Mo</c><c>     95.94000000</c><c>     12.00000000</c><c> PAW_PBE Mo_pv 08Apr2002                </c></rc>
    <rc><c>   2</c><c>S </c><c>     32.06600000</c><c>      6.00000000</c><c>  PAW_PBE S 17Jan2003                   </c></rc>
    <rc><c>   1</c><c>Mo</c><c>     95.94000000</c><c>     12.00000000</c><c> PAW_PBE Mo_pv 08Apr2002                </c></rc>
    <rc><c>   2</c><c>S </c><c>     32.06600000</c><c>      6.00000000</c><c>  PAW_PBE S 17Jan2003                   </c></rc>
   </set>
  </array>
 </atominfo>
 <structure name="initialpos" >
  <crystal>
   <varray name="basis" >
    <v>       3.19031700       0.00000000       0.00000000 </v>
    <v>      -1.59515800       2.76289700       0.00000000 </v>
    <v>       0.00000000       0.00000000      23.14049200 </v>
   </varray>
   <i name="volume">    203.97226633 </i>
   <varray name="rec_basis" >
    <v>       0.31344848       0.18096941       0.00000000 </v>
    <v>       0.00000000       0.36193894       0.00000000 </v>
    <v>       0.00000000       0.00000000       0.04321429 </v>
   </varray>
  </crystal>
  <varray name="positions" >
   <v>       0.66666700       0.33333300       0.06785900 </v>
   <v>       0.33333300       0.66666700       0.00000000 </v>
   <v>       0.33333300       0.66666700       0.13571500 </v>
   <v>       0.66666700       0.47619014       0.35482300 </v>
   <v>       0.33333300       0.80952414       0.28696500 </v>
   <v>       0.33333300       0.80952414       0.42267900 </v>
  </varray>
 </structure>
 <calculation>
  <scstep>
   <time name="dav">   55.40   55.44</time>
   <time name="total">   65.58   65.69</time>
   <energy>
    <i name="alphaZ">    104.15310261 </i>
    <i name="ewald">   7699.34191986 </i>
    <i name="hartreedc"> -11109.37444472 </i>
    <i name="XCdc">    128.47089471 </i>
    <i name="pawpsdc">   2252.92270536 </i>
    <i name="pawaedc">  -2205.68654582 </i>
    <i name="eentropy">      0.00140428 </i>
    <i name="bandstr">   -158.36272095 </i>
    <i name="atom">   3688.31848598 </i>
    <i name="e_fr_energy">    399.78480132 </i>
    <i name="e_wo_entrp">    399.78339704 </i>
    <i name="e_0_energy">    399.78433323 </i>
   </energy>
  </scstep>
  <scstep>
   <time name="dav">   60.03   60.08</time>
   <time name="total">   60.04   60.09</time>
   <energy>
    <i name="e_fr_energy">     -1.46518676 </i>
    <i name="e_wo_entrp">     -1.46468528 </i>
    <i name="e_0_energy">     -1.46501960 </i>
   </energy>
  </scstep>
  <scstep>
   <time name="dav">   61.77   61.82</time>
   <time name="total">   61.78   61.83</time>
   <energy>
    <i name="e_fr_energy">    -32.93943301 </i>
    <i name="e_wo_entrp">    -32.94002501 </i>
    <i name="e_0_energy">    -32.93963034 </i>
   </energy>
  </scstep>
  <scstep>
   <time name="dav">   59.05   59.09</time>
   <time name="total">   59.06   59.10</time>
   <energy>
    <i name="e_fr_energy">    -33.82619860 </i>
    <i name="e_wo_entrp">    -33.82689794 </i>
    <i name="e_0_energy">    -33.82643172 </i>
   </energy>
  </scstep>
  <scstep>
   <time name="dav">   61.60   61.65</time>
   <time name="total">   66.28   66.52</time>
   <energy>
    <i name="e_fr_energy">    -33.85380668 </i>
    <i name="e_wo_entrp">    -33.85449997 </i>
    <i name="e_0_energy">    -33.85403777 </i>
   </energy>
  </scstep>
  <scstep>
   <time name="diag">   11.71   11.72</time>
   <time name="diis">   39.77   39.80</time>
   <time name="orth">    0.38    0.38</time>
   <time name="total">   66.40   66.45</time>
   <energy>
    <i name="e_fr_energy">    -30.31739677 </i>
    <i name="e_wo_entrp">    -30.31743750 </i>
    <i name="e_0_energy">    -30.31741034 </i>
   </energy>
  </scstep>
  <scstep>
   <time name="diag">   11.35   11.36</time>
   <time name="diis">   40.38   40.41</time>
   <time name="orth">    0.39    0.39</time>
   <time name="total">   66.83   66.88</time>
   <energy>
    <i name="e_fr_energy">    -32.81042172 </i>
    <i name="e_wo_entrp">    -32.81110638 </i>
    <i name="e_0_energy">    -32.81064994 </i>
   </energy>
  </scstep>
  <scstep>
   <time name="diag">   11.48   11.49</time>
   <time name="diis">   41.15   41.18</time>
   <time name="orth">    0.38    0.38</time>
   <time name="total">   67.48   67.53</time>
   <energy>
    <i name="e_fr_energy">    -34.38286312 </i>
    <i name="e_wo_entrp">    -34.38302644 </i>
    <i name="e_0_energy">    -34.38291756 </i>
   </energy>
  </scstep>
  <scstep>
   <time name="diag">   11.49   11.50</time>
   <time name="diis">   38.40   38.42</time>
   <time name="orth">    0.38    0.38</time>
   <time name="total">   64.92   64.97</time>
   <energy>
    <i name="e_fr_energy">    -37.03139411 </i>
    <i name="e_wo_entrp">    -37.03155878 </i>
    <i name="e_0_energy">    -37.03144900 </i>
   </energy>
  </scstep>
  <scstep>
   <time name="diag">   11.40   11.40</time>
   <time name="diis">   36.67   36.70</time>
   <time name="orth">    0.38    0.38</time>
   <time name="total">   63.13   63.18</time>
   <energy>
    <i name="e_fr_energy">    -39.09994105 </i>
    <i name="e_wo_entrp">    -39.10010531 </i>
    <i name="e_0_energy">    -39.09999580 </i>
   </energy>
  </scstep>
  <scstep>
   <time name="diag">   11.41   11.42</time>
   <time name="diis">   38.67   38.70</time>
   <time name="orth">    0.39    0.39</time>
   <time name="total">   65.22   65.27</time>
   <energy>
    <i name="e_fr_energy">    -39.35531126 </i>
    <i name="e_wo_entrp">    -39.35563749 </i>
    <i name="e_0_energy">    -39.35542001 </i>
   </energy>
  </scstep>
  <scstep>
   <time name="diag">   11.46   11.47</time>
   <time name="diis">   37.68   37.71</time>
   <time name="orth">    0.39    0.39</time>
   <time name="total">   64.28   64.33</time>
   <energy>
    <i name="e_fr_energy">    -39.37353323 </i>
    <i name="e_wo_entrp">    -39.37386099 </i>
    <i name="e_0_energy">    -39.37364248 </i>
   </energy>
  </scstep>
  <scstep>
   <time name="diag">   11.46   11.47</time>
   <time name="diis">   41.54   41.57</time>
   <time name="orth">    0.39    0.39</time>
   <time name="total">   68.12   68.18</time>
   <energy>
    <i name="e_fr_energy">    -39.38737835 </i>
    <i name="e_wo_entrp">    -39.38770601 </i>
    <i name="e_0_energy">    -39.38748757 </i>
   </energy>
  </scstep>
  <scstep>
   <time name="diag">   11.59   11.60</time>
   <time name="diis">   41.93   41.97</time>
   <time name="orth">    0.39    0.39</time>
   <time name="total">   68.68   68.74</time>
   <energy>
    <i name="e_fr_energy">    -39.39190078 </i>
    <i name="e_wo_entrp">    -39.39222913 </i>
    <i name="e_0_energy">    -39.39201023 </i>
   </energy>
  </scstep>
  <scstep>
   <time name="diag">   11.41   11.42</time>
   <time name="diis">   35.44   35.47</time>
   <time name="orth">    0.39    0.39</time>
   <time name="total">   62.02   62.18</time>
   <energy>
    <i name="e_fr_energy">    -39.39176297 </i>
    <i name="e_wo_entrp">    -39.39209129 </i>
    <i name="e_0_energy">    -39.39187241 </i>
   </energy>
  </scstep>
  <scstep>
   <time name="diag">   11.52   11.53</time>
   <time name="diis">   29.86   29.88</time>
   <time name="orth">    0.39    0.39</time>
   <time name="total">   56.50   56.54</time>
   <energy>
    <i name="e_fr_energy">    -39.39140702 </i>
    <i name="e_wo_entrp">    -39.39173542 </i>
    <i name="e_0_energy">    -39.39151648 </i>
   </energy>
  </scstep>
  <scstep>
   <time name="diag">   11.44   11.45</time>
   <time name="diis">   28.23   28.25</time>
   <time name="orth">    0.39    0.39</time>
   <time name="total">   54.84   55.08</time>
   <energy>
    <i name="e_fr_energy">    -39.39151592 </i>
    <i name="e_wo_entrp">    -39.39184431 </i>
    <i name="e_0_energy">    -39.39162538 </i>
   </energy>
  </scstep>
  <scstep>
   <time name="diag">   11.48   11.49</time>
   <time name="diis">   27.25   27.27</time>
   <time name="orth">    0.39    0.39</time>
   <time name="total">   53.87   54.11</time>
   <energy>
    <i name="e_fr_energy">    -39.39185410 </i>
    <i name="e_wo_entrp">    -39.39218247 </i>
    <i name="e_0_energy">    -39.39196356 </i>
   </energy>
  </scstep>
  <scstep>
   <time name="diag">   11.56   11.57</time>
   <time name="diis">   26.37   26.39</time>
   <time name="orth">    0.40    0.40</time>
   <time name="total">   53.09   53.13</time>
   <energy>
    <i name="e_fr_energy">    -39.39227391 </i>
    <i name="e_wo_entrp">    -39.39260224 </i>
    <i name="e_0_energy">    -39.39238335 </i>
   </energy>
  </scstep>
  <scstep>
   <time name="diag">   11.50   11.51</time>
   <time name="diis">   26.92   26.94</time>
   <time name="orth">    0.39    0.39</time>
   <time name="total">   53.63   53.67</time>
   <energy>
    <i name="e_fr_energy">    -39.39252465 </i>
    <i name="e_wo_entrp">    -39.39285295 </i>
    <i name="e_0_energy">    -39.39263409 </i>
   </energy>
  </scstep>
  <scstep>
   <time name="diag">   11.48   11.49</time>
   <time name="diis">   26.36   26.38</time>
   <time name="orth">    0.39    0.39</time>
   <time name="total">   47.96   48.00</time>
   <energy>
    <i name="alphaZ">    104.15310261 </i>
    <i name="ewald">   7699.34191986 </i>
    <i name="hartreedc"> -11093.15482777 </i>
    <i name="XCdc">    122.67981149 </i>
    <i name="pawpsdc">   2399.50544606 </i>
    <i name="pawaedc">  -2361.69169859 </i>
    <i name="eentropy">      0.00032830 </i>
    <i name="bandstr">   -598.54512132 </i>
    <i name="atom">   3688.31848598 </i>
    <i name="e_fr_energy">    -39.39255337 </i>
    <i name="e_wo_entrp">    -39.39288167 </i>
    <i name="e_0_energy">    -39.39266280 </i>
   </energy>
  </scstep>
  <structure>
   <crystal>
    <varray name="basis" >
     <v>       3.19031700       0.00000000       0.00000000 </v>
     <v>      -1.59515800       2.76289700       0.00000000 </v>
     <v>       0.00000000       0.00000000      23.14049200 </v>
    </varray>
    <i name="volume">    203.97226633 </i>
    <varray name="rec_basis" >
     <v>       0.31344848       0.18096941       0.00000000 </v>
     <v>       0.00000000       0.36193894       0.00000000 </v>
     <v>       0.00000000       0.00000000       0.04321429 </v>
    </varray>
   </crystal>
   <varray name="positions" >
    <v>       0.66666700       0.33333300       0.06785900 </v>
    <v>       0.33333300       0.66666700       0.00000000 </v>
    <v>       0.33333300       0.66666700       0.13571500 </v>
    <v>       0.66666700       0.47619014       0.35482300 </v>
    <v>       0.33333300       0.80952414       0.28696500 </v>
    <v>       0.33333300       0.80952414       0.42267900 </v>
   </varray>
  </structure>
  <varray name="forces" >
   <v>       0.00228108      -0.00438836      -0.01792180 </v>
   <v>       0.00029119       0.00007893      -0.05662851 </v>
   <v>       0.01477801      -0.02586797       0.03120237 </v>
   <v>      -0.00177899       0.00335970       0.02005127 </v>
   <v>      -0.01606086       0.02715394      -0.03780855 </v>
   <v>       0.00048957      -0.00033624       0.06110523 </v>
  </varray>
  <varray name="stress" >
   <v>       3.35334270      -0.08719924      -0.50857599 </v>
   <v>      -0.08719937       3.45329718       0.87720290 </v>
   <v>      -0.50857585       0.87720291       3.30386121 </v>
  </varray>
  <energy>
   <i name="e_fr_energy">    -39.39255337 </i>
   <i name="e_wo_entrp">    -39.39266280 </i>
   <i name="e_0_energy">      0.00032830 </i>
  </energy>
  <time name="totalsc"> 1388.57 1390.83</time>
  <eigenvalues>
   <array>
    <dimension dim="1">band</dimension>
    <dimension dim="2">kpoint</dimension>
    <dimension dim="3">spin</dimension>
    <field>eigene</field>
    <field>occ</field>
    <set>
     <set comment="spin 1">
      <set comment="kpoint 1">
       <r>  -34.9879    1.0000 </r>
       <r>  -34.9874    1.0000 </r>
       <r>  -34.7959    1.0000 </r>
       <r>  -34.7958    1.0000 </r>
       <r>  -34.7955    1.0000 </r>
       <r>  -34.7954    1.0000 </r>
       <r>  -13.9749    1.0000 </r>
       <r>  -13.9151    1.0000 </r>
       <r>  -12.7108    1.0000 </r>
       <r>  -12.6110    1.0000 </r>
       <r>   -5.6967    1.0000 </r>
       <r>   -5.3890    1.0000 </r>
       <r>   -2.6184    1.0000 </r>
       <r>   -2.6178    1.0000 </r>
       <r>   -2.6144    1.0000 </r>
       <r>   -2.6137    1.0000 </r>
       <r>   -2.2003    1.0000 </r>
       <r>   -1.5278    1.0000 </r>
       <r>   -1.5271    1.0000 </r>
       <r>   -1.5198    1.0000 </r>
       <r>   -1.5186    1.0000 </r>
       <r>   -1.4559    1.0000 </r>
       <r>   -0.2321    1.0000 </r>
       <r>    0.2434    0.8045 </r>
       <r>    2.6885   -0.0000 </r>
       <r>    2.6944   -0.0000 </r>
       <r>    2.7186   -0.0000 </r>
       <r>    2.7227   -0.0000 </r>
       <r>    2.8701   -0.0000 </r>
       <r>    2.8755   -0.0000 </r>
       <r>    2.9064   -0.0000 </r>
       <r>    2.9136   -0.0000 </r>
       <r>    5.2912    0.0000 </r>
       <r>    5.4106    0.0000 </r>
       <r>    6.3797    0.0000 </r>
       <r>    6.5539    0.0000 </r>
      </set>
      <set comment="kpoint 2">
       <r>  -34.9838    1.0000 </r>
       <r>  -34.9833    1.0000 </r>
       <r>  -34.8171    1.0000 </r>
       <r>  -34.8167    1.0000 </r>
       <r>  -34.8007    1.0000 </r>
       <r>  -34.8003    1.0000 </r>
       <r>  -13.8884    1.0000 </r>
       <r>  -13.8285    1.0000 </r>
       <r>  -12.6743    1.0000 </r>
       <r>  -12.5764    1.0000 </r>
       <r>   -5.5980    1.0000 </r>
       <r>   -5.2899    1.0000 </r>
       <r>   -2.8071    1.0000 </r>
       <r>   -2.7993    1.0000 </r>
       <r>   -2.5273    1.0000 </r>
       <r>   -2.5239    1.0000 </r>
       <r>   -2.4753    1.0000 </r>
       <r>   -2.0636    1.0000 </r>
       <r>   -1.6642    1.0000 </r>
       <r>   -1.6573    1.0000 </r>
       <r>   -1.3785    1.0000 </r>
       <r>   -1.0502    1.0000 </r>
       <r>   -0.2535    1.0000 </r>
       <r>    0.1743    1.0317 </r>
       <r>    2.5531   -0.0000 </r>
       <r>    2.6136   -0.0000 </r>
       <r>    2.6332   -0.0000 </r>
       <r>    2.7431   -0.0000 </r>
       <r>    2.7760   -0.0000 </r>
       <r>    2.8100   -0.0000 </r>
       <r>    2.8463   -0.0000 </r>
       <r>    2.8689   -0.0000 </r>
       <r>    5.4310    0.0000 </r>
       <r>    5.5483    0.0000 </r>
       <r>    6.7386    0.0000 </r>
       <r>    6.9384    0.0000 </r>
      </set>
      <set comment="kpoint 3">
       <r>  -34.9724    1.0000 </r>
       <r>  -34.9719    1.0000 </r>
       <r>  -34.8756    1.0000 </r>
       <r>  -34.8752    1.0000 </r>
       <r>  -34.8141    1.0000 </r>
       <r>  -34.8137    1.0000 </r>
       <r>  -13.6402    1.0000 </r>
       <r>  -13.5803    1.0000 </r>
       <r>  -12.5695    1.0000 </r>
       <r>  -12.4775    1.0000 </r>
       <r>   -5.3388    1.0000 </r>
       <r>   -5.0355    1.0000 </r>
       <r>   -3.2648    1.0000 </r>
       <r>   -3.2415    1.0000 </r>
       <r>   -2.9674    1.0000 </r>
       <r>   -2.6808    1.0000 </r>
       <r>   -2.2724    1.0000 </r>
       <r>   -2.2673    1.0000 </r>
       <r>   -1.9996    1.0000 </r>
       <r>   -1.9921    1.0000 </r>
       <r>   -1.3150    1.0000 </r>
       <r>   -0.9091    1.0000 </r>
       <r>   -0.3857    1.0000 </r>
       <r>   -0.0893    1.0000 </r>
       <r>    2.1444   -0.0000 </r>
       <r>    2.3676   -0.0000 </r>
       <r>    2.4831   -0.0000 </r>
       <r>    2.5507   -0.0000 </r>
       <r>    2.5838   -0.0000 </r>
       <r>    2.6454   -0.0000 </r>
       <r>    3.1894    0.0000 </r>
       <r>    3.2182    0.0000 </r>
       <r>    5.7870    0.0000 </r>
       <r>    5.8982    0.0000 </r>
       <r>    7.4082    0.0000 </r>
       <r>    7.8403    0.0000 </r>
      </set>
      <set comment="kpoint 4">
       <r>  -34.9571    1.0000 </r>
       <r>  -34.9566    1.0000 </r>
       <r>  -34.9563    1.0000 </r>
       <r>  -34.9558    1.0000 </r>
       <r>  -34.8329    1.0000 </r>
       <r>  -34.8325    1.0000 </r>
       <r>  -13.2658    1.0000 </r>
       <r>  -13.2064    1.0000 </r>
       <r>  -12.4124    1.0000 </r>
       <r>  -12.3292    1.0000 </r>
       <r>   -5.0729    1.0000 </r>
       <r>   -4.8209    1.0000 </r>
       <r>   -3.7477    1.0000 </r>
       <r>   -3.6560    1.0000 </r>
       <r>   -3.4943    1.0000 </r>
       <r>   -3.2977    1.0000 </r>
       <r>   -2.3951    1.0000 </r>
       <r>   -2.3868    1.0000 </r>
       <r>   -1.9045    1.0000 </r>
       <r>   -1.8968    1.0000 </r>
       <r>   -1.5059    1.0000 </r>
       <r>   -1.0843    1.0000 </r>
       <r>   -0.7054    1.0000 </r>
       <r>   -0.5338    1.0000 </r>
       <r>    1.9224   -0.0000 </r>
       <r>    2.2435   -0.0000 </r>
       <r>    2.3038   -0.0000 </r>
       <r>    2.3325   -0.0000 </r>
       <r>    2.6771   -0.0000 </r>
       <r>    2.9191   -0.0000 </r>
       <r>    3.5692    0.0000 </r>
       <r>    3.6056    0.0000 </r>
       <r>    6.2998    0.0000 </r>
       <r>    6.4087    0.0000 </r>
       <r>    7.8634    0.0000 </r>
       <r>    8.2776    0.0000 </r>
      </set>
      <set comment="kpoint 5">
       <r>  -35.0423    1.0000 </r>
       <r>  -35.0419    1.0000 </r>
       <r>  -34.9392    1.0000 </r>
       <r>  -34.9387    1.0000 </r>
       <r>  -34.8528    1.0000 </r>
       <r>  -34.8524    1.0000 </r>
       <r>  -12.8269    1.0000 </r>
       <r>  -12.7689    1.0000 </r>
       <r>  -12.2309    1.0000 </r>
       <r>  -12.1582    1.0000 </r>
       <r>   -5.1201    1.0000 </r>
       <r>   -4.9921    1.0000 </r>
       <r>   -4.0845    1.0000 </r>
       <r>   -3.9158    1.0000 </r>
       <r>   -3.8973    1.0000 </r>
       <r>   -3.7091    1.0000 </r>
       <r>   -2.7506    1.0000 </r>
       <r>   -2.7418    1.0000 </r>
       <r>   -1.7904    1.0000 </r>
       <r>   -1.5119    1.0000 </r>
       <r>   -1.4980    1.0000 </r>
       <r>   -1.3667    1.0000 </r>
       <r>   -0.9964    1.0000 </r>
       <r>   -0.8633    1.0000 </r>
       <r>    2.0222   -0.0000 </r>
       <r>    2.1372   -0.0000 </r>
       <r>    2.1612   -0.0000 </r>
       <r>    2.3251   -0.0000 </r>
       <r>    3.0780    0.0000 </r>
       <r>    3.3723    0.0000 </r>
       <r>    3.8694    0.0000 </r>
       <r>    3.9154    0.0000 </r>
       <r>    6.9214    0.0000 </r>
       <r>    7.0236    0.0000 </r>
       <r>    7.7810    0.0000 </r>
       <r>    8.1415    0.0000 </r>
      </set>
      <set comment="kpoint 6">
       <r>  -35.1121    1.0000 </r>
       <r>  -35.1117    1.0000 </r>
       <r>  -34.9249    1.0000 </r>
       <r>  -34.9245    1.0000 </r>
       <r>  -34.8693    1.0000 </r>
       <r>  -34.8689    1.0000 </r>
       <r>  -12.4181    1.0000 </r>
       <r>  -12.3623    1.0000 </r>
       <r>  -12.0659    1.0000 </r>
       <r>  -12.0032    1.0000 </r>
       <r>   -5.4376    1.0000 </r>
       <r>   -5.3603    1.0000 </r>
       <r>   -4.4961    1.0000 </r>
       <r>   -4.3710    1.0000 </r>
       <r>   -4.0049    1.0000 </r>
       <r>   -3.7774    1.0000 </r>
       <r>   -3.0106    1.0000 </r>
       <r>   -3.0015    1.0000 </r>
       <r>   -2.0091    1.0000 </r>
       <r>   -1.5871    1.0000 </r>
       <r>   -1.1966    1.0000 </r>
       <r>   -1.1777    1.0000 </r>
       <r>   -0.9583    1.0000 </r>
       <r>   -0.7960    1.0000 </r>
       <r>    2.0966   -0.0000 </r>
       <r>    2.1110   -0.0000 </r>
       <r>    2.2919   -0.0000 </r>
       <r>    2.4984   -0.0000 </r>
       <r>    3.4550    0.0000 </r>
       <r>    3.7723    0.0000 </r>
       <r>    4.0557    0.0000 </r>
       <r>    4.1104    0.0000 </r>
       <r>    6.7035    0.0000 </r>
       <r>    7.2303    0.0000 </r>
       <r>    7.5436    0.0000 </r>
       <r>    7.8989    0.0000 </r>
      </set>
      <set comment="kpoint 7">
       <r>  -35.1511    1.0000 </r>
       <r>  -35.1507    1.0000 </r>
       <r>  -34.9169    1.0000 </r>
       <r>  -34.9164    1.0000 </r>
       <r>  -34.8785    1.0000 </r>
       <r>  -34.8781    1.0000 </r>
       <r>  -12.1632    1.0000 </r>
       <r>  -12.1089    1.0000 </r>
       <r>  -11.9647    1.0000 </r>
       <r>  -11.9087    1.0000 </r>
       <r>   -5.6799    1.0000 </r>
       <r>   -5.6104    1.0000 </r>
       <r>   -4.7477    1.0000 </r>
       <r>   -4.6357    1.0000 </r>
       <r>   -4.1063    1.0000 </r>
       <r>   -3.8913    1.0000 </r>
       <r>   -3.1467    1.0000 </r>
       <r>   -3.1374    1.0000 </r>
       <r>   -2.1165    1.0000 </r>
       <r>   -1.6964    1.0000 </r>
       <r>   -1.0317    1.0000 </r>
       <r>   -1.0080    1.0000 </r>
       <r>   -0.7513    1.0000 </r>
       <r>   -0.5529    1.0000 </r>
       <r>    2.1258   -0.0000 </r>
       <r>    2.1332   -0.0000 </r>
       <r>    2.5470   -0.0000 </r>
       <r>    2.6498   -0.0000 </r>
       <r>    3.6496    0.0000 </r>
       <r>    3.9802    0.0000 </r>
       <r>    4.1397    0.0000 </r>
       <r>    4.1997    0.0000 </r>
       <r>    5.9176    0.0000 </r>
       <r>    6.5999    0.0000 </r>
       <r>    7.8310    0.0000 </r>
       <r>    8.0259    0.0000 </r>
      </set>
      <set comment="kpoint 8">
       <r>  -34.9838    1.0000 </r>
       <r>  -34.9833    1.0000 </r>
       <r>  -34.8171    1.0000 </r>
       <r>  -34.8166    1.0000 </r>
       <r>  -34.8006    1.0000 </r>
       <r>  -34.8003    1.0000 </r>
       <r>  -13.8883    1.0000 </r>
       <r>  -13.8285    1.0000 </r>
       <r>  -12.6742    1.0000 </r>
       <r>  -12.5765    1.0000 </r>
       <r>   -5.5979    1.0000 </r>
       <r>   -5.2900    1.0000 </r>
       <r>   -2.8069    1.0000 </r>
       <r>   -2.7995    1.0000 </r>
       <r>   -2.5279    1.0000 </r>
       <r>   -2.5230    1.0000 </r>
       <r>   -2.4759    1.0000 </r>
       <r>   -2.0636    1.0000 </r>
       <r>   -1.6653    1.0000 </r>
       <r>   -1.6561    1.0000 </r>
       <r>   -1.3764    1.0000 </r>
       <r>   -1.0519    1.0000 </r>
       <r>   -0.2533    1.0000 </r>
       <r>    0.1728    1.0325 </r>
       <r>    2.5601   -0.0000 </r>
       <r>    2.6131   -0.0000 </r>
       <r>    2.6345   -0.0000 </r>
       <r>    2.7366   -0.0000 </r>
       <r>    2.7684   -0.0000 </r>
       <r>    2.8132   -0.0000 </r>
       <r>    2.8447   -0.0000 </r>
       <r>    2.8748   -0.0000 </r>
       <r>    5.4309    0.0000 </r>
       <r>    5.5482    0.0000 </r>
       <r>    6.7376    0.0000 </r>
       <r>    6.9361    0.0000 </r>
      </set>
      <set comment="kpoint 9">
       <r>  -34.9760    1.0000 </r>
       <r>  -34.9756    1.0000 </r>
       <r>  -34.8561    1.0000 </r>
       <r>  -34.8556    1.0000 </r>
       <r>  -34.8107    1.0000 </r>
       <r>  -34.8104    1.0000 </r>
       <r>  -13.7209    1.0000 </r>
       <r>  -13.6610    1.0000 </r>
       <r>  -12.6035    1.0000 </r>
       <r>  -12.5097    1.0000 </r>
       <r>   -5.4171    1.0000 </r>
       <r>   -5.1106    1.0000 </r>
       <r>   -3.1247    1.0000 </r>
       <r>   -3.1093    1.0000 </r>
       <r>   -2.8076    1.0000 </r>
       <r>   -2.4792    1.0000 </r>
       <r>   -2.3602    1.0000 </r>
       <r>   -2.3543    1.0000 </r>
       <r>   -1.9819    1.0000 </r>
       <r>   -1.9659    1.0000 </r>
       <r>   -1.2337    1.0000 </r>
       <r>   -0.8619    1.0000 </r>
       <r>   -0.3289    1.0000 </r>
       <r>    0.0066    1.0003 </r>
       <r>    2.2606   -0.0000 </r>
       <r>    2.4235   -0.0000 </r>
       <r>    2.4486   -0.0000 </r>
       <r>    2.5770   -0.0000 </r>
       <r>    2.6042   -0.0000 </r>
       <r>    2.6553   -0.0000 </r>
       <r>    3.1148    0.0000 </r>
       <r>    3.1564    0.0000 </r>
       <r>    5.6753    0.0000 </r>
       <r>    5.7895    0.0000 </r>
       <r>    7.2595    0.0000 </r>
       <r>    7.6001    0.0000 </r>
      </set>
      <set comment="kpoint 10">
       <r>  -34.9623    1.0000 </r>
       <r>  -34.9619    1.0000 </r>
       <r>  -34.9236    1.0000 </r>
       <r>  -34.9231    1.0000 </r>
       <r>  -34.8292    1.0000 </r>
       <r>  -34.8289    1.0000 </r>
       <r>  -13.4091    1.0000 </r>
       <r>  -13.3494    1.0000 </r>
       <r>  -12.4719    1.0000 </r>
       <r>  -12.3854    1.0000 </r>
       <r>   -5.1377    1.0000 </r>
       <r>   -4.8529    1.0000 </r>
       <r>   -3.5796    1.0000 </r>
       <r>   -3.5300    1.0000 </r>
       <r>   -3.2380    1.0000 </r>
       <r>   -3.0003    1.0000 </r>
       <r>   -2.4753    1.0000 </r>
       <r>   -2.4331    1.0000 </r>
       <r>   -2.0775    1.0000 </r>
       <r>   -2.0687    1.0000 </r>
       <r>   -1.2318    1.0000 </r>
       <r>   -0.8587    1.0000 </r>
       <r>   -0.5610    1.0000 </r>
       <r>   -0.3541    1.0000 </r>
       <r>    1.9290   -0.0000 </r>
       <r>    2.1939   -0.0000 </r>
       <r>    2.3747   -0.0000 </r>
       <r>    2.4346   -0.0000 </r>
       <r>    2.4539   -0.0000 </r>
       <r>    2.6432   -0.0000 </r>
       <r>    3.5130    0.0000 </r>
       <r>    3.5796    0.0000 </r>
       <r>    6.1096    0.0000 </r>
       <r>    6.2206    0.0000 </r>
       <r>    7.8001    0.0000 </r>
       <r>    8.2575    0.0000 </r>
      </set>
      <set comment="kpoint 11">
       <r>  -35.0040    1.0000 </r>
       <r>  -35.0035    1.0000 </r>
       <r>  -34.9457    1.0000 </r>
       <r>  -34.9452    1.0000 </r>
       <r>  -34.8516    1.0000 </r>
       <r>  -34.8512    1.0000 </r>
       <r>  -13.0002    1.0000 </r>
       <r>  -12.9416    1.0000 </r>
       <r>  -12.3007    1.0000 </r>
       <r>  -12.2239    1.0000 </r>
       <r>   -5.0071    1.0000 </r>
       <r>   -4.8268    1.0000 </r>
       <r>   -3.9096    1.0000 </r>
       <r>   -3.7411    1.0000 </r>
       <r>   -3.7306    1.0000 </r>
       <r>   -3.5859    1.0000 </r>
       <r>   -2.8721    1.0000 </r>
       <r>   -2.7942    1.0000 </r>
       <r>   -1.7994    1.0000 </r>
       <r>   -1.7815    1.0000 </r>
       <r>   -1.4549    1.0000 </r>
       <r>   -1.0926    1.0000 </r>
       <r>   -0.8632    1.0000 </r>
       <r>   -0.7396    1.0000 </r>
       <r>    1.8316   -0.0000 </r>
       <r>    2.0745   -0.0000 </r>
       <r>    2.2605   -0.0000 </r>
       <r>    2.3823   -0.0000 </r>
       <r>    2.7298   -0.0000 </r>
       <r>    2.9641   -0.0000 </r>
       <r>    3.8553    0.0000 </r>
       <r>    3.9530    0.0000 </r>
       <r>    6.6990    0.0000 </r>
       <r>    6.7983    0.0000 </r>
       <r>    8.1534    0.0000 </r>
       <r>    8.5015    0.0000 </r>
      </set>
      <set comment="kpoint 12">
       <r>  -35.0786    1.0000 </r>
       <r>  -35.0781    1.0000 </r>
       <r>  -34.9300    1.0000 </r>
       <r>  -34.9295    1.0000 </r>
       <r>  -34.8726    1.0000 </r>
       <r>  -34.8722    1.0000 </r>
       <r>  -12.5712    1.0000 </r>
       <r>  -12.5146    1.0000 </r>
       <r>  -12.1238    1.0000 </r>
       <r>  -12.0572    1.0000 </r>
       <r>   -5.2256    1.0000 </r>
       <r>   -5.1344    1.0000 </r>
       <r>   -4.3091    1.0000 </r>
       <r>   -4.1940    1.0000 </r>
       <r>   -3.9280    1.0000 </r>
       <r>   -3.6969    1.0000 </r>
       <r>   -3.0845    1.0000 </r>
       <r>   -3.0075    1.0000 </r>
       <r>   -1.7803    1.0000 </r>
       <r>   -1.6302    1.0000 </r>
       <r>   -1.6134    1.0000 </r>
       <r>   -1.3759    1.0000 </r>
       <r>   -0.8863    1.0000 </r>
       <r>   -0.7924    1.0000 </r>
       <r>    1.9454   -0.0000 </r>
       <r>    2.1074   -0.0000 </r>
       <r>    2.3047   -0.0000 </r>
       <r>    2.4415   -0.0000 </r>
       <r>    3.1482    0.0000 </r>
       <r>    3.3921    0.0000 </r>
       <r>    4.0438    0.0000 </r>
       <r>    4.1801    0.0000 </r>
       <r>    7.2294    0.0000 </r>
       <r>    7.3953    0.0000 </r>
       <r>    7.4940    0.0000 </r>
       <r>    8.1024    0.0000 </r>
      </set>
      <set comment="kpoint 13">
       <r>  -35.1309    1.0000 </r>
       <r>  -35.1305    1.0000 </r>
       <r>  -34.9188    1.0000 </r>
       <r>  -34.9184    1.0000 </r>
       <r>  -34.8875    1.0000 </r>
       <r>  -34.8871    1.0000 </r>
       <r>  -12.2316    1.0000 </r>
       <r>  -12.1770    1.0000 </r>
       <r>  -11.9862    1.0000 </r>
       <r>  -11.9281    1.0000 </r>
       <r>   -5.5097    1.0000 </r>
       <r>   -5.4391    1.0000 </r>
       <r>   -4.6953    1.0000 </r>
       <r>   -4.5995    1.0000 </r>
       <r>   -4.0324    1.0000 </r>
       <r>   -3.8069    1.0000 </r>
       <r>   -3.1709    1.0000 </r>
       <r>   -3.1142    1.0000 </r>
       <r>   -2.0136    1.0000 </r>
       <r>   -1.6362    1.0000 </r>
       <r>   -1.5110    1.0000 </r>
       <r>   -1.4228    1.0000 </r>
       <r>   -0.6778    1.0000 </r>
       <r>   -0.5633    1.0000 </r>
       <r>    2.0968   -0.0000 </r>
       <r>    2.1709   -0.0000 </r>
       <r>    2.4844   -0.0000 </r>
       <r>    2.5985   -0.0000 </r>
       <r>    3.5374    0.0000 </r>
       <r>    3.7626    0.0000 </r>
       <r>    4.0356    0.0000 </r>
       <r>    4.2210    0.0000 </r>
       <r>    6.3291    0.0000 </r>
       <r>    6.9925    0.0000 </r>
       <r>    7.9789    0.0000 </r>
       <r>    8.1925    0.0000 </r>
      </set>
      <set comment="kpoint 14">
       <r>  -35.1497    1.0000 </r>
       <r>  -35.1493    1.0000 </r>
       <r>  -34.9148    1.0000 </r>
       <r>  -34.9144    1.0000 </r>
       <r>  -34.8928    1.0000 </r>
       <r>  -34.8924    1.0000 </r>
       <r>  -12.1005    1.0000 </r>
       <r>  -12.0464    1.0000 </r>
       <r>  -11.9327    1.0000 </r>
       <r>  -11.8785    1.0000 </r>
       <r>   -5.6284    1.0000 </r>
       <r>   -5.5599    1.0000 </r>
       <r>   -4.8381    1.0000 </r>
       <r>   -4.7464    1.0000 </r>
       <r>   -4.0990    1.0000 </r>
       <r>   -3.8834    1.0000 </r>
       <r>   -3.1905    1.0000 </r>
       <r>   -3.1452    1.0000 </r>
       <r>   -2.1047    1.0000 </r>
       <r>   -1.7113    1.0000 </r>
       <r>   -1.4482    1.0000 </r>
       <r>   -1.3593    1.0000 </r>
       <r>   -0.5492    1.0000 </r>
       <r>   -0.4147    1.0000 </r>
       <r>    2.1347   -0.0000 </r>
       <r>    2.1691   -0.0000 </r>
       <r>    2.6319   -0.0000 </r>
       <r>    2.7197   -0.0000 </r>
       <r>    3.7890    0.0000 </r>
       <r>    3.8899    0.0000 </r>
       <r>    3.9720    0.0000 </r>
       <r>    4.1460    0.0000 </r>
       <r>    5.8920    0.0000 </r>
       <r>    6.6176    0.0000 </r>
       <r>    8.2615    0.0000 </r>
       <r>    8.4312    0.0000 </r>
      </set>
      <set comment="kpoint 15">
       <r>  -35.1309    1.0000 </r>
       <r>  -35.1305    1.0000 </r>
       <r>  -34.9188    1.0000 </r>
       <r>  -34.9184    1.0000 </r>
       <r>  -34.8875    1.0000 </r>
       <r>  -34.8871    1.0000 </r>
       <r>  -12.2316    1.0000 </r>
       <r>  -12.1770    1.0000 </r>
       <r>  -11.9862    1.0000 </r>
       <r>  -11.9281    1.0000 </r>
       <r>   -5.5097    1.0000 </r>
       <r>   -5.4391    1.0000 </r>
       <r>   -4.6953    1.0000 </r>
       <r>   -4.5995    1.0000 </r>
       <r>   -4.0324    1.0000 </r>
       <r>   -3.8069    1.0000 </r>
       <r>   -3.1709    1.0000 </r>
       <r>   -3.1142    1.0000 </r>
       <r>   -2.0136    1.0000 </r>
       <r>   -1.6361    1.0000 </r>
       <r>   -1.5111    1.0000 </r>
       <r>   -1.4228    1.0000 </r>
       <r>   -0.6778    1.0000 </r>
       <r>   -0.5633    1.0000 </r>
       <r>    2.0968   -0.0000 </r>
       <r>    2.1709   -0.0000 </r>
       <r>    2.4845   -0.0000 </r>
       <r>    2.5985   -0.0000 </r>
       <r>    3.5374    0.0000 </r>
       <r>    3.7626    0.0000 </r>
       <r>    4.0356    0.0000 </r>
       <r>    4.2209    0.0000 </r>
       <r>    6.3291    0.0000 </r>
       <r>    6.9924    0.0000 </r>
       <r>    8.0360    0.0000 </r>
       <r>    8.2263    0.0000 </r>
      </set>
      <set comment="kpoint 16">
       <r>  -35.0786    1.0000 </r>
       <r>  -35.0782    1.0000 </r>
       <r>  -34.9300    1.0000 </r>
       <r>  -34.9295    1.0000 </r>
       <r>  -34.8727    1.0000 </r>
       <r>  -34.8722    1.0000 </r>
       <r>  -12.5712    1.0000 </r>
       <r>  -12.5146    1.0000 </r>
       <r>  -12.1238    1.0000 </r>
       <r>  -12.0572    1.0000 </r>
       <r>   -5.2256    1.0000 </r>
       <r>   -5.1344    1.0000 </r>
       <r>   -4.3091    1.0000 </r>
       <r>   -4.1940    1.0000 </r>
       <r>   -3.9280    1.0000 </r>
       <r>   -3.6969    1.0000 </r>
       <r>   -3.0845    1.0000 </r>
       <r>   -3.0075    1.0000 </r>
       <r>   -1.7803    1.0000 </r>
       <r>   -1.6303    1.0000 </r>
       <r>   -1.6133    1.0000 </r>
       <r>   -1.3759    1.0000 </r>
       <r>   -0.8863    1.0000 </r>
       <r>   -0.7925    1.0000 </r>
       <r>    1.9454   -0.0000 </r>
       <r>    2.1073   -0.0000 </r>
       <r>    2.3047   -0.0000 </r>
       <r>    2.4415   -0.0000 </r>
       <r>    3.1482    0.0000 </r>
       <r>    3.3921    0.0000 </r>
       <r>    4.0438    0.0000 </r>
       <r>    4.1801    0.0000 </r>
       <r>    7.2297    0.0000 </r>
       <r>    7.3986    0.0000 </r>
       <r>    7.4945    0.0000 </r>
       <r>    8.1559    0.0000 </r>
      </set>
      <set comment="kpoint 17">
       <r>  -35.0039    1.0000 </r>
       <r>  -35.0035    1.0000 </r>
       <r>  -34.9457    1.0000 </r>
       <r>  -34.9452    1.0000 </r>
       <r>  -34.8516    1.0000 </r>
       <r>  -34.8512    1.0000 </r>
       <r>  -13.0002    1.0000 </r>
       <r>  -12.9416    1.0000 </r>
       <r>  -12.3007    1.0000 </r>
       <r>  -12.2239    1.0000 </r>
       <r>   -5.0071    1.0000 </r>
       <r>   -4.8268    1.0000 </r>
       <r>   -3.9096    1.0000 </r>
       <r>   -3.7411    1.0000 </r>
       <r>   -3.7307    1.0000 </r>
       <r>   -3.5859    1.0000 </r>
       <r>   -2.8721    1.0000 </r>
       <r>   -2.7942    1.0000 </r>
       <r>   -1.7994    1.0000 </r>
       <r>   -1.7815    1.0000 </r>
       <r>   -1.4549    1.0000 </r>
       <r>   -1.0926    1.0000 </r>
       <r>   -0.8632    1.0000 </r>
       <r>   -0.7396    1.0000 </r>
       <r>    1.8316   -0.0000 </r>
       <r>    2.0745   -0.0000 </r>
       <r>    2.2605   -0.0000 </r>
       <r>    2.3823   -0.0000 </r>
       <r>    2.7298   -0.0000 </r>
       <r>    2.9641   -0.0000 </r>
       <r>    3.8554    0.0000 </r>
       <r>    3.9529    0.0000 </r>
       <r>    6.6999    0.0000 </r>
       <r>    6.7983    0.0000 </r>
       <r>    8.1890    0.0000 </r>
       <r>    8.4482    0.0000 </r>
      </set>
      <set comment="kpoint 18">
       <r>  -34.9623    1.0000 </r>
       <r>  -34.9619    1.0000 </r>
       <r>  -34.9236    1.0000 </r>
       <r>  -34.9232    1.0000 </r>
       <r>  -34.8293    1.0000 </r>
       <r>  -34.8288    1.0000 </r>
       <r>  -13.4091    1.0000 </r>
       <r>  -13.3494    1.0000 </r>
       <r>  -12.4719    1.0000 </r>
       <r>  -12.3854    1.0000 </r>
       <r>   -5.1377    1.0000 </r>
       <r>   -4.8529    1.0000 </r>
       <r>   -3.5796    1.0000 </r>
       <r>   -3.5300    1.0000 </r>
       <r>   -3.2380    1.0000 </r>
       <r>   -3.0003    1.0000 </r>
       <r>   -2.4753    1.0000 </r>
       <r>   -2.4331    1.0000 </r>
       <r>   -2.0775    1.0000 </r>
       <r>   -2.0687    1.0000 </r>
       <r>   -1.2318    1.0000 </r>
       <r>   -0.8587    1.0000 </r>
       <r>   -0.5610    1.0000 </r>
       <r>   -0.3541    1.0000 </r>
       <r>    1.9290   -0.0000 </r>
       <r>    2.1938   -0.0000 </r>
       <r>    2.3747   -0.0000 </r>
       <r>    2.4345   -0.0000 </r>
       <r>    2.4541   -0.0000 </r>
       <r>    2.6432   -0.0000 </r>
       <r>    3.5130    0.0000 </r>
       <r>    3.5796    0.0000 </r>
       <r>    6.1123    0.0000 </r>
       <r>    6.2209    0.0000 </r>
       <r>    7.8081    0.0000 </r>
       <r>    8.4087    0.0000 </r>
      </set>
      <set comment="kpoint 19">
       <r>  -34.9760    1.0000 </r>
       <r>  -34.9756    1.0000 </r>
       <r>  -34.8560    1.0000 </r>
       <r>  -34.8557    1.0000 </r>
       <r>  -34.8108    1.0000 </r>
       <r>  -34.8103    1.0000 </r>
       <r>  -13.7209    1.0000 </r>
       <r>  -13.6610    1.0000 </r>
       <r>  -12.6035    1.0000 </r>
       <r>  -12.5097    1.0000 </r>
       <r>   -5.4171    1.0000 </r>
       <r>   -5.1106    1.0000 </r>
       <r>   -3.1247    1.0000 </r>
       <r>   -3.1093    1.0000 </r>
       <r>   -2.8076    1.0000 </r>
       <r>   -2.4792    1.0000 </r>
       <r>   -2.3602    1.0000 </r>
       <r>   -2.3543    1.0000 </r>
       <r>   -1.9820    1.0000 </r>
       <r>   -1.9659    1.0000 </r>
       <r>   -1.2337    1.0000 </r>
       <r>   -0.8619    1.0000 </r>
       <r>   -0.3289    1.0000 </r>
       <r>    0.0066    1.0003 </r>
       <r>    2.2606   -0.0000 </r>
       <r>    2.4235   -0.0000 </r>
       <r>    2.4486   -0.0000 </r>
       <r>    2.5770   -0.0000 </r>
       <r>    2.6042   -0.0000 </r>
       <r>    2.6553   -0.0000 </r>
       <r>    3.1148    0.0000 </r>
       <r>    3.1564    0.0000 </r>
       <r>    5.6769    0.0000 </r>
       <r>    5.7896    0.0000 </r>
       <r>    7.2707    0.0000 </r>
       <r>    7.5974    0.0000 </r>
      </set>
      <set comment="kpoint 20">
       <r>  -34.9838    1.0000 </r>
       <r>  -34.9833    1.0000 </r>
       <r>  -34.8170    1.0000 </r>
       <r>  -34.8167    1.0000 </r>
       <r>  -34.8007    1.0000 </r>
       <r>  -34.8002    1.0000 </r>
       <r>  -13.8883    1.0000 </r>
       <r>  -13.8285    1.0000 </r>
       <r>  -12.6742    1.0000 </r>
       <r>  -12.5765    1.0000 </r>
       <r>   -5.5979    1.0000 </r>
       <r>   -5.2900    1.0000 </r>
       <r>   -2.8069    1.0000 </r>
       <r>   -2.7995    1.0000 </r>
       <r>   -2.5279    1.0000 </r>
       <r>   -2.5230    1.0000 </r>
       <r>   -2.4758    1.0000 </r>
       <r>   -2.0635    1.0000 </r>
       <r>   -1.6653    1.0000 </r>
       <r>   -1.6561    1.0000 </r>
       <r>   -1.3764    1.0000 </r>
       <r>   -1.0518    1.0000 </r>
       <r>   -0.2532    1.0000 </r>
       <r>    0.1728    1.0325 </r>
       <r>    2.5601   -0.0000 </r>
       <r>    2.6131   -0.0000 </r>
       <r>    2.6345   -0.0000 </r>
       <r>    2.7367   -0.0000 </r>
       <r>    2.7684   -0.0000 </r>
       <r>    2.8133   -0.0000 </r>
       <r>    2.8446   -0.0000 </r>
       <r>    2.8749   -0.0000 </r>
       <r>    5.4310    0.0000 </r>
       <r>    5.5482    0.0000 </r>
       <r>    6.7388    0.0000 </r>
       <r>    6.9366    0.0000 </r>
      </set>
      <set comment="kpoint 21">
       <r>  -34.9724    1.0000 </r>
       <r>  -34.9720    1.0000 </r>
       <r>  -34.8756    1.0000 </r>
       <r>  -34.8751    1.0000 </r>
       <r>  -34.8140    1.0000 </r>
       <r>  -34.8137    1.0000 </r>
       <r>  -13.6401    1.0000 </r>
       <r>  -13.5804    1.0000 </r>
       <r>  -12.5694    1.0000 </r>
       <r>  -12.4777    1.0000 </r>
       <r>   -5.3385    1.0000 </r>
       <r>   -5.0357    1.0000 </r>
       <r>   -3.2644    1.0000 </r>
       <r>   -3.2418    1.0000 </r>
       <r>   -2.9676    1.0000 </r>
       <r>   -2.6809    1.0000 </r>
       <r>   -2.2734    1.0000 </r>
       <r>   -2.2664    1.0000 </r>
       <r>   -2.0009    1.0000 </r>
       <r>   -1.9906    1.0000 </r>
       <r>   -1.3098    1.0000 </r>
       <r>   -0.9129    1.0000 </r>
       <r>   -0.3847    1.0000 </r>
       <r>   -0.0948    1.0000 </r>
       <r>    2.1516   -0.0000 </r>
       <r>    2.3670   -0.0000 </r>
       <r>    2.4850   -0.0000 </r>
       <r>    2.5447   -0.0000 </r>
       <r>    2.5890   -0.0000 </r>
       <r>    2.6409   -0.0000 </r>
       <r>    3.1848    0.0000 </r>
       <r>    3.2234    0.0000 </r>
       <r>    5.7873    0.0000 </r>
       <r>    5.8978    0.0000 </r>
       <r>    7.4099    0.0000 </r>
       <r>    7.8402    0.0000 </r>
      </set>
      <set comment="kpoint 22">
       <r>  -34.9623    1.0000 </r>
       <r>  -34.9619    1.0000 </r>
       <r>  -34.9237    1.0000 </r>
       <r>  -34.9231    1.0000 </r>
       <r>  -34.8292    1.0000 </r>
       <r>  -34.8289    1.0000 </r>
       <r>  -13.4090    1.0000 </r>
       <r>  -13.3495    1.0000 </r>
       <r>  -12.4718    1.0000 </r>
       <r>  -12.3856    1.0000 </r>
       <r>   -5.1375    1.0000 </r>
       <r>   -4.8530    1.0000 </r>
       <r>   -3.5789    1.0000 </r>
       <r>   -3.5307    1.0000 </r>
       <r>   -3.2379    1.0000 </r>
       <r>   -3.0006    1.0000 </r>
       <r>   -2.4758    1.0000 </r>
       <r>   -2.4324    1.0000 </r>
       <r>   -2.0781    1.0000 </r>
       <r>   -2.0681    1.0000 </r>
       <r>   -1.2284    1.0000 </r>
       <r>   -0.8610    1.0000 </r>
       <r>   -0.5604    1.0000 </r>
       <r>   -0.3579    1.0000 </r>
       <r>    1.9316   -0.0000 </r>
       <r>    2.1939   -0.0000 </r>
       <r>    2.3732   -0.0000 </r>
       <r>    2.4406   -0.0000 </r>
       <r>    2.4501   -0.0000 </r>
       <r>    2.6423   -0.0000 </r>
       <r>    3.5107    0.0000 </r>
       <r>    3.5817    0.0000 </r>
       <r>    6.1098    0.0000 </r>
       <r>    6.2203    0.0000 </r>
       <r>    7.8002    0.0000 </r>
       <r>    8.2546    0.0000 </r>
      </set>
      <set comment="kpoint 23">
       <r>  -34.9858    1.0000 </r>
       <r>  -34.9853    1.0000 </r>
       <r>  -34.9480    1.0000 </r>
       <r>  -34.9476    1.0000 </r>
       <r>  -34.8555    1.0000 </r>
       <r>  -34.8552    1.0000 </r>
       <r>  -13.0612    1.0000 </r>
       <r>  -13.0025    1.0000 </r>
       <r>  -12.3246    1.0000 </r>
       <r>  -12.2466    1.0000 </r>
       <r>   -4.9601    1.0000 </r>
       <r>   -4.7513    1.0000 </r>
       <r>   -3.8428    1.0000 </r>
       <r>   -3.7079    1.0000 </r>
       <r>   -3.5283    1.0000 </r>
       <r>   -3.3965    1.0000 </r>
       <r>   -3.1106    1.0000 </r>
       <r>   -2.9808    1.0000 </r>
       <r>   -1.9518    1.0000 </r>
       <r>   -1.9326    1.0000 </r>
       <r>   -1.2172    1.0000 </r>
       <r>   -0.8979    1.0000 </r>
       <r>   -0.7943    1.0000 </r>
       <r>   -0.6666    1.0000 </r>
       <r>    1.7393   -0.0000 </r>
       <r>    2.0002   -0.0000 </r>
       <r>    2.3027   -0.0000 </r>
       <r>    2.4201   -0.0000 </r>
       <r>    2.5007   -0.0000 </r>
       <r>    2.7197   -0.0000 </r>
       <r>    3.8922    0.0000 </r>
       <r>    4.0150    0.0000 </r>
       <r>    6.6261    0.0000 </r>
       <r>    6.7275    0.0000 </r>
       <r>    8.3207    0.0000 </r>
       <r>    8.5765    0.0000 </r>
      </set>
      <set comment="kpoint 24">
       <r>  -35.0486    1.0000 </r>
       <r>  -35.0481    1.0000 </r>
       <r>  -34.9328    1.0000 </r>
       <r>  -34.9324    1.0000 </r>
       <r>  -34.8859    1.0000 </r>
       <r>  -34.8855    1.0000 </r>
       <r>  -12.6565    1.0000 </r>
       <r>  -12.5996    1.0000 </r>
       <r>  -12.1535    1.0000 </r>
       <r>  -12.0849    1.0000 </r>
       <r>   -5.0299    1.0000 </r>
       <r>   -4.9205    1.0000 </r>
       <r>   -4.1091    1.0000 </r>
       <r>   -4.0420    1.0000 </r>
       <r>   -3.8493    1.0000 </r>
       <r>   -3.6149    1.0000 </r>
       <r>   -3.3234    1.0000 </r>
       <r>   -3.1497    1.0000 </r>
       <r>   -2.0843    1.0000 </r>
       <r>   -2.0493    1.0000 </r>
       <r>   -1.4329    1.0000 </r>
       <r>   -1.1140    1.0000 </r>
       <r>   -0.8493    1.0000 </r>
       <r>   -0.7896    1.0000 </r>
       <r>    1.7729   -0.0000 </r>
       <r>    2.0515   -0.0000 </r>
       <r>    2.3757   -0.0000 </r>
       <r>    2.4586   -0.0000 </r>
       <r>    2.7596   -0.0000 </r>
       <r>    2.9813   -0.0000 </r>
       <r>    4.1346    0.0000 </r>
       <r>    4.3094    0.0000 </r>
       <r>    7.2661    0.0000 </r>
       <r>    7.3527    0.0000 </r>
       <r>    8.0052    0.0000 </r>
       <r>    8.5841    0.0000 </r>
      </set>
      <set comment="kpoint 25">
       <r>  -35.0992    1.0000 </r>
       <r>  -35.0987    1.0000 </r>
       <r>  -34.9203    1.0000 </r>
       <r>  -34.9198    1.0000 </r>
       <r>  -34.9118    1.0000 </r>
       <r>  -34.9115    1.0000 </r>
       <r>  -12.2848    1.0000 </r>
       <r>  -12.2300    1.0000 </r>
       <r>  -11.9964    1.0000 </r>
       <r>  -11.9369    1.0000 </r>
       <r>   -5.2309    1.0000 </r>
       <r>   -5.1565    1.0000 </r>
       <r>   -4.6523    1.0000 </r>
       <r>   -4.5948    1.0000 </r>
       <r>   -3.8789    1.0000 </r>
       <r>   -3.6319    1.0000 </r>
       <r>   -3.2943    1.0000 </r>
       <r>   -3.1486    1.0000 </r>
       <r>   -2.2338    1.0000 </r>
       <r>   -2.1608    1.0000 </r>
       <r>   -1.7682    1.0000 </r>
       <r>   -1.4412    1.0000 </r>
       <r>   -0.6776    1.0000 </r>
       <r>   -0.6224    1.0000 </r>
       <r>    2.0009   -0.0000 </r>
       <r>    2.2231   -0.0000 </r>
       <r>    2.4988   -0.0000 </r>
       <r>    2.5603   -0.0000 </r>
       <r>    3.1035    0.0000 </r>
       <r>    3.3096    0.0000 </r>
       <r>    4.1936    0.0000 </r>
       <r>    4.4239    0.0000 </r>
       <r>    6.9574    0.0000 </r>
       <r>    7.5576    0.0000 </r>
       <r>    8.0581    0.0000 </r>
       <r>    8.4014    0.0000 </r>
      </set>
      <set comment="kpoint 26">
       <r>  -35.1273    1.0000 </r>
       <r>  -35.1269    1.0000 </r>
       <r>  -34.9268    1.0000 </r>
       <r>  -34.9264    1.0000 </r>
       <r>  -34.9131    1.0000 </r>
       <r>  -34.9126    1.0000 </r>
       <r>  -12.0570    1.0000 </r>
       <r>  -12.0033    1.0000 </r>
       <r>  -11.8989    1.0000 </r>
       <r>  -11.8457    1.0000 </r>
       <r>   -5.3644    1.0000 </r>
       <r>   -5.2971    1.0000 </r>
       <r>   -4.9605    1.0000 </r>
       <r>   -4.9036    1.0000 </r>
       <r>   -4.0082    1.0000 </r>
       <r>   -3.7855    1.0000 </r>
       <r>   -3.2060    1.0000 </r>
       <r>   -3.0955    1.0000 </r>
       <r>   -2.2610    1.0000 </r>
       <r>   -2.1453    1.0000 </r>
       <r>   -2.0181    1.0000 </r>
       <r>   -1.6782    1.0000 </r>
       <r>   -0.4541    1.0000 </r>
       <r>   -0.3765    1.0000 </r>
       <r>    2.0534   -0.0000 </r>
       <r>    2.1174   -0.0000 </r>
       <r>    2.7443   -0.0000 </r>
       <r>    2.8798   -0.0000 </r>
       <r>    3.3582    0.0000 </r>
       <r>    3.5384    0.0000 </r>
       <r>    4.1297    0.0000 </r>
       <r>    4.4146    0.0000 </r>
       <r>    6.2292    0.0000 </r>
       <r>    6.9815    0.0000 </r>
       <r>    8.6499    0.0000 </r>
       <r>    8.8205    0.0000 </r>
      </set>
      <set comment="kpoint 27">
       <r>  -35.1273    1.0000 </r>
       <r>  -35.1269    1.0000 </r>
       <r>  -34.9268    1.0000 </r>
       <r>  -34.9264    1.0000 </r>
       <r>  -34.9131    1.0000 </r>
       <r>  -34.9126    1.0000 </r>
       <r>  -12.0570    1.0000 </r>
       <r>  -12.0033    1.0000 </r>
       <r>  -11.8989    1.0000 </r>
       <r>  -11.8457    1.0000 </r>
       <r>   -5.3644    1.0000 </r>
       <r>   -5.2971    1.0000 </r>
       <r>   -4.9605    1.0000 </r>
       <r>   -4.9036    1.0000 </r>
       <r>   -4.0082    1.0000 </r>
       <r>   -3.7855    1.0000 </r>
       <r>   -3.2060    1.0000 </r>
       <r>   -3.0955    1.0000 </r>
       <r>   -2.2610    1.0000 </r>
       <r>   -2.1453    1.0000 </r>
       <r>   -2.0181    1.0000 </r>
       <r>   -1.6782    1.0000 </r>
       <r>   -0.4541    1.0000 </r>
       <r>   -0.3765    1.0000 </r>
       <r>    2.0534   -0.0000 </r>
       <r>    2.1174   -0.0000 </r>
       <r>    2.7443   -0.0000 </r>
       <r>    2.8798   -0.0000 </r>
       <r>    3.3582    0.0000 </r>
       <r>    3.5384    0.0000 </r>
       <r>    4.1297    0.0000 </r>
       <r>    4.4146    0.0000 </r>
       <r>    6.2292    0.0000 </r>
       <r>    6.9815    0.0000 </r>
       <r>    8.6499    0.0000 </r>
       <r>    8.8064    0.0000 </r>
      </set>
      <set comment="kpoint 28">
       <r>  -35.0991    1.0000 </r>
       <r>  -35.0988    1.0000 </r>
       <r>  -34.9203    1.0000 </r>
       <r>  -34.9198    1.0000 </r>
       <r>  -34.9119    1.0000 </r>
       <r>  -34.9114    1.0000 </r>
       <r>  -12.2848    1.0000 </r>
       <r>  -12.2300    1.0000 </r>
       <r>  -11.9964    1.0000 </r>
       <r>  -11.9369    1.0000 </r>
       <r>   -5.2309    1.0000 </r>
       <r>   -5.1565    1.0000 </r>
       <r>   -4.6523    1.0000 </r>
       <r>   -4.5949    1.0000 </r>
       <r>   -3.8789    1.0000 </r>
       <r>   -3.6319    1.0000 </r>
       <r>   -3.2943    1.0000 </r>
       <r>   -3.1486    1.0000 </r>
       <r>   -2.2338    1.0000 </r>
       <r>   -2.1608    1.0000 </r>
       <r>   -1.7682    1.0000 </r>
       <r>   -1.4412    1.0000 </r>
       <r>   -0.6775    1.0000 </r>
       <r>   -0.6225    1.0000 </r>
       <r>    2.0009   -0.0000 </r>
       <r>    2.2231   -0.0000 </r>
       <r>    2.4988   -0.0000 </r>
       <r>    2.5604   -0.0000 </r>
       <r>    3.1035    0.0000 </r>
       <r>    3.3096    0.0000 </r>
       <r>    4.1936    0.0000 </r>
       <r>    4.4239    0.0000 </r>
       <r>    6.9574    0.0000 </r>
       <r>    7.5579    0.0000 </r>
       <r>    8.0589    0.0000 </r>
       <r>    8.4968    0.0000 </r>
      </set>
      <set comment="kpoint 29">
       <r>  -35.0485    1.0000 </r>
       <r>  -35.0482    1.0000 </r>
       <r>  -34.9328    1.0000 </r>
       <r>  -34.9324    1.0000 </r>
       <r>  -34.8859    1.0000 </r>
       <r>  -34.8855    1.0000 </r>
       <r>  -12.6565    1.0000 </r>
       <r>  -12.5996    1.0000 </r>
       <r>  -12.1535    1.0000 </r>
       <r>  -12.0849    1.0000 </r>
       <r>   -5.0299    1.0000 </r>
       <r>   -4.9205    1.0000 </r>
       <r>   -4.1091    1.0000 </r>
       <r>   -4.0421    1.0000 </r>
       <r>   -3.8492    1.0000 </r>
       <r>   -3.6149    1.0000 </r>
       <r>   -3.3233    1.0000 </r>
       <r>   -3.1497    1.0000 </r>
       <r>   -2.0843    1.0000 </r>
       <r>   -2.0493    1.0000 </r>
       <r>   -1.4329    1.0000 </r>
       <r>   -1.1140    1.0000 </r>
       <r>   -0.8492    1.0000 </r>
       <r>   -0.7896    1.0000 </r>
       <r>    1.7729   -0.0000 </r>
       <r>    2.0515   -0.0000 </r>
       <r>    2.3758   -0.0000 </r>
       <r>    2.4586   -0.0000 </r>
       <r>    2.7596   -0.0000 </r>
       <r>    2.9813   -0.0000 </r>
       <r>    4.1346    0.0000 </r>
       <r>    4.3094    0.0000 </r>
       <r>    7.2662    0.0000 </r>
       <r>    7.3526    0.0000 </r>
       <r>    8.0051    0.0000 </r>
       <r>    8.5823    0.0000 </r>
      </set>
      <set comment="kpoint 30">
       <r>  -34.9857    1.0000 </r>
       <r>  -34.9854    1.0000 </r>
       <r>  -34.9480    1.0000 </r>
       <r>  -34.9476    1.0000 </r>
       <r>  -34.8556    1.0000 </r>
       <r>  -34.8551    1.0000 </r>
       <r>  -13.0612    1.0000 </r>
       <r>  -13.0025    1.0000 </r>
       <r>  -12.3246    1.0000 </r>
       <r>  -12.2466    1.0000 </r>
       <r>   -4.9601    1.0000 </r>
       <r>   -4.7513    1.0000 </r>
       <r>   -3.8428    1.0000 </r>
       <r>   -3.7079    1.0000 </r>
       <r>   -3.5283    1.0000 </r>
       <r>   -3.3965    1.0000 </r>
       <r>   -3.1106    1.0000 </r>
       <r>   -2.9808    1.0000 </r>
       <r>   -1.9518    1.0000 </r>
       <r>   -1.9326    1.0000 </r>
       <r>   -1.2172    1.0000 </r>
       <r>   -0.8980    1.0000 </r>
       <r>   -0.7943    1.0000 </r>
       <r>   -0.6666    1.0000 </r>
       <r>    1.7393   -0.0000 </r>
       <r>    2.0002   -0.0000 </r>
       <r>    2.3027   -0.0000 </r>
       <r>    2.4201   -0.0000 </r>
       <r>    2.5007   -0.0000 </r>
       <r>    2.7197   -0.0000 </r>
       <r>    3.8922    0.0000 </r>
       <r>    4.0150    0.0000 </r>
       <r>    6.6262    0.0000 </r>
       <r>    6.7275    0.0000 </r>
       <r>    8.3309    0.0000 </r>
       <r>    8.7363    0.0000 </r>
      </set>
      <set comment="kpoint 31">
       <r>  -34.9623    1.0000 </r>
       <r>  -34.9619    1.0000 </r>
       <r>  -34.9235    1.0000 </r>
       <r>  -34.9232    1.0000 </r>
       <r>  -34.8293    1.0000 </r>
       <r>  -34.8288    1.0000 </r>
       <r>  -13.4090    1.0000 </r>
       <r>  -13.3495    1.0000 </r>
       <r>  -12.4718    1.0000 </r>
       <r>  -12.3856    1.0000 </r>
       <r>   -5.1375    1.0000 </r>
       <r>   -4.8530    1.0000 </r>
       <r>   -3.5789    1.0000 </r>
       <r>   -3.5307    1.0000 </r>
       <r>   -3.2379    1.0000 </r>
       <r>   -3.0006    1.0000 </r>
       <r>   -2.4758    1.0000 </r>
       <r>   -2.4325    1.0000 </r>
       <r>   -2.0781    1.0000 </r>
       <r>   -2.0681    1.0000 </r>
       <r>   -1.2284    1.0000 </r>
       <r>   -0.8610    1.0000 </r>
       <r>   -0.5603    1.0000 </r>
       <r>   -0.3579    1.0000 </r>
       <r>    1.9316   -0.0000 </r>
       <r>    2.1939   -0.0000 </r>
       <r>    2.3732   -0.0000 </r>
       <r>    2.4404   -0.0000 </r>
       <r>    2.4503   -0.0000 </r>
       <r>    2.6423   -0.0000 </r>
       <r>    3.5107    0.0000 </r>
       <r>    3.5817    0.0000 </r>
       <r>    6.1099    0.0000 </r>
       <r>    6.2203    0.0000 </r>
       <r>    7.7997    0.0000 </r>
       <r>    8.2473    0.0000 </r>
      </set>
      <set comment="kpoint 32">
       <r>  -34.9724    1.0000 </r>
       <r>  -34.9720    1.0000 </r>
       <r>  -34.8755    1.0000 </r>
       <r>  -34.8752    1.0000 </r>
       <r>  -34.8141    1.0000 </r>
       <r>  -34.8136    1.0000 </r>
       <r>  -13.6401    1.0000 </r>
       <r>  -13.5804    1.0000 </r>
       <r>  -12.5694    1.0000 </r>
       <r>  -12.4777    1.0000 </r>
       <r>   -5.3385    1.0000 </r>
       <r>   -5.0357    1.0000 </r>
       <r>   -3.2644    1.0000 </r>
       <r>   -3.2418    1.0000 </r>
       <r>   -2.9676    1.0000 </r>
       <r>   -2.6808    1.0000 </r>
       <r>   -2.2734    1.0000 </r>
       <r>   -2.2664    1.0000 </r>
       <r>   -2.0009    1.0000 </r>
       <r>   -1.9906    1.0000 </r>
       <r>   -1.3098    1.0000 </r>
       <r>   -0.9129    1.0000 </r>
       <r>   -0.3847    1.0000 </r>
       <r>   -0.0948    1.0000 </r>
       <r>    2.1516   -0.0000 </r>
       <r>    2.3670   -0.0000 </r>
       <r>    2.4850   -0.0000 </r>
       <r>    2.5447   -0.0000 </r>
       <r>    2.5890   -0.0000 </r>
       <r>    2.6409   -0.0000 </r>
       <r>    3.1848    0.0000 </r>
       <r>    3.2234    0.0000 </r>
       <r>    5.7870    0.0000 </r>
       <r>    5.8979    0.0000 </r>
       <r>    7.4100    0.0000 </r>
       <r>    7.8431    0.0000 </r>
      </set>
      <set comment="kpoint 33">
       <r>  -34.9760    1.0000 </r>
       <r>  -34.9756    1.0000 </r>
       <r>  -34.8560    1.0000 </r>
       <r>  -34.8556    1.0000 </r>
       <r>  -34.8107    1.0000 </r>
       <r>  -34.8103    1.0000 </r>
       <r>  -13.7209    1.0000 </r>
       <r>  -13.6611    1.0000 </r>
       <r>  -12.6034    1.0000 </r>
       <r>  -12.5098    1.0000 </r>
       <r>   -5.4169    1.0000 </r>
       <r>   -5.1108    1.0000 </r>
       <r>   -3.1248    1.0000 </r>
       <r>   -3.1092    1.0000 </r>
       <r>   -2.8081    1.0000 </r>
       <r>   -2.4787    1.0000 </r>
       <r>   -2.3608    1.0000 </r>
       <r>   -2.3538    1.0000 </r>
       <r>   -1.9824    1.0000 </r>
       <r>   -1.9653    1.0000 </r>
       <r>   -1.2310    1.0000 </r>
       <r>   -0.8640    1.0000 </r>
       <r>   -0.3283    1.0000 </r>
       <r>    0.0028    1.0003 </r>
       <r>    2.2664   -0.0000 </r>
       <r>    2.4239   -0.0000 </r>
       <r>    2.4498   -0.0000 </r>
       <r>    2.5724   -0.0000 </r>
       <r>    2.6014   -0.0000 </r>
       <r>    2.6572   -0.0000 </r>
       <r>    3.1115    0.0000 </r>
       <r>    3.1604    0.0000 </r>
       <r>    5.6763    0.0000 </r>
       <r>    5.7894    0.0000 </r>
       <r>    7.2640    0.0000 </r>
       <r>    7.5988    0.0000 </r>
      </set>
      <set comment="kpoint 34">
       <r>  -34.9573    1.0000 </r>
       <r>  -34.9569    1.0000 </r>
       <r>  -34.9561    1.0000 </r>
       <r>  -34.9556    1.0000 </r>
       <r>  -34.8329    1.0000 </r>
       <r>  -34.8325    1.0000 </r>
       <r>  -13.2655    1.0000 </r>
       <r>  -13.2066    1.0000 </r>
       <r>  -12.4120    1.0000 </r>
       <r>  -12.3297    1.0000 </r>
       <r>   -5.0728    1.0000 </r>
       <r>   -4.8210    1.0000 </r>
       <r>   -3.7453    1.0000 </r>
       <r>   -3.6585    1.0000 </r>
       <r>   -3.4938    1.0000 </r>
       <r>   -3.2987    1.0000 </r>
       <r>   -2.3968    1.0000 </r>
       <r>   -2.3851    1.0000 </r>
       <r>   -1.9060    1.0000 </r>
       <r>   -1.8952    1.0000 </r>
       <r>   -1.4974    1.0000 </r>
       <r>   -1.0908    1.0000 </r>
       <r>   -0.7039    1.0000 </r>
       <r>   -0.5413    1.0000 </r>
       <r>    1.9273   -0.0000 </r>
       <r>    2.2438   -0.0000 </r>
       <r>    2.2971   -0.0000 </r>
       <r>    2.3384   -0.0000 </r>
       <r>    2.6792   -0.0000 </r>
[...]
       <r>    -2.1579     2.0847    18.5794 </r>
       <r>    -1.9957     4.1620    19.2547 </r>
       <r>    -1.8334     2.6508    19.6847 </r>
       <r>    -1.6712     3.1884    20.2020 </r>
       <r>    -1.5089     2.8966    20.6720 </r>
       <r>    -1.3467     3.4555    21.2326 </r>
       <r>    -1.1845     1.5401    21.4824 </r>
       <r>    -1.0222     1.8136    21.7767 </r>
       <r>    -0.8600     2.3206    22.1532 </r>
       <r>    -0.6978     3.5682    22.7321 </r>
       <r>    -0.5355     2.6492    23.1619 </r>
       <r>    -0.3733     2.3766    23.5474 </r>
       <r>    -0.2110     1.5380    23.7970 </r>
       <r>    -0.0488     0.7760    23.9229 </r>
       <r>     0.1134     0.2454    23.9627 </r>
       <r>     0.2757     0.2274    23.9996 </r>
       <r>     0.4379     0.0032    24.0001 </r>
       <r>     0.6002    -0.0005    24.0000 </r>
       <r>     0.7624    -0.0000    24.0000 </r>
       <r>     0.9246    -0.0000    24.0000 </r>
       <r>     1.0869    -0.0000    24.0000 </r>
       <r>     1.2491    -0.0000    24.0000 </r>
       <r>     1.4113    -0.0002    24.0000 </r>
       <r>     1.5736    -0.0228    23.9963 </r>
       <r>     1.7358     0.5638    24.0878 </r>
       <r>     1.8981     1.6454    24.3547 </r>
       <r>     2.0603     3.6022    24.9391 </r>
       <r>     2.2225     5.0668    25.7611 </r>
       <r>     2.3848     3.7343    26.3670 </r>
       <r>     2.5470     5.2258    27.2148 </r>
       <r>     2.7092     4.3411    27.9191 </r>
       <r>     2.8715     3.1779    28.4347 </r>
       <r>     3.0337     2.7000    28.8727 </r>
       <r>     3.1960     2.7319    29.3159 </r>
       <r>     3.3582     2.0133    29.6425 </r>
       <r>     3.5204     1.8084    29.9359 </r>
       <r>     3.6827     1.7385    30.2180 </r>
       <r>     3.8449     1.1834    30.4100 </r>
       <r>     4.0071     2.0937    30.7496 </r>
       <r>     4.1694     2.7572    31.1970 </r>
       <r>     4.3316     1.9660    31.5159 </r>
       <r>     4.4939     1.6469    31.7831 </r>
       <r>     4.6561     0.7186    31.8997 </r>
       <r>     4.8183     0.5120    31.9828 </r>
       <r>     4.9806     0.1118    32.0009 </r>
       <r>     5.1428    -0.0067    31.9998 </r>
       <r>     5.3051     0.0144    32.0022 </r>
       <r>     5.4673     0.2291    32.0393 </r>
       <r>     5.6295     0.2908    32.0865 </r>
       <r>     5.7918     0.4161    32.1540 </r>
       <r>     5.9540     0.7263    32.2718 </r>
       <r>     6.1162     0.3657    32.3312 </r>
       <r>     6.2785     1.0071    32.4946 </r>
       <r>     6.4407     1.0087    32.6582 </r>
       <r>     6.6030     0.5467    32.7469 </r>
       <r>     6.7652     1.5092    32.9918 </r>
       <r>     6.9274     1.5107    33.2369 </r>
       <r>     7.0897     1.4997    33.4802 </r>
       <r>     7.2519     0.8538    33.6187 </r>
       <r>     7.4141     1.8206    33.9141 </r>
       <r>     7.5764     1.9427    34.2292 </r>
       <r>     7.7386     0.4730    34.3060 </r>
       <r>     7.9009     1.4938    34.5483 </r>
       <r>     8.0631     1.5922    34.8066 </r>
       <r>     8.2253     2.7015    35.2449 </r>
       <r>     8.3876     1.1461    35.4309 </r>
       <r>     8.5498     1.2500    35.6337 </r>
       <r>     8.7120     1.3671    35.8554 </r>
       <r>     8.8743     0.7577    35.9784 </r>
       <r>     9.0365     0.0700    35.9897 </r>
       <r>     9.1988     0.0653    36.0003 </r>
       <r>     9.3610    -0.0020    36.0000 </r>
       <r>     9.5232    -0.0000    36.0000 </r>
       <r>     9.6855    -0.0000    36.0000 </r>
       <r>     9.8477    -0.0000    36.0000 </r>
       <r>    10.0100     0.0000    36.0000 </r>
       <r>    10.1722     0.0000    36.0000 </r>
       <r>    10.3344     0.0000    36.0000 </r>
       <r>    10.4967     0.0000    36.0000 </r>
       <r>    10.6589     0.0000    36.0000 </r>
       <r>    10.8211     0.0000    36.0000 </r>
       <r>    10.9834     0.0000    36.0000 </r>
       <r>    11.1456     0.0000    36.0000 </r>
       <r>    11.3079     0.0000    36.0000 </r>
      </set>
      <set comment="spin 2">
       <r>   -37.3635     0.0000     0.0000 </r>
       <r>   -37.2013     0.0000     0.0000 </r>
       <r>   -37.0390     0.0000     0.0000 </r>
       <r>   -36.8768     0.0000     0.0000 </r>
       <r>   -36.7146     0.0000     0.0000 </r>
       <r>   -36.5523     0.0000     0.0000 </r>
       <r>   -36.3901     0.0000     0.0000 </r>
       <r>   -36.2279     0.0000     0.0000 </r>
       <r>   -36.0656    -0.0000    -0.0000 </r>
       <r>   -35.9034    -0.0000    -0.0000 </r>
       <r>   -35.7411    -0.0000    -0.0000 </r>
       <r>   -35.5789    -0.0000    -0.0000 </r>
       <r>   -35.4167    -0.0009    -0.0001 </r>
       <r>   -35.2544    -0.1942    -0.0317 </r>
       <r>   -35.0922     4.3225     0.6696 </r>
       <r>   -34.9300    15.7232     3.2205 </r>
       <r>   -34.7677    17.2067     6.0121 </r>
       <r>   -34.6055    -0.0516     6.0037 </r>
       <r>   -34.4432    -0.0230     6.0000 </r>
       <r>   -34.2810    -0.0000     6.0000 </r>
       <r>   -34.1188    -0.0000     6.0000 </r>
       <r>   -33.9565     0.0000     6.0000 </r>
       <r>   -33.7943     0.0000     6.0000 </r>
       <r>   -33.6321     0.0000     6.0000 </r>
       <r>   -33.4698     0.0000     6.0000 </r>
       <r>   -33.3076     0.0000     6.0000 </r>
       <r>   -33.1453     0.0000     6.0000 </r>
       <r>   -32.9831     0.0000     6.0000 </r>
       <r>   -32.8209     0.0000     6.0000 </r>
       <r>   -32.6586     0.0000     6.0000 </r>
       <r>   -32.4964     0.0000     6.0000 </r>
       <r>   -32.3341     0.0000     6.0000 </r>
       <r>   -32.1719     0.0000     6.0000 </r>
       <r>   -32.0097     0.0000     6.0000 </r>
       <r>   -31.8474     0.0000     6.0000 </r>
       <r>   -31.6852     0.0000     6.0000 </r>
       <r>   -31.5230     0.0000     6.0000 </r>
       <r>   -31.3607     0.0000     6.0000 </r>
       <r>   -31.1985     0.0000     6.0000 </r>
       <r>   -31.0362     0.0000     6.0000 </r>
       <r>   -30.8740     0.0000     6.0000 </r>
       <r>   -30.7118     0.0000     6.0000 </r>
       <r>   -30.5495     0.0000     6.0000 </r>
       <r>   -30.3873     0.0000     6.0000 </r>
       <r>   -30.2251     0.0000     6.0000 </r>
       <r>   -30.0628     0.0000     6.0000 </r>
       <r>   -29.9006     0.0000     6.0000 </r>
       <r>   -29.7383     0.0000     6.0000 </r>
       <r>   -29.5761     0.0000     6.0000 </r>
       <r>   -29.4139     0.0000     6.0000 </r>
       <r>   -29.2516     0.0000     6.0000 </r>
       <r>   -29.0894     0.0000     6.0000 </r>
       <r>   -28.9272     0.0000     6.0000 </r>
       <r>   -28.7649     0.0000     6.0000 </r>
       <r>   -28.6027     0.0000     6.0000 </r>
       <r>   -28.4404     0.0000     6.0000 </r>
       <r>   -28.2782     0.0000     6.0000 </r>
       <r>   -28.1160     0.0000     6.0000 </r>
       <r>   -27.9537     0.0000     6.0000 </r>
       <r>   -27.7915     0.0000     6.0000 </r>
       <r>   -27.6292     0.0000     6.0000 </r>
       <r>   -27.4670     0.0000     6.0000 </r>
       <r>   -27.3048     0.0000     6.0000 </r>
       <r>   -27.1425     0.0000     6.0000 </r>
       <r>   -26.9803     0.0000     6.0000 </r>
       <r>   -26.8181     0.0000     6.0000 </r>
       <r>   -26.6558     0.0000     6.0000 </r>
       <r>   -26.4936     0.0000     6.0000 </r>
       <r>   -26.3313     0.0000     6.0000 </r>
       <r>   -26.1691     0.0000     6.0000 </r>
       <r>   -26.0069     0.0000     6.0000 </r>
       <r>   -25.8446     0.0000     6.0000 </r>
       <r>   -25.6824     0.0000     6.0000 </r>
       <r>   -25.5202     0.0000     6.0000 </r>
       <r>   -25.3579     0.0000     6.0000 </r>
       <r>   -25.1957     0.0000     6.0000 </r>
       <r>   -25.0334     0.0000     6.0000 </r>
       <r>   -24.8712     0.0000     6.0000 </r>
       <r>   -24.7090     0.0000     6.0000 </r>
       <r>   -24.5467     0.0000     6.0000 </r>
       <r>   -24.3845     0.0000     6.0000 </r>
       <r>   -24.2223     0.0000     6.0000 </r>
       <r>   -24.0600     0.0000     6.0000 </r>
       <r>   -23.8978     0.0000     6.0000 </r>
       <r>   -23.7355     0.0000     6.0000 </r>
       <r>   -23.5733     0.0000     6.0000 </r>
       <r>   -23.4111     0.0000     6.0000 </r>
       <r>   -23.2488     0.0000     6.0000 </r>
       <r>   -23.0866     0.0000     6.0000 </r>
       <r>   -22.9243     0.0000     6.0000 </r>
       <r>   -22.7621     0.0000     6.0000 </r>
       <r>   -22.5999     0.0000     6.0000 </r>
       <r>   -22.4376     0.0000     6.0000 </r>
       <r>   -22.2754     0.0000     6.0000 </r>
       <r>   -22.1132     0.0000     6.0000 </r>
       <r>   -21.9509     0.0000     6.0000 </r>
       <r>   -21.7887     0.0000     6.0000 </r>
       <r>   -21.6264     0.0000     6.0000 </r>
       <r>   -21.4642     0.0000     6.0000 </r>
       <r>   -21.3020     0.0000     6.0000 </r>
       <r>   -21.1397     0.0000     6.0000 </r>
       <r>   -20.9775     0.0000     6.0000 </r>
       <r>   -20.8153     0.0000     6.0000 </r>
       <r>   -20.6530     0.0000     6.0000 </r>
       <r>   -20.4908     0.0000     6.0000 </r>
       <r>   -20.3285     0.0000     6.0000 </r>
       <r>   -20.1663     0.0000     6.0000 </r>
       <r>   -20.0041     0.0000     6.0000 </r>
       <r>   -19.8418     0.0000     6.0000 </r>
       <r>   -19.6796     0.0000     6.0000 </r>
       <r>   -19.5174     0.0000     6.0000 </r>
       <r>   -19.3551     0.0000     6.0000 </r>
       <r>   -19.1929     0.0000     6.0000 </r>
       <r>   -19.0306     0.0000     6.0000 </r>
       <r>   -18.8684     0.0000     6.0000 </r>
       <r>   -18.7062     0.0000     6.0000 </r>
       <r>   -18.5439     0.0000     6.0000 </r>
       <r>   -18.3817     0.0000     6.0000 </r>
       <r>   -18.2194     0.0000     6.0000 </r>
       <r>   -18.0572     0.0000     6.0000 </r>
       <r>   -17.8950     0.0000     6.0000 </r>
       <r>   -17.7327     0.0000     6.0000 </r>
       <r>   -17.5705     0.0000     6.0000 </r>
       <r>   -17.4083     0.0000     6.0000 </r>
       <r>   -17.2460     0.0000     6.0000 </r>
       <r>   -17.0838     0.0000     6.0000 </r>
       <r>   -16.9215     0.0000     6.0000 </r>
       <r>   -16.7593     0.0000     6.0000 </r>
       <r>   -16.5971     0.0000     6.0000 </r>
       <r>   -16.4348     0.0000     6.0000 </r>
       <r>   -16.2726     0.0000     6.0000 </r>
       <r>   -16.1104     0.0000     6.0000 </r>
       <r>   -15.9481     0.0000     6.0000 </r>
       <r>   -15.7859     0.0000     6.0000 </r>
       <r>   -15.6236     0.0000     6.0000 </r>
       <r>   -15.4614     0.0000     6.0000 </r>
       <r>   -15.2992     0.0000     6.0000 </r>
       <r>   -15.1369     0.0000     6.0000 </r>
       <r>   -14.9747     0.0000     6.0000 </r>
       <r>   -14.8125    -0.0000     6.0000 </r>
       <r>   -14.6502    -0.0000     6.0000 </r>
       <r>   -14.4880    -0.0000     6.0000 </r>
       <r>   -14.3257    -0.0000     6.0000 </r>
       <r>   -14.1635    -0.0005     5.9999 </r>
       <r>   -14.0013    -0.0005     5.9998 </r>
       <r>   -13.8390     0.3410     6.0552 </r>
       <r>   -13.6768     0.4830     6.1335 </r>
       <r>   -13.5145     0.5438     6.2218 </r>
       <r>   -13.3523     0.6165     6.3218 </r>
       <r>   -13.1901     0.6279     6.4236 </r>
       <r>   -13.0278     0.4396     6.4950 </r>
       <r>   -12.8656     1.0081     6.6585 </r>
       <r>   -12.7034     0.4723     6.7351 </r>
       <r>   -12.5411     2.1068     7.0769 </r>
       <r>   -12.3789     2.0893     7.4159 </r>
       <r>   -12.2166     3.2619     7.9451 </r>
       <r>   -12.0544     4.0511     8.6024 </r>
       <r>   -11.8922     5.6674     9.5218 </r>
       <r>   -11.7299     2.9319     9.9975 </r>
       <r>   -11.5677     0.0207    10.0008 </r>
       <r>   -11.4055    -0.0052    10.0000 </r>
       <r>   -11.2432    -0.0000    10.0000 </r>
       <r>   -11.0810    -0.0000    10.0000 </r>
       <r>   -10.9187     0.0000    10.0000 </r>
       <r>   -10.7565     0.0000    10.0000 </r>
       <r>   -10.5943     0.0000    10.0000 </r>
       <r>   -10.4320     0.0000    10.0000 </r>
       <r>   -10.2698     0.0000    10.0000 </r>
       <r>   -10.1076     0.0000    10.0000 </r>
       <r>    -9.9453     0.0000    10.0000 </r>
       <r>    -9.7831     0.0000    10.0000 </r>
       <r>    -9.6208     0.0000    10.0000 </r>
       <r>    -9.4586     0.0000    10.0000 </r>
       <r>    -9.2964     0.0000    10.0000 </r>
       <r>    -9.1341     0.0000    10.0000 </r>
       <r>    -8.9719     0.0000    10.0000 </r>
       <r>    -8.8096     0.0000    10.0000 </r>
       <r>    -8.6474     0.0000    10.0000 </r>
       <r>    -8.4852     0.0000    10.0000 </r>
       <r>    -8.3229     0.0000    10.0000 </r>
       <r>    -8.1607     0.0000    10.0000 </r>
       <r>    -7.9985     0.0000    10.0000 </r>
       <r>    -7.8362     0.0000    10.0000 </r>
       <r>    -7.6740     0.0000    10.0000 </r>
       <r>    -7.5117     0.0000    10.0000 </r>
       <r>    -7.3495     0.0000    10.0000 </r>
       <r>    -7.1873     0.0000    10.0000 </r>
       <r>    -7.0250     0.0000    10.0000 </r>
       <r>    -6.8628     0.0000    10.0000 </r>
       <r>    -6.7006     0.0000    10.0000 </r>
       <r>    -6.5383    -0.0000    10.0000 </r>
       <r>    -6.3761    -0.0000    10.0000 </r>
       <r>    -6.2138    -0.0000    10.0000 </r>
       <r>    -6.0516    -0.0000    10.0000 </r>
       <r>    -5.8894    -0.0018     9.9997 </r>
       <r>    -5.7271     0.0136    10.0019 </r>
       <r>    -5.5649     0.9209    10.1513 </r>
       <r>    -5.4027     1.4134    10.3806 </r>
       <r>    -5.2404     2.3472    10.7614 </r>
       <r>    -5.0782     3.3006    11.2969 </r>
       <r>    -4.9159     4.6572    12.0525 </r>
       <r>    -4.7537     2.1963    12.4088 </r>
       <r>    -4.5915     2.5978    12.8303 </r>
       <r>    -4.4292     0.8094    12.9616 </r>
       <r>    -4.2670     0.5570    13.0520 </r>
       <r>    -4.1047     1.0185    13.2172 </r>
       <r>    -3.9425     2.5640    13.6332 </r>
       <r>    -3.7803     4.2964    14.3302 </r>
       <r>    -3.6180     3.7898    14.9451 </r>
       <r>    -3.4558     2.5497    15.3587 </r>
       <r>    -3.2936     1.4091    15.5873 </r>
       <r>    -3.1313     4.4692    16.3124 </r>
       <r>    -2.9691     4.8205    17.0945 </r>
       <r>    -2.8068     2.5747    17.5122 </r>
       <r>    -2.6446     1.3219    17.7267 </r>
       <r>    -2.4824     1.3229    17.9413 </r>
       <r>    -2.3201     1.8487    18.2412 </r>
       <r>    -2.1579     2.0850    18.5795 </r>
       <r>    -1.9957     4.1625    19.2548 </r>
       <r>    -1.8334     2.6502    19.6848 </r>
       <r>    -1.6712     3.1892    20.2022 </r>
       <r>    -1.5089     2.8960    20.6720 </r>
       <r>    -1.3467     3.4555    21.2326 </r>
       <r>    -1.1845     1.5399    21.4825 </r>
       <r>    -1.0222     1.8137    21.7767 </r>
       <r>    -0.8600     2.3211    22.1533 </r>
       <r>    -0.6978     3.5675    22.7321 </r>
       <r>    -0.5355     2.6493    23.1619 </r>
       <r>    -0.3733     2.3766    23.5475 </r>
       <r>    -0.2110     1.5379    23.7970 </r>
       <r>    -0.0488     0.7760    23.9229 </r>
       <r>     0.1134     0.2454    23.9627 </r>
       <r>     0.2757     0.2274    23.9996 </r>
       <r>     0.4379     0.0032    24.0001 </r>
       <r>     0.6002    -0.0005    24.0000 </r>
       <r>     0.7624    -0.0000    24.0000 </r>
       <r>     0.9246    -0.0000    24.0000 </r>
       <r>     1.0869    -0.0000    24.0000 </r>
       <r>     1.2491    -0.0000    24.0000 </r>
       <r>     1.4113    -0.0002    24.0000 </r>
       <r>     1.5736    -0.0228    23.9963 </r>
       <r>     1.7358     0.5640    24.0878 </r>
       <r>     1.8981     1.6455    24.3547 </r>
       <r>     2.0603     3.6026    24.9392 </r>
       <r>     2.2225     5.0668    25.7612 </r>
       <r>     2.3848     3.7346    26.3671 </r>
       <r>     2.5470     5.2255    27.2149 </r>
       <r>     2.7092     4.3411    27.9192 </r>
       <r>     2.8715     3.1776    28.4347 </r>
       <r>     3.0337     2.7002    28.8728 </r>
       <r>     3.1960     2.7318    29.3160 </r>
       <r>     3.3582     2.0132    29.6426 </r>
       <r>     3.5204     1.8084    29.9360 </r>
       <r>     3.6827     1.7381    30.2180 </r>
       <r>     3.8449     1.1836    30.4100 </r>
       <r>     4.0071     2.0938    30.7497 </r>
       <r>     4.1694     2.7574    31.1971 </r>
       <r>     4.3316     1.9657    31.5160 </r>
       <r>     4.4939     1.6468    31.7832 </r>
       <r>     4.6561     0.7186    31.8997 </r>
       <r>     4.8183     0.5118    31.9828 </r>
       <r>     4.9806     0.1118    32.0009 </r>
       <r>     5.1428    -0.0065    31.9999 </r>
       <r>     5.3051     0.0101    32.0015 </r>
       <r>     5.4673     0.2248    32.0380 </r>
       <r>     5.6295     0.2947    32.0858 </r>
       <r>     5.7918     0.4136    32.1529 </r>
       <r>     5.9540     0.7331    32.2718 </r>
       <r>     6.1162     0.3449    32.3278 </r>
       <r>     6.2785     1.0177    32.4929 </r>
       <r>     6.4407     0.9950    32.6543 </r>
       <r>     6.6030     0.5517    32.7438 </r>
       <r>     6.7652     1.4664    32.9817 </r>
       <r>     6.9274     1.4677    33.2198 </r>
       <r>     7.0897     1.4164    33.4496 </r>
       <r>     7.2519     0.8994    33.5955 </r>
       <r>     7.4141     1.9843    33.9174 </r>
       <r>     7.5764     1.8672    34.2204 </r>
       <r>     7.7386     0.4980    34.3012 </r>
       <r>     7.9009     1.5311    34.5496 </r>
       <r>     8.0631     1.5440    34.8001 </r>
       <r>     8.2253     2.4662    35.2002 </r>
       <r>     8.3876     1.5739    35.4555 </r>
       <r>     8.5498     1.0838    35.6314 </r>
       <r>     8.7120     0.9875    35.7916 </r>
       <r>     8.8743     0.6679    35.8999 </r>
       <r>     9.0365     0.4052    35.9657 </r>
       <r>     9.1988     0.2212    36.0015 </r>
       <r>     9.3610    -0.0095    36.0000 </r>
       <r>     9.5232    -0.0000    36.0000 </r>
       <r>     9.6855    -0.0000    36.0000 </r>
       <r>     9.8477     0.0000    36.0000 </r>
       <r>    10.0100     0.0000    36.0000 </r>
       <r>    10.1722     0.0000    36.0000 </r>
       <r>    10.3344     0.0000    36.0000 </r>
       <r>    10.4967     0.0000    36.0000 </r>
       <r>    10.6589     0.0000    36.0000 </r>
       <r>    10.8211     0.0000    36.0000 </r>
       <r>    10.9834     0.0000    36.0000 </r>
       <r>    11.1456     0.0000    36.0000 </r>
       <r>    11.3079     0.0000    36.0000 </r>
      </set>
     </set>
    </array>
   </total>
  </dos>
 </calculation>
 <structure name="finalpos" >
  <crystal>
   <varray name="basis" >
    <v>       3.19031700       0.00000000       0.00000000 </v>
    <v>      -1.59515800       2.76289700       0.00000000 </v>
    <v>       0.00000000       0.00000000      23.14049200 </v>
   </varray>
   <i name="volume">    203.97226633 </i>
   <varray name="rec_basis" >
    <v>       0.31344848       0.18096941       0.00000000 </v>
    <v>       0.00000000       0.36193894       0.00000000 </v>
    <v>       0.00000000       0.00000000       0.04321429 </v>
   </varray>
  </crystal>
  <varray name="positions" >
   <v>       0.66666700       0.33333300       0.06785900 </v>
   <v>       0.33333300       0.66666700       0.00000000 </v>
   <v>       0.33333300       0.66666700       0.13571500 </v>
   <v>       0.66666700       0.47619014       0.35482300 </v>
   <v>       0.33333300       0.80952414       0.28696500 </v>
   <v>       0.33333300       0.80952414       0.42267900 </v>
  </varray>
 </structure>
</modeling>
