<?xml version="1.0" encoding="ISO-8859-1"?>
<modeling>
 <generator>
  <i name="program" type="string">vasp </i>
  <i name="version" type="string">5.4.1  </i>
  <i name="subversion" type="string">24Jun15 (build May 10 2016 14:18:23) complex                          parallel </i>
  <i name="platform" type="string">IFC91_ompi </i>
  <i name="date" type="string">2016 12 09 </i>
  <i name="time" type="string">15:00:39 </i>
 </generator>
 <incar>
  <i type="string" name="PREC">accurate</i>
  <i type="string" name="ALGO"> Fast</i>
  <i type="int" name="ISPIN">     2</i>
  <i type="int" name="IBRION">     2</i>
  <i name="EDIFF">      0.00010000</i>
  <i type="int" name="NSW">     0</i>
  <i type="int" name="ISIF">     3</i>
  <i name="ENCUT">    500.00000000</i>
  <v name="MAGMOM">      6.00000000      0.50000000      0.50000000      6.00000000      0.50000000      0.50000000</v>
  <i type="string" name="LREAL"> Auto</i>
  <i type="int" name="ISMEAR">     1</i>
  <i name="SIGMA">      0.10000000</i>
  <i type="logical" name="LWAVE"> F  </i>
  <i type="logical" name="LCHARG"> F  </i>
  <i type="logical" name="LVTOT"> T  </i>
  <i type="logical" name="LVHAR"> T  </i>
  <i type="logical" name="LAECHG"> F  </i>
  <v type="int" name="KPOINT_BSE">    -1     0     0     0</v>
  <i type="string" name="GGA"> Bo</i>
  <i name="PARAM1">      0.18333333</i>
  <i name="PARAM2">      0.22000000</i>
  <i type="logical" name="LUSE_VDW"> T  </i>
  <i name="AGGAC">      0.00000000</i>
 </incar>
 <kpoints>
  <generation param="Gamma">
   <v type="int" name="divisions">      13       13        1 </v>
   <v name="usershift">      0.00000000       0.00000000       0.00000000 </v>
   <v name="genvec1">      0.07692308       0.00000000       0.00000000 </v>
   <v name="genvec2">      0.00000000       0.07692308       0.00000000 </v>
   <v name="genvec3">      0.00000000       0.00000000       1.00000000 </v>
   <v name="shift">      0.00000000       0.00000000       0.00000000 </v>
  </generation>
  <varray name="kpointlist" >
   <v>       0.00000000       0.00000000       0.00000000 </v>
   <v>       0.07692308      -0.00000000       0.00000000 </v>
   <v>       0.15384615       0.00000000       0.00000000 </v>
   <v>       0.23076923       0.00000000       0.00000000 </v>
   <v>       0.30769231      -0.00000000       0.00000000 </v>
   <v>       0.38461538       0.00000000       0.00000000 </v>
   <v>       0.46153846       0.00000000       0.00000000 </v>
   <v>       0.00000000       0.07692308       0.00000000 </v>
   <v>       0.07692308       0.07692308       0.00000000 </v>
   <v>       0.15384615       0.07692308       0.00000000 </v>
   <v>       0.23076923       0.07692308       0.00000000 </v>
   <v>       0.30769231       0.07692308       0.00000000 </v>
   <v>       0.38461538       0.07692308       0.00000000 </v>
   <v>       0.46153846       0.07692308       0.00000000 </v>
   <v>      -0.46153846       0.07692308       0.00000000 </v>
   <v>      -0.38461538       0.07692308       0.00000000 </v>
   <v>      -0.30769231       0.07692308       0.00000000 </v>
   <v>      -0.23076923       0.07692308       0.00000000 </v>
   <v>      -0.15384615       0.07692308       0.00000000 </v>
   <v>      -0.07692308       0.07692308       0.00000000 </v>
   <v>       0.00000000       0.15384615       0.00000000 </v>
   <v>       0.07692308       0.15384615       0.00000000 </v>
   <v>       0.15384615       0.15384615       0.00000000 </v>
   <v>       0.23076923       0.15384615       0.00000000 </v>
   <v>       0.30769231       0.15384615       0.00000000 </v>
   <v>       0.38461538       0.15384615       0.00000000 </v>
   <v>       0.46153846       0.15384615       0.00000000 </v>
   <v>      -0.46153846       0.15384615       0.00000000 </v>
   <v>      -0.38461538       0.15384615       0.00000000 </v>
   <v>      -0.30769231       0.15384615       0.00000000 </v>
   <v>      -0.23076923       0.15384615       0.00000000 </v>
   <v>      -0.15384615       0.15384615       0.00000000 </v>
   <v>      -0.07692308       0.15384615       0.00000000 </v>
   <v>       0.00000000       0.23076923       0.00000000 </v>
   <v>       0.07692308       0.23076923       0.00000000 </v>
   <v>       0.15384615       0.23076923       0.00000000 </v>
   <v>       0.23076923       0.23076923       0.00000000 </v>
   <v>       0.30769231       0.23076923       0.00000000 </v>
   <v>       0.38461538       0.23076923       0.00000000 </v>
   <v>       0.46153846       0.23076923       0.00000000 </v>
   <v>      -0.46153846       0.23076923       0.00000000 </v>
   <v>      -0.38461538       0.23076923       0.00000000 </v>
   <v>      -0.30769231       0.23076923       0.00000000 </v>
   <v>      -0.23076923       0.23076923       0.00000000 </v>
   <v>      -0.15384615       0.23076923       0.00000000 </v>
   <v>      -0.07692308       0.23076923       0.00000000 </v>
   <v>       0.00000000       0.30769231       0.00000000 </v>
   <v>       0.07692308       0.30769231       0.00000000 </v>
   <v>       0.15384615       0.30769231       0.00000000 </v>
   <v>       0.23076923       0.30769231       0.00000000 </v>
   <v>       0.30769231       0.30769231       0.00000000 </v>
   <v>       0.38461538       0.30769231       0.00000000 </v>
   <v>       0.46153846       0.30769231       0.00000000 </v>
   <v>      -0.46153846       0.30769231       0.00000000 </v>
   <v>      -0.38461538       0.30769231       0.00000000 </v>
   <v>      -0.30769231       0.30769231       0.00000000 </v>
   <v>      -0.23076923       0.30769231       0.00000000 </v>
   <v>      -0.15384615       0.30769231       0.00000000 </v>
   <v>      -0.07692308       0.30769231       0.00000000 </v>
   <v>       0.00000000       0.38461538       0.00000000 </v>
   <v>       0.07692308       0.38461538       0.00000000 </v>
   <v>       0.15384615       0.38461538       0.00000000 </v>
   <v>       0.23076923       0.38461538       0.00000000 </v>
   <v>       0.30769231       0.38461538       0.00000000 </v>
   <v>       0.38461538       0.38461538       0.00000000 </v>
   <v>       0.46153846       0.38461538       0.00000000 </v>
   <v>      -0.46153846       0.38461538       0.00000000 </v>
   <v>      -0.38461538       0.38461538       0.00000000 </v>
   <v>      -0.30769231       0.38461538       0.00000000 </v>
   <v>      -0.23076923       0.38461538       0.00000000 </v>
   <v>      -0.15384615       0.38461538       0.00000000 </v>
   <v>      -0.07692308       0.38461538       0.00000000 </v>
   <v>       0.00000000       0.46153846       0.00000000 </v>
   <v>       0.07692308       0.46153846       0.00000000 </v>
   <v>       0.15384615       0.46153846       0.00000000 </v>
   <v>       0.23076923       0.46153846       0.00000000 </v>
   <v>       0.30769231       0.46153846       0.00000000 </v>
   <v>       0.38461538       0.46153846       0.00000000 </v>
   <v>       0.46153846       0.46153846       0.00000000 </v>
   <v>      -0.46153846       0.46153846       0.00000000 </v>
   <v>      -0.38461538       0.46153846       0.00000000 </v>
   <v>      -0.30769231       0.46153846       0.00000000 </v>
   <v>      -0.23076923       0.46153846       0.00000000 </v>
   <v>      -0.15384615       0.46153846       0.00000000 </v>
   <v>      -0.07692308       0.46153846       0.00000000 </v>
  </varray>
  <varray name="weights" >
   <v>       0.00591716 </v>
   <v>       0.01183432 </v>
   <v>       0.01183432 </v>
   <v>       0.01183432 </v>
   <v>       0.01183432 </v>
   <v>       0.01183432 </v>
   <v>       0.01183432 </v>
   <v>       0.01183432 </v>
   <v>       0.01183432 </v>
   <v>       0.01183432 </v>
   <v>       0.01183432 </v>
   <v>       0.01183432 </v>
   <v>       0.01183432 </v>
   <v>       0.01183432 </v>
   <v>       0.01183432 </v>
   <v>       0.01183432 </v>
   <v>       0.01183432 </v>
   <v>       0.01183432 </v>
   <v>       0.01183432 </v>
   <v>       0.01183432 </v>
   <v>       0.01183432 </v>
   <v>       0.01183432 </v>
   <v>       0.01183432 </v>
   <v>       0.01183432 </v>
   <v>       0.01183432 </v>
   <v>       0.01183432 </v>
   <v>       0.01183432 </v>
   <v>       0.01183432 </v>
   <v>       0.01183432 </v>
   <v>       0.01183432 </v>
   <v>       0.01183432 </v>
   <v>       0.01183432 </v>
   <v>       0.01183432 </v>
   <v>       0.01183432 </v>
   <v>       0.01183432 </v>
   <v>       0.01183432 </v>
   <v>       0.01183432 </v>
   <v>       0.01183432 </v>
   <v>       0.01183432 </v>
   <v>       0.01183432 </v>
   <v>       0.01183432 </v>
   <v>       0.01183432 </v>
   <v>       0.01183432 </v>
   <v>       0.01183432 </v>
   <v>       0.01183432 </v>
   <v>       0.01183432 </v>
   <v>       0.01183432 </v>
   <v>       0.01183432 </v>
   <v>       0.01183432 </v>
   <v>       0.01183432 </v>
   <v>       0.01183432 </v>
   <v>       0.01183432 </v>
   <v>       0.01183432 </v>
   <v>       0.01183432 </v>
   <v>       0.01183432 </v>
   <v>       0.01183432 </v>
   <v>       0.01183432 </v>
   <v>       0.01183432 </v>
   <v>       0.01183432 </v>
   <v>       0.01183432 </v>
   <v>       0.01183432 </v>
   <v>       0.01183432 </v>
   <v>       0.01183432 </v>
   <v>       0.01183432 </v>
   <v>       0.01183432 </v>
   <v>       0.01183432 </v>
   <v>       0.01183432 </v>
   <v>       0.01183432 </v>
   <v>       0.01183432 </v>
   <v>       0.01183432 </v>
   <v>       0.01183432 </v>
   <v>       0.01183432 </v>
   <v>       0.01183432 </v>
   <v>       0.01183432 </v>
   <v>       0.01183432 </v>
   <v>       0.01183432 </v>
   <v>       0.01183432 </v>
   <v>       0.01183432 </v>
   <v>       0.01183432 </v>
   <v>       0.01183432 </v>
   <v>       0.01183432 </v>
   <v>       0.01183432 </v>
   <v>       0.01183432 </v>
   <v>       0.01183432 </v>
   <v>       0.01183432 </v>
  </varray>
 </kpoints>
 <parameters>
  <separator name="general" >
   <i type="string" name="SYSTEM">unknown system</i>
   <i type="logical" name="LCOMPAT"> F  </i>
  </separator>
  <separator name="electronic" >
   <i type="string" name="PREC">accura</i>
   <i name="ENMAX">    500.00000000</i>
   <i name="ENAUG">    392.42700000</i>
   <i name="EDIFF">      0.00010000</i>
   <i type="int" name="IALGO">    68</i>
   <i type="int" name="IWAVPR">    10</i>
   <i type="int" name="NBANDS">    36</i>
   <i name="NELECT">     48.00000000</i>
   <i type="int" name="TURBO">     0</i>
   <i type="int" name="IRESTART">     0</i>
   <i type="int" name="NREBOOT">     0</i>
   <i type="int" name="NMIN">     0</i>
   <i name="EREF">      0.00000000</i>
   <separator name="electronic smearing" >
    <i type="int" name="ISMEAR">     1</i>
    <i name="SIGMA">      0.10000000</i>
    <i name="KSPACING">      0.50000000</i>
    <i type="logical" name="KGAMMA"> T  </i>
   </separator>
   <separator name="electronic projectors" >
    <i type="logical" name="LREAL"> T  </i>
    <v name="ROPT">     -0.00025000     -0.00025000     -0.00025000     -0.00025000</v>
    <i type="int" name="LMAXPAW">  -100</i>
    <i type="int" name="LMAXMIX">     2</i>
    <i type="logical" name="NLSPLINE"> F  </i>
   </separator>
   <separator name="electronic startup" >
    <i type="int" name="ISTART">     0</i>
    <i type="int" name="ICHARG">     2</i>
    <i type="int" name="INIWAV">     1</i>
   </separator>
   <separator name="electronic spin" >
    <i type="int" name="ISPIN">     2</i>
    <i type="logical" name="LNONCOLLINEAR"> F  </i>
    <v name="MAGMOM">      6.00000000      0.50000000      0.50000000      6.00000000      0.50000000      0.50000000</v>
    <i name="NUPDOWN">     -1.00000000</i>
    <i type="logical" name="LSORBIT"> F  </i>
    <v name="SAXIS">      0.00000000      0.00000000      1.00000000</v>
    <i type="logical" name="LSPIRAL"> F  </i>
    <v name="QSPIRAL">      0.00000000      0.00000000      0.00000000</v>
    <i type="logical" name="LZEROZ"> F  </i>
   </separator>
   <separator name="electronic exchange-correlation" >
    <i type="logical" name="LASPH"> F  </i>
    <i type="logical" name="LMETAGGA"> F  </i>
   </separator>
   <separator name="electronic convergence" >
    <i type="int" name="NELM">    60</i>
    <i type="int" name="NELMDL">     0</i>
    <i type="int" name="NELMIN">     2</i>
    <i name="ENINI">    500.00000000</i>
    <separator name="electronic convergence detail" >
     <i type="logical" name="LDIAG"> T  </i>
     <i type="logical" name="LSUBROT"> F  </i>
     <i name="WEIMIN">      0.00000000</i>
     <i name="EBREAK">      0.00000069</i>
     <i name="DEPER">      0.30000000</i>
     <i type="int" name="NRMM">     4</i>
     <i name="TIME">      0.40000000</i>
    </separator>
   </separator>
   <separator name="electronic mixer" >
    <i name="AMIX">      0.40000000</i>
    <i name="BMIX">      1.00000000</i>
    <i name="AMIN">      0.10000000</i>
    <i name="AMIX_MAG">      1.60000000</i>
    <i name="BMIX_MAG">      1.00000000</i>
    <separator name="electronic mixer details" >
     <i type="int" name="IMIX">     4</i>
     <i type="logical" name="MIXFIRST"> F  </i>
     <i type="int" name="MAXMIX">   -45</i>
     <i name="WC">    100.00000000</i>
     <i type="int" name="INIMIX">     1</i>
     <i type="int" name="MIXPRE">     1</i>
     <i type="int" name="MREMOVE">     5</i>
    </separator>
   </separator>
   <separator name="electronic dipolcorrection" >
    <i type="logical" name="LDIPOL"> F  </i>
    <i type="logical" name="LMONO"> F  </i>
    <i type="int" name="IDIPOL">     0</i>
    <i name="EPSILON">      1.00000000</i>
    <v name="DIPOL">   -100.00000000   -100.00000000   -100.00000000</v>
    <i name="EFIELD">      0.00000000</i>
   </separator>
  </separator>
  <separator name="grids" >
   <i type="int" name="NGX">    24</i>
   <i type="int" name="NGY">    24</i>
   <i type="int" name="NGZ">   180</i>
   <i type="int" name="NGXF">    48</i>
   <i type="int" name="NGYF">    48</i>
   <i type="int" name="NGZF">   360</i>
   <i type="logical" name="ADDGRID"> F  </i>
  </separator>
  <separator name="ionic" >
   <i type="int" name="NSW">     0</i>
   <i type="int" name="IBRION">    -1</i>
   <i type="int" name="ISIF">     3</i>
   <i name="PSTRESS">      0.00000000</i>
   <i name="EDIFFG">      0.00100000</i>
   <i type="int" name="NFREE">     1</i>
   <i name="POTIM">      0.50000000</i>
   <i name="SMASS">     -3.00000000</i>
   <i name="SCALEE">      1.00000000</i>
  </separator>
  <separator name="ionic md" >
   <i name="TEBEG">      0.00010000</i>
   <i name="TEEND">      0.00010000</i>
   <i type="int" name="NBLOCK">     1</i>
   <i type="int" name="KBLOCK">     1</i>
   <i type="int" name="NPACO">   256</i>
   <i name="APACO">     16.00000000</i>
  </separator>
  <separator name="symmetry" >
   <i type="int" name="ISYM">     2</i>
   <i name="SYMPREC">      0.00001000</i>
  </separator>
  <separator name="dos" >
   <i type="logical" name="LORBIT"> F  </i>
   <v name="RWIGS">     -1.00000000     -1.00000000     -1.00000000     -1.00000000</v>
   <i type="int" name="NEDOS">   301</i>
   <i name="EMIN">     10.00000000</i>
   <i name="EMAX">    -10.00000000</i>
   <i name="EFERMI">      0.00000000</i>
  </separator>
  <separator name="writing" >
   <i type="int" name="NWRITE">     2</i>
   <i type="logical" name="LWAVE"> F  </i>
   <i type="logical" name="LCHARG"> F  </i>
   <i type="logical" name="LPARD"> F  </i>
   <i type="logical" name="LVTOT"> F  </i>
   <i type="logical" name="LVHAR"> T  </i>
   <i type="logical" name="LELF"> F  </i>
   <i type="logical" name="LOPTICS"> F  </i>
   <v name="STM">      0.00000000      0.00000000      0.00000000      0.00000000      0.00000000      0.00000000      0.00000000</v>
  </separator>
  <separator name="performance" >
   <i type="int" name="NPAR">     4</i>
   <i type="int" name="NSIM">     4</i>
   <i type="int" name="NBLK">    -1</i>
   <i type="logical" name="LPLANE"> T  </i>
   <i type="logical" name="LSCALAPACK"> T  </i>
   <i type="logical" name="LSCAAWARE"> F  </i>
   <i type="logical" name="LSCALU"> F  </i>
   <i type="logical" name="LASYNC"> F  </i>
   <i type="logical" name="LORBITALREAL"> F  </i>
  </separator>
  <separator name="miscellaneous" >
   <i type="int" name="IDIOT">     3</i>
   <i type="logical" name="LMUSIC"> F  </i>
   <v name="POMASS">     95.94000000     32.06600000     95.94000000     32.06600000</v>
   <v name="DARWINR">      0.00000000      0.00000000      0.00000000      0.00000000</v>
   <v name="DARWINV">      1.00000000      1.00000000      1.00000000      1.00000000</v>
   <i type="logical" name="LCORR"> T  </i>
  </separator>
  <i type="logical" name="GGA_COMPAT"> T  </i>
  <i type="logical" name="LBERRY"> F  </i>
  <i type="int" name="ICORELEVEL">     0</i>
  <i type="logical" name="LDAU"> F  </i>
  <i type="int" name="I_CONSTRAINED_M">     0</i>
  <separator name="electronic exchange-correlation" >
   <i type="string" name="GGA">BO</i>
   <i type="int" name="VOSKOWN">     0</i>
   <i type="logical" name="LHFCALC"> F  </i>
   <i type="string" name="PRECFOCK"></i>
   <i type="logical" name="LSYMGRAD"> F  </i>
   <i type="logical" name="LHFONE"> F  </i>
   <i type="logical" name="LRHFCALC"> F  </i>
   <i type="logical" name="LTHOMAS"> F  </i>
   <i type="logical" name="LMODELHF"> F  </i>
   <i name="ENCUT4O">     -1.00000000</i>
   <i type="int" name="EXXOEP">     0</i>
   <i type="int" name="FOURORBIT">     0</i>
   <i name="AEXX">      0.00000000</i>
   <i name="HFALPHA">      0.00000000</i>
   <i name="MCALPHA">      0.00000000</i>
   <i name="ALDAX">      1.00000000</i>
   <i name="AGGAX">      1.00000000</i>
   <i name="ALDAC">      1.00000000</i>
   <i name="AGGAC">      0.00000000</i>
   <i type="int" name="NKREDX">     1</i>
   <i type="int" name="NKREDY">     1</i>
   <i type="int" name="NKREDZ">     1</i>
   <i type="logical" name="SHIFTRED"> F  </i>
   <i type="logical" name="ODDONLY"> F  </i>
   <i type="logical" name="EVENONLY"> F  </i>
   <i type="int" name="LMAXFOCK">     0</i>
   <i type="int" name="NMAXFOCKAE">     0</i>
   <i type="logical" name="LFOCKAEDFT"> F  </i>
   <i name="HFSCREEN">      0.00000000</i>
   <i name="HFSCREENC">      0.00000000</i>
   <i type="int" name="NBANDSGWLOW">     0</i>
  </separator>
  <separator name="vdW DFT" >
   <i type="logical" name="LUSE_VDW"> T  </i>
   <i name="Zab_VDW">     -0.84910000</i>
   <i name="PARAM1">      0.18333333</i>
   <i name="PARAM2">      0.22000000</i>
   <i name="PARAM3">      0.00000000</i>
  </separator>
  <separator name="model GW" >
   <i type="int" name="MODEL_GW">     0</i>
   <i name="MODEL_EPS0">     20.39722663</i>
   <i name="MODEL_ALPHA">      1.00000000</i>
  </separator>
  <separator name="linear response parameters" >
   <i type="logical" name="LEPSILON"> F  </i>
   <i type="logical" name="LRPA"> F  </i>
   <i type="logical" name="LNABLA"> F  </i>
   <i type="logical" name="LVEL"> F  </i>
   <i type="int" name="KINTER">     0</i>
   <i name="CSHIFT">      0.10000000</i>
   <i name="OMEGAMAX">     -1.00000000</i>
   <i name="DEG_THRESHOLD">      0.00200000</i>
  </separator>
  <separator name="orbital magnetization" >
   <i type="logical" name="NUCIND"> F  </i>
   <v name="MAGPOS">      0.00000000      0.00000000      0.00000000</v>
   <i type="logical" name="LNICSALL"> T  </i>
   <i type="logical" name="ORBITALMAG"> F  </i>
   <i type="logical" name="LMAGBLOCH"> F  </i>
   <i type="logical" name="LCHIMAG"> F  </i>
   <i type="logical" name="LGAUGE"> T  </i>
   <i type="int" name="MAGATOM">     0</i>
   <v name="MAGDIPOL">      0.00000000      0.00000000      0.00000000</v>
   <v name="AVECCONST">      0.00000000      0.00000000      0.00000000</v>
  </separator>
  <separator name="response functions" >
   <i type="logical" name="LADDER"> F  </i>
   <i type="logical" name="LFXC"> F  </i>
   <i type="logical" name="LHARTREE"> T  </i>
   <i type="int" name="IBSE">     0</i>
   <v type="int" name="KPOINT">    -1     0     0     0</v>
   <i type="logical" name="LTCTE"> F  </i>
   <i type="logical" name="LTETE"> F  </i>
   <i type="logical" name="LTRIPLET"> F  </i>
   <i type="logical" name="LFXCEPS"> F  </i>
   <i type="logical" name="LFXHEG"> F  </i>
   <i type="int" name="NATURALO">     0</i>
   <i type="logical" name="L2ORDER"> F  </i>
   <i type="logical" name="LUSEW"> F  </i>
   <i name="ENCUTGW">     -2.00000000</i>
   <i name="ENCUTGWSOFT">     -2.00000000</i>
   <i name="ENCUTLF">     -1.00000000</i>
   <i type="int" name="LMAXMP2">    -1</i>
   <i name="SCISSOR">      0.00000000</i>
   <i type="int" name="NOMEGA">     0</i>
   <i type="int" name="NOMEGAR">     0</i>
   <i type="int" name="NBANDSGW">    -1</i>
   <i type="int" name="NBANDSO">    -1</i>
   <i type="int" name="NBANDSV">    -1</i>
   <i type="int" name="NELM">     1</i>
   <i type="int" name="NELMHF">     1</i>
   <i type="int" name="DIM">     3</i>
   <i type="int" name="ANTIRES">     0</i>
   <i name="OMEGAMAX">    -30.00000000</i>
   <i name="OMEGAMIN">    -30.00000000</i>
   <i name="OMEGATL">   -200.00000000</i>
   <i type="int" name="OMEGAGRID">     0</i>
   <i name="CSHIFT">     -0.10000000</i>
   <i type="logical" name="SELFENERGY"> F  </i>
   <i type="logical" name="LSPECTRAL"> F  </i>
   <i type="logical" name="LSPECTRALGW"> F  </i>
   <i type="logical" name="LSINGLES"> F  </i>
   <i type="logical" name="LFERMIGW"> F  </i>
   <i type="logical" name="ODDONLYGW"> F  </i>
   <i type="logical" name="EVENONLYGW"> F  </i>
   <i type="int" name="NKREDLFX">     1</i>
   <i type="int" name="NKREDLFY">     1</i>
   <i type="int" name="NKREDLFZ">     1</i>
   <i type="int" name="MAXMEM">  1800</i>
   <i type="int" name="TELESCOPE">     0</i>
   <i type="int" name="TAUPAR">     1</i>
   <i type="int" name="OMEGAPAR">    -1</i>
   <i name="LAMBDA">      1.00000000</i>
  </separator>
  <separator name="External order field" >
   <i name="OFIELD_KAPPA">      0.00000000</i>
   <v name="OFIELD_K">      0.00000000      0.00000000      0.00000000</v>
   <i name="OFIELD_Q6_NEAR">      0.00000000</i>
   <i name="OFIELD_Q6_FAR">      0.00000000</i>
   <i name="OFIELD_A">      0.00000000</i>
  </separator>
 </parameters>
 <atominfo>
  <atoms>       6 </atoms>
  <types>       4 </types>
  <array name="atoms" >
   <dimension dim="1">ion</dimension>
   <field type="string">element</field>
   <field type="int">atomtype</field>
   <set>
    <rc><c>Mo</c><c>   1</c></rc>
    <rc><c>S </c><c>   2</c></rc>
    <rc><c>S </c><c>   2</c></rc>
    <rc><c>Mo</c><c>   3</c></rc>
    <rc><c>S </c><c>   4</c></rc>
    <rc><c>S </c><c>   4</c></rc>
   </set>
  </array>
  <array name="atomtypes" >
   <dimension dim="1">type</dimension>
   <field type="int">atomspertype</field>
   <field type="string">element</field>
   <field>mass</field>
   <field>valence</field>
   <field type="string">pseudopotential</field>
   <set>
    <rc><c>   1</c><c>Mo</c><c>     95.94000000</c><c>     12.00000000</c><c> PAW_PBE Mo_pv 08Apr2002                </c></rc>
    <rc><c>   2</c><c>S </c><c>     32.06600000</c><c>      6.00000000</c><c>  PAW_PBE S 17Jan2003                   </c></rc>
    <rc><c>   1</c><c>Mo</c><c>     95.94000000</c><c>     12.00000000</c><c> PAW_PBE Mo_pv 08Apr2002                </c></rc>
    <rc><c>   2</c><c>S </c><c>     32.06600000</c><c>      6.00000000</c><c>  PAW_PBE S 17Jan2003                   </c></rc>
   </set>
  </array>
 </atominfo>
 <structure name="initialpos" >
  <crystal>
   <varray name="basis" >
    <v>       3.19031700       0.00000000       0.00000000 </v>
    <v>      -1.59515800       2.76289700       0.00000000 </v>
    <v>       0.00000000       0.00000000      23.14049200 </v>
   </varray>
   <i name="volume">    203.97226633 </i>
   <varray name="rec_basis" >
    <v>       0.31344848       0.18096941       0.00000000 </v>
    <v>       0.00000000       0.36193894       0.00000000 </v>
    <v>       0.00000000       0.00000000       0.04321429 </v>
   </varray>
  </crystal>
  <varray name="positions" >
   <v>       0.66666700       0.33333300       0.06785900 </v>
   <v>       0.33333300       0.66666700       0.00000000 </v>
   <v>       0.33333300       0.66666700       0.13571500 </v>
   <v>       0.23809557       0.04761871       0.35482300 </v>
   <v>       0.90476157       0.38095271       0.28696500 </v>
   <v>       0.90476157       0.38095271       0.42267900 </v>
  </varray>
 </structure>
 <calculation>
  <scstep>
   <time name="dav">   57.30   57.34</time>
   <time name="total">   67.49   67.56</time>
   <energy>
    <i name="alphaZ">    104.15310261 </i>
    <i name="ewald">   7699.04583487 </i>
    <i name="hartreedc"> -11109.09877708 </i>
    <i name="XCdc">    128.46410049 </i>
    <i name="pawpsdc">   2252.92270536 </i>
    <i name="pawaedc">  -2205.68654582 </i>
    <i name="eentropy">     -0.00030909 </i>
    <i name="bandstr">   -159.58096565 </i>
    <i name="atom">   3688.31848598 </i>
    <i name="e_fr_energy">    398.53763167 </i>
    <i name="e_wo_entrp">    398.53794076 </i>
    <i name="e_0_energy">    398.53773470 </i>
   </energy>
  </scstep>
  <scstep>
   <time name="dav">   61.28   61.33</time>
   <time name="total">   61.28   61.33</time>
   <energy>
    <i name="e_fr_energy">     -1.37009411 </i>
    <i name="e_wo_entrp">     -1.36880599 </i>
    <i name="e_0_energy">     -1.36966474 </i>
   </energy>
  </scstep>
  <scstep>
   <time name="dav">   62.75   62.80</time>
   <time name="total">   62.76   62.81</time>
   <energy>
    <i name="e_fr_energy">    -32.95089514 </i>
    <i name="e_wo_entrp">    -32.95168609 </i>
    <i name="e_0_energy">    -32.95115879 </i>
   </energy>
  </scstep>
  <scstep>
   <time name="dav">   60.35   60.40</time>
   <time name="total">   60.36   60.41</time>
   <energy>
    <i name="e_fr_energy">    -33.84516597 </i>
    <i name="e_wo_entrp">    -33.84635946 </i>
    <i name="e_0_energy">    -33.84556380 </i>
   </energy>
  </scstep>
  <scstep>
   <time name="dav">   62.75   62.80</time>
   <time name="total">   67.54   67.69</time>
   <energy>
    <i name="e_fr_energy">    -33.87257551 </i>
    <i name="e_wo_entrp">    -33.87380385 </i>
    <i name="e_0_energy">    -33.87298496 </i>
   </energy>
  </scstep>
  <scstep>
   <time name="diag">   11.42   11.43</time>
   <time name="diis">   40.93   40.96</time>
   <time name="orth">    0.38    0.38</time>
   <time name="total">   67.61   67.66</time>
   <energy>
    <i name="e_fr_energy">    -30.10770849 </i>
    <i name="e_wo_entrp">    -30.10724750 </i>
    <i name="e_0_energy">    -30.10755483 </i>
   </energy>
  </scstep>
  <scstep>
   <time name="diag">   11.46   11.46</time>
   <time name="diis">   40.85   40.88</time>
   <time name="orth">    0.38    0.38</time>
   <time name="total">   67.49   67.55</time>
   <energy>
    <i name="e_fr_energy">    -33.05340114 </i>
    <i name="e_wo_entrp">    -33.05357516 </i>
    <i name="e_0_energy">    -33.05345915 </i>
   </energy>
  </scstep>
  <scstep>
   <time name="diag">   11.39   11.40</time>
   <time name="diis">   40.33   40.36</time>
   <time name="orth">    0.38    0.38</time>
   <time name="total">   66.84   66.89</time>
   <energy>
    <i name="e_fr_energy">    -34.38969058 </i>
    <i name="e_wo_entrp">    -34.38985608 </i>
    <i name="e_0_energy">    -34.38974575 </i>
   </energy>
  </scstep>
  <scstep>
   <time name="diag">   11.36   11.37</time>
   <time name="diis">   41.14   41.17</time>
   <time name="orth">    0.38    0.38</time>
   <time name="total">   67.62   67.68</time>
   <energy>
    <i name="e_fr_energy">    -36.95995839 </i>
    <i name="e_wo_entrp">    -36.96012642 </i>
    <i name="e_0_energy">    -36.96001440 </i>
   </energy>
  </scstep>
  <scstep>
   <time name="diag">   11.43   11.44</time>
   <time name="diis">   37.55   37.58</time>
   <time name="orth">    0.38    0.38</time>
   <time name="total">   64.51   64.64</time>
   <energy>
    <i name="e_fr_energy">    -39.03323864 </i>
    <i name="e_wo_entrp">    -39.03340607 </i>
    <i name="e_0_energy">    -39.03329445 </i>
   </energy>
  </scstep>
  <scstep>
   <time name="diag">   11.43   11.44</time>
   <time name="diis">   40.68   40.71</time>
   <time name="orth">    0.38    0.38</time>
   <time name="total">   67.39   67.44</time>
   <energy>
    <i name="e_fr_energy">    -39.37439919 </i>
    <i name="e_wo_entrp">    -39.37473101 </i>
    <i name="e_0_energy">    -39.37450980 </i>
   </energy>
  </scstep>
  <scstep>
   <time name="diag">   11.41   11.42</time>
   <time name="diis">   41.10   41.14</time>
   <time name="orth">    0.39    0.39</time>
   <time name="total">   67.78   67.84</time>
   <energy>
    <i name="e_fr_energy">    -39.40416115 </i>
    <i name="e_wo_entrp">    -39.40449261 </i>
    <i name="e_0_energy">    -39.40427164 </i>
   </energy>
  </scstep>
  <scstep>
   <time name="diag">   11.47   11.48</time>
   <time name="diis">   44.07   44.11</time>
   <time name="orth">    0.38    0.38</time>
   <time name="total">   70.82   70.88</time>
   <energy>
    <i name="e_fr_energy">    -39.41737351 </i>
    <i name="e_wo_entrp">    -39.41770725 </i>
    <i name="e_0_energy">    -39.41748475 </i>
   </energy>
  </scstep>
  <scstep>
   <time name="diag">   11.41   11.42</time>
   <time name="diis">   40.41   40.44</time>
   <time name="orth">    0.38    0.39</time>
   <time name="total">   67.08   67.14</time>
   <energy>
    <i name="e_fr_energy">    -39.42032004 </i>
    <i name="e_wo_entrp">    -39.42065417 </i>
    <i name="e_0_energy">    -39.42043142 </i>
   </energy>
  </scstep>
  <scstep>
   <time name="diag">   11.44   11.44</time>
   <time name="diis">   36.63   36.65</time>
   <time name="orth">    0.38    0.38</time>
   <time name="total">   58.16   58.20</time>
   <energy>
    <i name="alphaZ">    104.15310261 </i>
    <i name="ewald">   7699.04583487 </i>
    <i name="hartreedc"> -11093.68204477 </i>
    <i name="XCdc">    122.66869366 </i>
    <i name="pawpsdc">   2398.20838325 </i>
    <i name="pawaedc">  -2360.36913892 </i>
    <i name="eentropy">      0.00033409 </i>
    <i name="bandstr">   -597.76392701 </i>
    <i name="atom">   3688.31848598 </i>
    <i name="e_fr_energy">    -39.42027625 </i>
    <i name="e_wo_entrp">    -39.42061035 </i>
    <i name="e_0_energy">    -39.42038762 </i>
   </energy>
  </scstep>
  <structure>
   <crystal>
    <varray name="basis" >
     <v>       3.19031700       0.00000000       0.00000000 </v>
     <v>      -1.59515800       2.76289700       0.00000000 </v>
     <v>       0.00000000       0.00000000      23.14049200 </v>
    </varray>
    <i name="volume">    203.97226633 </i>
    <varray name="rec_basis" >
     <v>       0.31344848       0.18096941       0.00000000 </v>
     <v>       0.00000000       0.36193894       0.00000000 </v>
     <v>       0.00000000       0.00000000       0.04321429 </v>
    </varray>
   </crystal>
   <varray name="positions" >
    <v>       0.66666700       0.33333300       0.06785900 </v>
    <v>       0.33333300       0.66666700       0.00000000 </v>
    <v>       0.33333300       0.66666700       0.13571500 </v>
    <v>       0.23809557       0.04761871       0.35482300 </v>
    <v>       0.90476157       0.38095271       0.28696500 </v>
    <v>       0.90476157       0.38095271       0.42267900 </v>
   </varray>
  </structure>
  <varray name="forces" >
   <v>       0.00516635       0.00219603      -0.00248681 </v>
   <v>      -0.00023718      -0.00071775      -0.05546737 </v>
   <v>       0.02076046       0.01628253       0.10838202 </v>
   <v>      -0.00161067      -0.00275212       0.00357986 </v>
   <v>      -0.02224864      -0.01575101      -0.11601794 </v>
   <v>      -0.00183034       0.00074232       0.06201025 </v>
  </varray>
  <varray name="stress" >
   <v>       3.73842781       0.25827155      -0.73016111 </v>
   <v>       0.25827158       3.75261288      -0.56613788 </v>
   <v>      -0.73016110      -0.56613788       0.37831834 </v>
  </varray>
  <energy>
   <i name="e_fr_energy">    -39.42027625 </i>
   <i name="e_wo_entrp">    -39.42038762 </i>
   <i name="e_0_energy">      0.00033409 </i>
  </energy>
  <time name="totalsc"> 1086.02 1087.08</time>
  <eigenvalues>
   <array>
    <dimension dim="1">band</dimension>
    <dimension dim="2">kpoint</dimension>
    <dimension dim="3">spin</dimension>
    <field>eigene</field>
    <field>occ</field>
    <set>
     <set comment="spin 1">
      <set comment="kpoint 1">
       <r>  -34.9789    1.0000 </r>
       <r>  -34.9693    1.0000 </r>
       <r>  -34.7878    1.0000 </r>
       <r>  -34.7876    1.0000 </r>
       <r>  -34.7784    1.0000 </r>
       <r>  -34.7783    1.0000 </r>
       <r>  -13.9541    1.0000 </r>
       <r>  -13.8979    1.0000 </r>
       <r>  -12.6880    1.0000 </r>
       <r>  -12.5944    1.0000 </r>
       <r>   -5.6674    1.0000 </r>
       <r>   -5.3785    1.0000 </r>
       <r>   -2.6053    1.0000 </r>
       <r>   -2.6052    1.0000 </r>
       <r>   -2.5961    1.0000 </r>
       <r>   -2.5959    1.0000 </r>
       <r>   -2.1577    1.0000 </r>
       <r>   -1.5123    1.0000 </r>
       <r>   -1.5112    1.0000 </r>
       <r>   -1.5019    1.0000 </r>
       <r>   -1.5016    1.0000 </r>
       <r>   -1.4531    1.0000 </r>
       <r>   -0.2047    1.0000 </r>
       <r>    0.2337    0.7968 </r>
       <r>    2.7118   -0.0000 </r>
       <r>    2.7177   -0.0000 </r>
       <r>    2.7320   -0.0000 </r>
       <r>    2.7367   -0.0000 </r>
       <r>    2.8928   -0.0000 </r>
       <r>    2.8996   -0.0000 </r>
       <r>    2.9162   -0.0000 </r>
       <r>    2.9244   -0.0000 </r>
       <r>    5.3325    0.0000 </r>
       <r>    5.6844    0.0000 </r>
       <r>    6.2642    0.0000 </r>
       <r>    6.5873    0.0000 </r>
      </set>
      <set comment="kpoint 2">
       <r>  -34.9748    1.0000 </r>
       <r>  -34.9652    1.0000 </r>
       <r>  -34.8091    1.0000 </r>
       <r>  -34.7995    1.0000 </r>
       <r>  -34.7925    1.0000 </r>
       <r>  -34.7832    1.0000 </r>
       <r>  -13.8674    1.0000 </r>
       <r>  -13.8114    1.0000 </r>
       <r>  -12.6512    1.0000 </r>
       <r>  -12.5601    1.0000 </r>
       <r>   -5.5680    1.0000 </r>
       <r>   -5.2798    1.0000 </r>
       <r>   -2.7924    1.0000 </r>
       <r>   -2.7824    1.0000 </r>
       <r>   -2.5145    1.0000 </r>
       <r>   -2.5053    1.0000 </r>
       <r>   -2.4434    1.0000 </r>
       <r>   -2.0526    1.0000 </r>
       <r>   -1.6490    1.0000 </r>
       <r>   -1.6390    1.0000 </r>
       <r>   -1.3363    1.0000 </r>
       <r>   -1.0544    1.0000 </r>
       <r>   -0.2251    1.0000 </r>
       <r>    0.1550    1.0349 </r>
       <r>    2.6116   -0.0000 </r>
       <r>    2.6255   -0.0000 </r>
       <r>    2.6681   -0.0000 </r>
       <r>    2.7162   -0.0000 </r>
       <r>    2.8010   -0.0000 </r>
       <r>    2.8238   -0.0000 </r>
       <r>    2.8670   -0.0000 </r>
       <r>    2.8804   -0.0000 </r>
       <r>    5.4629    0.0000 </r>
       <r>    5.8286    0.0000 </r>
       <r>    6.5942    0.0000 </r>
       <r>    6.9612    0.0000 </r>
      </set>
      <set comment="kpoint 3">
       <r>  -34.9635    1.0000 </r>
       <r>  -34.9538    1.0000 </r>
       <r>  -34.8675    1.0000 </r>
       <r>  -34.8580    1.0000 </r>
       <r>  -34.8059    1.0000 </r>
       <r>  -34.7966    1.0000 </r>
       <r>  -13.6186    1.0000 </r>
       <r>  -13.5638    1.0000 </r>
       <r>  -12.5459    1.0000 </r>
       <r>  -12.4622    1.0000 </r>
       <r>   -5.3072    1.0000 </r>
       <r>   -5.0262    1.0000 </r>
       <r>   -3.2426    1.0000 </r>
       <r>   -3.2300    1.0000 </r>
       <r>   -2.9424    1.0000 </r>
       <r>   -2.6687    1.0000 </r>
       <r>   -2.2592    1.0000 </r>
       <r>   -2.2491    1.0000 </r>
       <r>   -1.9848    1.0000 </r>
       <r>   -1.9731    1.0000 </r>
       <r>   -1.2420    1.0000 </r>
       <r>   -0.9314    1.0000 </r>
       <r>   -0.3529    1.0000 </r>
       <r>   -0.1310    1.0000 </r>
       <r>    2.2062   -0.0000 </r>
       <r>    2.3779   -0.0000 </r>
       <r>    2.5182   -0.0000 </r>
       <r>    2.5677   -0.0000 </r>
       <r>    2.6012   -0.0000 </r>
       <r>    2.6300   -0.0000 </r>
       <r>    3.2089    0.0000 </r>
       <r>    3.2336    0.0000 </r>
       <r>    5.8210    0.0000 </r>
       <r>    6.1783    0.0000 </r>
       <r>    7.0066    0.0000 </r>
       <r>    7.8435    0.0000 </r>
      </set>
      <set comment="kpoint 4">
       <r>  -34.9490    1.0000 </r>
       <r>  -34.9473    1.0000 </r>
       <r>  -34.9398    1.0000 </r>
       <r>  -34.9374    1.0000 </r>
       <r>  -34.8247    1.0000 </r>
       <r>  -34.8154    1.0000 </r>
       <r>  -13.2428    1.0000 </r>
       <r>  -13.1909    1.0000 </r>
       <r>  -12.3875    1.0000 </r>
       <r>  -12.3156    1.0000 </r>
       <r>   -5.0433    1.0000 </r>
       <r>   -4.8092    1.0000 </r>
       <r>   -3.7008    1.0000 </r>
       <r>   -3.6644    1.0000 </r>
       <r>   -3.4705    1.0000 </r>
       <r>   -3.2895    1.0000 </r>
       <r>   -2.3806    1.0000 </r>
       <r>   -2.3673    1.0000 </r>
       <r>   -1.8906    1.0000 </r>
       <r>   -1.8781    1.0000 </r>
       <r>   -1.4021    1.0000 </r>
       <r>   -1.1318    1.0000 </r>
       <r>   -0.6668    1.0000 </r>
       <r>   -0.5861    1.0000 </r>
       <r>    1.9706   -0.0000 </r>
       <r>    2.2543   -0.0000 </r>
       <r>    2.3162   -0.0000 </r>
       <r>    2.3530   -0.0000 </r>
       <r>    2.7149   -0.0000 </r>
       <r>    2.9136   -0.0000 </r>
       <r>    3.5849    0.0000 </r>
       <r>    3.6250    0.0000 </r>
       <r>    6.3571    0.0000 </r>
       <r>    6.6704    0.0000 </r>
       <r>    7.3971    0.0000 </r>
       <r>    8.3399    0.0000 </r>
      </set>
      <set comment="kpoint 5">
       <r>  -35.0342    1.0000 </r>
       <r>  -35.0247    1.0000 </r>
       <r>  -34.9303    1.0000 </r>
       <r>  -34.9206    1.0000 </r>
       <r>  -34.8446    1.0000 </r>
       <r>  -34.8353    1.0000 </r>
       <r>  -12.8011    1.0000 </r>
       <r>  -12.7556    1.0000 </r>
       <r>  -12.2039    1.0000 </r>
       <r>  -12.1477    1.0000 </r>
       <r>   -5.0971    1.0000 </r>
       <r>   -4.9799    1.0000 </r>
       <r>   -4.0343    1.0000 </r>
       <r>   -3.9199    1.0000 </r>
       <r>   -3.8290    1.0000 </r>
       <r>   -3.7445    1.0000 </r>
       <r>   -2.7364    1.0000 </r>
       <r>   -2.7220    1.0000 </r>
       <r>   -1.6623    1.0000 </r>
       <r>   -1.4973    1.0000 </r>
       <r>   -1.4789    1.0000 </r>
       <r>   -1.4440    1.0000 </r>
       <r>   -0.9590    1.0000 </r>
       <r>   -0.9076    1.0000 </r>
       <r>    2.0608   -0.0000 </r>
       <r>    2.1491   -0.0000 </r>
       <r>    2.1811   -0.0000 </r>
       <r>    2.3360   -0.0000 </r>
       <r>    3.1286    0.0000 </r>
       <r>    3.3550    0.0000 </r>
       <r>    3.8813    0.0000 </r>
       <r>    3.9389    0.0000 </r>
       <r>    7.0354    0.0000 </r>
       <r>    7.2317    0.0000 </r>
       <r>    7.8660    0.0000 </r>
       <r>    7.9766    0.0000 </r>
      </set>
      <set comment="kpoint 6">
       <r>  -35.1040    1.0000 </r>
       <r>  -35.0945    1.0000 </r>
       <r>  -34.9160    1.0000 </r>
       <r>  -34.9064    1.0000 </r>
       <r>  -34.8610    1.0000 </r>
       <r>  -34.8518    1.0000 </r>
       <r>  -12.3871    1.0000 </r>
       <r>  -12.3525    1.0000 </r>
       <r>  -12.0359    1.0000 </r>
       <r>  -11.9979    1.0000 </r>
       <r>   -5.4079    1.0000 </r>
       <r>   -5.3576    1.0000 </r>
       <r>   -4.4469    1.0000 </r>
       <r>   -4.3811    1.0000 </r>
       <r>   -3.9057    1.0000 </r>
       <r>   -3.8318    1.0000 </r>
       <r>   -2.9965    1.0000 </r>
       <r>   -2.9815    1.0000 </r>
       <r>   -1.8585    1.0000 </r>
       <r>   -1.6918    1.0000 </r>
       <r>   -1.1826    1.0000 </r>
       <r>   -1.1561    1.0000 </r>
       <r>   -0.9189    1.0000 </r>
       <r>   -0.8405    1.0000 </r>
       <r>    2.1079   -0.0000 </r>
       <r>    2.1296   -0.0000 </r>
       <r>    2.3242   -0.0000 </r>
       <r>    2.5094   -0.0000 </r>
       <r>    3.5403    0.0000 </r>
       <r>    3.7204    0.0000 </r>
       <r>    4.0644    0.0000 </r>
       <r>    4.1372    0.0000 </r>
       <r>    6.9232    0.0000 </r>
       <r>    7.1250    0.0000 </r>
       <r>    7.7654    0.0000 </r>
       <r>    7.9258    0.0000 </r>
      </set>
      <set comment="kpoint 7">
       <r>  -35.1430    1.0000 </r>
       <r>  -35.1335    1.0000 </r>
       <r>  -34.9080    1.0000 </r>
       <r>  -34.8983    1.0000 </r>
       <r>  -34.8703    1.0000 </r>
       <r>  -34.8610    1.0000 </r>
       <r>  -12.1243    1.0000 </r>
       <r>  -12.1035    1.0000 </r>
       <r>  -11.9317    1.0000 </r>
       <r>  -11.9103    1.0000 </r>
       <r>   -5.6400    1.0000 </r>
       <r>   -5.6176    1.0000 </r>
       <r>   -4.6881    1.0000 </r>
       <r>   -4.6570    1.0000 </r>
       <r>   -4.0048    1.0000 </r>
       <r>   -3.9473    1.0000 </r>
       <r>   -3.1326    1.0000 </r>
       <r>   -3.1172    1.0000 </r>
       <r>   -1.9472    1.0000 </r>
       <r>   -1.8202    1.0000 </r>
       <r>   -1.0179    1.0000 </r>
       <r>   -0.9848    1.0000 </r>
       <r>   -0.6935    1.0000 </r>
       <r>   -0.6195    1.0000 </r>
       <r>    2.1368   -0.0000 </r>
       <r>    2.1505   -0.0000 </r>
       <r>    2.5826   -0.0000 </r>
       <r>    2.6493   -0.0000 </r>
       <r>    3.7889    0.0000 </r>
       <r>    3.8837    0.0000 </r>
       <r>    4.1469    0.0000 </r>
       <r>    4.2285    0.0000 </r>
       <r>    6.1922    0.0000 </r>
       <r>    6.3807    0.0000 </r>
       <r>    7.9102    0.0000 </r>
       <r>    8.0902    0.0000 </r>
      </set>
      <set comment="kpoint 8">
       <r>  -34.9748    1.0000 </r>
       <r>  -34.9652    1.0000 </r>
       <r>  -34.8089    1.0000 </r>
       <r>  -34.7996    1.0000 </r>
       <r>  -34.7926    1.0000 </r>
       <r>  -34.7831    1.0000 </r>
       <r>  -13.8674    1.0000 </r>
       <r>  -13.8114    1.0000 </r>
       <r>  -12.6513    1.0000 </r>
       <r>  -12.5600    1.0000 </r>
       <r>   -5.5681    1.0000 </r>
       <r>   -5.2797    1.0000 </r>
       <r>   -2.7923    1.0000 </r>
       <r>   -2.7826    1.0000 </r>
       <r>   -2.5144    1.0000 </r>
       <r>   -2.5056    1.0000 </r>
       <r>   -2.4428    1.0000 </r>
       <r>   -2.0526    1.0000 </r>
       <r>   -1.6486    1.0000 </r>
       <r>   -1.6394    1.0000 </r>
       <r>   -1.3405    1.0000 </r>
       <r>   -1.0509    1.0000 </r>
       <r>   -0.2256    1.0000 </r>
       <r>    0.1579    1.0342 </r>
       <r>    2.6043   -0.0000 </r>
       <r>    2.6249   -0.0000 </r>
       <r>    2.6601   -0.0000 </r>
       <r>    2.7267   -0.0000 </r>
       <r>    2.8087   -0.0000 </r>
       <r>    2.8208   -0.0000 </r>
       <r>    2.8678   -0.0000 </r>
       <r>    2.8781   -0.0000 </r>
       <r>    5.4627    0.0000 </r>
       <r>    5.8287    0.0000 </r>
       <r>    6.5976    0.0000 </r>
       <r>    6.9602    0.0000 </r>
      </set>
      <set comment="kpoint 9">
       <r>  -34.9671    1.0000 </r>
       <r>  -34.9575    1.0000 </r>
       <r>  -34.8479    1.0000 </r>
       <r>  -34.8385    1.0000 </r>
       <r>  -34.8026    1.0000 </r>
       <r>  -34.7932    1.0000 </r>
       <r>  -13.6995    1.0000 </r>
       <r>  -13.6443    1.0000 </r>
       <r>  -12.5801    1.0000 </r>
       <r>  -12.4939    1.0000 </r>
       <r>   -5.3859    1.0000 </r>
       <r>   -5.1011    1.0000 </r>
       <r>   -3.1069    1.0000 </r>
       <r>   -3.0943    1.0000 </r>
       <r>   -2.7814    1.0000 </r>
       <r>   -2.4655    1.0000 </r>
       <r>   -2.3462    1.0000 </r>
       <r>   -2.3370    1.0000 </r>
       <r>   -1.9624    1.0000 </r>
       <r>   -1.9512    1.0000 </r>
       <r>   -1.1756    1.0000 </r>
       <r>   -0.8738    1.0000 </r>
       <r>   -0.2984    1.0000 </r>
       <r>   -0.0273    1.0001 </r>
       <r>    2.3206   -0.0000 </r>
       <r>    2.4394   -0.0000 </r>
       <r>    2.4795   -0.0000 </r>
       <r>    2.5561   -0.0000 </r>
       <r>    2.6364   -0.0000 </r>
       <r>    2.6603   -0.0000 </r>
       <r>    3.1420    0.0000 </r>
       <r>    3.1635    0.0000 </r>
       <r>    5.7066    0.0000 </r>
       <r>    6.0721    0.0000 </r>
       <r>    6.9732    0.0000 </r>
       <r>    7.6113    0.0000 </r>
      </set>
      <set comment="kpoint 10">
       <r>  -34.9534    1.0000 </r>
       <r>  -34.9437    1.0000 </r>
       <r>  -34.9155    1.0000 </r>
       <r>  -34.9060    1.0000 </r>
       <r>  -34.8210    1.0000 </r>
       <r>  -34.8117    1.0000 </r>
       <r>  -13.3866    1.0000 </r>
       <r>  -13.3335    1.0000 </r>
       <r>  -12.4475    1.0000 </r>
       <r>  -12.3711    1.0000 </r>
       <r>   -5.1061    1.0000 </r>
       <r>   -4.8428    1.0000 </r>
       <r>   -3.5475    1.0000 </r>
       <r>   -3.5269    1.0000 </r>
       <r>   -3.2155    1.0000 </r>
       <r>   -2.9870    1.0000 </r>
       <r>   -2.4488    1.0000 </r>
       <r>   -2.4235    1.0000 </r>
       <r>   -2.0626    1.0000 </r>
       <r>   -2.0515    1.0000 </r>
       <r>   -1.1446    1.0000 </r>
       <r>   -0.8876    1.0000 </r>
       <r>   -0.5262    1.0000 </r>
       <r>   -0.4088    1.0000 </r>
       <r>    1.9784   -0.0000 </r>
       <r>    2.2031   -0.0000 </r>
       <r>    2.4050   -0.0000 </r>
       <r>    2.4407   -0.0000 </r>
       <r>    2.4878   -0.0000 </r>
       <r>    2.6409   -0.0000 </r>
       <r>    3.5429    0.0000 </r>
       <r>    3.5847    0.0000 </r>
       <r>    6.1471    0.0000 </r>
       <r>    6.4958    0.0000 </r>
       <r>    7.2550    0.0000 </r>
       <r>    8.4605    0.0000 </r>
      </set>
      <set comment="kpoint 11">
       <r>  -34.9959    1.0000 </r>
       <r>  -34.9864    1.0000 </r>
       <r>  -34.9368    1.0000 </r>
       <r>  -34.9271    1.0000 </r>
       <r>  -34.8434    1.0000 </r>
       <r>  -34.8341    1.0000 </r>
       <r>  -12.9757    1.0000 </r>
       <r>  -12.9273    1.0000 </r>
       <r>  -12.2746    1.0000 </r>
       <r>  -12.2120    1.0000 </r>
       <r>   -4.9828    1.0000 </r>
       <r>   -4.8121    1.0000 </r>
       <r>   -3.8471    1.0000 </r>
       <r>   -3.7650    1.0000 </r>
       <r>   -3.6968    1.0000 </r>
       <r>   -3.5824    1.0000 </r>
       <r>   -2.8439    1.0000 </r>
       <r>   -2.7861    1.0000 </r>
       <r>   -1.7818    1.0000 </r>
       <r>   -1.7643    1.0000 </r>
       <r>   -1.3441    1.0000 </r>
       <r>   -1.1500    1.0000 </r>
       <r>   -0.8296    1.0000 </r>
       <r>   -0.7876    1.0000 </r>
       <r>    1.8678   -0.0000 </r>
       <r>    2.0804   -0.0000 </r>
       <r>    2.2935   -0.0000 </r>
       <r>    2.3897   -0.0000 </r>
       <r>    2.7661   -0.0000 </r>
       <r>    2.9644   -0.0000 </r>
       <r>    3.8917    0.0000 </r>
       <r>    3.9506    0.0000 </r>
       <r>    6.7791    0.0000 </r>
       <r>    7.0455    0.0000 </r>
       <r>    7.7880    0.0000 </r>
       <r>    8.3761    0.0000 </r>
      </set>
      <set comment="kpoint 12">
       <r>  -35.0705    1.0000 </r>
       <r>  -35.0610    1.0000 </r>
       <r>  -34.9211    1.0000 </r>
       <r>  -34.9114    1.0000 </r>
       <r>  -34.8644    1.0000 </r>
       <r>  -34.8551    1.0000 </r>
       <r>  -12.5428    1.0000 </r>
       <r>  -12.5031    1.0000 </r>
       <r>  -12.0951    1.0000 </r>
       <r>  -12.0494    1.0000 </r>
       <r>   -5.2017    1.0000 </r>
       <r>   -5.1251    1.0000 </r>
       <r>   -4.2680    1.0000 </r>
       <r>   -4.1991    1.0000 </r>
       <r>   -3.8300    1.0000 </r>
       <r>   -3.7443    1.0000 </r>
       <r>   -3.0594    1.0000 </r>
       <r>   -2.9990    1.0000 </r>
       <r>   -1.6583    1.0000 </r>
       <r>   -1.6075    1.0000 </r>
       <r>   -1.5901    1.0000 </r>
       <r>   -1.4756    1.0000 </r>
       <r>   -0.8528    1.0000 </r>
       <r>   -0.8181    1.0000 </r>
       <r>    1.9691   -0.0000 </r>
       <r>    2.1151   -0.0000 </r>
       <r>    2.3373   -0.0000 </r>
       <r>    2.4503   -0.0000 </r>
       <r>    3.1931    0.0000 </r>
       <r>    3.3860    0.0000 </r>
       <r>    4.0919    0.0000 </r>
       <r>    4.1619    0.0000 </r>
       <r>    7.3892    0.0000 </r>
       <r>    7.5267    0.0000 </r>
       <r>    7.6569    0.0000 </r>
       <r>    8.0489    0.0000 </r>
      </set>
      <set comment="kpoint 13">
       <r>  -35.1228    1.0000 </r>
       <r>  -35.1133    1.0000 </r>
       <r>  -34.9099    1.0000 </r>
       <r>  -34.9003    1.0000 </r>
       <r>  -34.8793    1.0000 </r>
       <r>  -34.8700    1.0000 </r>
       <r>  -12.1964    1.0000 </r>
       <r>  -12.1696    1.0000 </r>
       <r>  -11.9545    1.0000 </r>
       <r>  -11.9266    1.0000 </r>
       <r>   -5.4755    1.0000 </r>
       <r>   -5.4408    1.0000 </r>
       <r>   -4.6465    1.0000 </r>
       <r>   -4.6123    1.0000 </r>
       <r>   -3.9254    1.0000 </r>
       <r>   -3.8616    1.0000 </r>
       <r>   -3.1464    1.0000 </r>
       <r>   -3.1066    1.0000 </r>
       <r>   -1.8588    1.0000 </r>
       <r>   -1.7329    1.0000 </r>
       <r>   -1.4879    1.0000 </r>
       <r>   -1.4370    1.0000 </r>
       <r>   -0.6374    1.0000 </r>
       <r>   -0.5935    1.0000 </r>
       <r>    2.1148   -0.0000 </r>
       <r>    2.1789   -0.0000 </r>
       <r>    2.5148   -0.0000 </r>
       <r>    2.6039   -0.0000 </r>
       <r>    3.5975    0.0000 </r>
       <r>    3.7512    0.0000 </r>
       <r>    4.0942    0.0000 </r>
       <r>    4.1870    0.0000 </r>
       <r>    6.5871    0.0000 </r>
       <r>    6.8068    0.0000 </r>
       <r>    8.0902    0.0000 </r>
       <r>    8.2354    0.0000 </r>
      </set>
      <set comment="kpoint 14">
       <r>  -35.1416    1.0000 </r>
       <r>  -35.1321    1.0000 </r>
       <r>  -34.9059    1.0000 </r>
       <r>  -34.8962    1.0000 </r>
       <r>  -34.8846    1.0000 </r>
       <r>  -34.8753    1.0000 </r>
       <r>  -12.0595    1.0000 </r>
       <r>  -12.0416    1.0000 </r>
       <r>  -11.8998    1.0000 </r>
       <r>  -11.8814    1.0000 </r>
       <r>   -5.5868    1.0000 </r>
       <r>   -5.5687    1.0000 </r>
       <r>   -4.7852    1.0000 </r>
       <r>   -4.7631    1.0000 </r>
       <r>   -3.9939    1.0000 </r>
       <r>   -3.9370    1.0000 </r>
       <r>   -3.1624    1.0000 </r>
       <r>   -3.1421    1.0000 </r>
       <r>   -1.9435    1.0000 </r>
       <r>   -1.8210    1.0000 </r>
       <r>   -1.4253    1.0000 </r>
       <r>   -1.3630    1.0000 </r>
       <r>   -0.4993    1.0000 </r>
       <r>   -0.4573    1.0000 </r>
       <r>    2.1572   -0.0000 </r>
       <r>    2.1734   -0.0000 </r>
       <r>    2.6790   -0.0000 </r>
       <r>    2.6982   -0.0000 </r>
       <r>    3.8686    0.0000 </r>
       <r>    3.9102    0.0000 </r>
       <r>    4.0169    0.0000 </r>
       <r>    4.0847    0.0000 </r>
       <r>    6.1912    0.0000 </r>
       <r>    6.3684    0.0000 </r>
       <r>    8.3335    0.0000 </r>
       <r>    8.4327    0.0000 </r>
      </set>
      <set comment="kpoint 15">
       <r>  -35.1228    1.0000 </r>
       <r>  -35.1133    1.0000 </r>
       <r>  -34.9099    1.0000 </r>
       <r>  -34.9003    1.0000 </r>
       <r>  -34.8793    1.0000 </r>
       <r>  -34.8700    1.0000 </r>
       <r>  -12.1971    1.0000 </r>
       <r>  -12.1690    1.0000 </r>
       <r>  -11.9552    1.0000 </r>
       <r>  -11.9258    1.0000 </r>
       <r>   -5.4756    1.0000 </r>
       <r>   -5.4406    1.0000 </r>
       <r>   -4.6478    1.0000 </r>
       <r>   -4.6111    1.0000 </r>
       <r>   -3.9258    1.0000 </r>
       <r>   -3.8609    1.0000 </r>
       <r>   -3.1459    1.0000 </r>
       <r>   -3.1077    1.0000 </r>
       <r>   -1.8648    1.0000 </r>
       <r>   -1.7305    1.0000 </r>
       <r>   -1.4926    1.0000 </r>
       <r>   -1.4269    1.0000 </r>
       <r>   -0.6358    1.0000 </r>
       <r>   -0.5953    1.0000 </r>
       <r>    2.1170   -0.0000 </r>
       <r>    2.1759   -0.0000 </r>
       <r>    2.5135   -0.0000 </r>
       <r>    2.6054   -0.0000 </r>
       <r>    3.5841    0.0000 </r>
       <r>    3.7645    0.0000 </r>
       <r>    4.0993    0.0000 </r>
       <r>    4.1834    0.0000 </r>
       <r>    6.5877    0.0000 </r>
       <r>    6.8062    0.0000 </r>
       <r>    8.0715    0.0000 </r>
       <r>    8.2300    0.0000 </r>
      </set>
      <set comment="kpoint 16">
       <r>  -35.0705    1.0000 </r>
       <r>  -35.0610    1.0000 </r>
       <r>  -34.9211    1.0000 </r>
       <r>  -34.9114    1.0000 </r>
       <r>  -34.8644    1.0000 </r>
       <r>  -34.8551    1.0000 </r>
       <r>  -12.5435    1.0000 </r>
       <r>  -12.5025    1.0000 </r>
       <r>  -12.0958    1.0000 </r>
       <r>  -12.0486    1.0000 </r>
       <r>   -5.2017    1.0000 </r>
       <r>   -5.1250    1.0000 </r>
       <r>   -4.2694    1.0000 </r>
       <r>   -4.1981    1.0000 </r>
       <r>   -3.8319    1.0000 </r>
       <r>   -3.7417    1.0000 </r>
       <r>   -3.0601    1.0000 </r>
       <r>   -2.9995    1.0000 </r>
       <r>   -1.6737    1.0000 </r>
       <r>   -1.6070    1.0000 </r>
       <r>   -1.5863    1.0000 </r>
       <r>   -1.4621    1.0000 </r>
       <r>   -0.8535    1.0000 </r>
       <r>   -0.8171    1.0000 </r>
       <r>    1.9677   -0.0000 </r>
       <r>    2.1148   -0.0000 </r>
       <r>    2.3366   -0.0000 </r>
       <r>    2.4519   -0.0000 </r>
       <r>    3.1818    0.0000 </r>
       <r>    3.3987    0.0000 </r>
       <r>    4.0913    0.0000 </r>
       <r>    4.1614    0.0000 </r>
       <r>    7.3881    0.0000 </r>
       <r>    7.5338    0.0000 </r>
       <r>    7.6661    0.0000 </r>
       <r>    8.1616    0.0000 </r>
      </set>
      <set comment="kpoint 17">
       <r>  -34.9959    1.0000 </r>
       <r>  -34.9863    1.0000 </r>
       <r>  -34.9368    1.0000 </r>
       <r>  -34.9271    1.0000 </r>
       <r>  -34.8434    1.0000 </r>
       <r>  -34.8341    1.0000 </r>
       <r>  -12.9762    1.0000 </r>
       <r>  -12.9269    1.0000 </r>
       <r>  -12.2752    1.0000 </r>
       <r>  -12.2113    1.0000 </r>
       <r>   -4.9828    1.0000 </r>
       <r>   -4.8122    1.0000 </r>
       <r>   -3.8503    1.0000 </r>
       <r>   -3.7622    1.0000 </r>
       <r>   -3.6973    1.0000 </r>
       <r>   -3.5811    1.0000 </r>
       <r>   -2.8456    1.0000 </r>
       <r>   -2.7855    1.0000 </r>
       <r>   -1.7819    1.0000 </r>
       <r>   -1.7651    1.0000 </r>
       <r>   -1.3512    1.0000 </r>
       <r>   -1.1416    1.0000 </r>
       <r>   -0.8310    1.0000 </r>
       <r>   -0.7832    1.0000 </r>
       <r>    1.8646   -0.0000 </r>
       <r>    2.0826   -0.0000 </r>
       <r>    2.2927   -0.0000 </r>
       <r>    2.3912   -0.0000 </r>
       <r>    2.7579   -0.0000 </r>
       <r>    2.9722   -0.0000 </r>
       <r>    3.8915    0.0000 </r>
       <r>    3.9492    0.0000 </r>
       <r>    6.7785    0.0000 </r>
       <r>    7.0454    0.0000 </r>
       <r>    7.7882    0.0000 </r>
       <r>    8.3880    0.0000 </r>
      </set>
      <set comment="kpoint 18">
       <r>  -34.9534    1.0000 </r>
       <r>  -34.9437    1.0000 </r>
       <r>  -34.9155    1.0000 </r>
       <r>  -34.9060    1.0000 </r>
       <r>  -34.8210    1.0000 </r>
       <r>  -34.8117    1.0000 </r>
       <r>  -13.3869    1.0000 </r>
       <r>  -13.3333    1.0000 </r>
       <r>  -12.4480    1.0000 </r>
       <r>  -12.3706    1.0000 </r>
       <r>   -5.1066    1.0000 </r>
       <r>   -4.8424    1.0000 </r>
       <r>   -3.5484    1.0000 </r>
       <r>   -3.5262    1.0000 </r>
       <r>   -3.2146    1.0000 </r>
       <r>   -2.9878    1.0000 </r>
       <r>   -2.4504    1.0000 </r>
       <r>   -2.4225    1.0000 </r>
       <r>   -2.0624    1.0000 </r>
       <r>   -2.0516    1.0000 </r>
       <r>   -1.1530    1.0000 </r>
       <r>   -0.8808    1.0000 </r>
       <r>   -0.5290    1.0000 </r>
       <r>   -0.3994    1.0000 </r>
       <r>    1.9743   -0.0000 </r>
       <r>    2.2023   -0.0000 </r>
       <r>    2.4055   -0.0000 </r>
       <r>    2.4447   -0.0000 </r>
       <r>    2.4810   -0.0000 </r>
       <r>    2.6445   -0.0000 </r>
       <r>    3.5453    0.0000 </r>
       <r>    3.5813    0.0000 </r>
       <r>    6.1502    0.0000 </r>
       <r>    6.4960    0.0000 </r>
       <r>    7.2378    0.0000 </r>
       <r>    8.2534    0.0000 </r>
      </set>
      <set comment="kpoint 19">
       <r>  -34.9671    1.0000 </r>
       <r>  -34.9575    1.0000 </r>
       <r>  -34.8479    1.0000 </r>
       <r>  -34.8385    1.0000 </r>
       <r>  -34.8026    1.0000 </r>
       <r>  -34.7932    1.0000 </r>
       <r>  -13.6997    1.0000 </r>
       <r>  -13.6441    1.0000 </r>
       <r>  -12.5803    1.0000 </r>
       <r>  -12.4936    1.0000 </r>
       <r>   -5.3864    1.0000 </r>
       <r>   -5.1007    1.0000 </r>
       <r>   -3.1065    1.0000 </r>
       <r>   -3.0949    1.0000 </r>
       <r>   -2.7804    1.0000 </r>
       <r>   -2.4664    1.0000 </r>
       <r>   -2.3462    1.0000 </r>
       <r>   -2.3370    1.0000 </r>
       <r>   -1.9623    1.0000 </r>
       <r>   -1.9517    1.0000 </r>
       <r>   -1.1834    1.0000 </r>
       <r>   -0.8674    1.0000 </r>
       <r>   -0.3006    1.0000 </r>
       <r>   -0.0182    1.0002 </r>
       <r>    2.3086   -0.0000 </r>
       <r>    2.4385   -0.0000 </r>
       <r>    2.4750   -0.0000 </r>
       <r>    2.5641   -0.0000 </r>
       <r>    2.6405   -0.0000 </r>
       <r>    2.6599   -0.0000 </r>
       <r>    3.1461    0.0000 </r>
       <r>    3.1593    0.0000 </r>
       <r>    5.7079    0.0000 </r>
       <r>    6.0723    0.0000 </r>
       <r>    6.8920    0.0000 </r>
       <r>    7.6076    0.0000 </r>
      </set>
      <set comment="kpoint 20">
       <r>  -34.9748    1.0000 </r>
       <r>  -34.9652    1.0000 </r>
       <r>  -34.8089    1.0000 </r>
       <r>  -34.7996    1.0000 </r>
       <r>  -34.7926    1.0000 </r>
       <r>  -34.7832    1.0000 </r>
       <r>  -13.8675    1.0000 </r>
       <r>  -13.8113    1.0000 </r>
       <r>  -12.6514    1.0000 </r>
       <r>  -12.5600    1.0000 </r>
       <r>   -5.5683    1.0000 </r>
       <r>   -5.2795    1.0000 </r>
       <r>   -2.7923    1.0000 </r>
       <r>   -2.7826    1.0000 </r>
       <r>   -2.5147    1.0000 </r>
       <r>   -2.5052    1.0000 </r>
       <r>   -2.4422    1.0000 </r>
       <r>   -2.0526    1.0000 </r>
       <r>   -1.6495    1.0000 </r>
       <r>   -1.6386    1.0000 </r>
       <r>   -1.3459    1.0000 </r>
       <r>   -1.0466    1.0000 </r>
       <r>   -0.2263    1.0000 </r>
       <r>    0.1615    1.0327 </r>
       <r>    2.5927   -0.0000 </r>
       <r>    2.6269   -0.0000 </r>
       <r>    2.6552   -0.0000 </r>
       <r>    2.7414   -0.0000 </r>
       <r>    2.7958   -0.0000 </r>
       <r>    2.8272   -0.0000 </r>
       <r>    2.8633   -0.0000 </r>
       <r>    2.8864   -0.0000 </r>
       <r>    5.4629    0.0000 </r>
       <r>    5.8288    0.0000 </r>
       <r>    6.5921    0.0000 </r>
       <r>    6.9594    0.0000 </r>
      </set>
      <set comment="kpoint 21">
       <r>  -34.9635    1.0000 </r>
       <r>  -34.9538    1.0000 </r>
       <r>  -34.8674    1.0000 </r>
       <r>  -34.8581    1.0000 </r>
       <r>  -34.8060    1.0000 </r>
       <r>  -34.7965    1.0000 </r>
       <r>  -13.6188    1.0000 </r>
       <r>  -13.5636    1.0000 </r>
       <r>  -12.5462    1.0000 </r>
       <r>  -12.4618    1.0000 </r>
       <r>   -5.3077    1.0000 </r>
       <r>   -5.0258    1.0000 </r>
       <r>   -3.2436    1.0000 </r>
       <r>   -3.2290    1.0000 </r>
       <r>   -2.9420    1.0000 </r>
       <r>   -2.6685    1.0000 </r>
       <r>   -2.2586    1.0000 </r>
       <r>   -2.2496    1.0000 </r>
       <r>   -1.9837    1.0000 </r>
       <r>   -1.9744    1.0000 </r>
       <r>   -1.2538    1.0000 </r>
       <r>   -0.9220    1.0000 </r>
       <r>   -0.3555    1.0000 </r>
       <r>   -0.1204    1.0000 </r>
       <r>    2.1934   -0.0000 </r>
       <r>    2.3795   -0.0000 </r>
       <r>    2.5126   -0.0000 </r>
       <r>    2.5789   -0.0000 </r>
       <r>    2.5908   -0.0000 </r>
       <r>    2.6396   -0.0000 </r>
       <r>    3.2152    0.0000 </r>
       <r>    3.2271    0.0000 </r>
       <r>    5.8207    0.0000 </r>
       <r>    6.1790    0.0000 </r>
       <r>    7.0230    0.0000 </r>
       <r>    7.8379    0.0000 </r>
      </set>
      <set comment="kpoint 22">
       <r>  -34.9534    1.0000 </r>
       <r>  -34.9437    1.0000 </r>
       <r>  -34.9155    1.0000 </r>
       <r>  -34.9061    1.0000 </r>
       <r>  -34.8211    1.0000 </r>
       <r>  -34.8117    1.0000 </r>
       <r>  -13.3868    1.0000 </r>
       <r>  -13.3334    1.0000 </r>
       <r>  -12.4478    1.0000 </r>
       <r>  -12.3708    1.0000 </r>
       <r>   -5.1063    1.0000 </r>
       <r>   -4.8426    1.0000 </r>
       <r>   -3.5500    1.0000 </r>
       <r>   -3.5244    1.0000 </r>
       <r>   -3.2157    1.0000 </r>
       <r>   -2.9864    1.0000 </r>
       <r>   -2.4476    1.0000 </r>
       <r>   -2.4252    1.0000 </r>
       <r>   -2.0618    1.0000 </r>
       <r>   -2.0523    1.0000 </r>
       <r>   -1.1535    1.0000 </r>
       <r>   -0.8808    1.0000 </r>
       <r>   -0.5286    1.0000 </r>
       <r>   -0.4007    1.0000 </r>
       <r>    1.9739   -0.0000 </r>
       <r>    2.2032   -0.0000 </r>
       <r>    2.4098   -0.0000 </r>
       <r>    2.4327   -0.0000 </r>
       <r>    2.4894   -0.0000 </r>
       <r>    2.6427   -0.0000 </r>
       <r>    3.5492    0.0000 </r>
       <r>    3.5788    0.0000 </r>
       <r>    6.1493    0.0000 </r>
       <r>    6.4965    0.0000 </r>
       <r>    7.2377    0.0000 </r>
       <r>    8.2285    0.0000 </r>
      </set>
      <set comment="kpoint 23">
       <r>  -34.9776    1.0000 </r>
       <r>  -34.9682    1.0000 </r>
       <r>  -34.9391    1.0000 </r>
       <r>  -34.9295    1.0000 </r>
       <r>  -34.8474    1.0000 </r>
       <r>  -34.8380    1.0000 </r>
       <r>  -13.0374    1.0000 </r>
       <r>  -12.9876    1.0000 </r>
       <r>  -12.2993    1.0000 </r>
       <r>  -12.2338    1.0000 </r>
       <r>   -4.9342    1.0000 </r>
       <r>   -4.7361    1.0000 </r>
       <r>   -3.7915    1.0000 </r>
       <r>   -3.7233    1.0000 </r>
       <r>   -3.5046    1.0000 </r>
       <r>   -3.3806    1.0000 </r>
       <r>   -3.0757    1.0000 </r>
       <r>   -2.9811    1.0000 </r>
       <r>   -1.9335    1.0000 </r>
       <r>   -1.9166    1.0000 </r>
       <r>   -1.1190    1.0000 </r>
       <r>   -0.9276    1.0000 </r>
       <r>   -0.7675    1.0000 </r>
       <r>   -0.7198    1.0000 </r>
       <r>    1.7765   -0.0000 </r>
       <r>    2.0041   -0.0000 </r>
       <r>    2.3372   -0.0000 </r>
       <r>    2.4168   -0.0000 </r>
       <r>    2.5386   -0.0000 </r>
       <r>    2.7253   -0.0000 </r>
       <r>    3.9410    0.0000 </r>
       <r>    4.0018    0.0000 </r>
       <r>    6.6921    0.0000 </r>
       <r>    6.9899    0.0000 </r>
       <r>    7.7505    0.0000 </r>
       <r>    8.7873    0.0000 </r>
      </set>
      <set comment="kpoint 24">
       <r>  -35.0404    1.0000 </r>
       <r>  -35.0310    1.0000 </r>
       <r>  -34.9239    1.0000 </r>
       <r>  -34.9143    1.0000 </r>
       <r>  -34.8777    1.0000 </r>
       <r>  -34.8684    1.0000 </r>
       <r>  -12.6298    1.0000 </r>
       <r>  -12.5869    1.0000 </r>
       <r>  -12.1261    1.0000 </r>
       <r>  -12.0753    1.0000 </r>
       <r>   -5.0102    1.0000 </r>
       <r>   -4.9048    1.0000 </r>
       <r>   -4.0823    1.0000 </r>
       <r>   -4.0442    1.0000 </r>
       <r>   -3.7482    1.0000 </r>
       <r>   -3.6463    1.0000 </r>
       <r>   -3.2969    1.0000 </r>
       <r>   -3.1516    1.0000 </r>
       <r>   -2.0631    1.0000 </r>
       <r>   -2.0345    1.0000 </r>
       <r>   -1.3253    1.0000 </r>
       <r>   -1.1916    1.0000 </r>
       <r>   -0.8289    1.0000 </r>
       <r>   -0.7959    1.0000 </r>
       <r>    1.7992   -0.0000 </r>
       <r>    2.0582   -0.0000 </r>
       <r>    2.4068   -0.0000 </r>
       <r>    2.4609   -0.0000 </r>
       <r>    2.7965   -0.0000 </r>
       <r>    2.9825   -0.0000 </r>
       <r>    4.2010    0.0000 </r>
       <r>    4.2773    0.0000 </r>
       <r>    7.3792    0.0000 </r>
       <r>    7.5808    0.0000 </r>
       <r>    8.1758    0.0000 </r>
       <r>    8.4787    0.0000 </r>
      </set>
      <set comment="kpoint 25">
       <r>  -35.0911    1.0000 </r>
       <r>  -35.0816    1.0000 </r>
       <r>  -34.9113    1.0000 </r>
       <r>  -34.9036    1.0000 </r>
       <r>  -34.9017    1.0000 </r>
       <r>  -34.8943    1.0000 </r>
       <r>  -12.2527    1.0000 </r>
       <r>  -12.2206    1.0000 </r>
       <r>  -11.9666    1.0000 </r>
       <r>  -11.9322    1.0000 </r>
       <r>   -5.2056    1.0000 </r>
       <r>   -5.1484    1.0000 </r>
       <r>   -4.6182    1.0000 </r>
       <r>   -4.5976    1.0000 </r>
       <r>   -3.7607    1.0000 </r>
       <r>   -3.6830    1.0000 </r>
       <r>   -3.2667    1.0000 </r>
       <r>   -3.1517    1.0000 </r>
       <r>   -2.2027    1.0000 </r>
       <r>   -2.1510    1.0000 </r>
       <r>   -1.6565    1.0000 </r>
       <r>   -1.5365    1.0000 </r>
       <r>   -0.6496    1.0000 </r>
       <r>   -0.6255    1.0000 </r>
       <r>    2.0199   -0.0000 </r>
       <r>    2.2295   -0.0000 </r>
       <r>    2.5278   -0.0000 </r>
       <r>    2.5640   -0.0000 </r>
       <r>    3.1465    0.0000 </r>
       <r>    3.2981    0.0000 </r>
       <r>    4.2863    0.0000 </r>
       <r>    4.3657    0.0000 </r>
       <r>    7.2085    0.0000 </r>
       <r>    7.4403    0.0000 </r>
       <r>    8.2481    0.0000 </r>
       <r>    8.5346    0.0000 </r>
      </set>
      <set comment="kpoint 26">
       <r>  -35.1192    1.0000 </r>
       <r>  -35.1097    1.0000 </r>
       <r>  -34.9185    1.0000 </r>
       <r>  -34.9092    1.0000 </r>
       <r>  -34.9042    1.0000 </r>
       <r>  -34.8945    1.0000 </r>
       <r>  -12.0176    1.0000 </r>
       <r>  -11.9970    1.0000 </r>
       <r>  -11.8676    1.0000 </r>
       <r>  -11.8469    1.0000 </r>
       <r>   -5.3268    1.0000 </r>
       <r>   -5.3014    1.0000 </r>
       <r>   -4.9245    1.0000 </r>
       <r>   -4.9070    1.0000 </r>
       <r>   -3.8962    1.0000 </r>
       <r>   -3.8361    1.0000 </r>
       <r>   -3.1648    1.0000 </r>
       <r>   -3.1096    1.0000 </r>
       <r>   -2.2124    1.0000 </r>
       <r>   -2.1359    1.0000 </r>
       <r>   -1.9092    1.0000 </r>
       <r>   -1.7831    1.0000 </r>
       <r>   -0.4154    1.0000 </r>
       <r>   -0.3923    1.0000 </r>
       <r>    2.0759   -0.0000 </r>
       <r>    2.1228   -0.0000 </r>
       <r>    2.7880   -0.0000 </r>
       <r>    2.8534   -0.0000 </r>
       <r>    3.4059    0.0000 </r>
       <r>    3.5142    0.0000 </r>
       <r>    4.2569    0.0000 </r>
       <r>    4.3323    0.0000 </r>
       <r>    6.5449    0.0000 </r>
       <r>    6.7468    0.0000 </r>
       <r>    8.8166    0.0000 </r>
       <r>    8.8619    0.0000 </r>
      </set>
      <set comment="kpoint 27">
       <r>  -35.1192    1.0000 </r>
       <r>  -35.1097    1.0000 </r>
       <r>  -34.9185    1.0000 </r>
       <r>  -34.9092    1.0000 </r>
       <r>  -34.9042    1.0000 </r>
       <r>  -34.8945    1.0000 </r>
       <r>  -12.0187    1.0000 </r>
       <r>  -11.9962    1.0000 </r>
       <r>  -11.8685    1.0000 </r>
       <r>  -11.8458    1.0000 </r>
       <r>   -5.3270    1.0000 </r>
       <r>   -5.3010    1.0000 </r>
       <r>   -4.9252    1.0000 </r>
       <r>   -4.9064    1.0000 </r>
       <r>   -3.8963    1.0000 </r>
       <r>   -3.8360    1.0000 </r>
       <r>   -3.1640    1.0000 </r>
       <r>   -3.1109    1.0000 </r>
       <r>   -2.2200    1.0000 </r>
       <r>   -2.1321    1.0000 </r>
       <r>   -1.9064    1.0000 </r>
       <r>   -1.7807    1.0000 </r>
       <r>   -0.4156    1.0000 </r>
       <r>   -0.3925    1.0000 </r>
       <r>    2.0776   -0.0000 </r>
       <r>    2.1212   -0.0000 </r>
       <r>    2.7885   -0.0000 </r>
       <r>    2.8526   -0.0000 </r>
       <r>    3.3896    0.0000 </r>
       <r>    3.5321    0.0000 </r>
       <r>    4.2574    0.0000 </r>
       <r>    4.3317    0.0000 </r>
       <r>    6.5451    0.0000 </r>
       <r>    6.7455    0.0000 </r>
       <r>    8.7972    0.0000 </r>
       <r>    9.0336    0.0000 </r>
      </set>
      <set comment="kpoint 28">
       <r>  -35.0910    1.0000 </r>
       <r>  -35.0815    1.0000 </r>
       <r>  -34.9113    1.0000 </r>
       <r>  -34.9036    1.0000 </r>
       <r>  -34.9017    1.0000 </r>
       <r>  -34.8944    1.0000 </r>
       <r>  -12.2543    1.0000 </r>
       <r>  -12.2193    1.0000 </r>
       <r>  -11.9680    1.0000 </r>
       <r>  -11.9304    1.0000 </r>
       <r>   -5.2056    1.0000 </r>
       <r>   -5.1479    1.0000 </r>
       <r>   -4.6200    1.0000 </r>
       <r>   -4.5957    1.0000 </r>
       <r>   -3.7641    1.0000 </r>
       <r>   -3.6802    1.0000 </r>
       <r>   -3.2679    1.0000 </r>
       <r>   -3.1520    1.0000 </r>
       <r>   -2.2121    1.0000 </r>
       <r>   -2.1444    1.0000 </r>
       <r>   -1.6572    1.0000 </r>
       <r>   -1.5286    1.0000 </r>
       <r>   -0.6497    1.0000 </r>
       <r>   -0.6263    1.0000 </r>
       <r>    2.0221   -0.0000 </r>
       <r>    2.2258   -0.0000 </r>
       <r>    2.5260   -0.0000 </r>
       <r>    2.5669   -0.0000 </r>
       <r>    3.1282    0.0000 </r>
       <r>    3.3192    0.0000 </r>
       <r>    4.2842    0.0000 </r>
       <r>    4.3664    0.0000 </r>
       <r>    7.2150    0.0000 </r>
       <r>    7.4326    0.0000 </r>
       <r>    8.2457    0.0000 </r>
       <r>    8.5417    0.0000 </r>
      </set>
      <set comment="kpoint 29">
       <r>  -35.0404    1.0000 </r>
       <r>  -35.0309    1.0000 </r>
       <r>  -34.9239    1.0000 </r>
       <r>  -34.9143    1.0000 </r>
       <r>  -34.8777    1.0000 </r>
       <r>  -34.8684    1.0000 </r>
       <r>  -12.6311    1.0000 </r>
       <r>  -12.5858    1.0000 </r>
       <r>  -12.1275    1.0000 </r>
       <r>  -12.0737    1.0000 </r>
       <r>   -5.0097    1.0000 </r>
       <r>   -4.9050    1.0000 </r>
       <r>   -4.0839    1.0000 </r>
       <r>   -4.0411    1.0000 </r>
       <r>   -3.7583    1.0000 </r>
       <r>   -3.6389    1.0000 </r>
       <r>   -3.2991    1.0000 </r>
       <r>   -3.1501    1.0000 </r>
       <r>   -2.0620    1.0000 </r>
       <r>   -2.0363    1.0000 </r>
       <r>   -1.3356    1.0000 </r>
       <r>   -1.1761    1.0000 </r>
       <r>   -0.8265    1.0000 </r>
       <r>   -0.7980    1.0000 </r>
       <r>    1.7981   -0.0000 </r>
       <r>    2.0582   -0.0000 </r>
       <r>    2.4055   -0.0000 </r>
       <r>    2.4639   -0.0000 </r>
       <r>    2.7859   -0.0000 </r>
       <r>    2.9925   -0.0000 </r>
       <r>    4.1966    0.0000 </r>
       <r>    4.2802    0.0000 </r>
       <r>    7.3789    0.0000 </r>
       <r>    7.5805    0.0000 </r>
       <r>    8.2093    0.0000 </r>
       <r>    8.4279    0.0000 </r>
      </set>
      <set comment="kpoint 30">
       <r>  -34.9776    1.0000 </r>
       <r>  -34.9681    1.0000 </r>
       <r>  -34.9391    1.0000 </r>
       <r>  -34.9294    1.0000 </r>
       <r>  -34.8474    1.0000 </r>
       <r>  -34.8381    1.0000 </r>
       <r>  -13.0383    1.0000 </r>
       <r>  -12.9869    1.0000 </r>
       <r>  -12.3004    1.0000 </r>
       <r>  -12.2325    1.0000 </r>
       <r>   -4.9341    1.0000 </r>
       <r>   -4.7365    1.0000 </r>
       <r>   -3.7985    1.0000 </r>
       <r>   -3.7149    1.0000 </r>
       <r>   -3.5056    1.0000 </r>
       <r>   -3.3810    1.0000 </r>
       <r>   -3.0794    1.0000 </r>
       <r>   -2.9781    1.0000 </r>
       <r>   -1.9325    1.0000 </r>
       <r>   -1.9179    1.0000 </r>
       <r>   -1.1365    1.0000 </r>
       <r>   -0.9136    1.0000 </r>
       <r>   -0.7692    1.0000 </r>
       <r>   -0.7074    1.0000 </r>
       <r>    1.7732   -0.0000 </r>
       <r>    2.0047   -0.0000 </r>
       <r>    2.3355   -0.0000 </r>
       <r>    2.4190   -0.0000 </r>
       <r>    2.5333   -0.0000 </r>
       <r>    2.7279   -0.0000 </r>
       <r>    3.9407    0.0000 </r>
       <r>    4.0013    0.0000 </r>
       <r>    6.6861    0.0000 </r>
       <r>    6.9911    0.0000 </r>
       <r>    7.7398    0.0000 </r>
       <r>    8.5570    0.0000 </r>
      </set>
      <set comment="kpoint 31">
       <r>  -34.9534    1.0000 </r>
       <r>  -34.9437    1.0000 </r>
       <r>  -34.9155    1.0000 </r>
       <r>  -34.9060    1.0000 </r>
       <r>  -34.8211    1.0000 </r>
       <r>  -34.8117    1.0000 </r>
       <r>  -13.3873    1.0000 </r>
       <r>  -13.3329    1.0000 </r>
       <r>  -12.4486    1.0000 </r>
       <r>  -12.3700    1.0000 </r>
       <r>   -5.1071    1.0000 </r>
       <r>   -4.8421    1.0000 </r>
       <r>   -3.5535    1.0000 </r>
       <r>   -3.5210    1.0000 </r>
       <r>   -3.2151    1.0000 </r>
       <r>   -2.9865    1.0000 </r>
       <r>   -2.4488    1.0000 </r>
       <r>   -2.4250    1.0000 </r>
       <r>   -2.0620    1.0000 </r>
       <r>   -2.0520    1.0000 </r>
       <r>   -1.1713    1.0000 </r>
       <r>   -0.8672    1.0000 </r>
       <r>   -0.5337    1.0000 </r>
       <r>   -0.3816    1.0000 </r>
       <r>    1.9642   -0.0000 </r>
       <r>    2.2021   -0.0000 </r>
       <r>    2.4116   -0.0000 </r>
       <r>    2.4293   -0.0000 </r>
       <r>    2.4866   -0.0000 </r>
       <r>    2.6482   -0.0000 </r>
       <r>    3.5552    0.0000 </r>
       <r>    3.5726    0.0000 </r>
       <r>    6.1489    0.0000 </r>
       <r>    6.4979    0.0000 </r>
       <r>    7.2351    0.0000 </r>
       <r>    8.2690    0.0000 </r>
      </set>
      <set comment="kpoint 32">
       <r>  -34.9635    1.0000 </r>
       <r>  -34.9538    1.0000 </r>
       <r>  -34.8674    1.0000 </r>
       <r>  -34.8580    1.0000 </r>
       <r>  -34.8060    1.0000 </r>
       <r>  -34.7966    1.0000 </r>
       <r>  -13.6191    1.0000 </r>
       <r>  -13.5634    1.0000 </r>
       <r>  -12.5466    1.0000 </r>
       <r>  -12.4614    1.0000 </r>
       <r>   -5.3083    1.0000 </r>
       <r>   -5.0253    1.0000 </r>
       <r>   -3.2451    1.0000 </r>
       <r>   -3.2277    1.0000 </r>
       <r>   -2.9414    1.0000 </r>
       <r>   -2.6683    1.0000 </r>
       <r>   -2.2591    1.0000 </r>
       <r>   -2.2491    1.0000 </r>
       <r>   -1.9848    1.0000 </r>
       <r>   -1.9733    1.0000 </r>
       <r>   -1.2678    1.0000 </r>
       <r>   -0.9112    1.0000 </r>
       <r>   -0.3588    1.0000 </r>
       <r>   -0.1068    1.0000 </r>
       <r>    2.1781   -0.0000 </r>
       <r>    2.3812   -0.0000 </r>
       <r>    2.5086   -0.0000 </r>
       <r>    2.5696   -0.0000 </r>
       <r>    2.5997   -0.0000 </r>
       <r>    2.6488   -0.0000 </r>
       <r>    3.2072    0.0000 </r>
       <r>    3.2354    0.0000 </r>
       <r>    5.8205    0.0000 </r>
       <r>    6.1799    0.0000 </r>
       <r>    7.0058    0.0000 </r>
       <r>    7.8559    0.0000 </r>
      </set>
      <set comment="kpoint 33">
       <r>  -34.9671    1.0000 </r>
       <r>  -34.9575    1.0000 </r>
       <r>  -34.8478    1.0000 </r>
       <r>  -34.8385    1.0000 </r>
       <r>  -34.8027    1.0000 </r>
       <r>  -34.7932    1.0000 </r>
       <r>  -13.6999    1.0000 </r>
       <r>  -13.6440    1.0000 </r>
       <r>  -12.5806    1.0000 </r>
       <r>  -12.4934    1.0000 </r>
       <r>   -5.3867    1.0000 </r>
       <r>   -5.1004    1.0000 </r>
       <r>   -3.1061    1.0000 </r>
       <r>   -3.0953    1.0000 </r>
       <r>   -2.7795    1.0000 </r>
       <r>   -2.4671    1.0000 </r>
       <r>   -2.3461    1.0000 </r>
       <r>   -2.3371    1.0000 </r>
       <r>   -1.9621    1.0000 </r>
       <r>   -1.9521    1.0000 </r>
       <r>   -1.1892    1.0000 </r>
       <r>   -0.8627    1.0000 </r>
       <r>   -0.3021    1.0000 </r>
       <r>   -0.0112    1.0002 </r>
       <r>    2.2989   -0.0000 </r>
       <r>    2.4375   -0.0000 </r>
       <r>    2.4724   -0.0000 </r>
       <r>    2.5724   -0.0000 </r>
       <r>    2.6436   -0.0000 </r>
       <r>    2.6574   -0.0000 </r>
       <r>    3.1463    0.0000 </r>
       <r>    3.1588    0.0000 </r>
       <r>    5.7061    0.0000 </r>
       <r>    6.0727    0.0000 </r>
       <r>    6.9834    0.0000 </r>
       <r>    7.6114    0.0000 </r>
      </set>
      <set comment="kpoint 34">
       <r>  -34.9489    1.0000 </r>
       <r>  -34.9473    1.0000 </r>
       <r>  -34.9396    1.0000 </r>
       <r>  -34.9377    1.0000 </r>
       <r>  -34.8248    1.0000 </r>
       <r>  -34.8153    1.0000 </r>
       <r>  -13.2433    1.0000 </r>
       <r>  -13.1905    1.0000 </r>
       <r>  -12.3883    1.0000 </r>
       <r>  -12.3148    1.0000 </r>
       <r>   -5.0436    1.0000 </r>
       <r>   -4.8091    1.0000 </r>
       <r>   -3.7091    1.0000 </r>
       <r>   -3.6563    1.0000 </r>
       <r>   -3.4713    1.0000 </r>
       <r>   -3.2877    1.0000 </r>
       <r>   -2.3787    1.0000 </r>
       <r>   -2.3693    1.0000 </r>
       <r>   -1.8891    1.0000 </r>
       <r>   -1.8799    1.0000 </r>
       <r>   -1.4245    1.0000 </r>
       <r>   -1.1128    1.0000 </r>
       <r>   -0.6734    1.0000 </r>
       <r>   -0.5693    1.0000 </r>
       <r>    1.9621   -0.0000 </r>
       <r>    2.2545   -0.0000 </r>
       <r>    2.3283   -0.0000 </r>
       <r>    2.3415   -0.0000 </r>
       <r>    2.7105   -0.0000 </r>
       <r>    2.9181   -0.0000 </r>
       <r>    3.5976    0.0000 </r>
       <r>    3.6119    0.0000 </r>
       <r>    6.3575    0.0000 </r>
       <r>    6.6726    0.0000 </r>
       <r>    7.3887    0.0000 </r>
       <r>    8.1633    0.0000 </r>
      </set>
      <set comment="kpoint 35">
       <r>  -34.9958    1.0000 </r>
       <r>  -34.9864    1.0000 </r>
       <r>  -34.9368    1.0000 </r>
       <r>  -34.9271    1.0000 </r>
       <r>  -34.8435    1.0000 </r>
       <r>  -34.8340    1.0000 </r>
       <r>  -12.9764    1.0000 </r>
       <r>  -12.9268    1.0000 </r>
       <r>  -12.2755    1.0000 </r>
       <r>  -12.2110    1.0000 </r>
       <r>   -4.9824    1.0000 </r>
       <r>   -4.8122    1.0000 </r>
       <r>   -3.8556    1.0000 </r>
       <r>   -3.7564    1.0000 </r>
       <r>   -3.6988    1.0000 </r>
       <r>   -3.5808    1.0000 </r>
       <r>   -2.8430    1.0000 </r>
       <r>   -2.7870    1.0000 </r>
       <r>   -1.7793    1.0000 </r>
       <r>   -1.7664    1.0000 </r>
       <r>   -1.3651    1.0000 </r>
       <r>   -1.1317    1.0000 </r>
       <r>   -0.8344    1.0000 </r>
       <r>   -0.7757    1.0000 </r>
       <r>    1.8679   -0.0000 </r>
       <r>    2.0772   -0.0000 </r>
       <r>    2.2950   -0.0000 </r>
       <r>    2.3858   -0.0000 </r>
       <r>    2.7697   -0.0000 </r>
       <r>    2.9598   -0.0000 </r>
       <r>    3.9034    0.0000 </r>
       <r>    3.9404    0.0000 </r>
       <r>    6.7778    0.0000 </r>
       <r>    7.0487    0.0000 </r>
       <r>    7.7738    0.0000 </r>
       <r>    8.3319    0.0000 </r>
      </set>
      <set comment="kpoint 36">
       <r>  -35.0404    1.0000 </r>
       <r>  -35.0310    1.0000 </r>
       <r>  -34.9239    1.0000 </r>
       <r>  -34.9143    1.0000 </r>
       <r>  -34.8777    1.0000 </r>
       <r>  -34.8683    1.0000 </r>
       <r>  -12.6304    1.0000 </r>
       <r>  -12.5864    1.0000 </r>
       <r>  -12.1268    1.0000 </r>
       <r>  -12.0745    1.0000 </r>
       <r>   -5.0101    1.0000 </r>
       <r>   -4.9045    1.0000 </r>
       <r>   -4.0834    1.0000 </r>
       <r>   -4.0396    1.0000 </r>
       <r>   -3.7641    1.0000 </r>
       <r>   -3.6376    1.0000 </r>
[...]
       <r>    -2.1214     2.1504    18.6001 </r>
       <r>    -1.9590     3.8424    19.2240 </r>
       <r>    -1.7966     3.2743    19.7557 </r>
       <r>    -1.6343     3.5399    20.3305 </r>
       <r>    -1.4719     2.6967    20.7684 </r>
       <r>    -1.3095     3.0324    21.2608 </r>
       <r>    -1.1471     1.7011    21.5370 </r>
       <r>    -0.9847     1.6703    21.8082 </r>
       <r>    -0.8224     3.0374    22.3014 </r>
       <r>    -0.6600     3.1144    22.8071 </r>
       <r>    -0.4976     2.5171    23.2158 </r>
       <r>    -0.3352     2.5750    23.6340 </r>
       <r>    -0.1729     1.1357    23.8184 </r>
       <r>    -0.0105     0.7904    23.9467 </r>
       <r>     0.1519     0.1754    23.9752 </r>
       <r>     0.3143     0.1579    24.0008 </r>
       <r>     0.4766    -0.0051    24.0000 </r>
       <r>     0.6390    -0.0001    24.0000 </r>
       <r>     0.8014    -0.0000    24.0000 </r>
       <r>     0.9638    -0.0000    24.0000 </r>
       <r>     1.1262    -0.0000    24.0000 </r>
       <r>     1.2885    -0.0000    24.0000 </r>
       <r>     1.4509    -0.0005    23.9999 </r>
       <r>     1.6133    -0.0130    23.9978 </r>
       <r>     1.7757     0.6697    24.1066 </r>
       <r>     1.9380     1.7156    24.3851 </r>
       <r>     2.1004     4.3207    25.0867 </r>
       <r>     2.2628     4.5999    25.8336 </r>
       <r>     2.4252     4.0087    26.4846 </r>
       <r>     2.5875     5.2387    27.3352 </r>
       <r>     2.7499     4.0381    27.9909 </r>
       <r>     2.9123     3.1344    28.4998 </r>
       <r>     3.0747     2.5699    28.9171 </r>
       <r>     3.2371     2.9871    29.4022 </r>
       <r>     3.3994     1.8113    29.6963 </r>
       <r>     3.5618     1.8352    29.9943 </r>
       <r>     3.7242     1.5198    30.2411 </r>
       <r>     3.8866     1.2114    30.4378 </r>
       <r>     4.0489     2.0913    30.7774 </r>
       <r>     4.2113     2.9447    31.2555 </r>
       <r>     4.3737     2.0723    31.5920 </r>
       <r>     4.5361     1.2929    31.8019 </r>
       <r>     4.6985     0.9203    31.9514 </r>
       <r>     4.8608     0.3032    32.0006 </r>
       <r>     5.0232    -0.0034    32.0001 </r>
       <r>     5.1856    -0.0014    31.9998 </r>
       <r>     5.3480     0.0165    32.0025 </r>
       <r>     5.5103     0.2062    32.0360 </r>
       <r>     5.6727     0.0877    32.0502 </r>
       <r>     5.8351     0.4611    32.1251 </r>
       <r>     5.9975     0.2733    32.1695 </r>
       <r>     6.1598     0.7801    32.2961 </r>
       <r>     6.3222     0.6373    32.3996 </r>
       <r>     6.4846     0.9665    32.5566 </r>
       <r>     6.6470     1.2634    32.7617 </r>
       <r>     6.8094     1.0707    32.9356 </r>
       <r>     6.9717     1.6113    33.1972 </r>
       <r>     7.1341     1.9545    33.5146 </r>
       <r>     7.2965     1.2326    33.7147 </r>
       <r>     7.4589     1.6692    33.9858 </r>
       <r>     7.6212     1.7057    34.2627 </r>
       <r>     7.7836     1.2069    34.4587 </r>
       <r>     7.9460     1.2832    34.6671 </r>
       <r>     8.1084     1.2259    34.8661 </r>
       <r>     8.2707     2.3428    35.2466 </r>
       <r>     8.4331     1.8461    35.5463 </r>
       <r>     8.5955     1.1151    35.7274 </r>
       <r>     8.7579     0.8120    35.8592 </r>
       <r>     8.9203     0.6244    35.9606 </r>
       <r>     9.0826     0.2395    35.9995 </r>
       <r>     9.2450     0.0034    36.0001 </r>
       <r>     9.4074    -0.0005    36.0000 </r>
       <r>     9.5698    -0.0000    36.0000 </r>
       <r>     9.7321    -0.0000    36.0000 </r>
       <r>     9.8945     0.0000    36.0000 </r>
       <r>    10.0569     0.0000    36.0000 </r>
       <r>    10.2193     0.0000    36.0000 </r>
       <r>    10.3817     0.0000    36.0000 </r>
       <r>    10.5440     0.0000    36.0000 </r>
       <r>    10.7064     0.0000    36.0000 </r>
       <r>    10.8688     0.0000    36.0000 </r>
       <r>    11.0312     0.0000    36.0000 </r>
       <r>    11.1935     0.0000    36.0000 </r>
       <r>    11.3559     0.0000    36.0000 </r>
      </set>
      <set comment="spin 2">
       <r>   -37.3572     0.0000     0.0000 </r>
       <r>   -37.1949     0.0000     0.0000 </r>
       <r>   -37.0325     0.0000     0.0000 </r>
       <r>   -36.8701     0.0000     0.0000 </r>
       <r>   -36.7077     0.0000     0.0000 </r>
       <r>   -36.5453     0.0000     0.0000 </r>
       <r>   -36.3830     0.0000     0.0000 </r>
       <r>   -36.2206     0.0000     0.0000 </r>
       <r>   -36.0582    -0.0000    -0.0000 </r>
       <r>   -35.8958    -0.0000    -0.0000 </r>
       <r>   -35.7335    -0.0000    -0.0000 </r>
       <r>   -35.5711    -0.0000    -0.0000 </r>
       <r>   -35.4087    -0.0007    -0.0001 </r>
       <r>   -35.2463    -0.1825    -0.0297 </r>
       <r>   -35.0840     4.0055     0.6207 </r>
       <r>   -34.9216    15.0251     3.0604 </r>
       <r>   -34.7592    18.0779     5.9958 </r>
       <r>   -34.5968     0.0536     6.0045 </r>
       <r>   -34.4344    -0.0279     6.0000 </r>
       <r>   -34.2721    -0.0000     6.0000 </r>
       <r>   -34.1097    -0.0000     6.0000 </r>
       <r>   -33.9473     0.0000     6.0000 </r>
       <r>   -33.7849     0.0000     6.0000 </r>
       <r>   -33.6226     0.0000     6.0000 </r>
       <r>   -33.4602     0.0000     6.0000 </r>
       <r>   -33.2978     0.0000     6.0000 </r>
       <r>   -33.1354     0.0000     6.0000 </r>
       <r>   -32.9730     0.0000     6.0000 </r>
       <r>   -32.8107     0.0000     6.0000 </r>
       <r>   -32.6483     0.0000     6.0000 </r>
       <r>   -32.4859     0.0000     6.0000 </r>
       <r>   -32.3235     0.0000     6.0000 </r>
       <r>   -32.1612     0.0000     6.0000 </r>
       <r>   -31.9988     0.0000     6.0000 </r>
       <r>   -31.8364     0.0000     6.0000 </r>
       <r>   -31.6740     0.0000     6.0000 </r>
       <r>   -31.5117     0.0000     6.0000 </r>
       <r>   -31.3493     0.0000     6.0000 </r>
       <r>   -31.1869     0.0000     6.0000 </r>
       <r>   -31.0245     0.0000     6.0000 </r>
       <r>   -30.8621     0.0000     6.0000 </r>
       <r>   -30.6998     0.0000     6.0000 </r>
       <r>   -30.5374     0.0000     6.0000 </r>
       <r>   -30.3750     0.0000     6.0000 </r>
       <r>   -30.2126     0.0000     6.0000 </r>
       <r>   -30.0503     0.0000     6.0000 </r>
       <r>   -29.8879     0.0000     6.0000 </r>
       <r>   -29.7255     0.0000     6.0000 </r>
       <r>   -29.5631     0.0000     6.0000 </r>
       <r>   -29.4008     0.0000     6.0000 </r>
       <r>   -29.2384     0.0000     6.0000 </r>
       <r>   -29.0760     0.0000     6.0000 </r>
       <r>   -28.9136     0.0000     6.0000 </r>
       <r>   -28.7512     0.0000     6.0000 </r>
       <r>   -28.5889     0.0000     6.0000 </r>
       <r>   -28.4265     0.0000     6.0000 </r>
       <r>   -28.2641     0.0000     6.0000 </r>
       <r>   -28.1017     0.0000     6.0000 </r>
       <r>   -27.9394     0.0000     6.0000 </r>
       <r>   -27.7770     0.0000     6.0000 </r>
       <r>   -27.6146     0.0000     6.0000 </r>
       <r>   -27.4522     0.0000     6.0000 </r>
       <r>   -27.2898     0.0000     6.0000 </r>
       <r>   -27.1275     0.0000     6.0000 </r>
       <r>   -26.9651     0.0000     6.0000 </r>
       <r>   -26.8027     0.0000     6.0000 </r>
       <r>   -26.6403     0.0000     6.0000 </r>
       <r>   -26.4780     0.0000     6.0000 </r>
       <r>   -26.3156     0.0000     6.0000 </r>
       <r>   -26.1532     0.0000     6.0000 </r>
       <r>   -25.9908     0.0000     6.0000 </r>
       <r>   -25.8285     0.0000     6.0000 </r>
       <r>   -25.6661     0.0000     6.0000 </r>
       <r>   -25.5037     0.0000     6.0000 </r>
       <r>   -25.3413     0.0000     6.0000 </r>
       <r>   -25.1789     0.0000     6.0000 </r>
       <r>   -25.0166     0.0000     6.0000 </r>
       <r>   -24.8542     0.0000     6.0000 </r>
       <r>   -24.6918     0.0000     6.0000 </r>
       <r>   -24.5294     0.0000     6.0000 </r>
       <r>   -24.3671     0.0000     6.0000 </r>
       <r>   -24.2047     0.0000     6.0000 </r>
       <r>   -24.0423     0.0000     6.0000 </r>
       <r>   -23.8799     0.0000     6.0000 </r>
       <r>   -23.7176     0.0000     6.0000 </r>
       <r>   -23.5552     0.0000     6.0000 </r>
       <r>   -23.3928     0.0000     6.0000 </r>
       <r>   -23.2304     0.0000     6.0000 </r>
       <r>   -23.0680     0.0000     6.0000 </r>
       <r>   -22.9057     0.0000     6.0000 </r>
       <r>   -22.7433     0.0000     6.0000 </r>
       <r>   -22.5809     0.0000     6.0000 </r>
       <r>   -22.4185     0.0000     6.0000 </r>
       <r>   -22.2562     0.0000     6.0000 </r>
       <r>   -22.0938     0.0000     6.0000 </r>
       <r>   -21.9314     0.0000     6.0000 </r>
       <r>   -21.7690     0.0000     6.0000 </r>
       <r>   -21.6066     0.0000     6.0000 </r>
       <r>   -21.4443     0.0000     6.0000 </r>
       <r>   -21.2819     0.0000     6.0000 </r>
       <r>   -21.1195     0.0000     6.0000 </r>
       <r>   -20.9571     0.0000     6.0000 </r>
       <r>   -20.7948     0.0000     6.0000 </r>
       <r>   -20.6324     0.0000     6.0000 </r>
       <r>   -20.4700     0.0000     6.0000 </r>
       <r>   -20.3076     0.0000     6.0000 </r>
       <r>   -20.1453     0.0000     6.0000 </r>
       <r>   -19.9829     0.0000     6.0000 </r>
       <r>   -19.8205     0.0000     6.0000 </r>
       <r>   -19.6581     0.0000     6.0000 </r>
       <r>   -19.4957     0.0000     6.0000 </r>
       <r>   -19.3334     0.0000     6.0000 </r>
       <r>   -19.1710     0.0000     6.0000 </r>
       <r>   -19.0086     0.0000     6.0000 </r>
       <r>   -18.8462     0.0000     6.0000 </r>
       <r>   -18.6839     0.0000     6.0000 </r>
       <r>   -18.5215     0.0000     6.0000 </r>
       <r>   -18.3591     0.0000     6.0000 </r>
       <r>   -18.1967     0.0000     6.0000 </r>
       <r>   -18.0344     0.0000     6.0000 </r>
       <r>   -17.8720     0.0000     6.0000 </r>
       <r>   -17.7096     0.0000     6.0000 </r>
       <r>   -17.5472     0.0000     6.0000 </r>
       <r>   -17.3848     0.0000     6.0000 </r>
       <r>   -17.2225     0.0000     6.0000 </r>
       <r>   -17.0601     0.0000     6.0000 </r>
       <r>   -16.8977     0.0000     6.0000 </r>
       <r>   -16.7353     0.0000     6.0000 </r>
       <r>   -16.5730     0.0000     6.0000 </r>
       <r>   -16.4106     0.0000     6.0000 </r>
       <r>   -16.2482     0.0000     6.0000 </r>
       <r>   -16.0858     0.0000     6.0000 </r>
       <r>   -15.9234     0.0000     6.0000 </r>
       <r>   -15.7611     0.0000     6.0000 </r>
       <r>   -15.5987     0.0000     6.0000 </r>
       <r>   -15.4363     0.0000     6.0000 </r>
       <r>   -15.2739     0.0000     6.0000 </r>
       <r>   -15.1116     0.0000     6.0000 </r>
       <r>   -14.9492     0.0000     6.0000 </r>
       <r>   -14.7868    -0.0000     6.0000 </r>
       <r>   -14.6244    -0.0000     6.0000 </r>
       <r>   -14.4621    -0.0000     6.0000 </r>
       <r>   -14.2997    -0.0000     6.0000 </r>
       <r>   -14.1373    -0.0007     5.9999 </r>
       <r>   -13.9749     0.0020     6.0002 </r>
       <r>   -13.8125     0.3647     6.0594 </r>
       <r>   -13.6502     0.4956     6.1399 </r>
       <r>   -13.4878     0.5104     6.2228 </r>
       <r>   -13.3254     0.6656     6.3309 </r>
       <r>   -13.1630     0.5903     6.4267 </r>
       <r>   -13.0007     0.4794     6.5045 </r>
       <r>   -12.8383     0.9696     6.6620 </r>
       <r>   -12.6759     0.4858     6.7409 </r>
       <r>   -12.5135     2.2244     7.1021 </r>
       <r>   -12.3512     2.0426     7.4337 </r>
       <r>   -12.1888     3.3882     7.9839 </r>
       <r>   -12.0264     4.0729     8.6453 </r>
       <r>   -11.8640     5.7886     9.5852 </r>
       <r>   -11.7016     2.6008    10.0075 </r>
       <r>   -11.5393    -0.0438    10.0004 </r>
       <r>   -11.3769    -0.0024    10.0000 </r>
       <r>   -11.2145    -0.0000    10.0000 </r>
       <r>   -11.0521    -0.0000    10.0000 </r>
       <r>   -10.8898     0.0000    10.0000 </r>
       <r>   -10.7274     0.0000    10.0000 </r>
       <r>   -10.5650     0.0000    10.0000 </r>
       <r>   -10.4026     0.0000    10.0000 </r>
       <r>   -10.2402     0.0000    10.0000 </r>
       <r>   -10.0779     0.0000    10.0000 </r>
       <r>    -9.9155     0.0000    10.0000 </r>
       <r>    -9.7531     0.0000    10.0000 </r>
       <r>    -9.5907     0.0000    10.0000 </r>
       <r>    -9.4284     0.0000    10.0000 </r>
       <r>    -9.2660     0.0000    10.0000 </r>
       <r>    -9.1036     0.0000    10.0000 </r>
       <r>    -8.9412     0.0000    10.0000 </r>
       <r>    -8.7789     0.0000    10.0000 </r>
       <r>    -8.6165     0.0000    10.0000 </r>
       <r>    -8.4541     0.0000    10.0000 </r>
       <r>    -8.2917     0.0000    10.0000 </r>
       <r>    -8.1293     0.0000    10.0000 </r>
       <r>    -7.9670     0.0000    10.0000 </r>
       <r>    -7.8046     0.0000    10.0000 </r>
       <r>    -7.6422     0.0000    10.0000 </r>
       <r>    -7.4798     0.0000    10.0000 </r>
       <r>    -7.3175     0.0000    10.0000 </r>
       <r>    -7.1551     0.0000    10.0000 </r>
       <r>    -6.9927     0.0000    10.0000 </r>
       <r>    -6.8303     0.0000    10.0000 </r>
       <r>    -6.6679     0.0000    10.0000 </r>
       <r>    -6.5056    -0.0000    10.0000 </r>
       <r>    -6.3432    -0.0000    10.0000 </r>
       <r>    -6.1808    -0.0000    10.0000 </r>
       <r>    -6.0184    -0.0000    10.0000 </r>
       <r>    -5.8561    -0.0024     9.9996 </r>
       <r>    -5.6937     0.0267    10.0040 </r>
       <r>    -5.5313     1.0117    10.1682 </r>
       <r>    -5.3689     1.4750    10.4077 </r>
       <r>    -5.2066     2.4348    10.8031 </r>
       <r>    -5.0442     3.4483    11.3630 </r>
       <r>    -4.8818     4.6058    12.1109 </r>
       <r>    -4.7194     1.9806    12.4325 </r>
       <r>    -4.5570     2.7579    12.8803 </r>
       <r>    -4.3947     0.5272    12.9659 </r>
       <r>    -4.2323     0.5993    13.0632 </r>
       <r>    -4.0699     0.9527    13.2179 </r>
       <r>    -3.9075     2.4008    13.6078 </r>
       <r>    -3.7452     4.9665    14.4142 </r>
       <r>    -3.5828     3.9313    15.0526 </r>
       <r>    -3.4204     2.0336    15.3828 </r>
       <r>    -3.2580     1.4816    15.6234 </r>
       <r>    -3.0957     5.0228    16.4389 </r>
       <r>    -2.9333     4.4690    17.1646 </r>
       <r>    -2.7709     2.4308    17.5593 </r>
       <r>    -2.6085     1.1197    17.7411 </r>
       <r>    -2.4461     1.4761    17.9808 </r>
       <r>    -2.2838     1.6648    18.2511 </r>
       <r>    -2.1214     2.1609    18.6020 </r>
       <r>    -1.9590     3.8455    19.2264 </r>
       <r>    -1.7966     3.2702    19.7574 </r>
       <r>    -1.6343     3.5451    20.3331 </r>
       <r>    -1.4719     2.6964    20.7709 </r>
       <r>    -1.3095     3.0205    21.2614 </r>
       <r>    -1.1471     1.7117    21.5393 </r>
       <r>    -0.9847     1.6638    21.8095 </r>
       <r>    -0.8224     3.0356    22.3024 </r>
       <r>    -0.6600     3.1075    22.8070 </r>
       <r>    -0.4976     2.5187    23.2160 </r>
       <r>    -0.3352     2.5736    23.6339 </r>
       <r>    -0.1729     1.1354    23.8183 </r>
       <r>    -0.0105     0.7901    23.9466 </r>
       <r>     0.1519     0.1757    23.9751 </r>
       <r>     0.3143     0.1586    24.0008 </r>
       <r>     0.4766    -0.0051    24.0000 </r>
       <r>     0.6390    -0.0001    24.0000 </r>
       <r>     0.8014    -0.0000    24.0000 </r>
       <r>     0.9638    -0.0000    24.0000 </r>
       <r>     1.1262    -0.0000    24.0000 </r>
       <r>     1.2885    -0.0000    24.0000 </r>
       <r>     1.4509    -0.0005    23.9999 </r>
       <r>     1.6133    -0.0133    23.9978 </r>
       <r>     1.7757     0.6648    24.1057 </r>
       <r>     1.9380     1.7115    24.3836 </r>
       <r>     2.1004     4.3243    25.0858 </r>
       <r>     2.2628     4.6082    25.8340 </r>
       <r>     2.4252     4.0169    26.4863 </r>
       <r>     2.5875     5.2260    27.3349 </r>
       <r>     2.7499     4.0424    27.9913 </r>
       <r>     2.9123     3.1347    28.5003 </r>
       <r>     3.0747     2.5717    28.9179 </r>
       <r>     3.2371     2.9884    29.4031 </r>
       <r>     3.3994     1.8086    29.6968 </r>
       <r>     3.5618     1.8389    29.9954 </r>
       <r>     3.7242     1.5156    30.2415 </r>
       <r>     3.8866     1.2150    30.4388 </r>
       <r>     4.0489     2.0904    30.7782 </r>
       <r>     4.2113     2.9480    31.2569 </r>
       <r>     4.3737     2.0696    31.5929 </r>
       <r>     4.5361     1.2895    31.8023 </r>
       <r>     4.6985     0.9199    31.9517 </r>
       <r>     4.8608     0.3013    32.0006 </r>
       <r>     5.0232    -0.0036    32.0000 </r>
       <r>     5.1856    -0.0005    32.0000 </r>
       <r>     5.3480     0.0016    32.0002 </r>
       <r>     5.5103     0.1053    32.0173 </r>
       <r>     5.6727     0.1487    32.0415 </r>
       <r>     5.8351     0.2849    32.0877 </r>
       <r>     5.9975     0.5073    32.1701 </r>
       <r>     6.1598     0.4112    32.2369 </r>
       <r>     6.3222     0.9446    32.3902 </r>
       <r>     6.4846     0.9836    32.5500 </r>
       <r>     6.6470     1.1913    32.7434 </r>
       <r>     6.8094     1.0951    32.9212 </r>
       <r>     6.9717     1.8089    33.2149 </r>
       <r>     7.1341     1.6889    33.4892 </r>
       <r>     7.2965     1.3465    33.7078 </r>
       <r>     7.4589     1.5611    33.9613 </r>
       <r>     7.6212     1.6503    34.2293 </r>
       <r>     7.7836     1.7267    34.5097 </r>
       <r>     7.9460     0.8514    34.6479 </r>
       <r>     8.1084     1.0937    34.8255 </r>
       <r>     8.2707     2.4679    35.2262 </r>
       <r>     8.4331     2.3482    35.6075 </r>
       <r>     8.5955     0.8133    35.7396 </r>
       <r>     8.7579     0.6776    35.8496 </r>
       <r>     8.9203     0.5472    35.9385 </r>
       <r>     9.0826     0.2678    35.9820 </r>
       <r>     9.2450     0.1157    36.0007 </r>
       <r>     9.4074    -0.0046    36.0000 </r>
       <r>     9.5698    -0.0000    36.0000 </r>
       <r>     9.7321    -0.0000    36.0000 </r>
       <r>     9.8945    -0.0000    36.0000 </r>
       <r>    10.0569     0.0000    36.0000 </r>
       <r>    10.2193     0.0000    36.0000 </r>
       <r>    10.3817     0.0000    36.0000 </r>
       <r>    10.5440     0.0000    36.0000 </r>
       <r>    10.7064     0.0000    36.0000 </r>
       <r>    10.8688     0.0000    36.0000 </r>
       <r>    11.0312     0.0000    36.0000 </r>
       <r>    11.1935     0.0000    36.0000 </r>
       <r>    11.3559     0.0000    36.0000 </r>
      </set>
     </set>
    </array>
   </total>
  </dos>
 </calculation>
 <structure name="finalpos" >
  <crystal>
   <varray name="basis" >
    <v>       3.19031700       0.00000000       0.00000000 </v>
    <v>      -1.59515800       2.76289700       0.00000000 </v>
    <v>       0.00000000       0.00000000      23.14049200 </v>
   </varray>
   <i name="volume">    203.97226633 </i>
   <varray name="rec_basis" >
    <v>       0.31344848       0.18096941       0.00000000 </v>
    <v>       0.00000000       0.36193894       0.00000000 </v>
    <v>       0.00000000       0.00000000       0.04321429 </v>
   </varray>
  </crystal>
  <varray name="positions" >
   <v>       0.66666700       0.33333300       0.06785900 </v>
   <v>       0.33333300       0.66666700       0.00000000 </v>
   <v>       0.33333300       0.66666700       0.13571500 </v>
   <v>       0.23809557       0.04761871       0.35482300 </v>
   <v>       0.90476157       0.38095271       0.28696500 </v>
   <v>       0.90476157       0.38095271       0.42267900 </v>
  </varray>
 </structure>
</modeling>
