<?xml version="1.0" encoding="ISO-8859-1"?>
<modeling>
 <generator>
  <i name="program" type="string">vasp </i>
  <i name="version" type="string">5.3.5  </i>
  <i name="subversion" type="string">31Mar14 (build Oct 29 2014 16:16:03) complex                          parallel </i>
  <i name="platform" type="string">Linux-UFHPC </i>
  <i name="date" type="string">2016 02 09 </i>
  <i name="time" type="string">17:51:26 </i>
 </generator>
 <incar>
  <i type="string" name="PREC">accurate</i>
  <i type="int" name="IBRION">     2</i>
  <i name="EDIFF">      0.00000100</i>
  <i type="int" name="NSW">     0</i>
  <i type="int" name="ISIF">     3</i>
  <i name="ENCUT">    300.00000000</i>
  <i type="string" name="LREAL"> Auto</i>
  <i type="int" name="ISMEAR">     0</i>
  <i name="SIGMA">      0.10000000</i>
  <i type="logical" name="LWAVE"> F  </i>
  <i type="logical" name="LCHARG"> F  </i>
  <i type="logical" name="LAECHG"> F  </i>
  <i type="string" name="GGA"> Bo</i>
  <i name="PARAM1">      0.18333333</i>
  <i name="PARAM2">      0.22000000</i>
  <i type="logical" name="LUSE_VDW"> T  </i>
  <i name="AGGAC">      0.00000000</i>
 </incar>
 <kpoints>
  <generation param="Gamma">
   <v type="int" name="divisions">      13        4        2 </v>
   <v name="usershift">      0.00000000       0.00000000       0.00000000 </v>
   <v name="genvec1">      0.07692308      -0.00000000       0.00000000 </v>
   <v name="genvec2">      0.00000000       0.25000000       0.00000000 </v>
   <v name="genvec3">      0.00000000       0.00000000       0.50000000 </v>
   <v name="shift">      0.00000000       0.00000000       0.00000000 </v>
  </generation>
  <varray name="kpointlist" >
   <v>       0.00000000       0.00000000       0.00000000 </v>
   <v>       0.07692308      -0.00000000       0.00000000 </v>
   <v>       0.15384615      -0.00000000       0.00000000 </v>
   <v>       0.23076923      -0.00000000       0.00000000 </v>
   <v>       0.30769231      -0.00000000       0.00000000 </v>
   <v>       0.38461538      -0.00000000       0.00000000 </v>
   <v>       0.46153846      -0.00000000       0.00000000 </v>
   <v>       0.00000000       0.25000000       0.00000000 </v>
   <v>       0.07692308       0.25000000       0.00000000 </v>
   <v>       0.15384615       0.25000000       0.00000000 </v>
   <v>       0.23076923       0.25000000       0.00000000 </v>
   <v>       0.30769231       0.25000000       0.00000000 </v>
   <v>       0.38461538       0.25000000       0.00000000 </v>
   <v>       0.46153846       0.25000000       0.00000000 </v>
   <v>      -0.46153846       0.25000000       0.00000000 </v>
   <v>      -0.38461538       0.25000000       0.00000000 </v>
   <v>      -0.30769231       0.25000000       0.00000000 </v>
   <v>      -0.23076923       0.25000000       0.00000000 </v>
   <v>      -0.15384615       0.25000000       0.00000000 </v>
   <v>      -0.07692308       0.25000000       0.00000000 </v>
   <v>       0.00000000       0.50000000       0.00000000 </v>
   <v>       0.07692308       0.50000000       0.00000000 </v>
   <v>       0.15384615       0.50000000       0.00000000 </v>
   <v>       0.23076923       0.50000000       0.00000000 </v>
   <v>       0.30769231       0.50000000       0.00000000 </v>
   <v>       0.38461538       0.50000000       0.00000000 </v>
   <v>       0.46153846       0.50000000       0.00000000 </v>
   <v>       0.00000000       0.00000000       0.50000000 </v>
   <v>       0.07692308      -0.00000000       0.50000000 </v>
   <v>       0.15384615      -0.00000000       0.50000000 </v>
   <v>       0.23076923      -0.00000000       0.50000000 </v>
   <v>       0.30769231      -0.00000000       0.50000000 </v>
   <v>       0.38461538      -0.00000000       0.50000000 </v>
   <v>       0.46153846      -0.00000000       0.50000000 </v>
   <v>       0.00000000       0.25000000       0.50000000 </v>
   <v>       0.07692308       0.25000000       0.50000000 </v>
   <v>       0.15384615       0.25000000       0.50000000 </v>
   <v>       0.23076923       0.25000000       0.50000000 </v>
   <v>       0.30769231       0.25000000       0.50000000 </v>
   <v>       0.38461538       0.25000000       0.50000000 </v>
   <v>       0.46153846       0.25000000       0.50000000 </v>
   <v>      -0.46153846       0.25000000       0.50000000 </v>
   <v>      -0.38461538       0.25000000       0.50000000 </v>
   <v>      -0.30769231       0.25000000       0.50000000 </v>
   <v>      -0.23076923       0.25000000       0.50000000 </v>
   <v>      -0.15384615       0.25000000       0.50000000 </v>
   <v>      -0.07692308       0.25000000       0.50000000 </v>
   <v>       0.00000000       0.50000000       0.50000000 </v>
   <v>       0.07692308       0.50000000       0.50000000 </v>
   <v>       0.15384615       0.50000000       0.50000000 </v>
   <v>       0.23076923       0.50000000       0.50000000 </v>
   <v>       0.30769231       0.50000000       0.50000000 </v>
   <v>       0.38461538       0.50000000       0.50000000 </v>
   <v>       0.46153846       0.50000000       0.50000000 </v>
  </varray>
  <varray name="weights" >
   <v>       0.00961538 </v>
   <v>       0.01923077 </v>
   <v>       0.01923077 </v>
   <v>       0.01923077 </v>
   <v>       0.01923077 </v>
   <v>       0.01923077 </v>
   <v>       0.01923077 </v>
   <v>       0.01923077 </v>
   <v>       0.01923077 </v>
   <v>       0.01923077 </v>
   <v>       0.01923077 </v>
   <v>       0.01923077 </v>
   <v>       0.01923077 </v>
   <v>       0.01923077 </v>
   <v>       0.01923077 </v>
   <v>       0.01923077 </v>
   <v>       0.01923077 </v>
   <v>       0.01923077 </v>
   <v>       0.01923077 </v>
   <v>       0.01923077 </v>
   <v>       0.00961538 </v>
   <v>       0.01923077 </v>
   <v>       0.01923077 </v>
   <v>       0.01923077 </v>
   <v>       0.01923077 </v>
   <v>       0.01923077 </v>
   <v>       0.01923077 </v>
   <v>       0.00961538 </v>
   <v>       0.01923077 </v>
   <v>       0.01923077 </v>
   <v>       0.01923077 </v>
   <v>       0.01923077 </v>
   <v>       0.01923077 </v>
   <v>       0.01923077 </v>
   <v>       0.01923077 </v>
   <v>       0.01923077 </v>
   <v>       0.01923077 </v>
   <v>       0.01923077 </v>
   <v>       0.01923077 </v>
   <v>       0.01923077 </v>
   <v>       0.01923077 </v>
   <v>       0.01923077 </v>
   <v>       0.01923077 </v>
   <v>       0.01923077 </v>
   <v>       0.01923077 </v>
   <v>       0.01923077 </v>
   <v>       0.01923077 </v>
   <v>       0.00961538 </v>
   <v>       0.01923077 </v>
   <v>       0.01923077 </v>
   <v>       0.01923077 </v>
   <v>       0.01923077 </v>
   <v>       0.01923077 </v>
   <v>       0.01923077 </v>
  </varray>
 </kpoints>
 <parameters>
  <separator name="general" >
   <i type="string" name="SYSTEM">unknown system</i>
   <i type="logical" name="LCOMPAT"> F  </i>
  </separator>
  <separator name="electronic" >
   <i type="string" name="PREC">accura</i>
   <i name="ENMAX">    300.00000000</i>
   <i name="ENAUG">    342.92400000</i>
   <i name="EDIFF">      0.00000100</i>
   <i type="int" name="IALGO">    38</i>
   <i type="int" name="IWAVPR">    10</i>
   <i type="int" name="NBANDS">    68</i>
   <i name="NELECT">    108.00000000</i>
   <i type="int" name="TURBO">     0</i>
   <i type="int" name="IRESTART">     0</i>
   <i type="int" name="NREBOOT">     0</i>
   <i type="int" name="NMIN">     0</i>
   <i name="EREF">      0.00000000</i>
   <separator name="electronic smearing" >
    <i type="int" name="ISMEAR">     0</i>
    <i name="SIGMA">      0.10000000</i>
    <i name="KSPACING">      0.50000000</i>
    <i type="logical" name="KGAMMA"> T  </i>
   </separator>
   <separator name="electronic projectors" >
    <i type="logical" name="LREAL"> T  </i>
    <v name="ROPT">     -0.00025000     -0.00025000</v>
    <i type="int" name="LMAXPAW">  -100</i>
    <i type="int" name="LMAXMIX">     2</i>
    <i type="logical" name="NLSPLINE"> F  </i>
   </separator>
   <separator name="electronic startup" >
    <i type="int" name="ISTART">     0</i>
    <i type="int" name="ICHARG">     2</i>
    <i type="int" name="INIWAV">     1</i>
   </separator>
   <separator name="electronic spin" >
    <i type="int" name="ISPIN">     1</i>
    <i type="logical" name="LNONCOLLINEAR"> F  </i>
    <v name="MAGMOM">      1.00000000      1.00000000      1.00000000      1.00000000      1.00000000      1.00000000      1.00000000      1.00000000      1.00000000      1.00000000      1.00000000      1.00000000      1.00000000      1.00000000      1.00000000      1.00000000      1.00000000      1.00000000      1.00000000      1.00000000
      1.00000000      1.00000000      1.00000000      1.00000000</v>
    <i name="NUPDOWN">     -1.00000000</i>
    <i type="logical" name="LSORBIT"> F  </i>
    <v name="SAXIS">      0.00000000      0.00000000      1.00000000</v>
    <i type="logical" name="LSPIRAL"> F  </i>
    <v name="QSPIRAL">      0.00000000      0.00000000      0.00000000</v>
    <i type="logical" name="LZEROZ"> F  </i>
   </separator>
   <separator name="electronic exchange-correlation" >
    <i type="logical" name="LASPH"> F  </i>
    <i type="logical" name="LMETAGGA"> F  </i>
   </separator>
   <separator name="electronic convergence" >
    <i type="int" name="NELM">    60</i>
    <i type="int" name="NELMDL">    -5</i>
    <i type="int" name="NELMIN">     2</i>
    <i name="ENINI">    300.00000000</i>
    <separator name="electronic convergence detail" >
     <i type="logical" name="LDIAG"> T  </i>
     <i type="logical" name="LSUBROT"> F  </i>
     <i name="WEIMIN">      0.00000000</i>
     <i name="EBREAK">      0.00000000</i>
     <i name="DEPER">      0.30000000</i>
     <i type="int" name="NRMM">     4</i>
     <i name="TIME">      0.40000000</i>
    </separator>
   </separator>
   <separator name="electronic mixer" >
    <i name="AMIX">      0.40000000</i>
    <i name="BMIX">      1.00000000</i>
    <i name="AMIN">      0.10000000</i>
    <i name="AMIX_MAG">      1.60000000</i>
    <i name="BMIX_MAG">      1.00000000</i>
    <separator name="electronic mixer details" >
     <i type="int" name="IMIX">     4</i>
     <i type="int" name="MAXMIX">   -45</i>
     <i name="WC">    100.00000000</i>
     <i type="int" name="INIMIX">     1</i>
     <i type="int" name="MIXPRE">     1</i>
     <i type="int" name="MREMOVE">     5</i>
    </separator>
   </separator>
   <separator name="electronic dipolcorrection" >
    <i type="logical" name="LDIPOL"> F  </i>
    <i type="logical" name="LMONO"> F  </i>
    <i type="int" name="IDIPOL">     0</i>
    <i name="EPSILON">      1.00000000</i>
    <v name="DIPOL">   -100.00000000   -100.00000000   -100.00000000</v>
    <i name="EFIELD">      0.00000000</i>
   </separator>
  </separator>
  <separator name="grids" >
   <i type="int" name="NGX">    20</i>
   <i type="int" name="NGY">    60</i>
   <i type="int" name="NGZ">   160</i>
   <i type="int" name="NGXF">    40</i>
   <i type="int" name="NGYF">   120</i>
   <i type="int" name="NGZF">   320</i>
   <i type="logical" name="ADDGRID"> F  </i>
  </separator>
  <separator name="ionic" >
   <i type="int" name="NSW">     0</i>
   <i type="int" name="IBRION">    -1</i>
   <i type="int" name="ISIF">     3</i>
   <i name="PSTRESS">      0.00000000</i>
   <i name="EDIFFG">      0.00001000</i>
   <i type="int" name="NFREE">     1</i>
   <i name="POTIM">      0.50000000</i>
   <i name="SMASS">     -3.00000000</i>
   <i name="SCALEE">      1.00000000</i>
  </separator>
  <separator name="ionic md" >
   <i name="TEBEG">      0.00010000</i>
   <i name="TEEND">      0.00010000</i>
   <i type="int" name="NBLOCK">     1</i>
   <i type="int" name="KBLOCK">     1</i>
   <i type="int" name="NPACO">   256</i>
   <i name="APACO">     16.00000000</i>
  </separator>
  <separator name="symmetry" >
   <i type="int" name="ISYM">     2</i>
   <i name="SYMPREC">      0.00001000</i>
  </separator>
  <separator name="dos" >
   <i type="logical" name="LORBIT"> F  </i>
   <v name="RWIGS">     -1.00000000     -1.00000000</v>
   <i type="int" name="NEDOS">   301</i>
   <i name="EMIN">     10.00000000</i>
   <i name="EMAX">    -10.00000000</i>
   <i name="EFERMI">      0.00000000</i>
  </separator>
  <separator name="writing" >
   <i type="int" name="NWRITE">     2</i>
   <i type="logical" name="LWAVE"> F  </i>
   <i type="logical" name="LCHARG"> F  </i>
   <i type="logical" name="LPARD"> F  </i>
   <i type="logical" name="LVTOT"> F  </i>
   <i type="logical" name="LVHAR"> F  </i>
   <i type="logical" name="LELF"> F  </i>
   <i type="logical" name="LOPTICS"> F  </i>
   <v name="STM">      0.00000000      0.00000000      0.00000000      0.00000000      0.00000000      0.00000000      0.00000000</v>
  </separator>
  <separator name="performance" >
   <i type="int" name="NPAR">     4</i>
   <i type="int" name="NSIM">     4</i>
   <i type="int" name="NBLK">    -1</i>
   <i type="logical" name="LPLANE"> T  </i>
   <i type="logical" name="LSCALAPACK"> T  </i>
   <i type="logical" name="LSCAAWARE"> F  </i>
   <i type="logical" name="LSCALU"> F  </i>
   <i type="logical" name="LASYNC"> F  </i>
   <i type="logical" name="LORBITALREAL"> F  </i>
  </separator>
  <separator name="miscellaneous" >
   <i type="int" name="IDIOT">     3</i>
   <i type="logical" name="LMUSIC"> F  </i>
   <v name="POMASS">     30.97400000     28.08500000</v>
   <v name="DARWINR">      0.00000000      0.00000000</v>
   <v name="DARWINV">      1.00000000      1.00000000</v>
   <i type="logical" name="LCORR"> T  </i>
  </separator>
  <i type="logical" name="GGA_COMPAT"> T  </i>
  <i type="logical" name="LBERRY"> F  </i>
  <i type="int" name="ICORELEVEL">     0</i>
  <i type="logical" name="LDAU"> F  </i>
  <i type="int" name="I_CONSTRAINED_M">     0</i>
  <separator name="electronic exchange-correlation" >
   <i type="string" name="GGA">BO</i>
   <i type="int" name="VOSKOWN">     0</i>
   <i type="logical" name="LHFCALC"> F  </i>
   <i type="string" name="PRECFOCK"></i>
   <i type="logical" name="LSYMGRAD"> F  </i>
   <i type="logical" name="LHFONE"> F  </i>
   <i type="logical" name="LRHFCALC"> F  </i>
   <i type="logical" name="LTHOMAS"> F  </i>
   <i type="logical" name="LMODELHF"> F  </i>
   <i name="ENCUT4O">     -1.00000000</i>
   <i type="int" name="EXXOEP">     0</i>
   <i type="int" name="FOURORBIT">     0</i>
   <i name="AEXX">      0.00000000</i>
   <i name="HFALPHA">      0.00000000</i>
   <i name="MCALPHA">      0.00000000</i>
   <i name="ALDAX">      1.00000000</i>
   <i name="AGGAX">      1.00000000</i>
   <i name="ALDAC">      1.00000000</i>
   <i name="AGGAC">      0.00000000</i>
   <i type="int" name="NKREDX">     1</i>
   <i type="int" name="NKREDY">     1</i>
   <i type="int" name="NKREDZ">     1</i>
   <i type="logical" name="SHIFTRED"> F  </i>
   <i type="logical" name="ODDONLY"> F  </i>
   <i type="logical" name="EVENONLY"> F  </i>
   <i type="int" name="LMAXFOCK">     0</i>
   <i type="int" name="NMAXFOCKAE">     0</i>
   <i type="logical" name="LFOCKAEDFT"> F  </i>
   <i name="HFSCREEN">      0.00000000</i>
   <i name="HFSCREENC">      0.00000000</i>
   <i type="int" name="NBANDSGWLOW">     0</i>
  </separator>
  <separator name="vdW DFT" >
   <i type="logical" name="LUSE_VDW"> T  </i>
   <i name="Zab_VDW">     -0.84910000</i>
   <i name="PARAM1">      0.18333333</i>
   <i name="PARAM2">      0.22000000</i>
   <i name="PARAM3">      0.00000000</i>
  </separator>
  <separator name="model GW" >
   <i type="int" name="MODEL_GW">     0</i>
   <i name="MODEL_EPS0">     25.05800243</i>
   <i name="MODEL_ALPHA">      1.00000000</i>
  </separator>
  <separator name="linear response parameters" >
   <i type="logical" name="LEPSILON"> F  </i>
   <i type="logical" name="LRPA"> F  </i>
   <i type="logical" name="LNABLA"> F  </i>
   <i type="logical" name="LVEL"> F  </i>
   <i type="int" name="KINTER">     0</i>
   <i name="CSHIFT">      0.10000000</i>
   <i name="OMEGAMAX">     -1.00000000</i>
   <i name="DEG_THRESHOLD">      0.00200000</i>
  </separator>
  <separator name="orbital magnetization" >
   <i type="logical" name="NUCIND"> F  </i>
   <v name="MAGPOS">      0.00000000      0.00000000      0.00000000</v>
   <i type="logical" name="LNICSALL"> T  </i>
   <i type="logical" name="ORBITALMAG"> F  </i>
   <i type="logical" name="LMAGBLOCH"> F  </i>
   <i type="logical" name="LCHIMAG"> F  </i>
   <i type="logical" name="LGAUGE"> T  </i>
   <i type="int" name="MAGATOM">     0</i>
   <v name="MAGDIPOL">      0.00000000      0.00000000      0.00000000</v>
   <v name="AVECCONST">      0.00000000      0.00000000      0.00000000</v>
  </separator>
  <separator name="response functions" >
   <i type="logical" name="LADDER"> F  </i>
   <i type="logical" name="LFXC"> F  </i>
   <i type="logical" name="LHARTREE"> T  </i>
   <i type="int" name="IBSE">     0</i>
   <i type="logical" name="LTCTE"> F  </i>
   <i type="logical" name="LTETE"> F  </i>
   <i type="logical" name="LTRIPLET"> F  </i>
   <i type="logical" name="LFXCEPS"> F  </i>
   <i type="logical" name="LFXHEG"> F  </i>
   <i type="logical" name="L2ORDER"> F  </i>
   <i type="logical" name="LUSEW"> F  </i>
   <i name="ENCUTGW">     -2.00000000</i>
   <i name="ENCUTGWSOFT">     -2.00000000</i>
   <i name="ENCUTLF">     -1.00000000</i>
   <i type="int" name="LMAXMP2">    -1</i>
   <i name="SCISSOR">      0.00000000</i>
   <i type="int" name="NOMEGA">     0</i>
   <i type="int" name="NOMEGAR">     0</i>
   <i type="int" name="NBANDSGW">    -1</i>
   <i type="int" name="NBANDSO">    -1</i>
   <i type="int" name="NBANDSV">    -1</i>
   <i type="int" name="NELM">     1</i>
   <i type="int" name="DIM">     3</i>
   <i type="int" name="ANTIRES">     0</i>
   <i name="OMEGAMAX">    -30.00000000</i>
   <i name="OMEGAMIN">    -30.00000000</i>
   <i name="OMEGATL">   -200.00000000</i>
   <i type="int" name="OMEGAGRID">     0</i>
   <i name="CSHIFT">     -0.10000000</i>
   <i type="logical" name="SELFENERGY"> F  </i>
   <i type="logical" name="LSPECTRAL"> F  </i>
   <i type="logical" name="ODDONLYGW"> F  </i>
   <i type="logical" name="EVENONLYGW"> F  </i>
   <i type="int" name="NKREDLFX">     1</i>
   <i type="int" name="NKREDLFY">     1</i>
   <i type="int" name="NKREDLFZ">     1</i>
   <i type="int" name="MAXMEM">  1800</i>
   <i type="int" name="TELESCOPE">     0</i>
   <i type="int" name="TAUPAR">     1</i>
  </separator>
  <separator name="External order field" >
   <i name="OFIELD_KAPPA">      0.00000000</i>
   <v name="OFIELD_K">      0.00000000      0.00000000      0.00000000</v>
   <i name="OFIELD_Q6_NEAR">      0.00000000</i>
   <i name="OFIELD_Q6_FAR">      0.00000000</i>
   <i name="OFIELD_A">      0.00000000</i>
  </separator>
 </parameters>
 <atominfo>
  <atoms>      24 </atoms>
  <types>       2 </types>
  <array name="atoms" >
   <dimension dim="1">ion</dimension>
   <field type="string">element</field>
   <field type="int">atomtype</field>
   <set>
    <rc><c>P </c><c>   1</c></rc>
    <rc><c>P </c><c>   1</c></rc>
    <rc><c>P </c><c>   1</c></rc>
    <rc><c>P </c><c>   1</c></rc>
    <rc><c>P </c><c>   1</c></rc>
    <rc><c>P </c><c>   1</c></rc>
    <rc><c>P </c><c>   1</c></rc>
    <rc><c>P </c><c>   1</c></rc>
    <rc><c>P </c><c>   1</c></rc>
    <rc><c>P </c><c>   1</c></rc>
    <rc><c>P </c><c>   1</c></rc>
    <rc><c>P </c><c>   1</c></rc>
    <rc><c>Si</c><c>   2</c></rc>
    <rc><c>Si</c><c>   2</c></rc>
    <rc><c>Si</c><c>   2</c></rc>
    <rc><c>Si</c><c>   2</c></rc>
    <rc><c>Si</c><c>   2</c></rc>
    <rc><c>Si</c><c>   2</c></rc>
    <rc><c>Si</c><c>   2</c></rc>
    <rc><c>Si</c><c>   2</c></rc>
    <rc><c>Si</c><c>   2</c></rc>
    <rc><c>Si</c><c>   2</c></rc>
    <rc><c>Si</c><c>   2</c></rc>
    <rc><c>Si</c><c>   2</c></rc>
   </set>
  </array>
  <array name="atomtypes" >
   <dimension dim="1">type</dimension>
   <field type="int">atomspertype</field>
   <field type="string">element</field>
   <field>mass</field>
   <field>valence</field>
   <field type="string">pseudopotential</field>
   <set>
    <rc><c>  12</c><c>P </c><c>     30.97400000</c><c>      5.00000000</c><c>  PAW_PBE P 17Jan2003                   </c></rc>
    <rc><c>  12</c><c>Si</c><c>     28.08500000</c><c>      4.00000000</c><c> PAW_PBE Si 05Jan2001                   </c></rc>
   </set>
  </array>
 </atominfo>
 <structure name="initialpos" >
  <crystal>
   <varray name="basis" >
    <v>       3.54040000       0.00000000       0.00000000 </v>
    <v>      -1.77020000      10.29434800       0.00000000 </v>
    <v>       0.00000000       0.00000000      27.50142900 </v>
   </varray>
   <i name="volume">   1002.32009712 </i>
   <varray name="rec_basis" >
    <v>       0.28245396       0.04857034       0.00000000 </v>
    <v>       0.00000000       0.09714068       0.00000000 </v>
    <v>       0.00000000       0.00000000       0.03636175 </v>
   </varray>
  </crystal>
  <varray name="positions" >
   <v>       0.11402300       0.22804500       0.23316207 </v>
   <v>       0.51402300       0.32804500       0.51499159 </v>
   <v>       0.45808900       0.91617900       0.20939482 </v>
   <v>       0.85808900       0.01617900       0.49122434 </v>
   <v>       0.31085400       0.62170900       0.08414979 </v>
   <v>       0.31085400       0.62170900       0.36597930 </v>
   <v>       0.99923000       0.99846000       0.08631254 </v>
   <v>       0.99923000       0.99846000       0.36814206 </v>
   <v>       0.65492700       0.30985400       0.06041748 </v>
   <v>       0.65492700       0.30985400       0.34224700 </v>
   <v>       0.76973800       0.53947500       0.20725292 </v>
   <v>       0.16973800       0.63947500       0.48908244 </v>
   <v>       0.93971600       0.87943300       0.15783749 </v>
   <v>       0.33971600       0.97943300       0.43966701 </v>
   <v>       0.20515200       0.41030300       0.18578822 </v>
   <v>       0.60515200       0.51030300       0.46761774 </v>
   <v>       0.20184900       0.40369900       0.09969156 </v>
   <v>       0.20184900       0.40369900       0.38152107 </v>
   <v>       0.56380500       0.12761000       0.10779021 </v>
   <v>       0.56380500       0.12761000       0.38961973 </v>
   <v>       0.56710600       0.13421200       0.19387616 </v>
   <v>       0.96710600       0.23421200       0.47570568 </v>
   <v>       0.82923400       0.65846800       0.13571444 </v>
   <v>       0.22923400       0.75846800       0.41754396 </v>
  </varray>
 </structure>
 <calculation>
  <scstep>
   <time name="dav">   67.70   67.72</time>
   <time name="total">   83.80   83.83</time>
   <energy>
    <i name="alphaZ">     36.80884744 </i>
    <i name="ewald">  11893.86890261 </i>
    <i name="hartreedc"> -14950.34612733 </i>
    <i name="XCdc">    -88.26009762 </i>
    <i name="pawpsdc">   1056.43050070 </i>
    <i name="pawaedc">   -732.41190547 </i>
    <i name="eentropy">     -0.04255864 </i>
    <i name="bandstr">    -85.18732722 </i>
    <i name="atom">   3354.04126044 </i>
    <i name="e_fr_energy">    484.90149491 </i>
    <i name="e_wo_entrp">    484.94405355 </i>
    <i name="e_0_energy">    484.92277423 </i>
   </energy>
  </scstep>
  <scstep>
   <time name="dav">   91.06   91.09</time>
   <time name="total">   91.07   91.10</time>
   <energy>
    <i name="e_fr_energy">    -69.88616143 </i>
    <i name="e_wo_entrp">    -69.85768699 </i>
    <i name="e_0_energy">    -69.87192421 </i>
   </energy>
  </scstep>
  <scstep>
   <time name="dav">   80.20   80.23</time>
   <time name="total">   80.21   80.24</time>
   <energy>
    <i name="e_fr_energy">   -125.07534598 </i>
    <i name="e_wo_entrp">   -125.03861137 </i>
    <i name="e_0_energy">   -125.05697868 </i>
   </energy>
  </scstep>
  <scstep>
   <time name="dav">   95.86   95.89</time>
   <time name="total">   95.87   95.90</time>
   <energy>
    <i name="e_fr_energy">   -127.48876411 </i>
    <i name="e_wo_entrp">   -127.45145353 </i>
    <i name="e_0_energy">   -127.47010882 </i>
   </energy>
  </scstep>
  <scstep>
   <time name="dav">   95.58   95.61</time>
   <time name="total">  100.30  100.33</time>
   <energy>
    <i name="e_fr_energy">   -127.54917350 </i>
    <i name="e_wo_entrp">   -127.51182791 </i>
    <i name="e_0_energy">   -127.53050070 </i>
   </energy>
  </scstep>
  <scstep>
   <time name="dav">   81.75   81.79</time>
   <time name="total">  102.02  102.08</time>
   <energy>
    <i name="e_fr_energy">   -125.80205154 </i>
    <i name="e_wo_entrp">   -125.77208768 </i>
    <i name="e_0_energy">   -125.78706961 </i>
   </energy>
  </scstep>
  <scstep>
   <time name="dav">   79.67   79.70</time>
   <time name="total">   98.44   98.47</time>
   <energy>
    <i name="e_fr_energy">   -125.59534556 </i>
    <i name="e_wo_entrp">   -125.56166345 </i>
    <i name="e_0_energy">   -125.57850450 </i>
   </energy>
  </scstep>
  <scstep>
   <time name="dav">   78.80   78.84</time>
   <time name="total">   98.44   98.50</time>
   <energy>
    <i name="e_fr_energy">   -125.54661869 </i>
    <i name="e_wo_entrp">   -125.51247653 </i>
    <i name="e_0_energy">   -125.52954761 </i>
   </energy>
  </scstep>
  <scstep>
   <time name="dav">   83.48   83.52</time>
   <time name="total">  102.73  102.78</time>
   <energy>
    <i name="e_fr_energy">   -125.52487680 </i>
    <i name="e_wo_entrp">   -125.49131347 </i>
    <i name="e_0_energy">   -125.50809513 </i>
   </energy>
  </scstep>
  <scstep>
   <time name="dav">   82.71   82.76</time>
   <time name="total">  102.20  102.27</time>
   <energy>
    <i name="e_fr_energy">   -125.50562015 </i>
    <i name="e_wo_entrp">   -125.47050950 </i>
    <i name="e_0_energy">   -125.48806482 </i>
   </energy>
  </scstep>
  <scstep>
   <time name="dav">   82.26   82.29</time>
   <time name="total">  103.29  103.33</time>
   <energy>
    <i name="e_fr_energy">   -125.49729080 </i>
    <i name="e_wo_entrp">   -125.46241135 </i>
    <i name="e_0_energy">   -125.47985107 </i>
   </energy>
  </scstep>
  <scstep>
   <time name="dav">   76.44   76.47</time>
   <time name="total">   95.37   95.40</time>
   <energy>
    <i name="e_fr_energy">   -125.49230999 </i>
    <i name="e_wo_entrp">   -125.45743823 </i>
    <i name="e_0_energy">   -125.47487411 </i>
   </energy>
  </scstep>
  <scstep>
   <time name="dav">   83.73   83.78</time>
   <time name="total">  103.47  103.53</time>
   <energy>
    <i name="e_fr_energy">   -125.48955136 </i>
    <i name="e_wo_entrp">   -125.45471873 </i>
    <i name="e_0_energy">   -125.47213505 </i>
   </energy>
  </scstep>
  <scstep>
   <time name="dav">   82.71   82.75</time>
   <time name="total">  102.21  102.26</time>
   <energy>
    <i name="e_fr_energy">   -125.48776051 </i>
    <i name="e_wo_entrp">   -125.45295533 </i>
    <i name="e_0_energy">   -125.47035792 </i>
   </energy>
  </scstep>
  <scstep>
   <time name="dav">   75.74   75.78</time>
   <time name="total">   96.70   96.76</time>
   <energy>
    <i name="e_fr_energy">   -125.48713185 </i>
    <i name="e_wo_entrp">   -125.45232080 </i>
    <i name="e_0_energy">   -125.46972632 </i>
   </energy>
  </scstep>
  <scstep>
   <time name="dav">   74.73   74.77</time>
   <time name="total">   96.02   96.07</time>
   <energy>
    <i name="e_fr_energy">   -125.48754328 </i>
    <i name="e_wo_entrp">   -125.45273461 </i>
    <i name="e_0_energy">   -125.47013895 </i>
   </energy>
  </scstep>
  <scstep>
   <time name="dav">   72.19   72.22</time>
   <time name="total">   92.06   92.11</time>
   <energy>
    <i name="e_fr_energy">   -125.48796257 </i>
    <i name="e_wo_entrp">   -125.45315694 </i>
    <i name="e_0_energy">   -125.47055975 </i>
   </energy>
  </scstep>
  <scstep>
   <time name="dav">   71.47   71.51</time>
   <time name="total">   91.21   91.26</time>
   <energy>
    <i name="e_fr_energy">   -125.48804568 </i>
    <i name="e_wo_entrp">   -125.45323936 </i>
    <i name="e_0_energy">   -125.47064252 </i>
   </energy>
  </scstep>
  <scstep>
   <time name="dav">   63.75   63.77</time>
   <time name="total">   83.22   83.25</time>
   <energy>
    <i name="e_fr_energy">   -125.48806126 </i>
    <i name="e_wo_entrp">   -125.45325535 </i>
    <i name="e_0_energy">   -125.47065830 </i>
   </energy>
  </scstep>
  <scstep>
   <time name="dav">   66.25   66.28</time>
   <time name="total">   87.37   87.41</time>
   <energy>
    <i name="e_fr_energy">   -125.48807631 </i>
    <i name="e_wo_entrp">   -125.45326955 </i>
    <i name="e_0_energy">   -125.47067293 </i>
   </energy>
  </scstep>
  <scstep>
   <time name="dav">   65.91   65.93</time>
   <time name="total">   84.96   84.98</time>
   <energy>
    <i name="e_fr_energy">   -125.48805085 </i>
    <i name="e_wo_entrp">   -125.45324395 </i>
    <i name="e_0_energy">   -125.47064740 </i>
   </energy>
  </scstep>
  <scstep>
   <time name="dav">   63.94   63.98</time>
   <time name="total">   84.88   84.93</time>
   <energy>
    <i name="e_fr_energy">   -125.48799671 </i>
    <i name="e_wo_entrp">   -125.45318989 </i>
    <i name="e_0_energy">   -125.47059330 </i>
   </energy>
  </scstep>
  <scstep>
   <time name="dav">   64.25   64.27</time>
   <time name="total">   83.38   83.40</time>
   <energy>
    <i name="e_fr_energy">   -125.48796829 </i>
    <i name="e_wo_entrp">   -125.45316119 </i>
    <i name="e_0_energy">   -125.47056474 </i>
   </energy>
  </scstep>
  <scstep>
   <time name="dav">   63.78   63.80</time>
   <time name="total">   83.45   83.47</time>
   <energy>
    <i name="e_fr_energy">   -125.48795028 </i>
    <i name="e_wo_entrp">   -125.45314338 </i>
    <i name="e_0_energy">   -125.47054683 </i>
   </energy>
  </scstep>
  <scstep>
   <time name="dav">   57.41   57.44</time>
   <time name="total">   76.40   76.45</time>
   <energy>
    <i name="e_fr_energy">   -125.48794646 </i>
    <i name="e_wo_entrp">   -125.45313954 </i>
    <i name="e_0_energy">   -125.47054300 </i>
   </energy>
  </scstep>
  <scstep>
   <time name="dav">   55.29   55.33</time>
   <time name="total">   70.42   70.46</time>
   <energy>
    <i name="alphaZ">     36.80884744 </i>
    <i name="ewald">  11893.86890261 </i>
    <i name="hartreedc"> -15034.64413679 </i>
    <i name="XCdc">    -80.86992160 </i>
    <i name="pawpsdc">   1155.20955594 </i>
    <i name="pawaedc">   -833.92150107 </i>
    <i name="eentropy">     -0.03480691 </i>
    <i name="bandstr">   -615.94614581 </i>
    <i name="atom">   3354.04126044 </i>
    <i name="e_fr_energy">   -125.48794574 </i>
    <i name="e_wo_entrp">   -125.45313883 </i>
    <i name="e_0_energy">   -125.47054229 </i>
   </energy>
  </scstep>
  <structure>
   <crystal>
    <varray name="basis" >
     <v>       3.54040000       0.00000000       0.00000000 </v>
     <v>      -1.77020000      10.29434800       0.00000000 </v>
     <v>       0.00000000       0.00000000      27.50142900 </v>
    </varray>
    <i name="volume">   1002.32009712 </i>
    <varray name="rec_basis" >
     <v>       0.28245396       0.04857034       0.00000000 </v>
     <v>       0.00000000       0.09714068       0.00000000 </v>
     <v>       0.00000000       0.00000000       0.03636175 </v>
    </varray>
   </crystal>
   <varray name="positions" >
    <v>       0.11402300       0.22804500       0.23316207 </v>
    <v>       0.51402300       0.32804500       0.51499159 </v>
    <v>       0.45808900       0.91617900       0.20939482 </v>
    <v>       0.85808900       0.01617900       0.49122434 </v>
    <v>       0.31085400       0.62170900       0.08414979 </v>
    <v>       0.31085400       0.62170900       0.36597930 </v>
    <v>       0.99923000       0.99846000       0.08631254 </v>
    <v>       0.99923000       0.99846000       0.36814206 </v>
    <v>       0.65492700       0.30985400       0.06041748 </v>
    <v>       0.65492700       0.30985400       0.34224700 </v>
    <v>       0.76973800       0.53947500       0.20725292 </v>
    <v>       0.16973800       0.63947500       0.48908244 </v>
    <v>       0.93971600       0.87943300       0.15783749 </v>
    <v>       0.33971600       0.97943300       0.43966701 </v>
    <v>       0.20515200       0.41030300       0.18578822 </v>
    <v>       0.60515200       0.51030300       0.46761774 </v>
    <v>       0.20184900       0.40369900       0.09969156 </v>
    <v>       0.20184900       0.40369900       0.38152107 </v>
    <v>       0.56380500       0.12761000       0.10779021 </v>
    <v>       0.56380500       0.12761000       0.38961973 </v>
    <v>       0.56710600       0.13421200       0.19387616 </v>
    <v>       0.96710600       0.23421200       0.47570568 </v>
    <v>       0.82923400       0.65846800       0.13571444 </v>
    <v>       0.22923400       0.75846800       0.41754396 </v>
   </varray>
  </structure>
  <varray name="forces" >
   <v>       0.01164637      -0.03035701       0.01662824 </v>
   <v>       0.15608270      -0.13931188       0.19010776 </v>
   <v>       0.00029434      -0.01373099       0.09448609 </v>
   <v>       0.31608236      -0.40844657       1.34122158 </v>
   <v>       0.00095153      -0.00538651       0.00582948 </v>
   <v>       0.95006698      -0.56930817      -2.67822489 </v>
   <v>      -0.00144764       0.00778518       0.00909637 </v>
   <v>      -0.35297946      -0.06776600      -1.76749029 </v>
   <v>       0.00113978      -0.00157877       0.02177119 </v>
   <v>      -0.28626129       0.27405814      -0.37957143 </v>
   <v>       0.00137498       0.00458143       0.09620173 </v>
   <v>      -0.35896898       0.03883508       0.29560744 </v>
   <v>       0.00235363      -0.00485500       0.01521355 </v>
   <v>      -1.17466029      -2.44003749       2.83147451 </v>
   <v>      -0.00233744       0.03333872       0.05424393 </v>
   <v>      -0.29852012      -0.29192423      -0.21482286 </v>
   <v>      -0.00126386      -0.00130709      -0.03202763 </v>
   <v>       0.17200424       0.34054685       1.29850430 </v>
   <v>      -0.00152627      -0.00191843      -0.04719804 </v>
   <v>       1.20141535       3.27563653      -2.70189293 </v>
   <v>      -0.00284073      -0.04226059       0.04414155 </v>
   <v>       0.05066662       0.08316073      -0.62442226 </v>
   <v>       0.00150729       0.00479875       0.00084723 </v>
   <v>      -0.38478008      -0.04455269       2.13027536 </v>
  </varray>
  <varray name="stress" >
   <v>      -7.24520999       0.64077169      -3.36506321 </v>
   <v>       0.64077178       6.38747830      -8.18204801 </v>
   <v>      -3.36506284      -8.18204797      15.11107222 </v>
  </varray>
  <energy>
   <i name="e_fr_energy">   -125.48794574 </i>
   <i name="e_wo_entrp">   -125.47054229 </i>
   <i name="e_0_energy">     -0.03480691 </i>
  </energy>
  <time name="totalsc"> 2500.63 2501.77</time>
  <eigenvalues>
   <array>
    <dimension dim="1">band</dimension>
    <dimension dim="2">kpoint</dimension>
    <dimension dim="3">spin</dimension>
    <field>eigene</field>
    <field>occ</field>
    <set>
     <set comment="spin 1">
      <set comment="kpoint 1">
       <r>  -13.8700    1.0000 </r>
       <r>  -13.6418    1.0000 </r>
       <r>  -12.9002    1.0000 </r>
       <r>  -12.7347    1.0000 </r>
       <r>  -12.5972    1.0000 </r>
       <r>  -12.3946    1.0000 </r>
       <r>  -12.1839    1.0000 </r>
       <r>  -11.9707    1.0000 </r>
       <r>  -11.5330    1.0000 </r>
       <r>  -11.2651    1.0000 </r>
       <r>  -11.0904    1.0000 </r>
       <r>  -10.6815    1.0000 </r>
       <r>   -8.1796    1.0000 </r>
       <r>   -8.1071    1.0000 </r>
       <r>   -7.9306    1.0000 </r>
       <r>   -7.6363    1.0000 </r>
       <r>   -6.9613    1.0000 </r>
       <r>   -6.7152    1.0000 </r>
       <r>   -6.5942    1.0000 </r>
       <r>   -6.3012    1.0000 </r>
       <r>   -5.9225    1.0000 </r>
       <r>   -5.7148    1.0000 </r>
       <r>   -4.9375    1.0000 </r>
       <r>   -4.7967    1.0000 </r>
       <r>   -4.1170    1.0000 </r>
       <r>   -3.8673    1.0000 </r>
       <r>   -3.7843    1.0000 </r>
       <r>   -3.4377    1.0000 </r>
       <r>   -3.3773    1.0000 </r>
       <r>   -3.1591    1.0000 </r>
       <r>   -3.0548    1.0000 </r>
       <r>   -2.9418    1.0000 </r>
       <r>   -2.9067    1.0000 </r>
       <r>   -2.5720    1.0000 </r>
       <r>   -2.5421    1.0000 </r>
       <r>   -2.5029    1.0000 </r>
       <r>   -2.4353    1.0000 </r>
       <r>   -2.3960    1.0000 </r>
       <r>   -2.1950    1.0000 </r>
       <r>   -2.1324    1.0000 </r>
       <r>   -1.9562    1.0000 </r>
       <r>   -1.8266    1.0000 </r>
       <r>   -1.7514    1.0000 </r>
       <r>   -1.7438    1.0000 </r>
       <r>   -1.6587    1.0000 </r>
       <r>   -1.5325    1.0000 </r>
       <r>   -1.5083    1.0000 </r>
       <r>   -1.4533    1.0000 </r>
       <r>   -1.1892    1.0000 </r>
       <r>   -1.1716    1.0000 </r>
       <r>   -1.1025    1.0000 </r>
       <r>   -0.5210    1.0000 </r>
       <r>   -0.3388    0.9948 </r>
       <r>   -0.0769    0.1273 </r>
       <r>    0.1512    0.0000 </r>
       <r>    0.8280    0.0000 </r>
       <r>    1.0807    0.0000 </r>
       <r>    1.2185    0.0000 </r>
       <r>    1.4753    0.0000 </r>
       <r>    1.5987    0.0000 </r>
       <r>    1.6742    0.0000 </r>
       <r>    1.8813    0.0000 </r>
       <r>    1.9998    0.0000 </r>
       <r>    2.1514    0.0000 </r>
       <r>    2.3209    0.0000 </r>
       <r>    2.3324    0.0000 </r>
       <r>    2.5447    0.0000 </r>
       <r>    2.6811    0.0000 </r>
      </set>
      <set comment="kpoint 2">
       <r>  -13.8081    1.0000 </r>
       <r>  -13.5805    1.0000 </r>
       <r>  -12.8480    1.0000 </r>
       <r>  -12.6823    1.0000 </r>
       <r>  -12.5415    1.0000 </r>
       <r>  -12.3393    1.0000 </r>
       <r>  -12.1221    1.0000 </r>
       <r>  -11.9177    1.0000 </r>
       <r>  -11.4840    1.0000 </r>
       <r>  -11.2189    1.0000 </r>
       <r>  -11.0420    1.0000 </r>
       <r>  -10.6399    1.0000 </r>
       <r>   -8.1904    1.0000 </r>
       <r>   -8.1215    1.0000 </r>
       <r>   -7.8936    1.0000 </r>
       <r>   -7.5970    1.0000 </r>
       <r>   -6.9324    1.0000 </r>
       <r>   -6.7320    1.0000 </r>
       <r>   -6.5886    1.0000 </r>
       <r>   -6.3214    1.0000 </r>
       <r>   -5.8891    1.0000 </r>
       <r>   -5.7148    1.0000 </r>
       <r>   -4.9236    1.0000 </r>
       <r>   -4.7965    1.0000 </r>
       <r>   -4.1156    1.0000 </r>
       <r>   -3.9065    1.0000 </r>
       <r>   -3.8032    1.0000 </r>
       <r>   -3.7459    1.0000 </r>
       <r>   -3.6102    1.0000 </r>
       <r>   -3.4095    1.0000 </r>
       <r>   -3.3334    1.0000 </r>
       <r>   -3.1708    1.0000 </r>
       <r>   -3.0191    1.0000 </r>
       <r>   -2.8983    1.0000 </r>
       <r>   -2.8192    1.0000 </r>
       <r>   -2.7331    1.0000 </r>
       <r>   -2.5835    1.0000 </r>
       <r>   -2.5464    1.0000 </r>
       <r>   -2.3030    1.0000 </r>
       <r>   -2.2466    1.0000 </r>
       <r>   -2.1612    1.0000 </r>
       <r>   -2.0628    1.0000 </r>
       <r>   -1.9622    1.0000 </r>
       <r>   -1.9478    1.0000 </r>
       <r>   -1.8388    1.0000 </r>
       <r>   -1.6628    1.0000 </r>
       <r>   -1.5698    1.0000 </r>
       <r>   -1.3953    1.0000 </r>
       <r>   -1.1529    1.0000 </r>
       <r>   -1.1168    1.0000 </r>
       <r>   -1.0161    1.0000 </r>
       <r>   -0.5490    1.0000 </r>
       <r>   -0.3284    0.9922 </r>
       <r>   -0.0910    0.1735 </r>
       <r>    0.0827    0.0003 </r>
       <r>    0.9957    0.0000 </r>
       <r>    1.4547    0.0000 </r>
       <r>    1.5450    0.0000 </r>
       <r>    1.6627    0.0000 </r>
       <r>    1.9754    0.0000 </r>
       <r>    2.0471    0.0000 </r>
       <r>    2.1077    0.0000 </r>
       <r>    2.1611    0.0000 </r>
       <r>    2.2995    0.0000 </r>
       <r>    2.5068    0.0000 </r>
       <r>    2.5957    0.0000 </r>
       <r>    2.6650    0.0000 </r>
       <r>    2.8987    0.0000 </r>
      </set>
      <set comment="kpoint 3">
       <r>  -13.6234    1.0000 </r>
       <r>  -13.3975    1.0000 </r>
       <r>  -12.6922    1.0000 </r>
       <r>  -12.5277    1.0000 </r>
       <r>  -12.3764    1.0000 </r>
       <r>  -12.1758    1.0000 </r>
       <r>  -11.9408    1.0000 </r>
       <r>  -11.7633    1.0000 </r>
       <r>  -11.3419    1.0000 </r>
       <r>  -11.0854    1.0000 </r>
       <r>  -10.9033    1.0000 </r>
       <r>  -10.5205    1.0000 </r>
       <r>   -8.2715    1.0000 </r>
       <r>   -8.1018    1.0000 </r>
       <r>   -7.8520    1.0000 </r>
       <r>   -7.5510    1.0000 </r>
       <r>   -6.9396    1.0000 </r>
       <r>   -6.7991    1.0000 </r>
       <r>   -6.6010    1.0000 </r>
       <r>   -6.3804    1.0000 </r>
       <r>   -5.8153    1.0000 </r>
       <r>   -5.7277    1.0000 </r>
       <r>   -4.9770    1.0000 </r>
       <r>   -4.8609    1.0000 </r>
       <r>   -4.4137    1.0000 </r>
       <r>   -4.3141    1.0000 </r>
       <r>   -4.1924    1.0000 </r>
       <r>   -4.0864    1.0000 </r>
       <r>   -4.0239    1.0000 </r>
       <r>   -3.8361    1.0000 </r>
       <r>   -3.7290    1.0000 </r>
       <r>   -3.6482    1.0000 </r>
       <r>   -3.5932    1.0000 </r>
       <r>   -3.3171    1.0000 </r>
       <r>   -3.3025    1.0000 </r>
       <r>   -3.1247    1.0000 </r>
       <r>   -3.0595    1.0000 </r>
       <r>   -2.9434    1.0000 </r>
       <r>   -2.7376    1.0000 </r>
       <r>   -2.5854    1.0000 </r>
       <r>   -2.4727    1.0000 </r>
       <r>   -2.3501    1.0000 </r>
       <r>   -2.2510    1.0000 </r>
       <r>   -2.0605    1.0000 </r>
       <r>   -1.8663    1.0000 </r>
       <r>   -1.7755    1.0000 </r>
       <r>   -1.5917    1.0000 </r>
       <r>   -1.3794    1.0000 </r>
       <r>   -1.2182    1.0000 </r>
       <r>   -1.1389    1.0000 </r>
       <r>   -1.0475    1.0000 </r>
       <r>   -0.8132    1.0000 </r>
       <r>   -0.5293    1.0000 </r>
       <r>   -0.2227    0.8217 </r>
       <r>    0.3388    0.0000 </r>
       <r>    0.9353    0.0000 </r>
       <r>    1.6257    0.0000 </r>
       <r>    1.8581    0.0000 </r>
       <r>    2.1420    0.0000 </r>
       <r>    2.1836    0.0000 </r>
       <r>    2.3017    0.0000 </r>
       <r>    2.4349    0.0000 </r>
       <r>    2.5329    0.0000 </r>
       <r>    2.5807    0.0000 </r>
       <r>    2.8231    0.0000 </r>
       <r>    2.9424    0.0000 </r>
       <r>    2.9912    0.0000 </r>
       <r>    3.1189    0.0000 </r>
      </set>
      <set comment="kpoint 4">
       <r>  -13.3192    1.0000 </r>
       <r>  -13.0965    1.0000 </r>
       <r>  -12.4359    1.0000 </r>
       <r>  -12.2801    1.0000 </r>
       <r>  -12.1091    1.0000 </r>
       <r>  -11.9118    1.0000 </r>
       <r>  -11.6551    1.0000 </r>
       <r>  -11.5235    1.0000 </r>
       <r>  -11.1248    1.0000 </r>
       <r>  -10.8826    1.0000 </r>
       <r>  -10.7003    1.0000 </r>
       <r>  -10.3429    1.0000 </r>
       <r>   -8.4607    1.0000 </r>
       <r>   -8.1068    1.0000 </r>
       <r>   -7.9262    1.0000 </r>
       <r>   -7.7951    1.0000 </r>
       <r>   -7.1308    1.0000 </r>
       <r>   -6.7942    1.0000 </r>
       <r>   -6.7354    1.0000 </r>
       <r>   -6.5011    1.0000 </r>
       <r>   -5.8364    1.0000 </r>
       <r>   -5.7860    1.0000 </r>
       <r>   -5.4387    1.0000 </r>
       <r>   -5.1015    1.0000 </r>
       <r>   -4.9096    1.0000 </r>
       <r>   -4.7117    1.0000 </r>
       <r>   -4.6655    1.0000 </r>
       <r>   -4.6096    1.0000 </r>
       <r>   -4.4886    1.0000 </r>
       <r>   -4.3212    1.0000 </r>
       <r>   -4.2690    1.0000 </r>
       <r>   -4.1217    1.0000 </r>
       <r>   -3.8818    1.0000 </r>
       <r>   -3.6828    1.0000 </r>
       <r>   -3.5710    1.0000 </r>
       <r>   -3.5288    1.0000 </r>
       <r>   -3.2254    1.0000 </r>
       <r>   -3.0838    1.0000 </r>
       <r>   -2.7971    1.0000 </r>
       <r>   -2.7569    1.0000 </r>
       <r>   -2.6673    1.0000 </r>
       <r>   -2.5823    1.0000 </r>
       <r>   -2.4753    1.0000 </r>
       <r>   -2.0097    1.0000 </r>
       <r>   -1.9267    1.0000 </r>
       <r>   -1.8479    1.0000 </r>
       <r>   -1.8007    1.0000 </r>
       <r>   -1.5909    1.0000 </r>
       <r>   -1.5381    1.0000 </r>
       <r>   -1.2481    1.0000 </r>
       <r>   -1.2062    1.0000 </r>
       <r>   -0.9357    1.0000 </r>
       <r>   -0.6085    1.0000 </r>
       <r>   -0.3016    0.9793 </r>
       <r>    0.0441    0.0022 </r>
       <r>    0.7144    0.0000 </r>
       <r>    1.5439    0.0000 </r>
       <r>    1.7645    0.0000 </r>
       <r>    1.8334    0.0000 </r>
       <r>    1.9236    0.0000 </r>
       <r>    2.1086    0.0000 </r>
       <r>    2.1893    0.0000 </r>
       <r>    2.2920    0.0000 </r>
       <r>    2.5765    0.0000 </r>
       <r>    2.7790    0.0000 </r>
       <r>    2.8536    0.0000 </r>
       <r>    2.9543    0.0000 </r>
       <r>    3.2066    0.0000 </r>
      </set>
      <set comment="kpoint 5">
       <r>  -12.9029    1.0000 </r>
       <r>  -12.6847    1.0000 </r>
       <r>  -12.0876    1.0000 </r>
       <r>  -11.9614    1.0000 </r>
       <r>  -11.7564    1.0000 </r>
       <r>  -11.5654    1.0000 </r>
       <r>  -11.3025    1.0000 </r>
       <r>  -11.2337    1.0000 </r>
       <r>  -10.8800    1.0000 </r>
       <r>  -10.6557    1.0000 </r>
       <r>  -10.5146    1.0000 </r>
       <r>  -10.1564    1.0000 </r>
       <r>   -8.7554    1.0000 </r>
       <r>   -8.6131    1.0000 </r>
       <r>   -8.1868    1.0000 </r>
       <r>   -7.9468    1.0000 </r>
       <r>   -7.3989    1.0000 </r>
       <r>   -7.0983    1.0000 </r>
       <r>   -7.0011    1.0000 </r>
       <r>   -6.7238    1.0000 </r>
       <r>   -6.2591    1.0000 </r>
       <r>   -6.1224    1.0000 </r>
       <r>   -6.0663    1.0000 </r>
       <r>   -5.3869    1.0000 </r>
       <r>   -5.3066    1.0000 </r>
       <r>   -5.2061    1.0000 </r>
       <r>   -4.9041    1.0000 </r>
       <r>   -4.8039    1.0000 </r>
       <r>   -4.6840    1.0000 </r>
       <r>   -4.5164    1.0000 </r>
       <r>   -4.4052    1.0000 </r>
       <r>   -4.3096    1.0000 </r>
       <r>   -4.2182    1.0000 </r>
       <r>   -3.7105    1.0000 </r>
       <r>   -3.4926    1.0000 </r>
       <r>   -3.3966    1.0000 </r>
       <r>   -3.2606    1.0000 </r>
       <r>   -3.1741    1.0000 </r>
       <r>   -3.0696    1.0000 </r>
       <r>   -2.9427    1.0000 </r>
       <r>   -2.7784    1.0000 </r>
       <r>   -2.7008    1.0000 </r>
       <r>   -2.4513    1.0000 </r>
       <r>   -2.2511    1.0000 </r>
       <r>   -2.1563    1.0000 </r>
       <r>   -1.9835    1.0000 </r>
       <r>   -1.9621    1.0000 </r>
       <r>   -1.8194    1.0000 </r>
       <r>   -1.6930    1.0000 </r>
       <r>   -1.5814    1.0000 </r>
       <r>   -1.3737    1.0000 </r>
       <r>   -1.0555    1.0000 </r>
       <r>   -0.6542    1.0000 </r>
       <r>   -0.5226    1.0000 </r>
       <r>   -0.0857    0.1549 </r>
       <r>    0.4102    0.0000 </r>
       <r>    1.2098    0.0000 </r>
       <r>    1.4034    0.0000 </r>
       <r>    1.4963    0.0000 </r>
       <r>    1.6852    0.0000 </r>
       <r>    1.8426    0.0000 </r>
       <r>    1.9386    0.0000 </r>
       <r>    2.1373    0.0000 </r>
       <r>    2.2656    0.0000 </r>
       <r>    2.5502    0.0000 </r>
       <r>    2.6983    0.0000 </r>
       <r>    2.7952    0.0000 </r>
       <r>    2.9342    0.0000 </r>
      </set>
      <set comment="kpoint 6">
       <r>  -12.3923    1.0000 </r>
       <r>  -12.1763    1.0000 </r>
       <r>  -11.6683    1.0000 </r>
       <r>  -11.6217    1.0000 </r>
       <r>  -11.3572    1.0000 </r>
       <r>  -11.1860    1.0000 </r>
       <r>  -11.0026    1.0000 </r>
       <r>  -10.9449    1.0000 </r>
       <r>  -10.7247    1.0000 </r>
       <r>  -10.5557    1.0000 </r>
       <r>  -10.5365    1.0000 </r>
       <r>  -10.0466    1.0000 </r>
       <r>   -9.1879    1.0000 </r>
       <r>   -8.9311    1.0000 </r>
       <r>   -8.4792    1.0000 </r>
       <r>   -8.0712    1.0000 </r>
       <r>   -7.7423    1.0000 </r>
       <r>   -7.5590    1.0000 </r>
       <r>   -7.5169    1.0000 </r>
       <r>   -7.0871    1.0000 </r>
       <r>   -6.8567    1.0000 </r>
       <r>   -6.7642    1.0000 </r>
       <r>   -6.5999    1.0000 </r>
       <r>   -5.9311    1.0000 </r>
       <r>   -5.3127    1.0000 </r>
       <r>   -5.1974    1.0000 </r>
       <r>   -4.7782    1.0000 </r>
       <r>   -4.6289    1.0000 </r>
       <r>   -4.5570    1.0000 </r>
       <r>   -4.3824    1.0000 </r>
       <r>   -4.3199    1.0000 </r>
       <r>   -4.1719    1.0000 </r>
       <r>   -3.9955    1.0000 </r>
       <r>   -3.8310    1.0000 </r>
       <r>   -3.7534    1.0000 </r>
       <r>   -3.5890    1.0000 </r>
       <r>   -3.3687    1.0000 </r>
       <r>   -3.2621    1.0000 </r>
       <r>   -3.1604    1.0000 </r>
       <r>   -2.9665    1.0000 </r>
       <r>   -2.8948    1.0000 </r>
       <r>   -2.6715    1.0000 </r>
       <r>   -2.5686    1.0000 </r>
       <r>   -2.4745    1.0000 </r>
       <r>   -2.3666    1.0000 </r>
       <r>   -2.1690    1.0000 </r>
       <r>   -2.1216    1.0000 </r>
       <r>   -1.9829    1.0000 </r>
       <r>   -1.9401    1.0000 </r>
       <r>   -1.7527    1.0000 </r>
       <r>   -1.4959    1.0000 </r>
       <r>   -1.3210    1.0000 </r>
       <r>   -0.8369    1.0000 </r>
       <r>   -0.5127    1.0000 </r>
       <r>   -0.1406    0.4058 </r>
       <r>    0.2447    0.0000 </r>
       <r>    0.7324    0.0000 </r>
       <r>    1.3030    0.0000 </r>
       <r>    1.3464    0.0000 </r>
       <r>    1.6029    0.0000 </r>
       <r>    1.6185    0.0000 </r>
       <r>    1.7983    0.0000 </r>
       <r>    1.9670    0.0000 </r>
       <r>    2.1655    0.0000 </r>
       <r>    2.1868    0.0000 </r>
       <r>    2.4171    0.0000 </r>
       <r>    2.6318    0.0000 </r>
       <r>    2.7298    0.0000 </r>
      </set>
      <set comment="kpoint 7">
       <r>  -11.8574    1.0000 </r>
       <r>  -11.6030    1.0000 </r>
       <r>  -11.3665    1.0000 </r>
       <r>  -11.2455    1.0000 </r>
       <r>  -11.1358    1.0000 </r>
       <r>  -11.0536    1.0000 </r>
       <r>  -10.9421    1.0000 </r>
       <r>  -10.8293    1.0000 </r>
       <r>  -10.8074    1.0000 </r>
       <r>  -10.7354    1.0000 </r>
       <r>  -10.5877    1.0000 </r>
       <r>  -10.0339    1.0000 </r>
       <r>   -9.4065    1.0000 </r>
       <r>   -8.7874    1.0000 </r>
       <r>   -8.5424    1.0000 </r>
       <r>   -8.3444    1.0000 </r>
       <r>   -8.1787    1.0000 </r>
       <r>   -7.7061    1.0000 </r>
       <r>   -7.6721    1.0000 </r>
       <r>   -7.4533    1.0000 </r>
       <r>   -7.3873    1.0000 </r>
       <r>   -7.2768    1.0000 </r>
       <r>   -7.0470    1.0000 </r>
       <r>   -6.1707    1.0000 </r>
       <r>   -5.0223    1.0000 </r>
       <r>   -4.9917    1.0000 </r>
       <r>   -4.6025    1.0000 </r>
       <r>   -4.5489    1.0000 </r>
       <r>   -4.3977    1.0000 </r>
       <r>   -4.1998    1.0000 </r>
       <r>   -4.1147    1.0000 </r>
       <r>   -4.0365    1.0000 </r>
       <r>   -4.0052    1.0000 </r>
       <r>   -3.9286    1.0000 </r>
       <r>   -3.7204    1.0000 </r>
       <r>   -3.6430    1.0000 </r>
       <r>   -3.6025    1.0000 </r>
       <r>   -3.3540    1.0000 </r>
       <r>   -3.3020    1.0000 </r>
       <r>   -3.1035    1.0000 </r>
       <r>   -3.0392    1.0000 </r>
       <r>   -2.8744    1.0000 </r>
       <r>   -2.7849    1.0000 </r>
       <r>   -2.4689    1.0000 </r>
       <r>   -2.4279    1.0000 </r>
       <r>   -2.2938    1.0000 </r>
       <r>   -2.2188    1.0000 </r>
       <r>   -2.1577    1.0000 </r>
       <r>   -1.8858    1.0000 </r>
       <r>   -1.7453    1.0000 </r>
       <r>   -1.6298    1.0000 </r>
       <r>   -1.4170    1.0000 </r>
       <r>   -0.9923    1.0000 </r>
       <r>   -0.5500    1.0000 </r>
       <r>   -0.1865    0.6595 </r>
       <r>    0.2354    0.0000 </r>
       <r>    0.5065    0.0000 </r>
       <r>    1.2704    0.0000 </r>
       <r>    1.3033    0.0000 </r>
       <r>    1.4788    0.0000 </r>
       <r>    1.5451    0.0000 </r>
       <r>    1.7334    0.0000 </r>
       <r>    1.8108    0.0000 </r>
       <r>    1.9816    0.0000 </r>
       <r>    2.2280    0.0000 </r>
       <r>    2.2911    0.0000 </r>
       <r>    2.4141    0.0000 </r>
       <r>    2.5677    0.0000 </r>
      </set>
      <set comment="kpoint 8">
       <r>  -13.8537    1.0000 </r>
       <r>  -13.5868    1.0000 </r>
       <r>  -13.0739    1.0000 </r>
       <r>  -12.8294    1.0000 </r>
       <r>  -12.5950    1.0000 </r>
       <r>  -12.3920    1.0000 </r>
       <r>  -11.9747    1.0000 </r>
       <r>  -11.8416    1.0000 </r>
       <r>  -11.5780    1.0000 </r>
       <r>  -11.3023    1.0000 </r>
       <r>  -11.0994    1.0000 </r>
       <r>  -10.6158    1.0000 </r>
       <r>   -8.6515    1.0000 </r>
       <r>   -8.6118    1.0000 </r>
       <r>   -7.4989    1.0000 </r>
       <r>   -7.0884    1.0000 </r>
       <r>   -6.7737    1.0000 </r>
       <r>   -6.7254    1.0000 </r>
       <r>   -6.6396    1.0000 </r>
       <r>   -6.4344    1.0000 </r>
       <r>   -5.8481    1.0000 </r>
       <r>   -5.6864    1.0000 </r>
       <r>   -4.7747    1.0000 </r>
       <r>   -4.6226    1.0000 </r>
       <r>   -4.2775    1.0000 </r>
       <r>   -4.1142    1.0000 </r>
       <r>   -3.8720    1.0000 </r>
       <r>   -3.5503    1.0000 </r>
       <r>   -3.4602    1.0000 </r>
       <r>   -3.2727    1.0000 </r>
       <r>   -3.2290    1.0000 </r>
       <r>   -3.0152    1.0000 </r>
       <r>   -2.8084    1.0000 </r>
       <r>   -2.5786    1.0000 </r>
       <r>   -2.5016    1.0000 </r>
       <r>   -2.4654    1.0000 </r>
       <r>   -2.3842    1.0000 </r>
       <r>   -2.2915    1.0000 </r>
       <r>   -2.2201    1.0000 </r>
       <r>   -2.0825    1.0000 </r>
       <r>   -2.0714    1.0000 </r>
       <r>   -1.9794    1.0000 </r>
       <r>   -1.7294    1.0000 </r>
       <r>   -1.7244    1.0000 </r>
       <r>   -1.6024    1.0000 </r>
       <r>   -1.5201    1.0000 </r>
       <r>   -1.4622    1.0000 </r>
       <r>   -1.3630    1.0000 </r>
       <r>   -1.1741    1.0000 </r>
       <r>   -1.1015    1.0000 </r>
       <r>   -1.0438    1.0000 </r>
       <r>   -0.7721    1.0000 </r>
       <r>   -0.1950    0.7023 </r>
       <r>   -0.0703    0.1087 </r>
       <r>    0.1468    0.0000 </r>
       <r>    0.9028    0.0000 </r>
       <r>    1.1061    0.0000 </r>
       <r>    1.2815    0.0000 </r>
       <r>    1.5359    0.0000 </r>
       <r>    1.6285    0.0000 </r>
       <r>    1.6991    0.0000 </r>
       <r>    1.7464    0.0000 </r>
       <r>    2.1409    0.0000 </r>
       <r>    2.1563    0.0000 </r>
       <r>    2.4233    0.0000 </r>
       <r>    2.5293    0.0000 </r>
       <r>    2.5591    0.0000 </r>
       <r>    2.7889    0.0000 </r>
      </set>
      <set comment="kpoint 9">
       <r>  -13.7882    1.0000 </r>
       <r>  -13.5101    1.0000 </r>
       <r>  -13.0546    1.0000 </r>
       <r>  -12.7938    1.0000 </r>
       <r>  -12.5378    1.0000 </r>
       <r>  -12.3353    1.0000 </r>
       <r>  -11.8756    1.0000 </r>
       <r>  -11.7666    1.0000 </r>
       <r>  -11.5368    1.0000 </r>
       <r>  -11.2624    1.0000 </r>
       <r>  -11.0552    1.0000 </r>
       <r>  -10.5628    1.0000 </r>
       <r>   -8.6849    1.0000 </r>
       <r>   -8.6628    1.0000 </r>
       <r>   -7.4490    1.0000 </r>
       <r>   -7.0189    1.0000 </r>
       <r>   -6.7816    1.0000 </r>
       <r>   -6.7446    1.0000 </r>
       <r>   -6.6209    1.0000 </r>
       <r>   -6.4023    1.0000 </r>
       <r>   -5.7996    1.0000 </r>
       <r>   -5.6389    1.0000 </r>
       <r>   -4.8013    1.0000 </r>
       <r>   -4.6352    1.0000 </r>
       <r>   -4.3422    1.0000 </r>
       <r>   -4.1708    1.0000 </r>
       <r>   -3.9679    1.0000 </r>
       <r>   -3.7598    1.0000 </r>
       <r>   -3.6612    1.0000 </r>
       <r>   -3.4881    1.0000 </r>
       <r>   -3.3662    1.0000 </r>
       <r>   -3.1359    1.0000 </r>
       <r>   -3.0608    1.0000 </r>
       <r>   -2.9386    1.0000 </r>
       <r>   -2.7980    1.0000 </r>
       <r>   -2.7361    1.0000 </r>
       <r>   -2.5928    1.0000 </r>
       <r>   -2.4101    1.0000 </r>
       <r>   -2.3941    1.0000 </r>
       <r>   -2.3033    1.0000 </r>
       <r>   -2.2374    1.0000 </r>
       <r>   -2.1114    1.0000 </r>
       <r>   -1.9818    1.0000 </r>
       <r>   -1.9329    1.0000 </r>
       <r>   -1.8531    1.0000 </r>
       <r>   -1.5934    1.0000 </r>
       <r>   -1.4825    1.0000 </r>
       <r>   -1.2959    1.0000 </r>
       <r>   -1.1205    1.0000 </r>
       <r>   -1.0431    1.0000 </r>
       <r>   -0.9675    1.0000 </r>
       <r>   -0.7811    1.0000 </r>
       <r>   -0.2604    0.9272 </r>
       <r>   -0.0578    0.0794 </r>
       <r>    0.1226    0.0000 </r>
       <r>    1.0090    0.0000 </r>
       <r>    1.4909    0.0000 </r>
       <r>    1.6767    0.0000 </r>
       <r>    1.8355    0.0000 </r>
       <r>    1.8471    0.0000 </r>
       <r>    2.0389    0.0000 </r>
       <r>    2.1081    0.0000 </r>
       <r>    2.2824    0.0000 </r>
       <r>    2.4150    0.0000 </r>
       <r>    2.5508    0.0000 </r>
       <r>    2.6411    0.0000 </r>
       <r>    2.8338    0.0000 </r>
       <r>    2.9156    0.0000 </r>
      </set>
      <set comment="kpoint 10">
       <r>  -13.6003    1.0000 </r>
       <r>  -13.3137    1.0000 </r>
       <r>  -12.9179    1.0000 </r>
       <r>  -12.6510    1.0000 </r>
       <r>  -12.3713    1.0000 </r>
       <r>  -12.1704    1.0000 </r>
       <r>  -11.6791    1.0000 </r>
       <r>  -11.5959    1.0000 </r>
       <r>  -11.3973    1.0000 </r>
       <r>  -11.1361    1.0000 </r>
       <r>  -10.9140    1.0000 </r>
       <r>  -10.4368    1.0000 </r>
       <r>   -8.7415    1.0000 </r>
       <r>   -8.6247    1.0000 </r>
       <r>   -7.4152    1.0000 </r>
       <r>   -7.1122    1.0000 </r>
       <r>   -6.8734    1.0000 </r>
       <r>   -6.7580    1.0000 </r>
       <r>   -6.5959    1.0000 </r>
       <r>   -6.3447    1.0000 </r>
       <r>   -5.7523    1.0000 </r>
       <r>   -5.5842    1.0000 </r>
       <r>   -4.9435    1.0000 </r>
       <r>   -4.7726    1.0000 </r>
       <r>   -4.5062    1.0000 </r>
       <r>   -4.4752    1.0000 </r>
       <r>   -4.4225    1.0000 </r>
       <r>   -4.3324    1.0000 </r>
       <r>   -4.0792    1.0000 </r>
       <r>   -3.7684    1.0000 </r>
       <r>   -3.7386    1.0000 </r>
       <r>   -3.6339    1.0000 </r>
       <r>   -3.5304    1.0000 </r>
       <r>   -3.3063    1.0000 </r>
       <r>   -3.2062    1.0000 </r>
       <r>   -3.0607    1.0000 </r>
       <r>   -2.9593    1.0000 </r>
       <r>   -2.8788    1.0000 </r>
       <r>   -2.8289    1.0000 </r>
       <r>   -2.7012    1.0000 </r>
       <r>   -2.6251    1.0000 </r>
       <r>   -2.4137    1.0000 </r>
       <r>   -2.2469    1.0000 </r>
       <r>   -2.0664    1.0000 </r>
       <r>   -1.9855    1.0000 </r>
       <r>   -1.6137    1.0000 </r>
       <r>   -1.5693    1.0000 </r>
       <r>   -1.3046    1.0000 </r>
       <r>   -1.2032    1.0000 </r>
       <r>   -1.1444    1.0000 </r>
       <r>   -1.0272    1.0000 </r>
       <r>   -0.8333    1.0000 </r>
       <r>   -0.5459    1.0000 </r>
       <r>   -0.2051    0.7497 </r>
       <r>    0.3433    0.0000 </r>
       <r>    1.0200    0.0000 </r>
       <r>    1.5566    0.0000 </r>
       <r>    1.8698    0.0000 </r>
       <r>    1.9912    0.0000 </r>
       <r>    2.0224    0.0000 </r>
       <r>    2.2412    0.0000 </r>
       <r>    2.3763    0.0000 </r>
       <r>    2.6423    0.0000 </r>
       <r>    2.7364    0.0000 </r>
       <r>    2.8523    0.0000 </r>
       <r>    2.9424    0.0000 </r>
       <r>    2.9830    0.0000 </r>
       <r>    3.1862    0.0000 </r>
      </set>
      <set comment="kpoint 11">
       <r>  -13.2931    1.0000 </r>
       <r>  -13.0026    1.0000 </r>
       <r>  -12.6663    1.0000 </r>
       <r>  -12.4099    1.0000 </r>
       <r>  -12.1032    1.0000 </r>
       <r>  -11.9051    1.0000 </r>
       <r>  -11.4057    1.0000 </r>
       <r>  -11.3456    1.0000 </r>
       <r>  -11.1755    1.0000 </r>
       <r>  -10.9415    1.0000 </r>
       <r>  -10.6967    1.0000 </r>
       <r>  -10.2611    1.0000 </r>
       <r>   -8.8724    1.0000 </r>
       <r>   -8.5394    1.0000 </r>
       <r>   -7.6826    1.0000 </r>
       <r>   -7.4982    1.0000 </r>
       <r>   -6.9611    1.0000 </r>
       <r>   -6.7983    1.0000 </r>
       <r>   -6.7431    1.0000 </r>
       <r>   -6.3405    1.0000 </r>
       <r>   -5.9200    1.0000 </r>
       <r>   -5.6676    1.0000 </r>
       <r>   -5.3115    1.0000 </r>
       <r>   -5.1308    1.0000 </r>
       <r>   -5.0080    1.0000 </r>
       <r>   -4.9160    1.0000 </r>
       <r>   -4.7647    1.0000 </r>
       <r>   -4.6634    1.0000 </r>
       <r>   -4.5260    1.0000 </r>
       <r>   -4.3360    1.0000 </r>
       <r>   -4.2273    1.0000 </r>
       <r>   -4.1077    1.0000 </r>
       <r>   -3.8381    1.0000 </r>
       <r>   -3.6929    1.0000 </r>
       <r>   -3.4080    1.0000 </r>
       <r>   -3.3060    1.0000 </r>
       <r>   -3.2143    1.0000 </r>
       <r>   -3.1907    1.0000 </r>
       <r>   -2.8609    1.0000 </r>
       <r>   -2.7558    1.0000 </r>
       <r>   -2.6329    1.0000 </r>
       <r>   -2.6024    1.0000 </r>
       <r>   -2.4506    1.0000 </r>
       <r>   -2.0896    1.0000 </r>
       <r>   -2.0145    1.0000 </r>
       <r>   -1.8862    1.0000 </r>
       <r>   -1.8590    1.0000 </r>
       <r>   -1.5225    1.0000 </r>
       <r>   -1.4863    1.0000 </r>
       <r>   -1.2899    1.0000 </r>
       <r>   -1.1575    1.0000 </r>
       <r>   -0.8602    1.0000 </r>
       <r>   -0.6336    1.0000 </r>
       <r>   -0.3328    0.9934 </r>
       <r>    0.0196    0.0061 </r>
       <r>    0.6175    0.0000 </r>
       <r>    1.3547    0.0000 </r>
       <r>    1.4733    0.0000 </r>
       <r>    1.5011    0.0000 </r>
       <r>    1.6673    0.0000 </r>
       <r>    2.0624    0.0000 </r>
       <r>    2.2255    0.0000 </r>
       <r>    2.4605    0.0000 </r>
       <r>    2.6170    0.0000 </r>
       <r>    2.8808    0.0000 </r>
       <r>    2.9775    0.0000 </r>
       <r>    3.1557    0.0000 </r>
       <r>    3.2114    0.0000 </r>
      </set>
      <set comment="kpoint 12">
       <r>  -12.8736    1.0000 </r>
       <r>  -12.5861    1.0000 </r>
       <r>  -12.3069    1.0000 </r>
       <r>  -12.0922    1.0000 </r>
       <r>  -11.7512    1.0000 </r>
       <r>  -11.5574    1.0000 </r>
       <r>  -11.0996    1.0000 </r>
       <r>  -11.0575    1.0000 </r>
       <r>  -10.9117    1.0000 </r>
       <r>  -10.7156    1.0000 </r>
       <r>  -10.4913    1.0000 </r>
       <r>  -10.0970    1.0000 </r>
       <r>   -9.0718    1.0000 </r>
       <r>   -8.6490    1.0000 </r>
       <r>   -8.1954    1.0000 </r>
       <r>   -7.8107    1.0000 </r>
       <r>   -7.3156    1.0000 </r>
       <r>   -7.2113    1.0000 </r>
       <r>   -7.0635    1.0000 </r>
       <r>   -6.5248    1.0000 </r>
       <r>   -6.2874    1.0000 </r>
       <r>   -6.1429    1.0000 </r>
       <r>   -6.0188    1.0000 </r>
       <r>   -5.5188    1.0000 </r>
       <r>   -5.4779    1.0000 </r>
       <r>   -5.0503    1.0000 </r>
       <r>   -4.9838    1.0000 </r>
       <r>   -4.7246    1.0000 </r>
       <r>   -4.6146    1.0000 </r>
       <r>   -4.5103    1.0000 </r>
       <r>   -4.4314    1.0000 </r>
       <r>   -4.2686    1.0000 </r>
       <r>   -4.1062    1.0000 </r>
       <r>   -3.7661    1.0000 </r>
       <r>   -3.4410    1.0000 </r>
       <r>   -3.2887    1.0000 </r>
       <r>   -3.1861    1.0000 </r>
       <r>   -3.0925    1.0000 </r>
       <r>   -3.0355    1.0000 </r>
       <r>   -2.9600    1.0000 </r>
       <r>   -2.7176    1.0000 </r>
       <r>   -2.5954    1.0000 </r>
       <r>   -2.5067    1.0000 </r>
       <r>   -2.4083    1.0000 </r>
       <r>   -2.3049    1.0000 </r>
       <r>   -2.0480    1.0000 </r>
       <r>   -1.9803    1.0000 </r>
       <r>   -1.8463    1.0000 </r>
       <r>   -1.6649    1.0000 </r>
       <r>   -1.5207    1.0000 </r>
       <r>   -1.3930    1.0000 </r>
       <r>   -0.9864    1.0000 </r>
       <r>   -0.6951    1.0000 </r>
       <r>   -0.5162    1.0000 </r>
       <r>   -0.2225    0.8212 </r>
       <r>    0.1690    0.0000 </r>
       <r>    1.0607    0.0000 </r>
       <r>    1.1405    0.0000 </r>
       <r>    1.1930    0.0000 </r>
       <r>    1.2799    0.0000 </r>
       <r>    1.9713    0.0000 </r>
       <r>    2.0863    0.0000 </r>
       <r>    2.2424    0.0000 </r>
       <r>    2.3247    0.0000 </r>
       <r>    2.4962    0.0000 </r>
       <r>    2.6497    0.0000 </r>
       <r>    2.8674    0.0000 </r>
       <r>    3.0366    0.0000 </r>
      </set>
      <set comment="kpoint 13">
       <r>  -12.3584    1.0000 </r>
       <r>  -12.0829    1.0000 </r>
       <r>  -11.8565    1.0000 </r>
       <r>  -11.7452    1.0000 </r>
       <r>  -11.3551    1.0000 </r>
       <r>  -11.1739    1.0000 </r>
       <r>  -10.8840    1.0000 </r>
       <r>  -10.8215    1.0000 </r>
       <r>  -10.7012    1.0000 </r>
       <r>  -10.5686    1.0000 </r>
       <r>  -10.5529    1.0000 </r>
       <r>  -10.0418    1.0000 </r>
       <r>   -9.1385    1.0000 </r>
       <r>   -9.0616    1.0000 </r>
       <r>   -8.2344    1.0000 </r>
       <r>   -8.2084    1.0000 </r>
       <r>   -7.8789    1.0000 </r>
       <r>   -7.7385    1.0000 </r>
       <r>   -7.4598    1.0000 </r>
       <r>   -7.0145    1.0000 </r>
       <r>   -6.7998    1.0000 </r>
       <r>   -6.7568    1.0000 </r>
       <r>   -6.6005    1.0000 </r>
       <r>   -6.0790    1.0000 </r>
       <r>   -5.4433    1.0000 </r>
       <r>   -4.9113    1.0000 </r>
       <r>   -4.8829    1.0000 </r>
       <r>   -4.6712    1.0000 </r>
       <r>   -4.5193    1.0000 </r>
       <r>   -4.4130    1.0000 </r>
       <r>   -4.2214    1.0000 </r>
       <r>   -4.0586    1.0000 </r>
       <r>   -3.9593    1.0000 </r>
       <r>   -3.8043    1.0000 </r>
       <r>   -3.4549    1.0000 </r>
       <r>   -3.4318    1.0000 </r>
       <r>   -3.3765    1.0000 </r>
       <r>   -3.2576    1.0000 </r>
       <r>   -3.2225    1.0000 </r>
       <r>   -3.0348    1.0000 </r>
       <r>   -2.9486    1.0000 </r>
       <r>   -2.7906    1.0000 </r>
       <r>   -2.6556    1.0000 </r>
       <r>   -2.5098    1.0000 </r>
       <r>   -2.3861    1.0000 </r>
       <r>   -2.1824    1.0000 </r>
       <r>   -2.1508    1.0000 </r>
       <r>   -1.9794    1.0000 </r>
       <r>   -1.8702    1.0000 </r>
       <r>   -1.7135    1.0000 </r>
       <r>   -1.5528    1.0000 </r>
       <r>   -1.2888    1.0000 </r>
       <r>   -0.8377    1.0000 </r>
       <r>   -0.5741    1.0000 </r>
       <r>   -0.3858    0.9994 </r>
       <r>    0.1443    0.0000 </r>
       <r>    0.8049    0.0000 </r>
       <r>    1.0710    0.0000 </r>
       <r>    1.1104    0.0000 </r>
       <r>    1.2464    0.0000 </r>
       <r>    1.7093    0.0000 </r>
       <r>    1.8251    0.0000 </r>
       <r>    1.9754    0.0000 </r>
       <r>    2.0807    0.0000 </r>
       <r>    2.3553    0.0000 </r>
       <r>    2.5157    0.0000 </r>
       <r>    2.5923    0.0000 </r>
       <r>    2.7427    0.0000 </r>
      </set>
      <set comment="kpoint 14">
       <r>  -11.8202    1.0000 </r>
       <r>  -11.5345    1.0000 </r>
       <r>  -11.4579    1.0000 </r>
       <r>  -11.3610    1.0000 </r>
       <r>  -11.1185    1.0000 </r>
       <r>  -11.0653    1.0000 </r>
       <r>  -10.9632    1.0000 </r>
       <r>  -10.7999    1.0000 </r>
       <r>  -10.7932    1.0000 </r>
       <r>  -10.6816    1.0000 </r>
       <r>  -10.5520    1.0000 </r>
       <r>  -10.0363    1.0000 </r>
       <r>   -9.3872    1.0000 </r>
       <r>   -8.6542    1.0000 </r>
       <r>   -8.4998    1.0000 </r>
       <r>   -8.4328    1.0000 </r>
       <r>   -8.3607    1.0000 </r>
       <r>   -7.7178    1.0000 </r>
       <r>   -7.6196    1.0000 </r>
       <r>   -7.4637    1.0000 </r>
       <r>   -7.4174    1.0000 </r>
       <r>   -7.2357    1.0000 </r>
       <r>   -7.0469    1.0000 </r>
       <r>   -6.2601    1.0000 </r>
       <r>   -5.1193    1.0000 </r>
       <r>   -4.7585    1.0000 </r>
       <r>   -4.5768    1.0000 </r>
       <r>   -4.5322    1.0000 </r>
       <r>   -4.3349    1.0000 </r>
       <r>   -4.2547    1.0000 </r>
       <r>   -4.1936    1.0000 </r>
       <r>   -4.0462    1.0000 </r>
       <r>   -3.9849    1.0000 </r>
       <r>   -3.7584    1.0000 </r>
       <r>   -3.7235    1.0000 </r>
       <r>   -3.6113    1.0000 </r>
       <r>   -3.5772    1.0000 </r>
       <r>   -3.3830    1.0000 </r>
       <r>   -3.3542    1.0000 </r>
       <r>   -3.1051    1.0000 </r>
       <r>   -3.0403    1.0000 </r>
       <r>   -2.8656    1.0000 </r>
       <r>   -2.7396    1.0000 </r>
       <r>   -2.6981    1.0000 </r>
       <r>   -2.3972    1.0000 </r>
       <r>   -2.2568    1.0000 </r>
       <r>   -2.2020    1.0000 </r>
       <r>   -2.1272    1.0000 </r>
       <r>   -1.8987    1.0000 </r>
       <r>   -1.7816    1.0000 </r>
       <r>   -1.6540    1.0000 </r>
       <r>   -1.4081    1.0000 </r>
       <r>   -1.0229    1.0000 </r>
       <r>   -0.5402    1.0000 </r>
       <r>   -0.3337    0.9937 </r>
       <r>    0.1998    0.0000 </r>
       <r>    0.6982    0.0000 </r>
       <r>    1.1545    0.0000 </r>
       <r>    1.3276    0.0000 </r>
       <r>    1.4070    0.0000 </r>
       <r>    1.4681    0.0000 </r>
       <r>    1.6269    0.0000 </r>
       <r>    1.7671    0.0000 </r>
       <r>    2.0261    0.0000 </r>
       <r>    2.2816    0.0000 </r>
       <r>    2.3466    0.0000 </r>
       <r>    2.4217    0.0000 </r>
       <r>    2.5002    0.0000 </r>
      </set>
      <set comment="kpoint 15">
       <r>  -11.8652    1.0000 </r>
       <r>  -11.6364    1.0000 </r>
       <r>  -11.3632    1.0000 </r>
       <r>  -11.1691    1.0000 </r>
       <r>  -11.1068    1.0000 </r>
       <r>  -11.0399    1.0000 </r>
       <r>  -10.9063    1.0000 </r>
       <r>  -10.8591    1.0000 </r>
       <r>  -10.8062    1.0000 </r>
       <r>  -10.7976    1.0000 </r>
       <r>  -10.6230    1.0000 </r>
       <r>  -10.0321    1.0000 </r>
       <r>   -9.4212    1.0000 </r>
       <r>   -8.8561    1.0000 </r>
       <r>   -8.5363    1.0000 </r>
       <r>   -8.3132    1.0000 </r>
       <r>   -8.0444    1.0000 </r>
       <r>   -7.7098    1.0000 </r>
       <r>   -7.6868    1.0000 </r>
       <r>   -7.4275    1.0000 </r>
       <r>   -7.3796    1.0000 </r>
       <r>   -7.3175    1.0000 </r>
       <r>   -7.1187    1.0000 </r>
       <r>   -6.1819    1.0000 </r>
       <r>   -4.9282    1.0000 </r>
       <r>   -4.8388    1.0000 </r>
       <r>   -4.6784    1.0000 </r>
       <r>   -4.4815    1.0000 </r>
       <r>   -4.4062    1.0000 </r>
       <r>   -4.3014    1.0000 </r>
       <r>   -4.1079    1.0000 </r>
       <r>   -4.1026    1.0000 </r>
       <r>   -3.9864    1.0000 </r>
       <r>   -3.9548    1.0000 </r>
       <r>   -3.8094    1.0000 </r>
       <r>   -3.7340    1.0000 </r>
       <r>   -3.6242    1.0000 </r>
       <r>   -3.4513    1.0000 </r>
       <r>   -3.2396    1.0000 </r>
       <r>   -3.0944    1.0000 </r>
       <r>   -2.9007    1.0000 </r>
       <r>   -2.8265    1.0000 </r>
       <r>   -2.7759    1.0000 </r>
       <r>   -2.4926    1.0000 </r>
       <r>   -2.3979    1.0000 </r>
       <r>   -2.2683    1.0000 </r>
       <r>   -2.2231    1.0000 </r>
       <r>   -2.1825    1.0000 </r>
       <r>   -1.9568    1.0000 </r>
       <r>   -1.7548    1.0000 </r>
       <r>   -1.6162    1.0000 </r>
       <r>   -1.4700    1.0000 </r>
       <r>   -1.0127    1.0000 </r>
       <r>   -0.3896    0.9995 </r>
       <r>   -0.2623    0.9309 </r>
       <r>    0.2715    0.0000 </r>
       <r>    0.7081    0.0000 </r>
       <r>    1.1893    0.0000 </r>
       <r>    1.2886    0.0000 </r>
       <r>    1.5421    0.0000 </r>
       <r>    1.6529    0.0000 </r>
       <r>    1.6723    0.0000 </r>
       <r>    1.7480    0.0000 </r>
       <r>    2.1207    0.0000 </r>
       <r>    2.2459    0.0000 </r>
       <r>    2.3336    0.0000 </r>
       <r>    2.4555    0.0000 </r>
       <r>    2.5045    0.0000 </r>
      </set>
      <set comment="kpoint 16">
       <r>  -12.3991    1.0000 </r>
       <r>  -12.2027    1.0000 </r>
       <r>  -11.6022    1.0000 </r>
       <r>  -11.5830    1.0000 </r>
       <r>  -11.3553    1.0000 </r>
       <r>  -11.1906    1.0000 </r>
       <r>  -11.0390    1.0000 </r>
       <r>  -10.9803    1.0000 </r>
       <r>  -10.7273    1.0000 </r>
       <r>  -10.5516    1.0000 </r>
       <r>  -10.5416    1.0000 </r>
       <r>  -10.0699    1.0000 </r>
       <r>   -9.2302    1.0000 </r>
       <r>   -8.8422    1.0000 </r>
       <r>   -8.5937    1.0000 </r>
       <r>   -7.9918    1.0000 </r>
       <r>   -7.6280    1.0000 </r>
       <r>   -7.5388    1.0000 </r>
       <r>   -7.4304    1.0000 </r>
       <r>   -7.2049    1.0000 </r>
       <r>   -6.9050    1.0000 </r>
       <r>   -6.7688    1.0000 </r>
       <r>   -6.6692    1.0000 </r>
       <r>   -5.9078    1.0000 </r>
       <r>   -5.1791    1.0000 </r>
       <r>   -5.1443    1.0000 </r>
       <r>   -4.9521    1.0000 </r>
       <r>   -4.6097    1.0000 </r>
       <r>   -4.4901    1.0000 </r>
       <r>   -4.3784    1.0000 </r>
       <r>   -4.3015    1.0000 </r>
       <r>   -4.1870    1.0000 </r>
       <r>   -4.0313    1.0000 </r>
       <r>   -3.8329    1.0000 </r>
       <r>   -3.8132    1.0000 </r>
       <r>   -3.6280    1.0000 </r>
       <r>   -3.5038    1.0000 </r>
       <r>   -3.2764    1.0000 </r>
       <r>   -3.2021    1.0000 </r>
       <r>   -2.9300    1.0000 </r>
       <r>   -2.8470    1.0000 </r>
       <r>   -2.6557    1.0000 </r>
       <r>   -2.5373    1.0000 </r>
       <r>   -2.4618    1.0000 </r>
       <r>   -2.3436    1.0000 </r>
       <r>   -2.1735    1.0000 </r>
       <r>   -2.0419    1.0000 </r>
       <r>   -2.0077    1.0000 </r>
       <r>   -1.9514    1.0000 </r>
       <r>   -1.7940    1.0000 </r>
       <r>   -1.4871    1.0000 </r>
       <r>   -1.3710    1.0000 </r>
       <r>   -0.8488    1.0000 </r>
       <r>   -0.4751    1.0000 </r>
       <r>   -0.1250    0.3229 </r>
       <r>    0.5124    0.0000 </r>
       <r>    0.7962    0.0000 </r>
       <r>    1.1103    0.0000 </r>
       <r>    1.2945    0.0000 </r>
       <r>    1.6721    0.0000 </r>
       <r>    1.7925    0.0000 </r>
       <r>    1.9638    0.0000 </r>
       <r>    2.0179    0.0000 </r>
       <r>    2.1786    0.0000 </r>
       <r>    2.2605    0.0000 </r>
       <r>    2.4137    0.0000 </r>
       <r>    2.4935    0.0000 </r>
       <r>    2.6352    0.0000 </r>
      </set>
      <set comment="kpoint 17">
       <r>  -12.9046    1.0000 </r>
       <r>  -12.6969    1.0000 </r>
       <r>  -12.0459    1.0000 </r>
       <r>  -11.9557    1.0000 </r>
       <r>  -11.7560    1.0000 </r>
       <r>  -11.5702    1.0000 </r>
       <r>  -11.3448    1.0000 </r>
       <r>  -11.2330    1.0000 </r>
       <r>  -10.8717    1.0000 </r>
       <r>  -10.6464    1.0000 </r>
       <r>  -10.5207    1.0000 </r>
       <r>  -10.1714    1.0000 </r>
       <r>   -8.7230    1.0000 </r>
       <r>   -8.6561    1.0000 </r>
       <r>   -8.2896    1.0000 </r>
       <r>   -7.7227    1.0000 </r>
       <r>   -7.3290    1.0000 </r>
       <r>   -7.1031    1.0000 </r>
       <r>   -6.9735    1.0000 </r>
       <r>   -6.9219    1.0000 </r>
       <r>   -6.2520    1.0000 </r>
       <r>   -6.1420    1.0000 </r>
       <r>   -6.0749    1.0000 </r>
       <r>   -5.5273    1.0000 </r>
       <r>   -5.2495    1.0000 </r>
       <r>   -5.0177    1.0000 </r>
       <r>   -4.9887    1.0000 </r>
       <r>   -4.7554    1.0000 </r>
       <r>   -4.6619    1.0000 </r>
       <r>   -4.5126    1.0000 </r>
       <r>   -4.3949    1.0000 </r>
       <r>   -4.3342    1.0000 </r>
       <r>   -4.2305    1.0000 </r>
       <r>   -3.7761    1.0000 </r>
       <r>   -3.5554    1.0000 </r>
       <r>   -3.4050    1.0000 </r>
       <r>   -3.2400    1.0000 </r>
       <r>   -3.1677    1.0000 </r>
       <r>   -3.0736    1.0000 </r>
       <r>   -2.9397    1.0000 </r>
       <r>   -2.7586    1.0000 </r>
       <r>   -2.6876    1.0000 </r>
       <r>   -2.4194    1.0000 </r>
       <r>   -2.2216    1.0000 </r>
       <r>   -2.1184    1.0000 </r>
       <r>   -1.9711    1.0000 </r>
       <r>   -1.9537    1.0000 </r>
       <r>   -1.8169    1.0000 </r>
       <r>   -1.7873    1.0000 </r>
       <r>   -1.5558    1.0000 </r>
       <r>   -1.3742    1.0000 </r>
       <r>   -1.1428    1.0000 </r>
       <r>   -0.6686    1.0000 </r>
       <r>   -0.5423    1.0000 </r>
       <r>   -0.0497    0.0638 </r>
       <r>    0.6460    0.0000 </r>
       <r>    1.0225    0.0000 </r>
       <r>    1.3214    0.0000 </r>
       <r>    1.5366    0.0000 </r>
       <r>    1.8095    0.0000 </r>
       <r>    1.8843    0.0000 </r>
       <r>    2.1375    0.0000 </r>
       <r>    2.2620    0.0000 </r>
       <r>    2.2858    0.0000 </r>
       <r>    2.5285    0.0000 </r>
       <r>    2.6238    0.0000 </r>
       <r>    2.7064    0.0000 </r>
       <r>    2.8271    0.0000 </r>
      </set>
      <set comment="kpoint 18">
       <r>  -13.3160    1.0000 </r>
       <r>  -13.0922    1.0000 </r>
       <r>  -12.4506    1.0000 </r>
       <r>  -12.3006    1.0000 </r>
       <r>  -12.1090    1.0000 </r>
       <r>  -11.9142    1.0000 </r>
       <r>  -11.6374    1.0000 </r>
       <r>  -11.4913    1.0000 </r>
       <r>  -11.1285    1.0000 </r>
       <r>  -10.8889    1.0000 </r>
       <r>  -10.6989    1.0000 </r>
       <r>  -10.3338    1.0000 </r>
       <r>   -8.5009    1.0000 </r>
       <r>   -8.3541    1.0000 </r>
       <r>   -7.8862    1.0000 </r>
       <r>   -7.4447    1.0000 </r>
       <r>   -7.1245    1.0000 </r>
       <r>   -6.7933    1.0000 </r>
       <r>   -6.7390    1.0000 </r>
       <r>   -6.5943    1.0000 </r>
       <r>   -5.8459    1.0000 </r>
       <r>   -5.8137    1.0000 </r>
       <r>   -5.4342    1.0000 </r>
       <r>   -5.1946    1.0000 </r>
       <r>   -4.9310    1.0000 </r>
       <r>   -4.7111    1.0000 </r>
       <r>   -4.6195    1.0000 </r>
       <r>   -4.5929    1.0000 </r>
       <r>   -4.4701    1.0000 </r>
       <r>   -4.2892    1.0000 </r>
       <r>   -4.2595    1.0000 </r>
       <r>   -4.1078    1.0000 </r>
       <r>   -3.8776    1.0000 </r>
       <r>   -3.7425    1.0000 </r>
       <r>   -3.5506    1.0000 </r>
       <r>   -3.5092    1.0000 </r>
       <r>   -3.2568    1.0000 </r>
       <r>   -3.0851    1.0000 </r>
       <r>   -2.8324    1.0000 </r>
       <r>   -2.7923    1.0000 </r>
       <r>   -2.6361    1.0000 </r>
       <r>   -2.5271    1.0000 </r>
       <r>   -2.3664    1.0000 </r>
       <r>   -2.0028    1.0000 </r>
       <r>   -1.9275    1.0000 </r>
       <r>   -1.8706    1.0000 </r>
       <r>   -1.8067    1.0000 </r>
       <r>   -1.5877    1.0000 </r>
       <r>   -1.5424    1.0000 </r>
       <r>   -1.2799    1.0000 </r>
       <r>   -1.1627    1.0000 </r>
       <r>   -1.0309    1.0000 </r>
       <r>   -0.6931    1.0000 </r>
       <r>   -0.2889    0.9684 </r>
       <r>    0.1757    0.0000 </r>
       <r>    0.7050    0.0000 </r>
       <r>    1.2432    0.0000 </r>
       <r>    1.7168    0.0000 </r>
       <r>    1.8320    0.0000 </r>
       <r>    1.9044    0.0000 </r>
       <r>    2.1302    0.0000 </r>
       <r>    2.2714    0.0000 </r>
       <r>    2.6048    0.0000 </r>
       <r>    2.6343    0.0000 </r>
       <r>    2.8050    0.0000 </r>
       <r>    2.8229    0.0000 </r>
       <r>    2.9539    0.0000 </r>
       <r>    3.1172    0.0000 </r>
      </set>
      <set comment="kpoint 19">
       <r>  -13.6155    1.0000 </r>
       <r>  -13.3761    1.0000 </r>
       <r>  -12.7659    1.0000 </r>
       <r>  -12.5757    1.0000 </r>
       <r>  -12.3760    1.0000 </r>
[...]
       <r>    2.7907    0.0000 </r>
      </set>
      <set comment="kpoint 54">
       <r>  -11.8304    1.0000 </r>
       <r>  -11.5921    1.0000 </r>
       <r>  -11.4489    1.0000 </r>
       <r>  -11.2674    1.0000 </r>
       <r>  -11.0976    1.0000 </r>
       <r>  -11.0563    1.0000 </r>
       <r>  -10.9479    1.0000 </r>
       <r>  -10.8224    1.0000 </r>
       <r>  -10.7864    1.0000 </r>
       <r>  -10.7220    1.0000 </r>
       <r>  -10.5850    1.0000 </r>
       <r>  -10.0345    1.0000 </r>
       <r>   -9.4039    1.0000 </r>
       <r>   -8.7644    1.0000 </r>
       <r>   -8.5430    1.0000 </r>
       <r>   -8.3232    1.0000 </r>
       <r>   -8.2181    1.0000 </r>
       <r>   -7.7271    1.0000 </r>
       <r>   -7.6628    1.0000 </r>
       <r>   -7.4273    1.0000 </r>
       <r>   -7.3919    1.0000 </r>
       <r>   -7.2670    1.0000 </r>
       <r>   -7.1188    1.0000 </r>
       <r>   -6.2458    1.0000 </r>
       <r>   -5.0477    1.0000 </r>
       <r>   -4.7436    1.0000 </r>
       <r>   -4.5869    1.0000 </r>
       <r>   -4.5280    1.0000 </r>
       <r>   -4.3747    1.0000 </r>
       <r>   -4.2040    1.0000 </r>
       <r>   -4.1524    1.0000 </r>
       <r>   -4.0442    1.0000 </r>
       <r>   -3.9416    1.0000 </r>
       <r>   -3.8647    1.0000 </r>
       <r>   -3.7485    1.0000 </r>
       <r>   -3.6637    1.0000 </r>
       <r>   -3.6158    1.0000 </r>
       <r>   -3.3768    1.0000 </r>
       <r>   -3.3464    1.0000 </r>
       <r>   -3.2214    1.0000 </r>
       <r>   -3.1154    1.0000 </r>
       <r>   -2.8214    1.0000 </r>
       <r>   -2.7859    1.0000 </r>
       <r>   -2.4816    1.0000 </r>
       <r>   -2.3846    1.0000 </r>
       <r>   -2.2726    1.0000 </r>
       <r>   -2.1991    1.0000 </r>
       <r>   -2.0879    1.0000 </r>
       <r>   -1.9999    1.0000 </r>
       <r>   -1.7907    1.0000 </r>
       <r>   -1.6360    1.0000 </r>
       <r>   -1.4522    1.0000 </r>
       <r>   -1.0558    1.0000 </r>
       <r>   -0.4414    1.0000 </r>
       <r>   -0.2730    0.9488 </r>
       <r>    0.3542    0.0000 </r>
       <r>    0.8066    0.0000 </r>
       <r>    0.9439    0.0000 </r>
       <r>    1.2565    0.0000 </r>
       <r>    1.4414    0.0000 </r>
       <r>    1.5027    0.0000 </r>
       <r>    1.5750    0.0000 </r>
       <r>    1.7746    0.0000 </r>
       <r>    1.9459    0.0000 </r>
       <r>    2.2131    0.0000 </r>
       <r>    2.3564    0.0000 </r>
       <r>    2.4987    0.0000 </r>
       <r>    2.6773    0.0000 </r>
      </set>
     </set>
    </set>
   </array>
  </eigenvalues>
  <separator name="orbital magnetization" >
   <v name="MAGDIPOLOUT">      0.00000000      0.00000000      0.00000000</v>
  </separator>
  <dos>
   <i name="efermi">     -0.15747055 </i>
   <total>
    <array>
     <dimension dim="1">gridpoints</dimension>
     <dimension dim="2">spin</dimension>
     <field>energy</field>
     <field>total</field>
     <field>integrated</field>
     <set>
      <set comment="spin 1">
       <r>   -14.8700     0.0000     0.0000 </r>
       <r>   -14.8064     0.0000     0.0000 </r>
       <r>   -14.7428     0.0000     0.0000 </r>
       <r>   -14.6792     0.0000     0.0000 </r>
       <r>   -14.6155     0.0000     0.0000 </r>
       <r>   -14.5519     0.0000     0.0000 </r>
       <r>   -14.4883     0.0000     0.0000 </r>
       <r>   -14.4247     0.0000     0.0000 </r>
       <r>   -14.3611     0.0000     0.0000 </r>
       <r>   -14.2975     0.0000     0.0000 </r>
       <r>   -14.2339     0.0000     0.0000 </r>
       <r>   -14.1703     0.0000     0.0000 </r>
       <r>   -14.1067     0.0005     0.0000 </r>
       <r>   -14.0431     0.0104     0.0007 </r>
       <r>   -13.9795     0.1054     0.0074 </r>
       <r>   -13.9159     0.5486     0.0423 </r>
       <r>   -13.8523     1.5243     0.1392 </r>
       <r>   -13.7887     2.3290     0.2874 </r>
       <r>   -13.7251     2.1761     0.4258 </r>
       <r>   -13.6615     2.1270     0.5611 </r>
       <r>   -13.5979     3.0059     0.7523 </r>
       <r>   -13.5343     3.3396     0.9647 </r>
       <r>   -13.4707     2.6703     1.1345 </r>
       <r>   -13.4071     2.3502     1.2840 </r>
       <r>   -13.3435     2.8732     1.4667 </r>
       <r>   -13.2799     3.3071     1.6771 </r>
       <r>   -13.2162     2.7225     1.8503 </r>
       <r>   -13.1526     1.9907     1.9769 </r>
       <r>   -13.0890     2.2533     2.1202 </r>
       <r>   -13.0254     3.0602     2.3148 </r>
       <r>   -12.9618     3.7690     2.5546 </r>
       <r>   -12.8982     4.4044     2.8347 </r>
       <r>   -12.8346     4.6143     3.1282 </r>
       <r>   -12.7710     4.4125     3.4088 </r>
       <r>   -12.7074     4.8188     3.7153 </r>
       <r>   -12.6438     5.5555     4.0687 </r>
       <r>   -12.5802     5.6818     4.4301 </r>
       <r>   -12.5166     5.3172     4.7683 </r>
       <r>   -12.4530     5.4980     5.1180 </r>
       <r>   -12.3894     7.1169     5.5706 </r>
       <r>   -12.3258     7.9302     6.0750 </r>
       <r>   -12.2622     6.4725     6.4867 </r>
       <r>   -12.1986     5.5096     6.8372 </r>
       <r>   -12.1350     6.3108     7.2386 </r>
       <r>   -12.0714     6.5489     7.6551 </r>
       <r>   -12.0078     5.6383     8.0137 </r>
       <r>   -11.9442     5.8338     8.3848 </r>
       <r>   -11.8806     7.1466     8.8393 </r>
       <r>   -11.8170     8.0257     9.3498 </r>
       <r>   -11.7533     8.3936     9.8837 </r>
       <r>   -11.6897     8.4832    10.4232 </r>
       <r>   -11.6261     8.9927    10.9952 </r>
       <r>   -11.5625     9.7933    11.6181 </r>
       <r>   -11.4989     8.9853    12.1896 </r>
       <r>   -11.4353     7.6841    12.6784 </r>
       <r>   -11.3717     8.3960    13.2124 </r>
       <r>   -11.3081     9.4965    13.8164 </r>
       <r>   -11.2445     9.4632    14.4183 </r>
       <r>   -11.1809    10.0957    15.0604 </r>
       <r>   -11.1173    11.7396    15.8071 </r>
       <r>   -11.0537    12.1076    16.5772 </r>
       <r>   -10.9901    10.7906    17.2635 </r>
       <r>   -10.9265    10.4884    17.9307 </r>
       <r>   -10.8629    10.9784    18.6289 </r>
       <r>   -10.7993    10.2982    19.2839 </r>
       <r>   -10.7357     9.5921    19.8940 </r>
       <r>   -10.6721     9.6172    20.5057 </r>
       <r>   -10.6085     9.8225    21.1305 </r>
       <r>   -10.5449    10.0918    21.7724 </r>
       <r>   -10.4813     8.5074    22.3135 </r>
       <r>   -10.4177     5.0921    22.6374 </r>
       <r>   -10.3540     2.7080    22.8096 </r>
       <r>   -10.2904     1.9672    22.9347 </r>
       <r>   -10.2268     1.8928    23.0551 </r>
       <r>   -10.1632     2.3026    23.2016 </r>
       <r>   -10.0996     3.4302    23.4197 </r>
       <r>   -10.0360     4.2745    23.6916 </r>
       <r>    -9.9724     3.2512    23.8984 </r>
       <r>    -9.9088     1.3088    23.9817 </r>
       <r>    -9.8452     0.2620    23.9983 </r>
       <r>    -9.7816     0.0253    23.9999 </r>
       <r>    -9.7180     0.0012    24.0000 </r>
       <r>    -9.6544     0.0012    24.0001 </r>
       <r>    -9.5908     0.0217    24.0015 </r>
       <r>    -9.5272     0.1891    24.0135 </r>
       <r>    -9.4636     0.7844    24.0634 </r>
       <r>    -9.4000     1.5627    24.1628 </r>
       <r>    -9.3364     1.5837    24.2635 </r>
       <r>    -9.2728     1.1960    24.3396 </r>
       <r>    -9.2092     1.4299    24.4305 </r>
       <r>    -9.1456     1.8755    24.5498 </r>
       <r>    -9.0820     2.0695    24.6814 </r>
       <r>    -9.0184     2.2188    24.8226 </r>
       <r>    -8.9548     2.5304    24.9835 </r>
       <r>    -8.8911     3.4987    25.2060 </r>
       <r>    -8.8275     4.7885    25.5106 </r>
       <r>    -8.7639     5.4605    25.8579 </r>
       <r>    -8.7003     5.7517    26.2238 </r>
       <r>    -8.6367     6.2735    26.6228 </r>
       <r>    -8.5731     6.5743    27.0409 </r>
       <r>    -8.5095     6.2538    27.4387 </r>
       <r>    -8.4459     5.3284    27.7776 </r>
       <r>    -8.3823     4.5057    28.0642 </r>
       <r>    -8.3187     4.4368    28.3464 </r>
       <r>    -8.2551     4.6394    28.6415 </r>
       <r>    -8.1915     4.9207    28.9545 </r>
       <r>    -8.1279     4.8982    29.2660 </r>
       <r>    -8.0643     4.2444    29.5360 </r>
       <r>    -8.0007     3.5293    29.7604 </r>
       <r>    -7.9371     3.5060    29.9834 </r>
       <r>    -7.8735     3.9167    30.2326 </r>
       <r>    -7.8099     4.2626    30.5037 </r>
       <r>    -7.7463     5.3597    30.8446 </r>
       <r>    -7.6827     6.8429    31.2798 </r>
       <r>    -7.6191     6.9384    31.7211 </r>
       <r>    -7.5555     6.6251    32.1425 </r>
       <r>    -7.4918     7.5462    32.6225 </r>
       <r>    -7.4282     8.7276    33.1776 </r>
       <r>    -7.3646     8.3215    33.7069 </r>
       <r>    -7.3010     6.5489    34.1234 </r>
       <r>    -7.2374     5.2671    34.4584 </r>
       <r>    -7.1738     5.5906    34.8140 </r>
       <r>    -7.1102     7.1552    35.2691 </r>
       <r>    -7.0466     8.0597    35.7818 </r>
       <r>    -6.9830     7.6685    36.2695 </r>
       <r>    -6.9194     7.5912    36.7523 </r>
       <r>    -6.8558     8.9024    37.3186 </r>
       <r>    -6.7922    11.6201    38.0577 </r>
       <r>    -6.7286    13.2826    38.9025 </r>
       <r>    -6.6650    11.5055    39.6343 </r>
       <r>    -6.6014     8.3940    40.1682 </r>
       <r>    -6.5378     5.8064    40.5375 </r>
       <r>    -6.4742     4.3226    40.8124 </r>
       <r>    -6.4106     4.4636    41.0964 </r>
       <r>    -6.3470     5.3604    41.4373 </r>
       <r>    -6.2834     6.0429    41.8217 </r>
       <r>    -6.2198     5.9891    42.2026 </r>
       <r>    -6.1562     5.1585    42.5307 </r>
       <r>    -6.0926     4.3649    42.8083 </r>
       <r>    -6.0289     3.8765    43.0549 </r>
       <r>    -5.9653     3.6868    43.2894 </r>
       <r>    -5.9017     4.3177    43.5640 </r>
       <r>    -5.8381     5.5968    43.9200 </r>
       <r>    -5.7745     6.5994    44.3397 </r>
       <r>    -5.7109     6.5854    44.7586 </r>
       <r>    -5.6473     5.5332    45.1105 </r>
       <r>    -5.5837     4.4892    45.3961 </r>
       <r>    -5.5201     4.2208    45.6645 </r>
       <r>    -5.4565     4.1985    45.9316 </r>
       <r>    -5.3929     3.8812    46.1784 </r>
       <r>    -5.3293     3.4689    46.3991 </r>
       <r>    -5.2657     3.5048    46.6220 </r>
       <r>    -5.2021     4.1310    46.8847 </r>
       <r>    -5.1385     5.0541    47.2062 </r>
       <r>    -5.0749     5.9764    47.5863 </r>
       <r>    -5.0113     7.5800    48.0684 </r>
       <r>    -4.9477     9.5835    48.6780 </r>
       <r>    -4.8841    10.4335    49.3416 </r>
       <r>    -4.8205    10.5677    50.0138 </r>
       <r>    -4.7569    11.2223    50.7275 </r>
       <r>    -4.6933    11.8664    51.4823 </r>
       <r>    -4.6296    12.3451    52.2675 </r>
       <r>    -4.5660    12.7695    53.0797 </r>
       <r>    -4.5024    13.1802    53.9180 </r>
       <r>    -4.4388    13.4712    54.7748 </r>
       <r>    -4.3752    13.6162    55.6409 </r>
       <r>    -4.3116    13.6760    56.5108 </r>
       <r>    -4.2480    13.5917    57.3752 </r>
       <r>    -4.1844    13.7198    58.2479 </r>
       <r>    -4.1208    14.0762    59.1432 </r>
       <r>    -4.0572    13.5512    60.0051 </r>
       <r>    -3.9936    11.7195    60.7505 </r>
       <r>    -3.9300     9.7973    61.3737 </r>
       <r>    -3.8664     9.7619    61.9946 </r>
       <r>    -3.8028    12.3529    62.7803 </r>
       <r>    -3.7392    14.8432    63.7244 </r>
       <r>    -3.6756    14.8469    64.6687 </r>
       <r>    -3.6120    13.7278    65.5418 </r>
       <r>    -3.5484    12.6547    66.3467 </r>
       <r>    -3.4848    11.8225    67.0987 </r>
       <r>    -3.4212    12.3388    67.8835 </r>
       <r>    -3.3576    14.3446    68.7959 </r>
       <r>    -3.2940    16.4010    69.8391 </r>
       <r>    -3.2304    17.0780    70.9253 </r>
       <r>    -3.1667    16.1583    71.9530 </r>
       <r>    -3.1031    15.1349    72.9157 </r>
       <r>    -3.0395    14.9041    73.8637 </r>
       <r>    -2.9759    14.8314    74.8070 </r>
       <r>    -2.9123    14.7390    75.7445 </r>
       <r>    -2.8487    14.9827    76.6974 </r>
       <r>    -2.7851    16.0189    77.7163 </r>
       <r>    -2.7215    16.5303    78.7677 </r>
       <r>    -2.6579    15.7453    79.7692 </r>
       <r>    -2.5943    15.1286    80.7314 </r>
       <r>    -2.5307    15.2394    81.7007 </r>
       <r>    -2.4671    15.9018    82.7121 </r>
       <r>    -2.4035    16.0845    83.7352 </r>
       <r>    -2.3399    15.1121    84.6964 </r>
       <r>    -2.2763    14.7277    85.6331 </r>
       <r>    -2.2127    15.5276    86.6208 </r>
       <r>    -2.1491    15.8575    87.6294 </r>
       <r>    -2.0855    15.9603    88.6445 </r>
       <r>    -2.0219    17.2450    89.7414 </r>
       <r>    -1.9583    18.4454    90.9146 </r>
       <r>    -1.8947    17.4858    92.0267 </r>
       <r>    -1.8311    15.5816    93.0178 </r>
       <r>    -1.7674    13.5984    93.8827 </r>
       <r>    -1.7038    11.4060    94.6082 </r>
       <r>    -1.6402    10.7807    95.2939 </r>
       <r>    -1.5766    12.8628    96.1120 </r>
       <r>    -1.5130    14.6390    97.0431 </r>
       <r>    -1.4494    13.4776    97.9004 </r>
       <r>    -1.3858    11.4738    98.6301 </r>
       <r>    -1.3222    10.3411    99.2879 </r>
       <r>    -1.2586     9.5802    99.8972 </r>
       <r>    -1.1950     9.6030   100.5080 </r>
       <r>    -1.1314    10.6046   101.1825 </r>
       <r>    -1.0678    11.4790   101.9126 </r>
       <r>    -1.0042    11.2790   102.6300 </r>
       <r>    -0.9406     9.0652   103.2066 </r>
       <r>    -0.8770     6.4841   103.6190 </r>
       <r>    -0.8134     5.6735   103.9799 </r>
       <r>    -0.7498     5.6200   104.3374 </r>
       <r>    -0.6862     5.6334   104.6957 </r>
       <r>    -0.6226     6.0221   105.0787 </r>
       <r>    -0.5590     6.8355   105.5135 </r>
       <r>    -0.4954     7.0294   105.9606 </r>
       <r>    -0.4318     5.5380   106.3128 </r>
       <r>    -0.3682     4.5553   106.6025 </r>
       <r>    -0.3045     5.5317   106.9544 </r>
       <r>    -0.2409     6.9028   107.3934 </r>
       <r>    -0.1773     7.3270   107.8595 </r>
       <r>    -0.1137     6.7910   108.2914 </r>
       <r>    -0.0501     5.7542   108.6574 </r>
       <r>     0.0135     4.5345   108.9458 </r>
       <r>     0.0771     4.1907   109.2124 </r>
       <r>     0.1407     4.8446   109.5205 </r>
       <r>     0.2043     4.8049   109.8261 </r>
       <r>     0.2679     4.0723   110.0851 </r>
       <r>     0.3315     3.9597   110.3370 </r>
       <r>     0.3951     3.8179   110.5798 </r>
       <r>     0.4587     2.7077   110.7520 </r>
       <r>     0.5223     1.7844   110.8655 </r>
       <r>     0.5859     1.7864   110.9792 </r>
       <r>     0.6495     2.5068   111.1386 </r>
       <r>     0.7131     3.3175   111.3496 </r>
       <r>     0.7767     3.5292   111.5741 </r>
       <r>     0.8403     3.3577   111.7876 </r>
       <r>     0.9039     3.4802   112.0090 </r>
       <r>     0.9675     4.3070   112.2829 </r>
       <r>     1.0311     5.5405   112.6353 </r>
       <r>     1.0948     6.5956   113.0549 </r>
       <r>     1.1584     7.3361   113.5215 </r>
       <r>     1.2220     8.1342   114.0388 </r>
       <r>     1.2856     8.9528   114.6083 </r>
       <r>     1.3492     8.8228   115.1694 </r>
       <r>     1.4128     8.2938   115.6970 </r>
       <r>     1.4764     9.3392   116.2910 </r>
       <r>     1.5400    10.9643   116.9884 </r>
       <r>     1.6036    11.5385   117.7223 </r>
       <r>     1.6672    11.9296   118.4810 </r>
       <r>     1.7308    12.0937   119.2502 </r>
       <r>     1.7944    11.3988   119.9753 </r>
       <r>     1.8580    10.4060   120.6371 </r>
       <r>     1.9216    10.0492   121.2763 </r>
       <r>     1.9852    11.0888   121.9816 </r>
       <r>     2.0488    12.6327   122.7851 </r>
       <r>     2.1124    14.0337   123.6777 </r>
       <r>     2.1760    14.8688   124.6234 </r>
       <r>     2.2396    14.2663   125.5308 </r>
       <r>     2.3032    13.1645   126.3681 </r>
       <r>     2.3668    12.3613   127.1544 </r>
       <r>     2.4304    12.0363   127.9199 </r>
       <r>     2.4941    12.7142   128.7286 </r>
       <r>     2.5577    14.1539   129.6289 </r>
       <r>     2.6213    14.9579   130.5803 </r>
       <r>     2.6849    14.0013   131.4708 </r>
       <r>     2.7485    12.0826   132.2393 </r>
       <r>     2.8121    11.0949   132.9450 </r>
       <r>     2.8757    10.5359   133.6151 </r>
       <r>     2.9393     9.2928   134.2062 </r>
       <r>     3.0029     7.8749   134.7071 </r>
       <r>     3.0665     6.4528   135.1175 </r>
       <r>     3.1301     5.3466   135.4576 </r>
       <r>     3.1937     4.4426   135.7401 </r>
       <r>     3.2573     2.8034   135.9184 </r>
       <r>     3.3209     1.0509   135.9853 </r>
       <r>     3.3845     0.2093   135.9986 </r>
       <r>     3.4481     0.0210   135.9999 </r>
       <r>     3.5117     0.0010   136.0000 </r>
       <r>     3.5753     0.0000   136.0000 </r>
       <r>     3.6389     0.0000   136.0000 </r>
       <r>     3.7025     0.0000   136.0000 </r>
       <r>     3.7661     0.0000   136.0000 </r>
       <r>     3.8297     0.0000   136.0000 </r>
       <r>     3.8933     0.0000   136.0000 </r>
       <r>     3.9570     0.0000   136.0000 </r>
       <r>     4.0206     0.0000   136.0000 </r>
       <r>     4.0842     0.0000   136.0000 </r>
       <r>     4.1478     0.0000   136.0000 </r>
       <r>     4.2114     0.0000   136.0000 </r>
      </set>
     </set>
    </array>
   </total>
  </dos>
 </calculation>
 <structure name="finalpos" >
  <crystal>
   <varray name="basis" >
    <v>       3.54040000       0.00000000       0.00000000 </v>
    <v>      -1.77020000      10.29434800       0.00000000 </v>
    <v>       0.00000000       0.00000000      27.50142900 </v>
   </varray>
   <i name="volume">   1002.32009712 </i>
   <varray name="rec_basis" >
    <v>       0.28245396       0.04857034       0.00000000 </v>
    <v>       0.00000000       0.09714068       0.00000000 </v>
    <v>       0.00000000       0.00000000       0.03636175 </v>
   </varray>
  </crystal>
  <varray name="positions" >
   <v>       0.11402300       0.22804500       0.23316207 </v>
   <v>       0.51402300       0.32804500       0.51499159 </v>
   <v>       0.45808900       0.91617900       0.20939482 </v>
   <v>       0.85808900       0.01617900       0.49122434 </v>
   <v>       0.31085400       0.62170900       0.08414979 </v>
   <v>       0.31085400       0.62170900       0.36597930 </v>
   <v>       0.99923000       0.99846000       0.08631254 </v>
   <v>       0.99923000       0.99846000       0.36814206 </v>
   <v>       0.65492700       0.30985400       0.06041748 </v>
   <v>       0.65492700       0.30985400       0.34224700 </v>
   <v>       0.76973800       0.53947500       0.20725292 </v>
   <v>       0.16973800       0.63947500       0.48908244 </v>
   <v>       0.93971600       0.87943300       0.15783749 </v>
   <v>       0.33971600       0.97943300       0.43966701 </v>
   <v>       0.20515200       0.41030300       0.18578822 </v>
   <v>       0.60515200       0.51030300       0.46761774 </v>
   <v>       0.20184900       0.40369900       0.09969156 </v>
   <v>       0.20184900       0.40369900       0.38152107 </v>
   <v>       0.56380500       0.12761000       0.10779021 </v>
   <v>       0.56380500       0.12761000       0.38961973 </v>
   <v>       0.56710600       0.13421200       0.19387616 </v>
   <v>       0.96710600       0.23421200       0.47570568 </v>
   <v>       0.82923400       0.65846800       0.13571444 </v>
   <v>       0.22923400       0.75846800       0.41754396 </v>
  </varray>
 </structure>
</modeling>
