<?xml version="1.0" encoding="ISO-8859-1"?>
<modeling>
 <generator>
  <i name="program" type="string">vasp </i>
  <i name="version" type="string">5.4.1  </i>
  <i name="subversion" type="string">24Jun15 (build May 10 2016 14:18:23) complex                          parallel </i>
  <i name="platform" type="string">IFC91_ompi </i>
  <i name="date" type="string">2016 12 09 </i>
  <i name="time" type="string">14:22:25 </i>
 </generator>
 <incar>
  <i type="string" name="PREC">accurate</i>
  <i type="string" name="ALGO"> Fast</i>
  <i type="int" name="ISPIN">     2</i>
  <i type="int" name="IBRION">     2</i>
  <i name="EDIFF">      0.00010000</i>
  <i type="int" name="NSW">     0</i>
  <i type="int" name="ISIF">     3</i>
  <i name="ENCUT">    500.00000000</i>
  <v name="MAGMOM">      6.00000000      0.50000000      0.50000000      6.00000000      0.50000000      0.50000000</v>
  <i type="string" name="LREAL"> Auto</i>
  <i type="int" name="ISMEAR">     1</i>
  <i name="SIGMA">      0.10000000</i>
  <i type="logical" name="LWAVE"> F  </i>
  <i type="logical" name="LCHARG"> F  </i>
  <i type="logical" name="LVTOT"> T  </i>
  <i type="logical" name="LVHAR"> T  </i>
  <i type="logical" name="LAECHG"> F  </i>
  <v type="int" name="KPOINT_BSE">    -1     0     0     0</v>
  <i type="string" name="GGA"> Bo</i>
  <i name="PARAM1">      0.18333333</i>
  <i name="PARAM2">      0.22000000</i>
  <i type="logical" name="LUSE_VDW"> T  </i>
  <i name="AGGAC">      0.00000000</i>
 </incar>
 <kpoints>
  <generation param="Gamma">
   <v type="int" name="divisions">      13       13        1 </v>
   <v name="usershift">      0.00000000       0.00000000       0.00000000 </v>
   <v name="genvec1">      0.07692308       0.00000000       0.00000000 </v>
   <v name="genvec2">      0.00000000       0.07692308       0.00000000 </v>
   <v name="genvec3">      0.00000000       0.00000000       1.00000000 </v>
   <v name="shift">      0.00000000       0.00000000       0.00000000 </v>
  </generation>
  <varray name="kpointlist" >
   <v>       0.00000000       0.00000000       0.00000000 </v>
   <v>       0.07692308      -0.00000000       0.00000000 </v>
   <v>       0.15384615       0.00000000       0.00000000 </v>
   <v>       0.23076923       0.00000000       0.00000000 </v>
   <v>       0.30769231      -0.00000000       0.00000000 </v>
   <v>       0.38461538       0.00000000       0.00000000 </v>
   <v>       0.46153846       0.00000000       0.00000000 </v>
   <v>       0.00000000       0.07692308       0.00000000 </v>
   <v>       0.07692308       0.07692308       0.00000000 </v>
   <v>       0.15384615       0.07692308       0.00000000 </v>
   <v>       0.23076923       0.07692308       0.00000000 </v>
   <v>       0.30769231       0.07692308       0.00000000 </v>
   <v>       0.38461538       0.07692308       0.00000000 </v>
   <v>       0.46153846       0.07692308       0.00000000 </v>
   <v>      -0.46153846       0.07692308       0.00000000 </v>
   <v>      -0.38461538       0.07692308       0.00000000 </v>
   <v>      -0.30769231       0.07692308       0.00000000 </v>
   <v>      -0.23076923       0.07692308       0.00000000 </v>
   <v>      -0.15384615       0.07692308       0.00000000 </v>
   <v>      -0.07692308       0.07692308       0.00000000 </v>
   <v>       0.00000000       0.15384615       0.00000000 </v>
   <v>       0.07692308       0.15384615       0.00000000 </v>
   <v>       0.15384615       0.15384615       0.00000000 </v>
   <v>       0.23076923       0.15384615       0.00000000 </v>
   <v>       0.30769231       0.15384615       0.00000000 </v>
   <v>       0.38461538       0.15384615       0.00000000 </v>
   <v>       0.46153846       0.15384615       0.00000000 </v>
   <v>      -0.46153846       0.15384615       0.00000000 </v>
   <v>      -0.38461538       0.15384615       0.00000000 </v>
   <v>      -0.30769231       0.15384615       0.00000000 </v>
   <v>      -0.23076923       0.15384615       0.00000000 </v>
   <v>      -0.15384615       0.15384615       0.00000000 </v>
   <v>      -0.07692308       0.15384615       0.00000000 </v>
   <v>       0.00000000       0.23076923       0.00000000 </v>
   <v>       0.07692308       0.23076923       0.00000000 </v>
   <v>       0.15384615       0.23076923       0.00000000 </v>
   <v>       0.23076923       0.23076923       0.00000000 </v>
   <v>       0.30769231       0.23076923       0.00000000 </v>
   <v>       0.38461538       0.23076923       0.00000000 </v>
   <v>       0.46153846       0.23076923       0.00000000 </v>
   <v>      -0.46153846       0.23076923       0.00000000 </v>
   <v>      -0.38461538       0.23076923       0.00000000 </v>
   <v>      -0.30769231       0.23076923       0.00000000 </v>
   <v>      -0.23076923       0.23076923       0.00000000 </v>
   <v>      -0.15384615       0.23076923       0.00000000 </v>
   <v>      -0.07692308       0.23076923       0.00000000 </v>
   <v>       0.00000000       0.30769231       0.00000000 </v>
   <v>       0.07692308       0.30769231       0.00000000 </v>
   <v>       0.15384615       0.30769231       0.00000000 </v>
   <v>       0.23076923       0.30769231       0.00000000 </v>
   <v>       0.30769231       0.30769231       0.00000000 </v>
   <v>       0.38461538       0.30769231       0.00000000 </v>
   <v>       0.46153846       0.30769231       0.00000000 </v>
   <v>      -0.46153846       0.30769231       0.00000000 </v>
   <v>      -0.38461538       0.30769231       0.00000000 </v>
   <v>      -0.30769231       0.30769231       0.00000000 </v>
   <v>      -0.23076923       0.30769231       0.00000000 </v>
   <v>      -0.15384615       0.30769231       0.00000000 </v>
   <v>      -0.07692308       0.30769231       0.00000000 </v>
   <v>       0.00000000       0.38461538       0.00000000 </v>
   <v>       0.07692308       0.38461538       0.00000000 </v>
   <v>       0.15384615       0.38461538       0.00000000 </v>
   <v>       0.23076923       0.38461538       0.00000000 </v>
   <v>       0.30769231       0.38461538       0.00000000 </v>
   <v>       0.38461538       0.38461538       0.00000000 </v>
   <v>       0.46153846       0.38461538       0.00000000 </v>
   <v>      -0.46153846       0.38461538       0.00000000 </v>
   <v>      -0.38461538       0.38461538       0.00000000 </v>
   <v>      -0.30769231       0.38461538       0.00000000 </v>
   <v>      -0.23076923       0.38461538       0.00000000 </v>
   <v>      -0.15384615       0.38461538       0.00000000 </v>
   <v>      -0.07692308       0.38461538       0.00000000 </v>
   <v>       0.00000000       0.46153846       0.00000000 </v>
   <v>       0.07692308       0.46153846       0.00000000 </v>
   <v>       0.15384615       0.46153846       0.00000000 </v>
   <v>       0.23076923       0.46153846       0.00000000 </v>
   <v>       0.30769231       0.46153846       0.00000000 </v>
   <v>       0.38461538       0.46153846       0.00000000 </v>
   <v>       0.46153846       0.46153846       0.00000000 </v>
   <v>      -0.46153846       0.46153846       0.00000000 </v>
   <v>      -0.38461538       0.46153846       0.00000000 </v>
   <v>      -0.30769231       0.46153846       0.00000000 </v>
   <v>      -0.23076923       0.46153846       0.00000000 </v>
   <v>      -0.15384615       0.46153846       0.00000000 </v>
   <v>      -0.07692308       0.46153846       0.00000000 </v>
  </varray>
  <varray name="weights" >
   <v>       0.00591716 </v>
   <v>       0.01183432 </v>
   <v>       0.01183432 </v>
   <v>       0.01183432 </v>
   <v>       0.01183432 </v>
   <v>       0.01183432 </v>
   <v>       0.01183432 </v>
   <v>       0.01183432 </v>
   <v>       0.01183432 </v>
   <v>       0.01183432 </v>
   <v>       0.01183432 </v>
   <v>       0.01183432 </v>
   <v>       0.01183432 </v>
   <v>       0.01183432 </v>
   <v>       0.01183432 </v>
   <v>       0.01183432 </v>
   <v>       0.01183432 </v>
   <v>       0.01183432 </v>
   <v>       0.01183432 </v>
   <v>       0.01183432 </v>
   <v>       0.01183432 </v>
   <v>       0.01183432 </v>
   <v>       0.01183432 </v>
   <v>       0.01183432 </v>
   <v>       0.01183432 </v>
   <v>       0.01183432 </v>
   <v>       0.01183432 </v>
   <v>       0.01183432 </v>
   <v>       0.01183432 </v>
   <v>       0.01183432 </v>
   <v>       0.01183432 </v>
   <v>       0.01183432 </v>
   <v>       0.01183432 </v>
   <v>       0.01183432 </v>
   <v>       0.01183432 </v>
   <v>       0.01183432 </v>
   <v>       0.01183432 </v>
   <v>       0.01183432 </v>
   <v>       0.01183432 </v>
   <v>       0.01183432 </v>
   <v>       0.01183432 </v>
   <v>       0.01183432 </v>
   <v>       0.01183432 </v>
   <v>       0.01183432 </v>
   <v>       0.01183432 </v>
   <v>       0.01183432 </v>
   <v>       0.01183432 </v>
   <v>       0.01183432 </v>
   <v>       0.01183432 </v>
   <v>       0.01183432 </v>
   <v>       0.01183432 </v>
   <v>       0.01183432 </v>
   <v>       0.01183432 </v>
   <v>       0.01183432 </v>
   <v>       0.01183432 </v>
   <v>       0.01183432 </v>
   <v>       0.01183432 </v>
   <v>       0.01183432 </v>
   <v>       0.01183432 </v>
   <v>       0.01183432 </v>
   <v>       0.01183432 </v>
   <v>       0.01183432 </v>
   <v>       0.01183432 </v>
   <v>       0.01183432 </v>
   <v>       0.01183432 </v>
   <v>       0.01183432 </v>
   <v>       0.01183432 </v>
   <v>       0.01183432 </v>
   <v>       0.01183432 </v>
   <v>       0.01183432 </v>
   <v>       0.01183432 </v>
   <v>       0.01183432 </v>
   <v>       0.01183432 </v>
   <v>       0.01183432 </v>
   <v>       0.01183432 </v>
   <v>       0.01183432 </v>
   <v>       0.01183432 </v>
   <v>       0.01183432 </v>
   <v>       0.01183432 </v>
   <v>       0.01183432 </v>
   <v>       0.01183432 </v>
   <v>       0.01183432 </v>
   <v>       0.01183432 </v>
   <v>       0.01183432 </v>
   <v>       0.01183432 </v>
  </varray>
 </kpoints>
 <parameters>
  <separator name="general" >
   <i type="string" name="SYSTEM">unknown system</i>
   <i type="logical" name="LCOMPAT"> F  </i>
  </separator>
  <separator name="electronic" >
   <i type="string" name="PREC">accura</i>
   <i name="ENMAX">    500.00000000</i>
   <i name="ENAUG">    392.42700000</i>
   <i name="EDIFF">      0.00010000</i>
   <i type="int" name="IALGO">    68</i>
   <i type="int" name="IWAVPR">    10</i>
   <i type="int" name="NBANDS">    36</i>
   <i name="NELECT">     48.00000000</i>
   <i type="int" name="TURBO">     0</i>
   <i type="int" name="IRESTART">     0</i>
   <i type="int" name="NREBOOT">     0</i>
   <i type="int" name="NMIN">     0</i>
   <i name="EREF">      0.00000000</i>
   <separator name="electronic smearing" >
    <i type="int" name="ISMEAR">     1</i>
    <i name="SIGMA">      0.10000000</i>
    <i name="KSPACING">      0.50000000</i>
    <i type="logical" name="KGAMMA"> T  </i>
   </separator>
   <separator name="electronic projectors" >
    <i type="logical" name="LREAL"> T  </i>
    <v name="ROPT">     -0.00025000     -0.00025000     -0.00025000     -0.00025000</v>
    <i type="int" name="LMAXPAW">  -100</i>
    <i type="int" name="LMAXMIX">     2</i>
    <i type="logical" name="NLSPLINE"> F  </i>
   </separator>
   <separator name="electronic startup" >
    <i type="int" name="ISTART">     0</i>
    <i type="int" name="ICHARG">     2</i>
    <i type="int" name="INIWAV">     1</i>
   </separator>
   <separator name="electronic spin" >
    <i type="int" name="ISPIN">     2</i>
    <i type="logical" name="LNONCOLLINEAR"> F  </i>
    <v name="MAGMOM">      6.00000000      0.50000000      0.50000000      6.00000000      0.50000000      0.50000000</v>
    <i name="NUPDOWN">     -1.00000000</i>
    <i type="logical" name="LSORBIT"> F  </i>
    <v name="SAXIS">      0.00000000      0.00000000      1.00000000</v>
    <i type="logical" name="LSPIRAL"> F  </i>
    <v name="QSPIRAL">      0.00000000      0.00000000      0.00000000</v>
    <i type="logical" name="LZEROZ"> F  </i>
   </separator>
   <separator name="electronic exchange-correlation" >
    <i type="logical" name="LASPH"> F  </i>
    <i type="logical" name="LMETAGGA"> F  </i>
   </separator>
   <separator name="electronic convergence" >
    <i type="int" name="NELM">    60</i>
    <i type="int" name="NELMDL">     0</i>
    <i type="int" name="NELMIN">     2</i>
    <i name="ENINI">    500.00000000</i>
    <separator name="electronic convergence detail" >
     <i type="logical" name="LDIAG"> T  </i>
     <i type="logical" name="LSUBROT"> F  </i>
     <i name="WEIMIN">      0.00000000</i>
     <i name="EBREAK">      0.00000069</i>
     <i name="DEPER">      0.30000000</i>
     <i type="int" name="NRMM">     4</i>
     <i name="TIME">      0.40000000</i>
    </separator>
   </separator>
   <separator name="electronic mixer" >
    <i name="AMIX">      0.40000000</i>
    <i name="BMIX">      1.00000000</i>
    <i name="AMIN">      0.10000000</i>
    <i name="AMIX_MAG">      1.60000000</i>
    <i name="BMIX_MAG">      1.00000000</i>
    <separator name="electronic mixer details" >
     <i type="int" name="IMIX">     4</i>
     <i type="logical" name="MIXFIRST"> F  </i>
     <i type="int" name="MAXMIX">   -45</i>
     <i name="WC">    100.00000000</i>
     <i type="int" name="INIMIX">     1</i>
     <i type="int" name="MIXPRE">     1</i>
     <i type="int" name="MREMOVE">     5</i>
    </separator>
   </separator>
   <separator name="electronic dipolcorrection" >
    <i type="logical" name="LDIPOL"> F  </i>
    <i type="logical" name="LMONO"> F  </i>
    <i type="int" name="IDIPOL">     0</i>
    <i name="EPSILON">      1.00000000</i>
    <v name="DIPOL">   -100.00000000   -100.00000000   -100.00000000</v>
    <i name="EFIELD">      0.00000000</i>
   </separator>
  </separator>
  <separator name="grids" >
   <i type="int" name="NGX">    24</i>
   <i type="int" name="NGY">    24</i>
   <i type="int" name="NGZ">   180</i>
   <i type="int" name="NGXF">    48</i>
   <i type="int" name="NGYF">    48</i>
   <i type="int" name="NGZF">   360</i>
   <i type="logical" name="ADDGRID"> F  </i>
  </separator>
  <separator name="ionic" >
   <i type="int" name="NSW">     0</i>
   <i type="int" name="IBRION">    -1</i>
   <i type="int" name="ISIF">     3</i>
   <i name="PSTRESS">      0.00000000</i>
   <i name="EDIFFG">      0.00100000</i>
   <i type="int" name="NFREE">     1</i>
   <i name="POTIM">      0.50000000</i>
   <i name="SMASS">     -3.00000000</i>
   <i name="SCALEE">      1.00000000</i>
  </separator>
  <separator name="ionic md" >
   <i name="TEBEG">      0.00010000</i>
   <i name="TEEND">      0.00010000</i>
   <i type="int" name="NBLOCK">     1</i>
   <i type="int" name="KBLOCK">     1</i>
   <i type="int" name="NPACO">   256</i>
   <i name="APACO">     16.00000000</i>
  </separator>
  <separator name="symmetry" >
   <i type="int" name="ISYM">     2</i>
   <i name="SYMPREC">      0.00001000</i>
  </separator>
  <separator name="dos" >
   <i type="logical" name="LORBIT"> F  </i>
   <v name="RWIGS">     -1.00000000     -1.00000000     -1.00000000     -1.00000000</v>
   <i type="int" name="NEDOS">   301</i>
   <i name="EMIN">     10.00000000</i>
   <i name="EMAX">    -10.00000000</i>
   <i name="EFERMI">      0.00000000</i>
  </separator>
  <separator name="writing" >
   <i type="int" name="NWRITE">     2</i>
   <i type="logical" name="LWAVE"> F  </i>
   <i type="logical" name="LCHARG"> F  </i>
   <i type="logical" name="LPARD"> F  </i>
   <i type="logical" name="LVTOT"> F  </i>
   <i type="logical" name="LVHAR"> T  </i>
   <i type="logical" name="LELF"> F  </i>
   <i type="logical" name="LOPTICS"> F  </i>
   <v name="STM">      0.00000000      0.00000000      0.00000000      0.00000000      0.00000000      0.00000000      0.00000000</v>
  </separator>
  <separator name="performance" >
   <i type="int" name="NPAR">     4</i>
   <i type="int" name="NSIM">     4</i>
   <i type="int" name="NBLK">    -1</i>
   <i type="logical" name="LPLANE"> T  </i>
   <i type="logical" name="LSCALAPACK"> T  </i>
   <i type="logical" name="LSCAAWARE"> F  </i>
   <i type="logical" name="LSCALU"> F  </i>
   <i type="logical" name="LASYNC"> F  </i>
   <i type="logical" name="LORBITALREAL"> F  </i>
  </separator>
  <separator name="miscellaneous" >
   <i type="int" name="IDIOT">     3</i>
   <i type="logical" name="LMUSIC"> F  </i>
   <v name="POMASS">     95.94000000     32.06600000     95.94000000     32.06600000</v>
   <v name="DARWINR">      0.00000000      0.00000000      0.00000000      0.00000000</v>
   <v name="DARWINV">      1.00000000      1.00000000      1.00000000      1.00000000</v>
   <i type="logical" name="LCORR"> T  </i>
  </separator>
  <i type="logical" name="GGA_COMPAT"> T  </i>
  <i type="logical" name="LBERRY"> F  </i>
  <i type="int" name="ICORELEVEL">     0</i>
  <i type="logical" name="LDAU"> F  </i>
  <i type="int" name="I_CONSTRAINED_M">     0</i>
  <separator name="electronic exchange-correlation" >
   <i type="string" name="GGA">BO</i>
   <i type="int" name="VOSKOWN">     0</i>
   <i type="logical" name="LHFCALC"> F  </i>
   <i type="string" name="PRECFOCK"></i>
   <i type="logical" name="LSYMGRAD"> F  </i>
   <i type="logical" name="LHFONE"> F  </i>
   <i type="logical" name="LRHFCALC"> F  </i>
   <i type="logical" name="LTHOMAS"> F  </i>
   <i type="logical" name="LMODELHF"> F  </i>
   <i name="ENCUT4O">     -1.00000000</i>
   <i type="int" name="EXXOEP">     0</i>
   <i type="int" name="FOURORBIT">     0</i>
   <i name="AEXX">      0.00000000</i>
   <i name="HFALPHA">      0.00000000</i>
   <i name="MCALPHA">      0.00000000</i>
   <i name="ALDAX">      1.00000000</i>
   <i name="AGGAX">      1.00000000</i>
   <i name="ALDAC">      1.00000000</i>
   <i name="AGGAC">      0.00000000</i>
   <i type="int" name="NKREDX">     1</i>
   <i type="int" name="NKREDY">     1</i>
   <i type="int" name="NKREDZ">     1</i>
   <i type="logical" name="SHIFTRED"> F  </i>
   <i type="logical" name="ODDONLY"> F  </i>
   <i type="logical" name="EVENONLY"> F  </i>
   <i type="int" name="LMAXFOCK">     0</i>
   <i type="int" name="NMAXFOCKAE">     0</i>
   <i type="logical" name="LFOCKAEDFT"> F  </i>
   <i name="HFSCREEN">      0.00000000</i>
   <i name="HFSCREENC">      0.00000000</i>
   <i type="int" name="NBANDSGWLOW">     0</i>
  </separator>
  <separator name="vdW DFT" >
   <i type="logical" name="LUSE_VDW"> T  </i>
   <i name="Zab_VDW">     -0.84910000</i>
   <i name="PARAM1">      0.18333333</i>
   <i name="PARAM2">      0.22000000</i>
   <i name="PARAM3">      0.00000000</i>
  </separator>
  <separator name="model GW" >
   <i type="int" name="MODEL_GW">     0</i>
   <i name="MODEL_EPS0">     20.39722663</i>
   <i name="MODEL_ALPHA">      1.00000000</i>
  </separator>
  <separator name="linear response parameters" >
   <i type="logical" name="LEPSILON"> F  </i>
   <i type="logical" name="LRPA"> F  </i>
   <i type="logical" name="LNABLA"> F  </i>
   <i type="logical" name="LVEL"> F  </i>
   <i type="int" name="KINTER">     0</i>
   <i name="CSHIFT">      0.10000000</i>
   <i name="OMEGAMAX">     -1.00000000</i>
   <i name="DEG_THRESHOLD">      0.00200000</i>
  </separator>
  <separator name="orbital magnetization" >
   <i type="logical" name="NUCIND"> F  </i>
   <v name="MAGPOS">      0.00000000      0.00000000      0.00000000</v>
   <i type="logical" name="LNICSALL"> T  </i>
   <i type="logical" name="ORBITALMAG"> F  </i>
   <i type="logical" name="LMAGBLOCH"> F  </i>
   <i type="logical" name="LCHIMAG"> F  </i>
   <i type="logical" name="LGAUGE"> T  </i>
   <i type="int" name="MAGATOM">     0</i>
   <v name="MAGDIPOL">      0.00000000      0.00000000      0.00000000</v>
   <v name="AVECCONST">      0.00000000      0.00000000      0.00000000</v>
  </separator>
  <separator name="response functions" >
   <i type="logical" name="LADDER"> F  </i>
   <i type="logical" name="LFXC"> F  </i>
   <i type="logical" name="LHARTREE"> T  </i>
   <i type="int" name="IBSE">     0</i>
   <v type="int" name="KPOINT">    -1     0     0     0</v>
   <i type="logical" name="LTCTE"> F  </i>
   <i type="logical" name="LTETE"> F  </i>
   <i type="logical" name="LTRIPLET"> F  </i>
   <i type="logical" name="LFXCEPS"> F  </i>
   <i type="logical" name="LFXHEG"> F  </i>
   <i type="int" name="NATURALO">     0</i>
   <i type="logical" name="L2ORDER"> F  </i>
   <i type="logical" name="LUSEW"> F  </i>
   <i name="ENCUTGW">     -2.00000000</i>
   <i name="ENCUTGWSOFT">     -2.00000000</i>
   <i name="ENCUTLF">     -1.00000000</i>
   <i type="int" name="LMAXMP2">    -1</i>
   <i name="SCISSOR">      0.00000000</i>
   <i type="int" name="NOMEGA">     0</i>
   <i type="int" name="NOMEGAR">     0</i>
   <i type="int" name="NBANDSGW">    -1</i>
   <i type="int" name="NBANDSO">    -1</i>
   <i type="int" name="NBANDSV">    -1</i>
   <i type="int" name="NELM">     1</i>
   <i type="int" name="NELMHF">     1</i>
   <i type="int" name="DIM">     3</i>
   <i type="int" name="ANTIRES">     0</i>
   <i name="OMEGAMAX">    -30.00000000</i>
   <i name="OMEGAMIN">    -30.00000000</i>
   <i name="OMEGATL">   -200.00000000</i>
   <i type="int" name="OMEGAGRID">     0</i>
   <i name="CSHIFT">     -0.10000000</i>
   <i type="logical" name="SELFENERGY"> F  </i>
   <i type="logical" name="LSPECTRAL"> F  </i>
   <i type="logical" name="LSPECTRALGW"> F  </i>
   <i type="logical" name="LSINGLES"> F  </i>
   <i type="logical" name="LFERMIGW"> F  </i>
   <i type="logical" name="ODDONLYGW"> F  </i>
   <i type="logical" name="EVENONLYGW"> F  </i>
   <i type="int" name="NKREDLFX">     1</i>
   <i type="int" name="NKREDLFY">     1</i>
   <i type="int" name="NKREDLFZ">     1</i>
   <i type="int" name="MAXMEM">  1800</i>
   <i type="int" name="TELESCOPE">     0</i>
   <i type="int" name="TAUPAR">     1</i>
   <i type="int" name="OMEGAPAR">    -1</i>
   <i name="LAMBDA">      1.00000000</i>
  </separator>
  <separator name="External order field" >
   <i name="OFIELD_KAPPA">      0.00000000</i>
   <v name="OFIELD_K">      0.00000000      0.00000000      0.00000000</v>
   <i name="OFIELD_Q6_NEAR">      0.00000000</i>
   <i name="OFIELD_Q6_FAR">      0.00000000</i>
   <i name="OFIELD_A">      0.00000000</i>
  </separator>
 </parameters>
 <atominfo>
  <atoms>       6 </atoms>
  <types>       4 </types>
  <array name="atoms" >
   <dimension dim="1">ion</dimension>
   <field type="string">element</field>
   <field type="int">atomtype</field>
   <set>
    <rc><c>Mo</c><c>   1</c></rc>
    <rc><c>S </c><c>   2</c></rc>
    <rc><c>S </c><c>   2</c></rc>
    <rc><c>Mo</c><c>   3</c></rc>
    <rc><c>S </c><c>   4</c></rc>
    <rc><c>S </c><c>   4</c></rc>
   </set>
  </array>
  <array name="atomtypes" >
   <dimension dim="1">type</dimension>
   <field type="int">atomspertype</field>
   <field type="string">element</field>
   <field>mass</field>
   <field>valence</field>
   <field type="string">pseudopotential</field>
   <set>
    <rc><c>   1</c><c>Mo</c><c>     95.94000000</c><c>     12.00000000</c><c> PAW_PBE Mo_pv 08Apr2002                </c></rc>
    <rc><c>   2</c><c>S </c><c>     32.06600000</c><c>      6.00000000</c><c>  PAW_PBE S 17Jan2003                   </c></rc>
    <rc><c>   1</c><c>Mo</c><c>     95.94000000</c><c>     12.00000000</c><c> PAW_PBE Mo_pv 08Apr2002                </c></rc>
    <rc><c>   2</c><c>S </c><c>     32.06600000</c><c>      6.00000000</c><c>  PAW_PBE S 17Jan2003                   </c></rc>
   </set>
  </array>
 </atominfo>
 <structure name="initialpos" >
  <crystal>
   <varray name="basis" >
    <v>       3.19031700       0.00000000       0.00000000 </v>
    <v>      -1.59515800       2.76289700       0.00000000 </v>
    <v>       0.00000000       0.00000000      23.14049200 </v>
   </varray>
   <i name="volume">    203.97226633 </i>
   <varray name="rec_basis" >
    <v>       0.31344848       0.18096941       0.00000000 </v>
    <v>       0.00000000       0.36193894       0.00000000 </v>
    <v>       0.00000000       0.00000000       0.04321429 </v>
   </varray>
  </crystal>
  <varray name="positions" >
   <v>       0.66666700       0.33333300       0.06785900 </v>
   <v>       0.33333300       0.66666700       0.00000000 </v>
   <v>       0.33333300       0.66666700       0.13571500 </v>
   <v>       0.80952414       0.47619014       0.35482300 </v>
   <v>       0.47619014       0.80952414       0.28696500 </v>
   <v>       0.47619014       0.80952414       0.42267900 </v>
  </varray>
 </structure>
 <calculation>
  <scstep>
   <time name="dav">  107.69  107.81</time>
   <time name="total">  127.21  127.36</time>
   <energy>
    <i name="alphaZ">    104.15310261 </i>
    <i name="ewald">   7699.34191986 </i>
    <i name="hartreedc"> -11109.37444472 </i>
    <i name="XCdc">    128.47089471 </i>
    <i name="pawpsdc">   2252.92270536 </i>
    <i name="pawaedc">  -2205.68654582 </i>
    <i name="eentropy">     -0.00069900 </i>
    <i name="bandstr">   -158.25882229 </i>
    <i name="atom">   3688.31848598 </i>
    <i name="e_fr_energy">    399.88659668 </i>
    <i name="e_wo_entrp">    399.88729569 </i>
    <i name="e_0_energy">    399.88682969 </i>
   </energy>
  </scstep>
  <scstep>
   <time name="dav">  117.21  117.34</time>
   <time name="total">  117.22  117.35</time>
   <energy>
    <i name="e_fr_energy">     -1.47055716 </i>
    <i name="e_wo_entrp">     -1.47071955 </i>
    <i name="e_0_energy">     -1.47061129 </i>
   </energy>
  </scstep>
  <scstep>
   <time name="dav">  119.88  120.02</time>
   <time name="total">  119.90  120.03</time>
   <energy>
    <i name="e_fr_energy">    -32.94136939 </i>
    <i name="e_wo_entrp">    -32.94217673 </i>
    <i name="e_0_energy">    -32.94163850 </i>
   </energy>
  </scstep>
  <scstep>
   <time name="dav">  114.38  114.48</time>
   <time name="total">  114.39  114.49</time>
   <energy>
    <i name="e_fr_energy">    -33.82649216 </i>
    <i name="e_wo_entrp">    -33.82719480 </i>
    <i name="e_0_energy">    -33.82672637 </i>
   </energy>
  </scstep>
  <scstep>
   <time name="dav">  119.45  119.56</time>
   <time name="total">  128.56  129.12</time>
   <energy>
    <i name="e_fr_energy">    -33.85380021 </i>
    <i name="e_wo_entrp">    -33.85449343 </i>
    <i name="e_0_energy">    -33.85403128 </i>
   </energy>
  </scstep>
  <scstep>
   <time name="diag">   22.63   22.64</time>
   <time name="diis">   76.37   76.44</time>
   <time name="orth">    0.77    0.77</time>
   <time name="total">  127.69  127.80</time>
   <energy>
    <i name="e_fr_energy">    -30.27221690 </i>
    <i name="e_wo_entrp">    -30.27242698 </i>
    <i name="e_0_energy">    -30.27228693 </i>
   </energy>
  </scstep>
  <scstep>
   <time name="diag">   22.61   22.63</time>
   <time name="diis">   78.53   78.60</time>
   <time name="orth">    0.77    0.77</time>
   <time name="total">  130.19  130.36</time>
   <energy>
    <i name="e_fr_energy">    -33.26920906 </i>
    <i name="e_wo_entrp">    -33.26939273 </i>
    <i name="e_0_energy">    -33.26927028 </i>
   </energy>
  </scstep>
  <scstep>
   <time name="diag">   22.57   22.59</time>
   <time name="diis">   74.79   74.85</time>
   <time name="orth">    0.77    0.77</time>
   <time name="total">  126.10  126.21</time>
   <energy>
    <i name="e_fr_energy">    -34.43021066 </i>
    <i name="e_wo_entrp">    -34.43037398 </i>
    <i name="e_0_energy">    -34.43026510 </i>
   </energy>
  </scstep>
  <scstep>
   <time name="diag">   22.80   22.82</time>
   <time name="diis">   75.88   75.94</time>
   <time name="orth">    0.77    0.77</time>
   <time name="total">  127.59  127.70</time>
   <energy>
    <i name="e_fr_energy">    -36.74819970 </i>
    <i name="e_wo_entrp">    -36.74836410 </i>
    <i name="e_0_energy">    -36.74825450 </i>
   </energy>
  </scstep>
  <scstep>
   <time name="diag">   22.41   22.44</time>
   <time name="diis">   72.52   72.59</time>
   <time name="orth">    0.75    0.75</time>
   <time name="total">  123.70  123.84</time>
   <energy>
    <i name="e_fr_energy">    -38.89298023 </i>
    <i name="e_wo_entrp">    -38.89314462 </i>
    <i name="e_0_energy">    -38.89303503 </i>
   </energy>
  </scstep>
  <scstep>
   <time name="diag">   22.28   22.31</time>
   <time name="diis">   76.87   76.96</time>
   <time name="orth">    0.75    0.75</time>
   <time name="total">  128.04  128.37</time>
   <energy>
    <i name="e_fr_energy">    -39.33338736 </i>
    <i name="e_wo_entrp">    -39.33371038 </i>
    <i name="e_0_energy">    -39.33349503 </i>
   </energy>
  </scstep>
  <scstep>
   <time name="diag">   22.37   22.40</time>
   <time name="diis">   73.98   74.06</time>
   <time name="orth">    0.75    0.75</time>
   <time name="total">  125.27  125.42</time>
   <energy>
    <i name="e_fr_energy">    -39.37243751 </i>
    <i name="e_wo_entrp">    -39.37276404 </i>
    <i name="e_0_energy">    -39.37254635 </i>
   </energy>
  </scstep>
  <scstep>
   <time name="diag">   22.33   22.36</time>
   <time name="diis">   82.05   82.14</time>
   <time name="orth">    0.75    0.75</time>
   <time name="total">  133.31  133.45</time>
   <energy>
    <i name="e_fr_energy">    -39.38705164 </i>
    <i name="e_wo_entrp">    -39.38737984 </i>
    <i name="e_0_energy">    -39.38716104 </i>
   </energy>
  </scstep>
  <scstep>
   <time name="diag">   22.40   22.42</time>
   <time name="diis">   82.70   82.79</time>
   <time name="orth">    0.75    0.75</time>
   <time name="total">  134.03  134.28</time>
   <energy>
    <i name="e_fr_energy">    -39.39158163 </i>
    <i name="e_wo_entrp">    -39.39191002 </i>
    <i name="e_0_energy">    -39.39169109 </i>
   </energy>
  </scstep>
  <scstep>
   <time name="diag">   22.33   22.36</time>
   <time name="diis">   68.32   68.39</time>
   <time name="orth">    0.75    0.75</time>
   <time name="total">  119.59  119.73</time>
   <energy>
    <i name="e_fr_energy">    -39.39136877 </i>
    <i name="e_wo_entrp">    -39.39169710 </i>
    <i name="e_0_energy">    -39.39147821 </i>
   </energy>
  </scstep>
  <scstep>
   <time name="diag">   22.49   22.52</time>
   <time name="diis">   57.84   57.91</time>
   <time name="orth">    0.75    0.75</time>
   <time name="total">   99.69   99.81</time>
   <energy>
    <i name="alphaZ">    104.15310261 </i>
    <i name="ewald">   7699.34191986 </i>
    <i name="hartreedc"> -11093.84500157 </i>
    <i name="XCdc">    122.68477036 </i>
    <i name="pawpsdc">   2399.00776157 </i>
    <i name="pawaedc">  -2361.18170378 </i>
    <i name="eentropy">      0.00032841 </i>
    <i name="bandstr">   -597.87105506 </i>
    <i name="atom">   3688.31848598 </i>
    <i name="e_fr_energy">    -39.39139163 </i>
    <i name="e_wo_entrp">    -39.39172004 </i>
    <i name="e_0_energy">    -39.39150110 </i>
   </energy>
  </scstep>
  <structure>
   <crystal>
    <varray name="basis" >
     <v>       3.19031700       0.00000000       0.00000000 </v>
     <v>      -1.59515800       2.76289700       0.00000000 </v>
     <v>       0.00000000       0.00000000      23.14049200 </v>
    </varray>
    <i name="volume">    203.97226633 </i>
    <varray name="rec_basis" >
     <v>       0.31344848       0.18096941       0.00000000 </v>
     <v>       0.00000000       0.36193894       0.00000000 </v>
     <v>       0.00000000       0.00000000       0.04321429 </v>
    </varray>
   </crystal>
   <varray name="positions" >
    <v>       0.66666700       0.33333300       0.06785900 </v>
    <v>       0.33333300       0.66666700       0.00000000 </v>
    <v>       0.33333300       0.66666700       0.13571500 </v>
    <v>       0.80952414       0.47619014       0.35482300 </v>
    <v>       0.47619014       0.80952414       0.28696500 </v>
    <v>       0.47619014       0.80952414       0.42267900 </v>
   </varray>
  </structure>
  <varray name="forces" >
   <v>      -0.00209092      -0.00452969      -0.01655596 </v>
   <v>      -0.00051795       0.00161368      -0.05651853 </v>
   <v>      -0.01534377      -0.02657826       0.03212877 </v>
   <v>       0.00199685       0.00318480       0.01719151 </v>
   <v>       0.01629735       0.02691965      -0.04135393 </v>
   <v>      -0.00034156      -0.00061018       0.06510813 </v>
  </varray>
  <varray name="stress" >
   <v>       3.26273135       0.09001894       0.50980020 </v>
   <v>       0.09001902       3.36541007       0.88360208 </v>
   <v>       0.50980026       0.88360208       2.87667027 </v>
  </varray>
  <energy>
   <i name="e_fr_energy">    -39.39139163 </i>
   <i name="e_wo_entrp">    -39.39150110 </i>
   <i name="e_0_energy">      0.00032841 </i>
  </energy>
  <time name="totalsc"> 2174.35 2177.42</time>
  <eigenvalues>
   <array>
    <dimension dim="1">band</dimension>
    <dimension dim="2">kpoint</dimension>
    <dimension dim="3">spin</dimension>
    <field>eigene</field>
    <field>occ</field>
    <set>
     <set comment="spin 1">
      <set comment="kpoint 1">
       <r>  -34.9738    1.0000 </r>
       <r>  -34.9720    1.0000 </r>
       <r>  -34.7819    1.0000 </r>
       <r>  -34.7818    1.0000 </r>
       <r>  -34.7800    1.0000 </r>
       <r>  -34.7798    1.0000 </r>
       <r>  -13.9610    1.0000 </r>
       <r>  -13.9011    1.0000 </r>
       <r>  -12.6969    1.0000 </r>
       <r>  -12.5970    1.0000 </r>
       <r>   -5.6832    1.0000 </r>
       <r>   -5.3753    1.0000 </r>
       <r>   -2.6042    1.0000 </r>
       <r>   -2.6035    1.0000 </r>
       <r>   -2.6001    1.0000 </r>
       <r>   -2.5993    1.0000 </r>
       <r>   -2.1871    1.0000 </r>
       <r>   -1.5135    1.0000 </r>
       <r>   -1.5128    1.0000 </r>
       <r>   -1.5056    1.0000 </r>
       <r>   -1.5043    1.0000 </r>
       <r>   -1.4421    1.0000 </r>
       <r>   -0.2176    1.0000 </r>
       <r>    0.2578    0.8046 </r>
       <r>    2.7026   -0.0000 </r>
       <r>    2.7086   -0.0000 </r>
       <r>    2.7329   -0.0000 </r>
       <r>    2.7369   -0.0000 </r>
       <r>    2.8843   -0.0000 </r>
       <r>    2.8897   -0.0000 </r>
       <r>    2.9205   -0.0000 </r>
       <r>    2.9277   -0.0000 </r>
       <r>    5.3653    0.0000 </r>
       <r>    5.6826    0.0000 </r>
       <r>    6.2520    0.0000 </r>
       <r>    6.5937    0.0000 </r>
      </set>
      <set comment="kpoint 2">
       <r>  -34.9697    1.0000 </r>
       <r>  -34.9679    1.0000 </r>
       <r>  -34.8031    1.0000 </r>
       <r>  -34.8011    1.0000 </r>
       <r>  -34.7866    1.0000 </r>
       <r>  -34.7848    1.0000 </r>
       <r>  -13.8744    1.0000 </r>
       <r>  -13.8145    1.0000 </r>
       <r>  -12.6603    1.0000 </r>
       <r>  -12.5625    1.0000 </r>
       <r>   -5.5844    1.0000 </r>
       <r>   -5.2763    1.0000 </r>
       <r>   -2.7926    1.0000 </r>
       <r>   -2.7852    1.0000 </r>
       <r>   -2.5137    1.0000 </r>
       <r>   -2.5087    1.0000 </r>
       <r>   -2.4623    1.0000 </r>
       <r>   -2.0496    1.0000 </r>
       <r>   -1.6510    1.0000 </r>
       <r>   -1.6418    1.0000 </r>
       <r>   -1.3625    1.0000 </r>
       <r>   -1.0378    1.0000 </r>
       <r>   -0.2388    1.0000 </r>
       <r>    0.1870    1.0326 </r>
       <r>    2.5741   -0.0000 </r>
       <r>    2.6279   -0.0000 </r>
       <r>    2.6496   -0.0000 </r>
       <r>    2.7511   -0.0000 </r>
       <r>    2.7824   -0.0000 </r>
       <r>    2.8275   -0.0000 </r>
       <r>    2.8589   -0.0000 </r>
       <r>    2.8889   -0.0000 </r>
       <r>    5.4976    0.0000 </r>
       <r>    5.8275    0.0000 </r>
       <r>    6.5805    0.0000 </r>
       <r>    6.9668    0.0000 </r>
      </set>
      <set comment="kpoint 3">
       <r>  -34.9583    1.0000 </r>
       <r>  -34.9565    1.0000 </r>
       <r>  -34.8616    1.0000 </r>
       <r>  -34.8596    1.0000 </r>
       <r>  -34.8000    1.0000 </r>
       <r>  -34.7982    1.0000 </r>
       <r>  -13.6262    1.0000 </r>
       <r>  -13.5664    1.0000 </r>
       <r>  -12.5554    1.0000 </r>
       <r>  -12.4638    1.0000 </r>
       <r>   -5.3250    1.0000 </r>
       <r>   -5.0220    1.0000 </r>
       <r>   -3.2502    1.0000 </r>
       <r>   -3.2276    1.0000 </r>
       <r>   -2.9539    1.0000 </r>
       <r>   -2.6669    1.0000 </r>
       <r>   -2.2592    1.0000 </r>
       <r>   -2.2521    1.0000 </r>
       <r>   -1.9867    1.0000 </r>
       <r>   -1.9763    1.0000 </r>
       <r>   -1.2961    1.0000 </r>
       <r>   -0.8990    1.0000 </r>
       <r>   -0.3704    1.0000 </r>
       <r>   -0.0808    1.0000 </r>
       <r>    2.1663   -0.0000 </r>
       <r>    2.3828   -0.0000 </r>
       <r>    2.5001   -0.0000 </r>
       <r>    2.5588   -0.0000 </r>
       <r>    2.6032   -0.0000 </r>
       <r>    2.6551   -0.0000 </r>
       <r>    3.1989    0.0000 </r>
       <r>    3.2376    0.0000 </r>
       <r>    5.8496    0.0000 </r>
       <r>    6.1786    0.0000 </r>
       <r>    7.0421    0.0000 </r>
       <r>    7.8348    0.0000 </r>
      </set>
      <set comment="kpoint 4">
       <r>  -34.9433    1.0000 </r>
       <r>  -34.9420    1.0000 </r>
       <r>  -34.9414    1.0000 </r>
       <r>  -34.9401    1.0000 </r>
       <r>  -34.8189    1.0000 </r>
       <r>  -34.8170    1.0000 </r>
       <r>  -13.2516    1.0000 </r>
       <r>  -13.1926    1.0000 </r>
       <r>  -12.3980    1.0000 </r>
       <r>  -12.3157    1.0000 </r>
       <r>   -5.0591    1.0000 </r>
       <r>   -4.8072    1.0000 </r>
       <r>   -3.7312    1.0000 </r>
       <r>   -3.6444    1.0000 </r>
       <r>   -3.4799    1.0000 </r>
       <r>   -3.2847    1.0000 </r>
       <r>   -2.3825    1.0000 </r>
       <r>   -2.3708    1.0000 </r>
       <r>   -1.8917    1.0000 </r>
       <r>   -1.8809    1.0000 </r>
       <r>   -1.4838    1.0000 </r>
       <r>   -1.0771    1.0000 </r>
       <r>   -0.6897    1.0000 </r>
       <r>   -0.5272    1.0000 </r>
       <r>    1.9419   -0.0000 </r>
       <r>    2.2592   -0.0000 </r>
       <r>    2.3114   -0.0000 </r>
       <r>    2.3527   -0.0000 </r>
       <r>    2.6944   -0.0000 </r>
       <r>    2.9316   -0.0000 </r>
       <r>    3.5765    0.0000 </r>
       <r>    3.6269    0.0000 </r>
       <r>    6.3859    0.0000 </r>
       <r>    6.6734    0.0000 </r>
       <r>    7.3969    0.0000 </r>
       <r>    8.1485    0.0000 </r>
      </set>
      <set comment="kpoint 5">
       <r>  -35.0284    1.0000 </r>
       <r>  -35.0264    1.0000 </r>
       <r>  -34.9251    1.0000 </r>
       <r>  -34.9233    1.0000 </r>
       <r>  -34.8388    1.0000 </r>
       <r>  -34.8369    1.0000 </r>
       <r>  -12.8124    1.0000 </r>
       <r>  -12.7554    1.0000 </r>
       <r>  -12.2161    1.0000 </r>
       <r>  -12.1451    1.0000 </r>
       <r>   -5.1061    1.0000 </r>
       <r>   -4.9787    1.0000 </r>
       <r>   -4.0672    1.0000 </r>
       <r>   -3.9087    1.0000 </r>
       <r>   -3.8744    1.0000 </r>
       <r>   -3.7009    1.0000 </r>
       <r>   -2.7382    1.0000 </r>
       <r>   -2.7257    1.0000 </r>
       <r>   -1.7656    1.0000 </r>
       <r>   -1.4998    1.0000 </r>
       <r>   -1.4815    1.0000 </r>
       <r>   -1.3632    1.0000 </r>
       <r>   -0.9809    1.0000 </r>
       <r>   -0.8557    1.0000 </r>
       <r>    2.0397   -0.0000 </r>
       <r>    2.1467   -0.0000 </r>
       <r>    2.1802   -0.0000 </r>
       <r>    2.3402   -0.0000 </r>
       <r>    3.0973    0.0000 </r>
       <r>    3.3832    0.0000 </r>
       <r>    3.8741    0.0000 </r>
       <r>    3.9392    0.0000 </r>
       <r>    7.0441    0.0000 </r>
       <r>    7.2435    0.0000 </r>
       <r>    7.7783    0.0000 </r>
       <r>    8.0927    0.0000 </r>
      </set>
      <set comment="kpoint 6">
       <r>  -35.0981    1.0000 </r>
       <r>  -35.0961    1.0000 </r>
       <r>  -34.9108    1.0000 </r>
       <r>  -34.9090    1.0000 </r>
       <r>  -34.8552    1.0000 </r>
       <r>  -34.8534    1.0000 </r>
       <r>  -12.4029    1.0000 </r>
       <r>  -12.3492    1.0000 </r>
       <r>  -12.0507    1.0000 </r>
       <r>  -11.9908    1.0000 </r>
       <r>   -5.4220    1.0000 </r>
       <r>   -5.3487    1.0000 </r>
       <r>   -4.4783    1.0000 </r>
       <r>   -4.3615    1.0000 </r>
       <r>   -3.9823    1.0000 </r>
       <r>   -3.7712    1.0000 </r>
       <r>   -2.9983    1.0000 </r>
       <r>   -2.9853    1.0000 </r>
       <r>   -1.9826    1.0000 </r>
       <r>   -1.5857    1.0000 </r>
       <r>   -1.1865    1.0000 </r>
       <r>   -1.1595    1.0000 </r>
       <r>   -0.9433    1.0000 </r>
       <r>   -0.7881    1.0000 </r>
       <r>    2.1079   -0.0000 </r>
       <r>    2.1286   -0.0000 </r>
       <r>    2.3083   -0.0000 </r>
       <r>    2.5133   -0.0000 </r>
       <r>    3.4793    0.0000 </r>
       <r>    3.7772    0.0000 </r>
       <r>    4.0581    0.0000 </r>
       <r>    4.1364    0.0000 </r>
       <r>    6.7447    0.0000 </r>
       <r>    7.2609    0.0000 </r>
       <r>    7.6491    0.0000 </r>
       <r>    7.9262    0.0000 </r>
      </set>
      <set comment="kpoint 7">
       <r>  -35.1372    1.0000 </r>
       <r>  -35.1351    1.0000 </r>
       <r>  -34.9028    1.0000 </r>
       <r>  -34.9010    1.0000 </r>
       <r>  -34.8645    1.0000 </r>
       <r>  -34.8627    1.0000 </r>
       <r>  -12.1473    1.0000 </r>
       <r>  -12.0961    1.0000 </r>
       <r>  -11.9492    1.0000 </r>
       <r>  -11.8971    1.0000 </r>
       <r>   -5.6632    1.0000 </r>
       <r>   -5.5999    1.0000 </r>
       <r>   -4.7290    1.0000 </r>
       <r>   -4.6269    1.0000 </r>
       <r>   -4.0835    1.0000 </r>
       <r>   -3.8851    1.0000 </r>
       <r>   -3.1344    1.0000 </r>
       <r>   -3.1211    1.0000 </r>
       <r>   -2.0888    1.0000 </r>
       <r>   -1.6963    1.0000 </r>
       <r>   -1.0226    1.0000 </r>
       <r>   -0.9887    1.0000 </r>
       <r>   -0.7357    1.0000 </r>
       <r>   -0.5467    1.0000 </r>
       <r>    2.1387   -0.0000 </r>
       <r>    2.1493   -0.0000 </r>
       <r>    2.5647   -0.0000 </r>
       <r>    2.6618   -0.0000 </r>
       <r>    3.6803    0.0000 </r>
       <r>    3.9794    0.0000 </r>
       <r>    4.1410    0.0000 </r>
       <r>    4.2271    0.0000 </r>
       <r>    5.9621    0.0000 </r>
       <r>    6.5903    0.0000 </r>
       <r>    7.8330    0.0000 </r>
       <r>    8.0482    0.0000 </r>
      </set>
      <set comment="kpoint 8">
       <r>  -34.9697    1.0000 </r>
       <r>  -34.9679    1.0000 </r>
       <r>  -34.8030    1.0000 </r>
       <r>  -34.8012    1.0000 </r>
       <r>  -34.7867    1.0000 </r>
       <r>  -34.7847    1.0000 </r>
       <r>  -13.8744    1.0000 </r>
       <r>  -13.8145    1.0000 </r>
       <r>  -12.6603    1.0000 </r>
       <r>  -12.5625    1.0000 </r>
       <r>   -5.5844    1.0000 </r>
       <r>   -5.2763    1.0000 </r>
       <r>   -2.7927    1.0000 </r>
       <r>   -2.7852    1.0000 </r>
       <r>   -2.5136    1.0000 </r>
       <r>   -2.5087    1.0000 </r>
       <r>   -2.4623    1.0000 </r>
       <r>   -2.0496    1.0000 </r>
       <r>   -1.6510    1.0000 </r>
       <r>   -1.6418    1.0000 </r>
       <r>   -1.3625    1.0000 </r>
       <r>   -1.0379    1.0000 </r>
       <r>   -0.2388    1.0000 </r>
       <r>    0.1870    1.0326 </r>
       <r>    2.5741   -0.0000 </r>
       <r>    2.6279   -0.0000 </r>
       <r>    2.6496   -0.0000 </r>
       <r>    2.7511   -0.0000 </r>
       <r>    2.7824   -0.0000 </r>
       <r>    2.8275   -0.0000 </r>
       <r>    2.8590   -0.0000 </r>
       <r>    2.8889   -0.0000 </r>
       <r>    5.4977    0.0000 </r>
       <r>    5.8275    0.0000 </r>
       <r>    6.5859    0.0000 </r>
       <r>    6.9669    0.0000 </r>
      </set>
      <set comment="kpoint 9">
       <r>  -34.9619    1.0000 </r>
       <r>  -34.9601    1.0000 </r>
       <r>  -34.8420    1.0000 </r>
       <r>  -34.8401    1.0000 </r>
       <r>  -34.7967    1.0000 </r>
       <r>  -34.7948    1.0000 </r>
       <r>  -13.7069    1.0000 </r>
       <r>  -13.6471    1.0000 </r>
       <r>  -12.5894    1.0000 </r>
       <r>  -12.4959    1.0000 </r>
       <r>   -5.4034    1.0000 </r>
       <r>   -5.0971    1.0000 </r>
       <r>   -3.1106    1.0000 </r>
       <r>   -3.0949    1.0000 </r>
       <r>   -2.7944    1.0000 </r>
       <r>   -2.4647    1.0000 </r>
       <r>   -2.3466    1.0000 </r>
       <r>   -2.3395    1.0000 </r>
       <r>   -1.9682    1.0000 </r>
       <r>   -1.9510    1.0000 </r>
       <r>   -1.2172    1.0000 </r>
       <r>   -0.8501    1.0000 </r>
       <r>   -0.3139    1.0000 </r>
       <r>    0.0169    1.0003 </r>
       <r>    2.2809   -0.0000 </r>
       <r>    2.4396   -0.0000 </r>
       <r>    2.4649   -0.0000 </r>
       <r>    2.5865   -0.0000 </r>
       <r>    2.6156   -0.0000 </r>
       <r>    2.6715   -0.0000 </r>
       <r>    3.1258    0.0000 </r>
       <r>    3.1746    0.0000 </r>
       <r>    5.7372    0.0000 </r>
       <r>    6.0717    0.0000 </r>
       <r>    6.9848    0.0000 </r>
       <r>    7.6167    0.0000 </r>
      </set>
      <set comment="kpoint 10">
       <r>  -34.9482    1.0000 </r>
       <r>  -34.9464    1.0000 </r>
       <r>  -34.9096    1.0000 </r>
       <r>  -34.9076    1.0000 </r>
       <r>  -34.8152    1.0000 </r>
       <r>  -34.8133    1.0000 </r>
       <r>  -13.3949    1.0000 </r>
       <r>  -13.3356    1.0000 </r>
       <r>  -12.4576    1.0000 </r>
       <r>  -12.3718    1.0000 </r>
       <r>   -5.1238    1.0000 </r>
       <r>   -4.8394    1.0000 </r>
       <r>   -3.5646    1.0000 </r>
       <r>   -3.5167    1.0000 </r>
       <r>   -3.2245    1.0000 </r>
       <r>   -2.9863    1.0000 </r>
       <r>   -2.4611    1.0000 </r>
       <r>   -2.4185    1.0000 </r>
       <r>   -2.0642    1.0000 </r>
       <r>   -2.0534    1.0000 </r>
       <r>   -1.2123    1.0000 </r>
       <r>   -0.8488    1.0000 </r>
       <r>   -0.5456    1.0000 </r>
       <r>   -0.3473    1.0000 </r>
       <r>    1.9481   -0.0000 </r>
       <r>    2.2095   -0.0000 </r>
       <r>    2.3865   -0.0000 </r>
       <r>    2.4514   -0.0000 </r>
       <r>    2.4709   -0.0000 </r>
       <r>    2.6550   -0.0000 </r>
       <r>    3.5233    0.0000 </r>
       <r>    3.5986    0.0000 </r>
       <r>    6.1817    0.0000 </r>
       <r>    6.4966    0.0000 </r>
       <r>    7.2621    0.0000 </r>
       <r>    8.4585    0.0000 </r>
      </set>
      <set comment="kpoint 11">
       <r>  -34.9900    1.0000 </r>
       <r>  -34.9880    1.0000 </r>
       <r>  -34.9316    1.0000 </r>
       <r>  -34.9298    1.0000 </r>
       <r>  -34.8376    1.0000 </r>
       <r>  -34.8357    1.0000 </r>
       <r>  -12.9858    1.0000 </r>
       <r>  -12.9280    1.0000 </r>
       <r>  -12.2861    1.0000 </r>
       <r>  -12.2106    1.0000 </r>
       <r>   -4.9935    1.0000 </r>
       <r>   -4.8128    1.0000 </r>
       <r>   -3.8920    1.0000 </r>
       <r>   -3.7358    1.0000 </r>
       <r>   -3.7104    1.0000 </r>
       <r>   -3.5733    1.0000 </r>
       <r>   -2.8579    1.0000 </r>
       <r>   -2.7798    1.0000 </r>
       <r>   -1.7866    1.0000 </r>
       <r>   -1.7655    1.0000 </r>
       <r>   -1.4335    1.0000 </r>
       <r>   -1.0854    1.0000 </r>
       <r>   -0.8484    1.0000 </r>
       <r>   -0.7321    1.0000 </r>
       <r>    1.8475   -0.0000 </r>
       <r>    2.0900   -0.0000 </r>
       <r>    2.2742   -0.0000 </r>
       <r>    2.3985   -0.0000 </r>
       <r>    2.7465   -0.0000 </r>
       <r>    2.9776   -0.0000 </r>
       <r>    3.8653    0.0000 </r>
       <r>    3.9718    0.0000 </r>
       <r>    6.8010    0.0000 </r>
       <r>    7.0498    0.0000 </r>
       <r>    7.8129    0.0000 </r>
       <r>    8.2819    0.0000 </r>
      </set>
      <set comment="kpoint 12">
       <r>  -35.0646    1.0000 </r>
       <r>  -35.0626    1.0000 </r>
       <r>  -34.9159    1.0000 </r>
       <r>  -34.9141    1.0000 </r>
       <r>  -34.8586    1.0000 </r>
       <r>  -34.8567    1.0000 </r>
       <r>  -12.5563    1.0000 </r>
       <r>  -12.5013    1.0000 </r>
       <r>  -12.1088    1.0000 </r>
       <r>  -12.0445    1.0000 </r>
       <r>   -5.2110    1.0000 </r>
       <r>   -5.1217    1.0000 </r>
       <r>   -4.2925    1.0000 </r>
       <r>   -4.1840    1.0000 </r>
       <r>   -3.9053    1.0000 </r>
       <r>   -3.6895    1.0000 </r>
       <r>   -3.0709    1.0000 </r>
       <r>   -2.9930    1.0000 </r>
       <r>   -1.7577    1.0000 </r>
       <r>   -1.6164    1.0000 </r>
       <r>   -1.5982    1.0000 </r>
       <r>   -1.3727    1.0000 </r>
       <r>   -0.8718    1.0000 </r>
       <r>   -0.7821    1.0000 </r>
       <r>    1.9586   -0.0000 </r>
       <r>    2.1231   -0.0000 </r>
       <r>    2.3205   -0.0000 </r>
       <r>    2.4565   -0.0000 </r>
       <r>    3.1654    0.0000 </r>
       <r>    3.4060    0.0000 </r>
       <r>    4.0540    0.0000 </r>
       <r>    4.1968    0.0000 </r>
       <r>    7.3097    0.0000 </r>
       <r>    7.5469    0.0000 </r>
       <r>    7.5936    0.0000 </r>
       <r>    8.1442    0.0000 </r>
      </set>
      <set comment="kpoint 13">
       <r>  -35.1170    1.0000 </r>
       <r>  -35.1150    1.0000 </r>
       <r>  -34.9047    1.0000 </r>
       <r>  -34.9029    1.0000 </r>
       <r>  -34.8735    1.0000 </r>
       <r>  -34.8716    1.0000 </r>
       <r>  -12.2160    1.0000 </r>
       <r>  -12.1641    1.0000 </r>
       <r>  -11.9708    1.0000 </r>
       <r>  -11.9161    1.0000 </r>
       <r>   -5.4936    1.0000 </r>
       <r>   -5.4281    1.0000 </r>
       <r>   -4.6778    1.0000 </r>
       <r>   -4.5897    1.0000 </r>
       <r>   -4.0091    1.0000 </r>
       <r>   -3.8003    1.0000 </r>
       <r>   -3.1573    1.0000 </r>
       <r>   -3.1000    1.0000 </r>
       <r>   -1.9888    1.0000 </r>
       <r>   -1.6319    1.0000 </r>
       <r>   -1.4978    1.0000 </r>
       <r>   -1.4108    1.0000 </r>
       <r>   -0.6625    1.0000 </r>
       <r>   -0.5538    1.0000 </r>
       <r>    2.1100   -0.0000 </r>
       <r>    2.1859   -0.0000 </r>
       <r>    2.5011   -0.0000 </r>
       <r>    2.6119   -0.0000 </r>
       <r>    3.5564    0.0000 </r>
       <r>    3.7782    0.0000 </r>
       <r>    4.0459    0.0000 </r>
       <r>    4.2337    0.0000 </r>
       <r>    6.3740    0.0000 </r>
       <r>    6.9919    0.0000 </r>
       <r>    8.0421    0.0000 </r>
       <r>    8.2243    0.0000 </r>
      </set>
      <set comment="kpoint 14">
       <r>  -35.1358    1.0000 </r>
       <r>  -35.1337    1.0000 </r>
       <r>  -34.9007    1.0000 </r>
       <r>  -34.8989    1.0000 </r>
       <r>  -34.8788    1.0000 </r>
       <r>  -34.8770    1.0000 </r>
       <r>  -12.0844    1.0000 </r>
       <r>  -12.0335    1.0000 </r>
       <r>  -11.9174    1.0000 </r>
       <r>  -11.8669    1.0000 </r>
       <r>   -5.6117    1.0000 </r>
       <r>   -5.5495    1.0000 </r>
       <r>   -4.8205    1.0000 </r>
       <r>   -4.7366    1.0000 </r>
       <r>   -4.0757    1.0000 </r>
       <r>   -3.8766    1.0000 </r>
       <r>   -3.1764    1.0000 </r>
       <r>   -3.1317    1.0000 </r>
       <r>   -2.0794    1.0000 </r>
       <r>   -1.7088    1.0000 </r>
       <r>   -1.4358    1.0000 </r>
       <r>   -1.3447    1.0000 </r>
       <r>   -0.5329    1.0000 </r>
       <r>   -0.4068    1.0000 </r>
       <r>    2.1495   -0.0000 </r>
       <r>    2.1828   -0.0000 </r>
       <r>    2.6503   -0.0000 </r>
       <r>    2.7292   -0.0000 </r>
       <r>    3.8147    0.0000 </r>
       <r>    3.8966    0.0000 </r>
       <r>    3.9934    0.0000 </r>
       <r>    4.1514    0.0000 </r>
       <r>    5.9400    0.0000 </r>
       <r>    6.6038    0.0000 </r>
       <r>    8.3303    0.0000 </r>
       <r>    8.4297    0.0000 </r>
      </set>
      <set comment="kpoint 15">
       <r>  -35.1170    1.0000 </r>
       <r>  -35.1150    1.0000 </r>
       <r>  -34.9047    1.0000 </r>
       <r>  -34.9029    1.0000 </r>
       <r>  -34.8734    1.0000 </r>
       <r>  -34.8716    1.0000 </r>
       <r>  -12.2162    1.0000 </r>
       <r>  -12.1640    1.0000 </r>
       <r>  -11.9710    1.0000 </r>
       <r>  -11.9159    1.0000 </r>
       <r>   -5.4936    1.0000 </r>
       <r>   -5.4280    1.0000 </r>
       <r>   -4.6781    1.0000 </r>
       <r>   -4.5895    1.0000 </r>
       <r>   -4.0091    1.0000 </r>
       <r>   -3.8001    1.0000 </r>
       <r>   -3.1572    1.0000 </r>
       <r>   -3.1004    1.0000 </r>
       <r>   -1.9898    1.0000 </r>
       <r>   -1.6325    1.0000 </r>
       <r>   -1.4994    1.0000 </r>
       <r>   -1.4068    1.0000 </r>
       <r>   -0.6624    1.0000 </r>
       <r>   -0.5540    1.0000 </r>
       <r>    2.1108   -0.0000 </r>
       <r>    2.1847   -0.0000 </r>
       <r>    2.5006   -0.0000 </r>
       <r>    2.6124   -0.0000 </r>
       <r>    3.5515    0.0000 </r>
       <r>    3.7831    0.0000 </r>
       <r>    4.0478    0.0000 </r>
       <r>    4.2325    0.0000 </r>
       <r>    6.3738    0.0000 </r>
       <r>    6.9922    0.0000 </r>
       <r>    8.0411    0.0000 </r>
       <r>    8.2431    0.0000 </r>
      </set>
      <set comment="kpoint 16">
       <r>  -35.0646    1.0000 </r>
       <r>  -35.0626    1.0000 </r>
       <r>  -34.9159    1.0000 </r>
       <r>  -34.9141    1.0000 </r>
       <r>  -34.8586    1.0000 </r>
       <r>  -34.8568    1.0000 </r>
       <r>  -12.5566    1.0000 </r>
       <r>  -12.5012    1.0000 </r>
       <r>  -12.1090    1.0000 </r>
       <r>  -12.0442    1.0000 </r>
       <r>   -5.2110    1.0000 </r>
       <r>   -5.1216    1.0000 </r>
       <r>   -4.2930    1.0000 </r>
       <r>   -4.1836    1.0000 </r>
       <r>   -3.9056    1.0000 </r>
       <r>   -3.6889    1.0000 </r>
       <r>   -3.0712    1.0000 </r>
       <r>   -2.9933    1.0000 </r>
       <r>   -1.7606    1.0000 </r>
       <r>   -1.6163    1.0000 </r>
       <r>   -1.5974    1.0000 </r>
       <r>   -1.3697    1.0000 </r>
       <r>   -0.8720    1.0000 </r>
       <r>   -0.7817    1.0000 </r>
       <r>    1.9579   -0.0000 </r>
       <r>    2.1230   -0.0000 </r>
       <r>    2.3203   -0.0000 </r>
       <r>    2.4571   -0.0000 </r>
       <r>    3.1610    0.0000 </r>
       <r>    3.4112    0.0000 </r>
       <r>    4.0546    0.0000 </r>
       <r>    4.1958    0.0000 </r>
       <r>    7.3096    0.0000 </r>
       <r>    7.5534    0.0000 </r>
       <r>    7.5856    0.0000 </r>
       <r>    8.1638    0.0000 </r>
      </set>
      <set comment="kpoint 17">
       <r>  -34.9900    1.0000 </r>
       <r>  -34.9880    1.0000 </r>
       <r>  -34.9316    1.0000 </r>
       <r>  -34.9298    1.0000 </r>
       <r>  -34.8376    1.0000 </r>
       <r>  -34.8357    1.0000 </r>
       <r>  -12.9860    1.0000 </r>
       <r>  -12.9279    1.0000 </r>
       <r>  -12.2863    1.0000 </r>
       <r>  -12.2104    1.0000 </r>
       <r>   -4.9935    1.0000 </r>
       <r>   -4.8129    1.0000 </r>
       <r>   -3.8928    1.0000 </r>
       <r>   -3.7349    1.0000 </r>
       <r>   -3.7109    1.0000 </r>
       <r>   -3.5727    1.0000 </r>
       <r>   -2.8586    1.0000 </r>
       <r>   -2.7796    1.0000 </r>
       <r>   -1.7864    1.0000 </r>
       <r>   -1.7662    1.0000 </r>
       <r>   -1.4346    1.0000 </r>
       <r>   -1.0837    1.0000 </r>
       <r>   -0.8484    1.0000 </r>
       <r>   -0.7305    1.0000 </r>
       <r>    1.8460   -0.0000 </r>
       <r>    2.0910   -0.0000 </r>
       <r>    2.2740   -0.0000 </r>
       <r>    2.3991   -0.0000 </r>
       <r>    2.7430   -0.0000 </r>
       <r>    2.9809   -0.0000 </r>
       <r>    3.8661    0.0000 </r>
       <r>    3.9703    0.0000 </r>
       <r>    6.8010    0.0000 </r>
       <r>    7.0498    0.0000 </r>
       <r>    7.7998    0.0000 </r>
       <r>    8.2762    0.0000 </r>
      </set>
      <set comment="kpoint 18">
       <r>  -34.9482    1.0000 </r>
       <r>  -34.9464    1.0000 </r>
       <r>  -34.9097    1.0000 </r>
       <r>  -34.9076    1.0000 </r>
       <r>  -34.8152    1.0000 </r>
       <r>  -34.8134    1.0000 </r>
       <r>  -13.3951    1.0000 </r>
       <r>  -13.3355    1.0000 </r>
       <r>  -12.4578    1.0000 </r>
       <r>  -12.3717    1.0000 </r>
       <r>   -5.1240    1.0000 </r>
       <r>   -4.8392    1.0000 </r>
       <r>   -3.5647    1.0000 </r>
       <r>   -3.5166    1.0000 </r>
       <r>   -3.2241    1.0000 </r>
       <r>   -2.9866    1.0000 </r>
       <r>   -2.4616    1.0000 </r>
       <r>   -2.4182    1.0000 </r>
       <r>   -2.0639    1.0000 </r>
       <r>   -2.0538    1.0000 </r>
       <r>   -1.2147    1.0000 </r>
       <r>   -0.8471    1.0000 </r>
       <r>   -0.5461    1.0000 </r>
       <r>   -0.3439    1.0000 </r>
       <r>    1.9462   -0.0000 </r>
       <r>    2.2092   -0.0000 </r>
       <r>    2.3874   -0.0000 </r>
       <r>    2.4555   -0.0000 </r>
       <r>    2.4651   -0.0000 </r>
       <r>    2.6566   -0.0000 </r>
       <r>    3.5251    0.0000 </r>
       <r>    3.5961    0.0000 </r>
       <r>    6.1816    0.0000 </r>
       <r>    6.4967    0.0000 </r>
       <r>    7.2524    0.0000 </r>
       <r>    8.3589    0.0000 </r>
      </set>
      <set comment="kpoint 19">
       <r>  -34.9619    1.0000 </r>
       <r>  -34.9601    1.0000 </r>
       <r>  -34.8421    1.0000 </r>
       <r>  -34.8401    1.0000 </r>
       <r>  -34.7967    1.0000 </r>
       <r>  -34.7948    1.0000 </r>
       <r>  -13.7070    1.0000 </r>
       <r>  -13.6470    1.0000 </r>
       <r>  -12.5895    1.0000 </r>
       <r>  -12.4957    1.0000 </r>
       <r>   -5.4035    1.0000 </r>
       <r>   -5.0969    1.0000 </r>
       <r>   -3.1105    1.0000 </r>
       <r>   -3.0951    1.0000 </r>
       <r>   -2.7940    1.0000 </r>
       <r>   -2.4652    1.0000 </r>
       <r>   -2.3460    1.0000 </r>
       <r>   -2.3400    1.0000 </r>
       <r>   -1.9677    1.0000 </r>
       <r>   -1.9517    1.0000 </r>
       <r>   -1.2199    1.0000 </r>
       <r>   -0.8479    1.0000 </r>
       <r>   -0.3146    1.0000 </r>
       <r>    0.0207    1.0003 </r>
       <r>    2.2751   -0.0000 </r>
       <r>    2.4392   -0.0000 </r>
       <r>    2.4637   -0.0000 </r>
       <r>    2.5910   -0.0000 </r>
       <r>    2.6184   -0.0000 </r>
       <r>    2.6695   -0.0000 </r>
       <r>    3.1291    0.0000 </r>
       <r>    3.1707    0.0000 </r>
       <r>    5.7372    0.0000 </r>
       <r>    6.0718    0.0000 </r>
       <r>    6.9509    0.0000 </r>
       <r>    7.6206    0.0000 </r>
      </set>
      <set comment="kpoint 20">
       <r>  -34.9697    1.0000 </r>
       <r>  -34.9679    1.0000 </r>
       <r>  -34.8031    1.0000 </r>
       <r>  -34.8012    1.0000 </r>
       <r>  -34.7867    1.0000 </r>
       <r>  -34.7847    1.0000 </r>
       <r>  -13.8744    1.0000 </r>
       <r>  -13.8145    1.0000 </r>
       <r>  -12.6603    1.0000 </r>
       <r>  -12.5625    1.0000 </r>
       <r>   -5.5845    1.0000 </r>
       <r>   -5.2762    1.0000 </r>
       <r>   -2.7928    1.0000 </r>
       <r>   -2.7850    1.0000 </r>
       <r>   -2.5131    1.0000 </r>
       <r>   -2.5096    1.0000 </r>
       <r>   -2.4618    1.0000 </r>
       <r>   -2.0496    1.0000 </r>
       <r>   -1.6499    1.0000 </r>
       <r>   -1.6430    1.0000 </r>
       <r>   -1.3645    1.0000 </r>
       <r>   -1.0362    1.0000 </r>
       <r>   -0.2391    1.0000 </r>
       <r>    0.1885    1.0318 </r>
       <r>    2.5670   -0.0000 </r>
       <r>    2.6284   -0.0000 </r>
       <r>    2.6484   -0.0000 </r>
       <r>    2.7575   -0.0000 </r>
       <r>    2.7901   -0.0000 </r>
       <r>    2.8242   -0.0000 </r>
       <r>    2.8606   -0.0000 </r>
       <r>    2.8830   -0.0000 </r>
       <r>    5.4976    0.0000 </r>
       <r>    5.8276    0.0000 </r>
       <r>    6.5717    0.0000 </r>
       <r>    6.9669    0.0000 </r>
      </set>
      <set comment="kpoint 21">
       <r>  -34.9583    1.0000 </r>
       <r>  -34.9565    1.0000 </r>
       <r>  -34.8615    1.0000 </r>
       <r>  -34.8597    1.0000 </r>
       <r>  -34.8001    1.0000 </r>
       <r>  -34.7981    1.0000 </r>
       <r>  -13.6262    1.0000 </r>
       <r>  -13.5664    1.0000 </r>
       <r>  -12.5554    1.0000 </r>
       <r>  -12.4638    1.0000 </r>
       <r>   -5.3250    1.0000 </r>
       <r>   -5.0220    1.0000 </r>
       <r>   -3.2502    1.0000 </r>
       <r>   -3.2276    1.0000 </r>
       <r>   -2.9539    1.0000 </r>
       <r>   -2.6669    1.0000 </r>
       <r>   -2.2591    1.0000 </r>
       <r>   -2.2521    1.0000 </r>
       <r>   -1.9867    1.0000 </r>
       <r>   -1.9763    1.0000 </r>
       <r>   -1.2961    1.0000 </r>
       <r>   -0.8991    1.0000 </r>
       <r>   -0.3704    1.0000 </r>
       <r>   -0.0808    1.0000 </r>
       <r>    2.1663   -0.0000 </r>
       <r>    2.3828   -0.0000 </r>
       <r>    2.5001   -0.0000 </r>
       <r>    2.5589   -0.0000 </r>
       <r>    2.6033   -0.0000 </r>
       <r>    2.6551   -0.0000 </r>
       <r>    3.1989    0.0000 </r>
       <r>    3.2376    0.0000 </r>
       <r>    5.8498    0.0000 </r>
       <r>    6.1786    0.0000 </r>
       <r>    6.9464    0.0000 </r>
       <r>    7.7959    0.0000 </r>
      </set>
      <set comment="kpoint 22">
       <r>  -34.9482    1.0000 </r>
       <r>  -34.9464    1.0000 </r>
       <r>  -34.9096    1.0000 </r>
       <r>  -34.9077    1.0000 </r>
       <r>  -34.8153    1.0000 </r>
       <r>  -34.8133    1.0000 </r>
       <r>  -13.3949    1.0000 </r>
       <r>  -13.3356    1.0000 </r>
       <r>  -12.4576    1.0000 </r>
       <r>  -12.3718    1.0000 </r>
       <r>   -5.1238    1.0000 </r>
       <r>   -4.8394    1.0000 </r>
       <r>   -3.5646    1.0000 </r>
       <r>   -3.5167    1.0000 </r>
       <r>   -3.2245    1.0000 </r>
       <r>   -2.9863    1.0000 </r>
       <r>   -2.4612    1.0000 </r>
       <r>   -2.4185    1.0000 </r>
       <r>   -2.0642    1.0000 </r>
       <r>   -2.0534    1.0000 </r>
       <r>   -1.2123    1.0000 </r>
       <r>   -0.8488    1.0000 </r>
       <r>   -0.5456    1.0000 </r>
       <r>   -0.3473    1.0000 </r>
       <r>    1.9481   -0.0000 </r>
       <r>    2.2095   -0.0000 </r>
       <r>    2.3865   -0.0000 </r>
       <r>    2.4514   -0.0000 </r>
       <r>    2.4709   -0.0000 </r>
       <r>    2.6551   -0.0000 </r>
       <r>    3.5233    0.0000 </r>
       <r>    3.5986    0.0000 </r>
       <r>    6.1814    0.0000 </r>
       <r>    6.4966    0.0000 </r>
       <r>    7.2447    0.0000 </r>
       <r>    8.2151    0.0000 </r>
      </set>
      <set comment="kpoint 23">
       <r>  -34.9717    1.0000 </r>
       <r>  -34.9698    1.0000 </r>
       <r>  -34.9339    1.0000 </r>
       <r>  -34.9321    1.0000 </r>
       <r>  -34.8416    1.0000 </r>
       <r>  -34.8397    1.0000 </r>
       <r>  -13.0469    1.0000 </r>
       <r>  -12.9888    1.0000 </r>
       <r>  -12.3102    1.0000 </r>
       <r>  -12.2332    1.0000 </r>
       <r>   -4.9465    1.0000 </r>
       <r>   -4.7371    1.0000 </r>
       <r>   -3.8272    1.0000 </r>
       <r>   -3.6963    1.0000 </r>
       <r>   -3.5139    1.0000 </r>
       <r>   -3.3821    1.0000 </r>
       <r>   -3.0953    1.0000 </r>
       <r>   -2.9677    1.0000 </r>
       <r>   -1.9387    1.0000 </r>
       <r>   -1.9171    1.0000 </r>
       <r>   -1.1993    1.0000 </r>
       <r>   -0.8865    1.0000 </r>
       <r>   -0.7802    1.0000 </r>
       <r>   -0.6575    1.0000 </r>
       <r>    1.7551   -0.0000 </r>
       <r>    2.0146   -0.0000 </r>
       <r>    2.3174   -0.0000 </r>
       <r>    2.4338   -0.0000 </r>
       <r>    2.5185   -0.0000 </r>
       <r>    2.7329   -0.0000 </r>
       <r>    3.9054    0.0000 </r>
       <r>    4.0317    0.0000 </r>
       <r>    6.7189    0.0000 </r>
       <r>    6.9905    0.0000 </r>
       <r>    7.7546    0.0000 </r>
       <r>    8.5349    0.0000 </r>
      </set>
      <set comment="kpoint 24">
       <r>  -35.0346    1.0000 </r>
       <r>  -35.0326    1.0000 </r>
       <r>  -34.9187    1.0000 </r>
       <r>  -34.9169    1.0000 </r>
       <r>  -34.8719    1.0000 </r>
       <r>  -34.8700    1.0000 </r>
       <r>  -12.6419    1.0000 </r>
       <r>  -12.5861    1.0000 </r>
       <r>  -12.1387    1.0000 </r>
       <r>  -12.0719    1.0000 </r>
       <r>   -5.0162    1.0000 </r>
       <r>   -4.9066    1.0000 </r>
       <r>   -4.0946    1.0000 </r>
       <r>   -4.0318    1.0000 </r>
       <r>   -3.8266    1.0000 </r>
       <r>   -3.6042    1.0000 </r>
       <r>   -3.3096    1.0000 </r>
       <r>   -3.1373    1.0000 </r>
       <r>   -2.0714    1.0000 </r>
       <r>   -2.0338    1.0000 </r>
       <r>   -1.4146    1.0000 </r>
       <r>   -1.1061    1.0000 </r>
       <r>   -0.8364    1.0000 </r>
       <r>   -0.7759    1.0000 </r>
       <r>    1.7867   -0.0000 </r>
       <r>    2.0662   -0.0000 </r>
       <r>    2.3910   -0.0000 </r>
       <r>    2.4732   -0.0000 </r>
       <r>    2.7752   -0.0000 </r>
       <r>    2.9954   -0.0000 </r>
       <r>    4.1493    0.0000 </r>
       <r>    4.3240    0.0000 </r>
       <r>    7.3926    0.0000 </r>
       <r>    7.5783    0.0000 </r>
       <r>    8.0191    0.0000 </r>
       <r>    8.4979    0.0000 </r>
      </set>
      <set comment="kpoint 25">
       <r>  -35.0852    1.0000 </r>
       <r>  -35.0832    1.0000 </r>
       <r>  -34.9061    1.0000 </r>
       <r>  -34.9043    1.0000 </r>
       <r>  -34.8978    1.0000 </r>
       <r>  -34.8960    1.0000 </r>
       <r>  -12.2696    1.0000 </r>
       <r>  -12.2168    1.0000 </r>
       <r>  -11.9814    1.0000 </r>
       <r>  -11.9244    1.0000 </r>
       <r>   -5.2159    1.0000 </r>
       <r>   -5.1440    1.0000 </r>
       <r>   -4.6370    1.0000 </r>
       <r>   -4.5832    1.0000 </r>
       <r>   -3.8551    1.0000 </r>
       <r>   -3.6237    1.0000 </r>
       <r>   -3.2803    1.0000 </r>
       <r>   -3.1368    1.0000 </r>
       <r>   -2.2196    1.0000 </r>
       <r>   -2.1467    1.0000 </r>
       <r>   -1.7495    1.0000 </r>
       <r>   -1.4343    1.0000 </r>
       <r>   -0.6633    1.0000 </r>
       <r>   -0.6093    1.0000 </r>
       <r>    2.0138   -0.0000 </r>
       <r>    2.2374   -0.0000 </r>
       <r>    2.5146   -0.0000 </r>
       <r>    2.5742   -0.0000 </r>
       <r>    3.1177    0.0000 </r>
       <r>    3.3238    0.0000 </r>
       <r>    4.2124    0.0000 </r>
       <r>    4.4337    0.0000 </r>
       <r>    7.0029    0.0000 </r>
       <r>    7.5885    0.0000 </r>
       <r>    8.1958    0.0000 </r>
       <r>    8.5314    0.0000 </r>
      </set>
      <set comment="kpoint 26">
       <r>  -35.1134    1.0000 </r>
       <r>  -35.1114    1.0000 </r>
       <r>  -34.9127    1.0000 </r>
       <r>  -34.9109    1.0000 </r>
       <r>  -34.8990    1.0000 </r>
       <r>  -34.8972    1.0000 </r>
       <r>  -12.0413    1.0000 </r>
       <r>  -11.9902    1.0000 </r>
       <r>  -11.8838    1.0000 </r>
       <r>  -11.8337    1.0000 </r>
       <r>   -5.3480    1.0000 </r>
       <r>   -5.2863    1.0000 </r>
       <r>   -4.9450    1.0000 </r>
       <r>   -4.8918    1.0000 </r>
       <r>   -3.9842    1.0000 </r>
       <r>   -3.7781    1.0000 </r>
       <r>   -3.1898    1.0000 </r>
       <r>   -3.0853    1.0000 </r>
       <r>   -2.2476    1.0000 </r>
       <r>   -2.1313    1.0000 </r>
       <r>   -1.9982    1.0000 </r>
       <r>   -1.6715    1.0000 </r>
       <r>   -0.4379    1.0000 </r>
       <r>   -0.3658    1.0000 </r>
       <r>    2.0684   -0.0000 </r>
       <r>    2.1309   -0.0000 </r>
       <r>    2.7621   -0.0000 </r>
       <r>    2.8886   -0.0000 </r>
       <r>    3.3696    0.0000 </r>
       <r>    3.5518    0.0000 </r>
       <r>    4.1571    0.0000 </r>
       <r>    4.4185    0.0000 </r>
       <r>    6.2822    0.0000 </r>
       <r>    6.9721    0.0000 </r>
       <r>    8.6941    0.0000 </r>
       <r>    8.8611    0.0000 </r>
      </set>
      <set comment="kpoint 27">
       <r>  -35.1134    1.0000 </r>
       <r>  -35.1113    1.0000 </r>
       <r>  -34.9127    1.0000 </r>
       <r>  -34.9109    1.0000 </r>
       <r>  -34.8990    1.0000 </r>
       <r>  -34.8972    1.0000 </r>
       <r>  -12.0416    1.0000 </r>
       <r>  -11.9901    1.0000 </r>
       <r>  -11.8839    1.0000 </r>
       <r>  -11.8335    1.0000 </r>
       <r>   -5.3480    1.0000 </r>
       <r>   -5.2861    1.0000 </r>
       <r>   -4.9451    1.0000 </r>
       <r>   -4.8918    1.0000 </r>
       <r>   -3.9843    1.0000 </r>
       <r>   -3.7781    1.0000 </r>
       <r>   -3.1897    1.0000 </r>
       <r>   -3.0857    1.0000 </r>
       <r>   -2.2505    1.0000 </r>
       <r>   -2.1300    1.0000 </r>
       <r>   -1.9969    1.0000 </r>
       <r>   -1.6706    1.0000 </r>
       <r>   -0.4380    1.0000 </r>
       <r>   -0.3658    1.0000 </r>
       <r>    2.0690   -0.0000 </r>
       <r>    2.1303   -0.0000 </r>
       <r>    2.7623   -0.0000 </r>
       <r>    2.8883   -0.0000 </r>
       <r>    3.3642    0.0000 </r>
       <r>    3.5580    0.0000 </r>
       <r>    4.1573    0.0000 </r>
       <r>    4.4183    0.0000 </r>
       <r>    6.2818    0.0000 </r>
       <r>    6.9721    0.0000 </r>
       <r>    8.6816    0.0000 </r>
       <r>    8.8347    0.0000 </r>
      </set>
      <set comment="kpoint 28">
       <r>  -35.0852    1.0000 </r>
       <r>  -35.0832    1.0000 </r>
       <r>  -34.9061    1.0000 </r>
       <r>  -34.9043    1.0000 </r>
       <r>  -34.8978    1.0000 </r>
       <r>  -34.8960    1.0000 </r>
       <r>  -12.2701    1.0000 </r>
       <r>  -12.2165    1.0000 </r>
       <r>  -11.9817    1.0000 </r>
       <r>  -11.9239    1.0000 </r>
       <r>   -5.2159    1.0000 </r>
       <r>   -5.1438    1.0000 </r>
       <r>   -4.6373    1.0000 </r>
       <r>   -4.5828    1.0000 </r>
       <r>   -3.8558    1.0000 </r>
       <r>   -3.6233    1.0000 </r>
       <r>   -3.2808    1.0000 </r>
       <r>   -3.1371    1.0000 </r>
       <r>   -2.2232    1.0000 </r>
       <r>   -2.1444    1.0000 </r>
       <r>   -1.7483    1.0000 </r>
       <r>   -1.4323    1.0000 </r>
       <r>   -0.6635    1.0000 </r>
       <r>   -0.6094    1.0000 </r>
       <r>    2.0147   -0.0000 </r>
       <r>    2.2357   -0.0000 </r>
       <r>    2.5143   -0.0000 </r>
       <r>    2.5750   -0.0000 </r>
       <r>    3.1108    0.0000 </r>
       <r>    3.3320    0.0000 </r>
       <r>    4.2125    0.0000 </r>
       <r>    4.4331    0.0000 </r>
       <r>    7.0029    0.0000 </r>
       <r>    7.5893    0.0000 </r>
       <r>    8.1869    0.0000 </r>
       <r>    8.5307    0.0000 </r>
      </set>
      <set comment="kpoint 29">
       <r>  -35.0346    1.0000 </r>
       <r>  -35.0326    1.0000 </r>
       <r>  -34.9187    1.0000 </r>
       <r>  -34.9169    1.0000 </r>
       <r>  -34.8718    1.0000 </r>
       <r>  -34.8700    1.0000 </r>
       <r>  -12.6424    1.0000 </r>
       <r>  -12.5858    1.0000 </r>
       <r>  -12.1392    1.0000 </r>
       <r>  -12.0713    1.0000 </r>
       <r>   -5.0160    1.0000 </r>
       <r>   -4.9066    1.0000 </r>
       <r>   -4.0951    1.0000 </r>
       <r>   -4.0303    1.0000 </r>
       <r>   -3.8295    1.0000 </r>
       <r>   -3.6027    1.0000 </r>
       <r>   -3.3104    1.0000 </r>
       <r>   -3.1368    1.0000 </r>
       <r>   -2.0707    1.0000 </r>
       <r>   -2.0348    1.0000 </r>
       <r>   -1.4158    1.0000 </r>
       <r>   -1.1029    1.0000 </r>
       <r>   -0.8356    1.0000 </r>
       <r>   -0.7762    1.0000 </r>
       <r>    1.7861   -0.0000 </r>
       <r>    2.0661   -0.0000 </r>
       <r>    2.3908   -0.0000 </r>
       <r>    2.4742   -0.0000 </r>
       <r>    2.7708   -0.0000 </r>
       <r>    2.9996   -0.0000 </r>
       <r>    4.1493    0.0000 </r>
       <r>    4.3233    0.0000 </r>
       <r>    7.3934    0.0000 </r>
       <r>    7.5785    0.0000 </r>
       <r>    8.0259    0.0000 </r>
       <r>    8.5466    0.0000 </r>
      </set>
      <set comment="kpoint 30">
       <r>  -34.9718    1.0000 </r>
       <r>  -34.9698    1.0000 </r>
       <r>  -34.9339    1.0000 </r>
       <r>  -34.9321    1.0000 </r>
       <r>  -34.8415    1.0000 </r>
       <r>  -34.8397    1.0000 </r>
       <r>  -13.0473    1.0000 </r>
       <r>  -12.9885    1.0000 </r>
       <r>  -12.3106    1.0000 </r>
       <r>  -12.2327    1.0000 </r>
       <r>   -4.9464    1.0000 </r>
       <r>   -4.7373    1.0000 </r>
       <r>   -3.8288    1.0000 </r>
       <r>   -3.6940    1.0000 </r>
       <r>   -3.5145    1.0000 </r>
       <r>   -3.3823    1.0000 </r>
       <r>   -3.0966    1.0000 </r>
       <r>   -2.9668    1.0000 </r>
       <r>   -1.9376    1.0000 </r>
       <r>   -1.9184    1.0000 </r>
       <r>   -1.2035    1.0000 </r>
       <r>   -0.8841    1.0000 </r>
       <r>   -0.7801    1.0000 </r>
       <r>   -0.6525    1.0000 </r>
       <r>    1.7536   -0.0000 </r>
       <r>    2.0149   -0.0000 </r>
       <r>    2.3170   -0.0000 </r>
       <r>    2.4351   -0.0000 </r>
       <r>    2.5156   -0.0000 </r>
       <r>    2.7340   -0.0000 </r>
       <r>    3.9069    0.0000 </r>
       <r>    4.0297    0.0000 </r>
       <r>    6.7189    0.0000 </r>
       <r>    6.9912    0.0000 </r>
       <r>    7.7576    0.0000 </r>
       <r>    8.5796    0.0000 </r>
      </set>
      <set comment="kpoint 31">
       <r>  -34.9482    1.0000 </r>
       <r>  -34.9464    1.0000 </r>
       <r>  -34.9096    1.0000 </r>
       <r>  -34.9076    1.0000 </r>
       <r>  -34.8152    1.0000 </r>
       <r>  -34.8133    1.0000 </r>
       <r>  -13.3951    1.0000 </r>
       <r>  -13.3354    1.0000 </r>
       <r>  -12.4579    1.0000 </r>
       <r>  -12.3715    1.0000 </r>
       <r>   -5.1241    1.0000 </r>
       <r>   -4.8392    1.0000 </r>
       <r>   -3.5654    1.0000 </r>
       <r>   -3.5159    1.0000 </r>
       <r>   -3.2243    1.0000 </r>
       <r>   -2.9863    1.0000 </r>
       <r>   -2.4611    1.0000 </r>
       <r>   -2.4189    1.0000 </r>
       <r>   -2.0633    1.0000 </r>
       <r>   -2.0544    1.0000 </r>
       <r>   -1.2181    1.0000 </r>
       <r>   -0.8448    1.0000 </r>
       <r>   -0.5467    1.0000 </r>
       <r>   -0.3400    1.0000 </r>
       <r>    1.9436   -0.0000 </r>
       <r>    2.2091   -0.0000 </r>
       <r>    2.3889   -0.0000 </r>
       <r>    2.4495   -0.0000 </r>
       <r>    2.4690   -0.0000 </r>
       <r>    2.6574   -0.0000 </r>
       <r>    3.5274    0.0000 </r>
       <r>    3.5940    0.0000 </r>
       <r>    6.1816    0.0000 </r>
       <r>    6.4972    0.0000 </r>
       <r>    7.2457    0.0000 </r>
       <r>    8.2609    0.0000 </r>
      </set>
      <set comment="kpoint 32">
       <r>  -34.9583    1.0000 </r>
       <r>  -34.9565    1.0000 </r>
       <r>  -34.8616    1.0000 </r>
       <r>  -34.8597    1.0000 </r>
       <r>  -34.8001    1.0000 </r>
       <r>  -34.7981    1.0000 </r>
       <r>  -13.6263    1.0000 </r>
       <r>  -13.5663    1.0000 </r>
       <r>  -12.5556    1.0000 </r>
       <r>  -12.4636    1.0000 </r>
       <r>   -5.3252    1.0000 </r>
       <r>   -5.0218    1.0000 </r>
       <r>   -3.2506    1.0000 </r>
       <r>   -3.2273    1.0000 </r>
       <r>   -2.9537    1.0000 </r>
       <r>   -2.6668    1.0000 </r>
       <r>   -2.2582    1.0000 </r>
       <r>   -2.2530    1.0000 </r>
       <r>   -1.9853    1.0000 </r>
       <r>   -1.9778    1.0000 </r>
       <r>   -1.3013    1.0000 </r>
       <r>   -0.8952    1.0000 </r>
       <r>   -0.3715    1.0000 </r>
       <r>   -0.0752    1.0000 </r>
       <r>    2.1590   -0.0000 </r>
       <r>    2.3834   -0.0000 </r>
       <r>    2.4982   -0.0000 </r>
       <r>    2.5649   -0.0000 </r>
       <r>    2.5980   -0.0000 </r>
       <r>    2.6596   -0.0000 </r>
       <r>    3.2036    0.0000 </r>
       <r>    3.2323    0.0000 </r>
       <r>    5.8499    0.0000 </r>
       <r>    6.1791    0.0000 </r>
       <r>    6.9827    0.0000 </r>
       <r>    7.7903    0.0000 </r>
      </set>
      <set comment="kpoint 33">
       <r>  -34.9619    1.0000 </r>
       <r>  -34.9601    1.0000 </r>
       <r>  -34.8420    1.0000 </r>
       <r>  -34.8402    1.0000 </r>
       <r>  -34.7968    1.0000 </r>
       <r>  -34.7947    1.0000 </r>
       <r>  -13.7070    1.0000 </r>
       <r>  -13.6470    1.0000 </r>
       <r>  -12.5895    1.0000 </r>
       <r>  -12.4957    1.0000 </r>
       <r>   -5.4035    1.0000 </r>
       <r>   -5.0969    1.0000 </r>
       <r>   -3.1105    1.0000 </r>
       <r>   -3.0951    1.0000 </r>
       <r>   -2.7940    1.0000 </r>
       <r>   -2.4652    1.0000 </r>
       <r>   -2.3459    1.0000 </r>
       <r>   -2.3401    1.0000 </r>
       <r>   -1.9677    1.0000 </r>
       <r>   -1.9516    1.0000 </r>
       <r>   -1.2199    1.0000 </r>
       <r>   -0.8479    1.0000 </r>
       <r>   -0.3146    1.0000 </r>
       <r>    0.0207    1.0003 </r>
       <r>    2.2751   -0.0000 </r>
       <r>    2.4392   -0.0000 </r>
       <r>    2.4637   -0.0000 </r>
       <r>    2.5911   -0.0000 </r>
       <r>    2.6184   -0.0000 </r>
       <r>    2.6696   -0.0000 </r>
       <r>    3.1291    0.0000 </r>
       <r>    3.1707    0.0000 </r>
       <r>    5.7372    0.0000 </r>
       <r>    6.0719    0.0000 </r>
       <r>    6.9666    0.0000 </r>
       <r>    7.6164    0.0000 </r>
      </set>
      <set comment="kpoint 34">
       <r>  -34.9433    1.0000 </r>
       <r>  -34.9419    1.0000 </r>
       <r>  -34.9414    1.0000 </r>
       <r>  -34.9402    1.0000 </r>
       <r>  -34.8190    1.0000 </r>
       <r>  -34.8169    1.0000 </r>
       <r>  -13.2516    1.0000 </r>
       <r>  -13.1926    1.0000 </r>
       <r>  -12.3980    1.0000 </r>
       <r>  -12.3157    1.0000 </r>
       <r>   -5.0591    1.0000 </r>
       <r>   -4.8072    1.0000 </r>
       <r>   -3.7312    1.0000 </r>
       <r>   -3.6445    1.0000 </r>
       <r>   -3.4799    1.0000 </r>
       <r>   -3.2847    1.0000 </r>
       <r>   -2.3825    1.0000 </r>
       <r>   -2.3708    1.0000 </r>
       <r>   -1.8917    1.0000 </r>
       <r>   -1.8809    1.0000 </r>
       <r>   -1.4838    1.0000 </r>
       <r>   -1.0771    1.0000 </r>
       <r>   -0.6897    1.0000 </r>
       <r>   -0.5272    1.0000 </r>
       <r>    1.9419   -0.0000 </r>
       <r>    2.2592   -0.0000 </r>
       <r>    2.3114   -0.0000 </r>
       <r>    2.3527   -0.0000 </r>
       <r>    2.6944   -0.0000 </r>
       <r>    2.9316   -0.0000 </r>
       <r>    3.5765    0.0000 </r>
       <r>    3.6269    0.0000 </r>
       <r>    6.3857    0.0000 </r>
       <r>    6.6734    0.0000 </r>
       <r>    7.4026    0.0000 </r>
       <r>    8.1836    0.0000 </r>
      </set>
      <set comment="kpoint 35">
       <r>  -34.9899    1.0000 </r>
       <r>  -34.9881    1.0000 </r>
       <r>  -34.9316    1.0000 </r>
       <r>  -34.9298    1.0000 </r>
       <r>  -34.8377    1.0000 </r>
       <r>  -34.8357    1.0000 </r>
       <r>  -12.9858    1.0000 </r>
       <r>  -12.9280    1.0000 </r>
       <r>  -12.2861    1.0000 </r>
       <r>  -12.2106    1.0000 </r>
       <r>   -4.9935    1.0000 </r>
       <r>   -4.8128    1.0000 </r>
       <r>   -3.8919    1.0000 </r>
       <r>   -3.7360    1.0000 </r>
       <r>   -3.7103    1.0000 </r>
       <r>   -3.5732    1.0000 </r>
       <r>   -2.8579    1.0000 </r>
       <r>   -2.7798    1.0000 </r>
       <r>   -1.7866    1.0000 </r>
       <r>   -1.7655    1.0000 </r>
       <r>   -1.4335    1.0000 </r>
       <r>   -1.0854    1.0000 </r>
       <r>   -0.8484    1.0000 </r>
       <r>   -0.7321    1.0000 </r>
       <r>    1.8475   -0.0000 </r>
       <r>    2.0900   -0.0000 </r>
       <r>    2.2742   -0.0000 </r>
       <r>    2.3986   -0.0000 </r>
       <r>    2.7465   -0.0000 </r>
       <r>    2.9776   -0.0000 </r>
       <r>    3.8653    0.0000 </r>
       <r>    3.9719    0.0000 </r>
       <r>    6.8012    0.0000 </r>
       <r>    7.0498    0.0000 </r>
       <r>    7.8379    0.0000 </r>
       <r>    8.2809    0.0000 </r>
      </set>
      <set comment="kpoint 36">
       <r>  -35.0345    1.0000 </r>
       <r>  -35.0326    1.0000 </r>
       <r>  -34.9187    1.0000 </r>
       <r>  -34.9169    1.0000 </r>
       <r>  -34.8719    1.0000 </r>
       <r>  -34.8700    1.0000 </r>
[...]
       <r>    -2.1266     2.1956    18.6267 </r>
       <r>    -1.9643     4.3554    19.3337 </r>
       <r>    -1.8019     2.3938    19.7222 </r>
       <r>    -1.6396     3.3868    20.2720 </r>
       <r>    -1.4773     2.7875    20.7245 </r>
       <r>    -1.3150     3.3550    21.2691 </r>
       <r>    -1.1527     1.5126    21.5146 </r>
       <r>    -0.9903     1.7705    21.8020 </r>
       <r>    -0.8280     2.6187    22.2271 </r>
       <r>    -0.6657     3.4466    22.7865 </r>
       <r>    -0.5034     2.5303    23.1972 </r>
       <r>    -0.3410     2.4594    23.5965 </r>
       <r>    -0.1787     1.3362    23.8134 </r>
       <r>    -0.0164     0.7234    23.9308 </r>
       <r>     0.1459     0.2180    23.9662 </r>
       <r>     0.3083     0.2116    24.0005 </r>
       <r>     0.4706    -0.0029    24.0000 </r>
       <r>     0.6329    -0.0002    24.0000 </r>
       <r>     0.7952    -0.0000    24.0000 </r>
       <r>     0.9576    -0.0000    24.0000 </r>
       <r>     1.1199    -0.0000    24.0000 </r>
       <r>     1.2822    -0.0000    24.0000 </r>
       <r>     1.4445    -0.0004    23.9999 </r>
       <r>     1.6069    -0.0205    23.9966 </r>
       <r>     1.7692     0.7166    24.1129 </r>
       <r>     1.9315     1.7754    24.4011 </r>
       <r>     2.0938     3.9400    25.0407 </r>
       <r>     2.2561     4.8670    25.8307 </r>
       <r>     2.4185     3.8494    26.4556 </r>
       <r>     2.5808     5.2585    27.3091 </r>
       <r>     2.7431     4.1976    27.9905 </r>
       <r>     2.9054     3.0611    28.4874 </r>
       <r>     3.0678     2.6896    28.9240 </r>
       <r>     3.2301     2.7090    29.3637 </r>
       <r>     3.3924     1.9433    29.6792 </r>
       <r>     3.5547     1.8950    29.9868 </r>
       <r>     3.7171     1.4950    30.2294 </r>
       <r>     3.8794     1.3440    30.4476 </r>
       <r>     4.0417     2.1561    30.7976 </r>
       <r>     4.2040     2.8621    31.2622 </r>
       <r>     4.3664     1.7262    31.5424 </r>
       <r>     4.5287     1.5856    31.7998 </r>
       <r>     4.6910     0.7408    31.9200 </r>
       <r>     4.8533     0.4190    31.9880 </r>
       <r>     5.0157     0.0773    32.0006 </r>
       <r>     5.1780    -0.0040    31.9999 </r>
       <r>     5.3403     0.0059    32.0009 </r>
       <r>     5.5026     0.1498    32.0252 </r>
       <r>     5.6650     0.1165    32.0441 </r>
       <r>     5.8273     0.4085    32.1104 </r>
       <r>     5.9896     0.6444    32.2150 </r>
       <r>     6.1519     0.4393    32.2863 </r>
       <r>     6.3142     0.9720    32.4441 </r>
       <r>     6.4766     0.8914    32.5888 </r>
       <r>     6.6389     1.0246    32.7551 </r>
       <r>     6.8012     1.1433    32.9407 </r>
       <r>     6.9635     1.4266    33.1723 </r>
       <r>     7.1259     2.1273    33.5176 </r>
       <r>     7.2882     1.0039    33.6805 </r>
       <r>     7.4505     1.4898    33.9224 </r>
       <r>     7.6128     2.2095    34.2810 </r>
       <r>     7.7752     1.1823    34.4729 </r>
       <r>     7.9375     1.1448    34.6588 </r>
       <r>     8.0998     1.4667    34.8969 </r>
       <r>     8.2621     2.7968    35.3508 </r>
       <r>     8.4245     0.9543    35.5057 </r>
       <r>     8.5868     1.2546    35.7094 </r>
       <r>     8.7491     0.9731    35.8673 </r>
       <r>     8.9114     0.6439    35.9719 </r>
       <r>     9.0738     0.1520    35.9965 </r>
       <r>     9.2361     0.0224    36.0002 </r>
       <r>     9.3984    -0.0011    36.0000 </r>
       <r>     9.5607    -0.0000    36.0000 </r>
       <r>     9.7230    -0.0000    36.0000 </r>
       <r>     9.8854     0.0000    36.0000 </r>
       <r>    10.0477     0.0000    36.0000 </r>
       <r>    10.2100     0.0000    36.0000 </r>
       <r>    10.3723     0.0000    36.0000 </r>
       <r>    10.5347     0.0000    36.0000 </r>
       <r>    10.6970     0.0000    36.0000 </r>
       <r>    10.8593     0.0000    36.0000 </r>
       <r>    11.0216     0.0000    36.0000 </r>
       <r>    11.1840     0.0000    36.0000 </r>
       <r>    11.3463     0.0000    36.0000 </r>
      </set>
      <set comment="spin 2">
       <r>   -37.3509     0.0000     0.0000 </r>
       <r>   -37.1885     0.0000     0.0000 </r>
       <r>   -37.0262     0.0000     0.0000 </r>
       <r>   -36.8639     0.0000     0.0000 </r>
       <r>   -36.7016     0.0000     0.0000 </r>
       <r>   -36.5393     0.0000     0.0000 </r>
       <r>   -36.3769     0.0000     0.0000 </r>
       <r>   -36.2146     0.0000     0.0000 </r>
       <r>   -36.0523    -0.0000    -0.0000 </r>
       <r>   -35.8900    -0.0000    -0.0000 </r>
       <r>   -35.7276    -0.0000    -0.0000 </r>
       <r>   -35.5653    -0.0000    -0.0000 </r>
       <r>   -35.4030    -0.0009    -0.0001 </r>
       <r>   -35.2407    -0.1926    -0.0314 </r>
       <r>   -35.0783     4.2783     0.6631 </r>
       <r>   -34.9160    15.6332     3.2007 </r>
       <r>   -34.7537    17.3102     6.0106 </r>
       <r>   -34.5914    -0.0417     6.0038 </r>
       <r>   -34.4290    -0.0234     6.0000 </r>
       <r>   -34.2667    -0.0000     6.0000 </r>
       <r>   -34.1044    -0.0000     6.0000 </r>
       <r>   -33.9421     0.0000     6.0000 </r>
       <r>   -33.7797     0.0000     6.0000 </r>
       <r>   -33.6174     0.0000     6.0000 </r>
       <r>   -33.4551     0.0000     6.0000 </r>
       <r>   -33.2928     0.0000     6.0000 </r>
       <r>   -33.1305     0.0000     6.0000 </r>
       <r>   -32.9681     0.0000     6.0000 </r>
       <r>   -32.8058     0.0000     6.0000 </r>
       <r>   -32.6435     0.0000     6.0000 </r>
       <r>   -32.4812     0.0000     6.0000 </r>
       <r>   -32.3188     0.0000     6.0000 </r>
       <r>   -32.1565     0.0000     6.0000 </r>
       <r>   -31.9942     0.0000     6.0000 </r>
       <r>   -31.8319     0.0000     6.0000 </r>
       <r>   -31.6695     0.0000     6.0000 </r>
       <r>   -31.5072     0.0000     6.0000 </r>
       <r>   -31.3449     0.0000     6.0000 </r>
       <r>   -31.1826     0.0000     6.0000 </r>
       <r>   -31.0202     0.0000     6.0000 </r>
       <r>   -30.8579     0.0000     6.0000 </r>
       <r>   -30.6956     0.0000     6.0000 </r>
       <r>   -30.5333     0.0000     6.0000 </r>
       <r>   -30.3709     0.0000     6.0000 </r>
       <r>   -30.2086     0.0000     6.0000 </r>
       <r>   -30.0463     0.0000     6.0000 </r>
       <r>   -29.8840     0.0000     6.0000 </r>
       <r>   -29.7216     0.0000     6.0000 </r>
       <r>   -29.5593     0.0000     6.0000 </r>
       <r>   -29.3970     0.0000     6.0000 </r>
       <r>   -29.2347     0.0000     6.0000 </r>
       <r>   -29.0724     0.0000     6.0000 </r>
       <r>   -28.9100     0.0000     6.0000 </r>
       <r>   -28.7477     0.0000     6.0000 </r>
       <r>   -28.5854     0.0000     6.0000 </r>
       <r>   -28.4231     0.0000     6.0000 </r>
       <r>   -28.2607     0.0000     6.0000 </r>
       <r>   -28.0984     0.0000     6.0000 </r>
       <r>   -27.9361     0.0000     6.0000 </r>
       <r>   -27.7738     0.0000     6.0000 </r>
       <r>   -27.6114     0.0000     6.0000 </r>
       <r>   -27.4491     0.0000     6.0000 </r>
       <r>   -27.2868     0.0000     6.0000 </r>
       <r>   -27.1245     0.0000     6.0000 </r>
       <r>   -26.9621     0.0000     6.0000 </r>
       <r>   -26.7998     0.0000     6.0000 </r>
       <r>   -26.6375     0.0000     6.0000 </r>
       <r>   -26.4752     0.0000     6.0000 </r>
       <r>   -26.3128     0.0000     6.0000 </r>
       <r>   -26.1505     0.0000     6.0000 </r>
       <r>   -25.9882     0.0000     6.0000 </r>
       <r>   -25.8259     0.0000     6.0000 </r>
       <r>   -25.6636     0.0000     6.0000 </r>
       <r>   -25.5012     0.0000     6.0000 </r>
       <r>   -25.3389     0.0000     6.0000 </r>
       <r>   -25.1766     0.0000     6.0000 </r>
       <r>   -25.0143     0.0000     6.0000 </r>
       <r>   -24.8519     0.0000     6.0000 </r>
       <r>   -24.6896     0.0000     6.0000 </r>
       <r>   -24.5273     0.0000     6.0000 </r>
       <r>   -24.3650     0.0000     6.0000 </r>
       <r>   -24.2026     0.0000     6.0000 </r>
       <r>   -24.0403     0.0000     6.0000 </r>
       <r>   -23.8780     0.0000     6.0000 </r>
       <r>   -23.7157     0.0000     6.0000 </r>
       <r>   -23.5533     0.0000     6.0000 </r>
       <r>   -23.3910     0.0000     6.0000 </r>
       <r>   -23.2287     0.0000     6.0000 </r>
       <r>   -23.0664     0.0000     6.0000 </r>
       <r>   -22.9040     0.0000     6.0000 </r>
       <r>   -22.7417     0.0000     6.0000 </r>
       <r>   -22.5794     0.0000     6.0000 </r>
       <r>   -22.4171     0.0000     6.0000 </r>
       <r>   -22.2548     0.0000     6.0000 </r>
       <r>   -22.0924     0.0000     6.0000 </r>
       <r>   -21.9301     0.0000     6.0000 </r>
       <r>   -21.7678     0.0000     6.0000 </r>
       <r>   -21.6055     0.0000     6.0000 </r>
       <r>   -21.4431     0.0000     6.0000 </r>
       <r>   -21.2808     0.0000     6.0000 </r>
       <r>   -21.1185     0.0000     6.0000 </r>
       <r>   -20.9562     0.0000     6.0000 </r>
       <r>   -20.7938     0.0000     6.0000 </r>
       <r>   -20.6315     0.0000     6.0000 </r>
       <r>   -20.4692     0.0000     6.0000 </r>
       <r>   -20.3069     0.0000     6.0000 </r>
       <r>   -20.1445     0.0000     6.0000 </r>
       <r>   -19.9822     0.0000     6.0000 </r>
       <r>   -19.8199     0.0000     6.0000 </r>
       <r>   -19.6576     0.0000     6.0000 </r>
       <r>   -19.4952     0.0000     6.0000 </r>
       <r>   -19.3329     0.0000     6.0000 </r>
       <r>   -19.1706     0.0000     6.0000 </r>
       <r>   -19.0083     0.0000     6.0000 </r>
       <r>   -18.8460     0.0000     6.0000 </r>
       <r>   -18.6836     0.0000     6.0000 </r>
       <r>   -18.5213     0.0000     6.0000 </r>
       <r>   -18.3590     0.0000     6.0000 </r>
       <r>   -18.1967     0.0000     6.0000 </r>
       <r>   -18.0343     0.0000     6.0000 </r>
       <r>   -17.8720     0.0000     6.0000 </r>
       <r>   -17.7097     0.0000     6.0000 </r>
       <r>   -17.5474     0.0000     6.0000 </r>
       <r>   -17.3850     0.0000     6.0000 </r>
       <r>   -17.2227     0.0000     6.0000 </r>
       <r>   -17.0604     0.0000     6.0000 </r>
       <r>   -16.8981     0.0000     6.0000 </r>
       <r>   -16.7357     0.0000     6.0000 </r>
       <r>   -16.5734     0.0000     6.0000 </r>
       <r>   -16.4111     0.0000     6.0000 </r>
       <r>   -16.2488     0.0000     6.0000 </r>
       <r>   -16.0864     0.0000     6.0000 </r>
       <r>   -15.9241     0.0000     6.0000 </r>
       <r>   -15.7618     0.0000     6.0000 </r>
       <r>   -15.5995     0.0000     6.0000 </r>
       <r>   -15.4372     0.0000     6.0000 </r>
       <r>   -15.2748     0.0000     6.0000 </r>
       <r>   -15.1125     0.0000     6.0000 </r>
       <r>   -14.9502     0.0000     6.0000 </r>
       <r>   -14.7879    -0.0000     6.0000 </r>
       <r>   -14.6255    -0.0000     6.0000 </r>
       <r>   -14.4632    -0.0000     6.0000 </r>
       <r>   -14.3009    -0.0000     6.0000 </r>
       <r>   -14.1386    -0.0008     5.9999 </r>
       <r>   -13.9762     0.0045     6.0006 </r>
       <r>   -13.8139     0.3697     6.0606 </r>
       <r>   -13.6516     0.5049     6.1426 </r>
       <r>   -13.4893     0.4970     6.2232 </r>
       <r>   -13.3269     0.6773     6.3332 </r>
       <r>   -13.1646     0.5775     6.4269 </r>
       <r>   -13.0023     0.5085     6.5095 </r>
       <r>   -12.8400     0.9470     6.6632 </r>
       <r>   -12.6776     0.5148     6.7468 </r>
       <r>   -12.5153     2.2289     7.1086 </r>
       <r>   -12.3530     2.0516     7.4416 </r>
       <r>   -12.1907     3.4074     7.9947 </r>
       <r>   -12.0283     4.1348     8.6659 </r>
       <r>   -11.8660     5.6686     9.5860 </r>
       <r>   -11.7037     2.5700    10.0032 </r>
       <r>   -11.5414    -0.0163    10.0005 </r>
       <r>   -11.3791    -0.0033    10.0000 </r>
       <r>   -11.2167    -0.0000    10.0000 </r>
       <r>   -11.0544    -0.0000    10.0000 </r>
       <r>   -10.8921     0.0000    10.0000 </r>
       <r>   -10.7298     0.0000    10.0000 </r>
       <r>   -10.5674     0.0000    10.0000 </r>
       <r>   -10.4051     0.0000    10.0000 </r>
       <r>   -10.2428     0.0000    10.0000 </r>
       <r>   -10.0805     0.0000    10.0000 </r>
       <r>    -9.9181     0.0000    10.0000 </r>
       <r>    -9.7558     0.0000    10.0000 </r>
       <r>    -9.5935     0.0000    10.0000 </r>
       <r>    -9.4312     0.0000    10.0000 </r>
       <r>    -9.2688     0.0000    10.0000 </r>
       <r>    -9.1065     0.0000    10.0000 </r>
       <r>    -8.9442     0.0000    10.0000 </r>
       <r>    -8.7819     0.0000    10.0000 </r>
       <r>    -8.6195     0.0000    10.0000 </r>
       <r>    -8.4572     0.0000    10.0000 </r>
       <r>    -8.2949     0.0000    10.0000 </r>
       <r>    -8.1326     0.0000    10.0000 </r>
       <r>    -7.9703     0.0000    10.0000 </r>
       <r>    -7.8079     0.0000    10.0000 </r>
       <r>    -7.6456     0.0000    10.0000 </r>
       <r>    -7.4833     0.0000    10.0000 </r>
       <r>    -7.3210     0.0000    10.0000 </r>
       <r>    -7.1586     0.0000    10.0000 </r>
       <r>    -6.9963     0.0000    10.0000 </r>
       <r>    -6.8340     0.0000    10.0000 </r>
       <r>    -6.6717     0.0000    10.0000 </r>
       <r>    -6.5093    -0.0000    10.0000 </r>
       <r>    -6.3470    -0.0000    10.0000 </r>
       <r>    -6.1847    -0.0000    10.0000 </r>
       <r>    -6.0224    -0.0000    10.0000 </r>
       <r>    -5.8600    -0.0031     9.9995 </r>
       <r>    -5.6977     0.0458    10.0069 </r>
       <r>    -5.5354     1.0050    10.1701 </r>
       <r>    -5.3731     1.4907    10.4120 </r>
       <r>    -5.2107     2.4107    10.8034 </r>
       <r>    -5.0484     3.4938    11.3705 </r>
       <r>    -4.8861     4.4996    12.1009 </r>
       <r>    -4.7238     2.0911    12.4403 </r>
       <r>    -4.5615     2.6243    12.8663 </r>
       <r>    -4.3991     0.6116    12.9656 </r>
       <r>    -4.2368     0.5938    13.0620 </r>
       <r>    -4.0745     1.1765    13.2529 </r>
       <r>    -3.9122     2.6847    13.6887 </r>
       <r>    -3.7498     4.4423    14.4098 </r>
       <r>    -3.5875     3.6646    15.0047 </r>
       <r>    -3.4252     2.2617    15.3718 </r>
       <r>    -3.2629     1.6207    15.6349 </r>
       <r>    -3.1005     4.7977    16.4137 </r>
       <r>    -2.9382     4.5517    17.1525 </r>
       <r>    -2.7759     2.4518    17.5505 </r>
       <r>    -2.6136     1.1613    17.7390 </r>
       <r>    -2.4512     1.4763    17.9786 </r>
       <r>    -2.2889     1.7983    18.2705 </r>
       <r>    -2.1266     2.2010    18.6278 </r>
       <r>    -1.9643     4.3563    19.3349 </r>
       <r>    -1.8019     2.3888    19.7227 </r>
       <r>    -1.6396     3.3962    20.2740 </r>
       <r>    -1.4773     2.7813    20.7255 </r>
       <r>    -1.3150     3.3517    21.2695 </r>
       <r>    -1.1527     1.5140    21.5153 </r>
       <r>    -0.9903     1.7712    21.8028 </r>
       <r>    -0.8280     2.6245    22.2288 </r>
       <r>    -0.6657     3.4383    22.7869 </r>
       <r>    -0.5034     2.5301    23.1976 </r>
       <r>    -0.3410     2.4594    23.5969 </r>
       <r>    -0.1787     1.3351    23.8136 </r>
       <r>    -0.0164     0.7217    23.9307 </r>
       <r>     0.1459     0.2182    23.9661 </r>
       <r>     0.3083     0.2117    24.0005 </r>
       <r>     0.4706    -0.0029    24.0000 </r>
       <r>     0.6329    -0.0002    24.0000 </r>
       <r>     0.7952    -0.0000    24.0000 </r>
       <r>     0.9576    -0.0000    24.0000 </r>
       <r>     1.1199    -0.0000    24.0000 </r>
       <r>     1.2822    -0.0000    24.0000 </r>
       <r>     1.4445    -0.0004    23.9999 </r>
       <r>     1.6069    -0.0204    23.9966 </r>
       <r>     1.7692     0.7158    24.1128 </r>
       <r>     1.9315     1.7745    24.4009 </r>
       <r>     2.0938     3.9493    25.0419 </r>
       <r>     2.2561     4.8651    25.8316 </r>
       <r>     2.4185     3.8552    26.4574 </r>
       <r>     2.5808     5.2511    27.3098 </r>
       <r>     2.7431     4.1957    27.9909 </r>
       <r>     2.9054     3.0610    28.4877 </r>
       <r>     3.0678     2.6914    28.9246 </r>
       <r>     3.2301     2.7082    29.3642 </r>
       <r>     3.3924     1.9419    29.6794 </r>
       <r>     3.5547     1.8949    29.9870 </r>
       <r>     3.7171     1.4938    30.2295 </r>
       <r>     3.8794     1.3440    30.4477 </r>
       <r>     4.0417     2.1567    30.7978 </r>
       <r>     4.2040     2.8629    31.2625 </r>
       <r>     4.3664     1.7257    31.5426 </r>
       <r>     4.5287     1.5847    31.7999 </r>
       <r>     4.6910     0.7415    31.9202 </r>
       <r>     4.8533     0.4179    31.9881 </r>
       <r>     5.0157     0.0771    32.0006 </r>
       <r>     5.1780    -0.0040    31.9999 </r>
       <r>     5.3403     0.0060    32.0009 </r>
       <r>     5.5026     0.1328    32.0225 </r>
       <r>     5.6650     0.1204    32.0420 </r>
       <r>     5.8273     0.2987    32.0905 </r>
       <r>     5.9896     0.7569    32.2134 </r>
       <r>     6.1519     0.2563    32.2550 </r>
       <r>     6.3142     1.1304    32.4384 </r>
       <r>     6.4766     0.9734    32.5964 </r>
       <r>     6.6389     0.8859    32.7402 </r>
       <r>     6.8012     1.3982    32.9672 </r>
       <r>     6.9635     1.4301    33.1994 </r>
       <r>     7.1259     1.8662    33.5023 </r>
       <r>     7.2882     1.1332    33.6862 </r>
       <r>     7.4505     1.4448    33.9208 </r>
       <r>     7.6128     1.8800    34.2259 </r>
       <r>     7.7752     2.1060    34.5678 </r>
       <r>     7.9375     0.4317    34.6379 </r>
       <r>     8.0998     1.6176    34.9004 </r>
       <r>     8.2621     2.9262    35.3754 </r>
       <r>     8.4245     1.3536    35.5951 </r>
       <r>     8.5868     0.8198    35.7282 </r>
       <r>     8.7491     0.5836    35.8230 </r>
       <r>     8.9114     0.8647    35.9633 </r>
       <r>     9.0738     0.1406    35.9861 </r>
       <r>     9.2361     0.0884    36.0005 </r>
       <r>     9.3984    -0.0029    36.0000 </r>
       <r>     9.5607    -0.0000    36.0000 </r>
       <r>     9.7230    -0.0000    36.0000 </r>
       <r>     9.8854    -0.0000    36.0000 </r>
       <r>    10.0477     0.0000    36.0000 </r>
       <r>    10.2100     0.0000    36.0000 </r>
       <r>    10.3723     0.0000    36.0000 </r>
       <r>    10.5347     0.0000    36.0000 </r>
       <r>    10.6970     0.0000    36.0000 </r>
       <r>    10.8593     0.0000    36.0000 </r>
       <r>    11.0216     0.0000    36.0000 </r>
       <r>    11.1840     0.0000    36.0000 </r>
       <r>    11.3463     0.0000    36.0000 </r>
      </set>
     </set>
    </array>
   </total>
  </dos>
 </calculation>
 <structure name="finalpos" >
  <crystal>
   <varray name="basis" >
    <v>       3.19031700       0.00000000       0.00000000 </v>
    <v>      -1.59515800       2.76289700       0.00000000 </v>
    <v>       0.00000000       0.00000000      23.14049200 </v>
   </varray>
   <i name="volume">    203.97226633 </i>
   <varray name="rec_basis" >
    <v>       0.31344848       0.18096941       0.00000000 </v>
    <v>       0.00000000       0.36193894       0.00000000 </v>
    <v>       0.00000000       0.00000000       0.04321429 </v>
   </varray>
  </crystal>
  <varray name="positions" >
   <v>       0.66666700       0.33333300       0.06785900 </v>
   <v>       0.33333300       0.66666700       0.00000000 </v>
   <v>       0.33333300       0.66666700       0.13571500 </v>
   <v>       0.80952414       0.47619014       0.35482300 </v>
   <v>       0.47619014       0.80952414       0.28696500 </v>
   <v>       0.47619014       0.80952414       0.42267900 </v>
  </varray>
 </structure>
</modeling>
