   24   24    1    1
  0.4176334E+02  0.3540400E-09  0.1044544E-08  0.2750143E-08  0.5000000E-15
  1.000000000000000E-004
  CAR 
 unknown system                          
    108     54     68
 
  0.0000000E+00  0.0000000E+00  0.0000000E+00  0.9615385E-02
    1      -15.305482
    2      -13.504734
    3      -12.990239
    4      -12.765146
    5      -12.615779
    6      -12.446406
    7      -12.072998
    8      -11.996006
    9      -11.519363
   10      -11.396324
   11      -10.954799
   12       -9.916958
   13       -9.093423
   14       -7.998379
   15       -7.793451
   16       -7.530851
   17       -6.882188
   18       -6.763289
   19       -6.454744
   20       -6.287401
   21       -5.787660
   22       -5.404428
   23       -4.994808
   24       -4.692402
   25       -4.491699
   26       -3.814494
   27       -3.659859
   28       -3.576420
   29       -3.419100
   30       -3.300747
   31       -3.036767
   32       -3.018778
   33       -2.870871
   34       -2.807739
   35       -2.731019
   36       -2.442000
   37       -2.384069
   38       -2.358443
   39       -2.178039
   40       -2.068361
   41       -1.959883
   42       -1.841575
   43       -1.762553
   44       -1.693388
   45       -1.614624
   46       -1.603679
   47       -1.547687
   48       -1.395754
   49       -1.342588
   50       -1.174129
   51       -1.059618
   52       -0.920554
   53       -0.583687
   54       -0.054772
   55        0.732352
   56        1.078201
   57        1.203642
   58        1.356934
   59        1.499964
   60        1.616899
   61        1.745311
   62        1.935083
   63        1.997119
   64        2.050293
   65        2.182090
   66        2.467720
   67        2.587392
   68        2.680587
 
  0.7692308E-01 -0.1387779E-16  0.0000000E+00  0.1923077E-01
    1      -15.252700
    2      -13.443383
    3      -12.936806
    4      -12.712975
    5      -12.558096
    6      -12.390807
    7      -12.013410
    8      -11.940059
    9      -11.469768
   10      -11.347397
   11      -10.906421
   12       -9.892104
   13       -9.088122
   14       -8.035033
   15       -7.756549
   16       -7.518265
   17       -6.855347
   18       -6.734325
   19       -6.449007
   20       -6.278534
   21       -5.753888
   22       -5.411341
   23       -5.194324
   24       -4.735213
   25       -4.625735
   26       -3.928741
   27       -3.784638
   28       -3.682153
   29       -3.560975
   30       -3.401043
   31       -3.294335
   32       -3.210154
   33       -3.096792
   34       -3.005016
   35       -2.722381
   36       -2.698073
   37       -2.548520
   38       -2.445622
   39       -2.385337
   40       -2.221815
   41       -2.157491
   42       -2.047161
   43       -1.933944
   44       -1.918031
   45       -1.808225
   46       -1.680037
   47       -1.540185
   48       -1.472464
   49       -1.305273
   50       -1.155336
   51       -1.021334
   52       -0.878720
   53       -0.494719
   54       -0.034397
   55        0.891836
   56        1.115106
   57        1.483764
   58        1.594986
   59        1.801022
   60        1.877118
   61        2.030429
   62        2.166176
   63        2.253819
   64        2.309733
   65        2.343217
   66        2.639079
   67        2.654276
   68        2.809930
 
  0.1538462E+00 -0.2775558E-16  0.0000000E+00  0.1923077E-01
    1      -15.097185
    2      -13.260400
    3      -12.778600
    4      -12.557184
    5      -12.388579
    6      -12.226079
    7      -11.841230
    8      -11.772795
    9      -11.325604
   10      -11.205441
   11      -10.767615
   12       -9.832735
   13       -9.094095
   14       -8.131337
   15       -7.714321
   16       -7.514757
   17       -6.812161
   18       -6.670210
   19       -6.461726
   20       -6.340859
   21       -5.852572
   22       -5.678973
   23       -5.341060
   24       -4.869785
   25       -4.793410
   26       -4.262509
   27       -4.170053
   28       -4.052690
   29       -3.980655
   30       -3.930979
   31       -3.681198
   32       -3.620549
   33       -3.516198
   34       -3.375187
   35       -3.137896
   36       -2.986511
   37       -2.951424
   38       -2.929464
   39       -2.770471
   40       -2.639728
   41       -2.427087
   42       -2.335559
   43       -2.128414
   44       -2.013695
   45       -1.913392
   46       -1.714797
   47       -1.634046
   48       -1.544217
   49       -1.304509
   50       -1.143577
   51       -0.935602
   52       -0.753759
   53       -0.272856
   54        0.086248
   55        0.455805
   56        1.042976
   57        1.576465
   58        1.784616
   59        1.985983
   60        2.282350
   61        2.464683
   62        2.564202
   63        2.641884
   64        2.709637
   65        2.719631
   66        2.784621
   67        2.978861
   68        3.097073
 
  0.2307692E+00 -0.4163336E-16  0.0000000E+00  0.1923077E-01
    1      -14.849123
    2      -12.959366
    3      -12.523869
    4      -12.300866
    5      -12.119684
    6      -11.959598
    7      -11.576545
    8      -11.499543
    9      -11.104287
   10      -10.988631
   11      -10.564524
   12       -9.803306
   13       -9.161156
   14       -8.322774
   15       -7.787758
   16       -7.640630
   17       -6.936848
   18       -6.654788
   19       -6.614985
   20       -6.584653
   21       -6.098395
   22       -5.701299
   23       -5.536594
   24       -5.302120
   25       -5.194186
   26       -4.783389
   27       -4.720578
   28       -4.567776
   29       -4.477999
   30       -4.404988
   31       -4.153474
   32       -4.025315
   33       -3.762758
   34       -3.720510
   35       -3.434284
   36       -3.324147
   37       -3.218726
   38       -2.965371
   39       -2.886725
   40       -2.698733
   41       -2.551253
   42       -2.511287
   43       -2.391995
   44       -2.079253
   45       -1.881982
   46       -1.809405
   47       -1.739776
   48       -1.685895
   49       -1.449814
   50       -1.329309
   51       -1.068262
   52       -0.788534
   53       -0.394728
   54       -0.091028
   55        0.394792
   56        0.866110
   57        1.529572
   58        1.566949
   59        1.898884
   60        2.058665
   61        2.289034
   62        2.410654
   63        2.537168
   64        2.682664
   65        2.726963
   66        2.862530
   67        2.918732
   68        3.036553
 
  0.3076923E+00 -0.5551115E-16  0.0000000E+00  0.1923077E-01
    1      -14.531842
    2      -12.547603
    3      -12.196676
    4      -11.952502
    5      -11.780453
    6      -11.608506
    7      -11.251083
    8      -11.150260
    9      -10.850371
   10      -10.744354
   11      -10.378654
   12       -9.938258
   13       -9.257567
   14       -8.617636
   15       -8.048565
   16       -7.950280
   17       -7.309112
   18       -6.959482
   19       -6.864814
   20       -6.753598
   21       -6.423226
   22       -6.125829
   23       -5.972477
   24       -5.922607
   25       -5.530920
   26       -5.175669
   27       -4.942929
   28       -4.744923
   29       -4.672294
   30       -4.620754
   31       -4.291849
   32       -4.200757
   33       -4.161291
   34       -3.754826
   35       -3.371123
   36       -3.284952
   37       -3.163184
   38       -3.049442
   39       -2.976012
   40       -2.825279
   41       -2.771261
   42       -2.602151
   43       -2.468377
   44       -2.181771
   45       -2.029256
   46       -1.969570
   47       -1.843041
   48       -1.827071
   49       -1.679625
   50       -1.444258
   51       -1.289950
   52       -1.132200
   53       -0.569265
   54       -0.352950
   55        0.258106
   56        0.648897
   57        1.266400
   58        1.378386
   59        1.634223
   60        1.805674
   61        2.024109
   62        2.259501
   63        2.322462
   64        2.387943
   65        2.654037
   66        2.721235
   67        2.857256
   68        2.913754
 
  0.3846154E+00 -0.8326673E-16  0.0000000E+00  0.1923077E-01
    1      -14.197316
    2      -12.039533
    3      -11.877435
    4      -11.533317
    5      -11.426000
    6      -11.211581
    7      -10.932761
    8      -10.813455
    9      -10.670093
   10      -10.589665
   11      -10.418824
   12      -10.132251
   13       -9.361499
   14       -8.793912
   15       -8.342011
   16       -8.294464
   17       -7.740487
   18       -7.422616
   19       -7.378533
   20       -7.081254
   21       -6.857820
   22       -6.722808
   23       -6.622965
   24       -6.244306
   25       -5.545345
   26       -5.178550
   27       -4.941312
   28       -4.603136
   29       -4.524702
   30       -4.480639
   31       -4.257096
   32       -4.182848
   33       -4.038741
   34       -3.827505
   35       -3.620669
   36       -3.283857
   37       -3.228999
   38       -3.176515
   39       -3.086073
   40       -3.004732
   41       -2.791564
   42       -2.701924
   43       -2.441391
   44       -2.341710
   45       -2.244959
   46       -2.135915
   47       -2.002511
   48       -1.941221
   49       -1.797034
   50       -1.607833
   51       -1.434076
   52       -1.345573
   53       -0.734004
   54       -0.448291
   55        0.133708
   56        0.396151
   57        1.007003
   58        1.083630
   59        1.434807
   60        1.727129
   61        1.766912
   62        2.046875
   63        2.143056
   64        2.293829
   65        2.356966
   66        2.517245
   67        2.680026
   68        2.775500
 
  0.4615385E+00 -0.8326673E-16  0.0000000E+00  0.1923077E-01
    1      -13.956149
    2      -11.747352
    3      -11.465070
    4      -11.111057
    5      -11.080616
    6      -10.910986
    7      -10.808266
    8      -10.782093
    9      -10.694093
   10      -10.677187
   11      -10.597280
   12      -10.038844
   13       -9.569547
   14       -8.651608
   15       -8.526498
   16       -8.403436
   17       -8.042788
   18       -7.894581
   19       -7.588406
   20       -7.534190
   21       -7.250534
   22       -7.156315
   23       -7.128250
   24       -6.106211
   25       -5.552194
   26       -4.936706
   27       -4.876410
   28       -4.481399
   29       -4.458611
   30       -4.256267
   31       -4.108060
   32       -4.008466
   33       -3.914068
   34       -3.796170
   35       -3.781231
   36       -3.578829
   37       -3.487256
   38       -3.249629
   39       -3.217560
   40       -2.985252
   41       -2.913465
   42       -2.733672
   43       -2.640672
   44       -2.493041
   45       -2.317243
   46       -2.170080
   47       -2.089335
   48       -1.996585
   49       -1.794624
   50       -1.678332
   51       -1.486340
   52       -1.326090
   53       -0.873061
   54       -0.447866
   55        0.059027
   56        0.184223
   57        0.774211
   58        0.950609
   59        1.408656
   60        1.584391
   61        1.687319
   62        1.856368
   63        2.059741
   64        2.120018
   65        2.404842
   66        2.477453
   67        2.542106
   68        2.599638
 
  0.0000000E+00  0.2500000E+00  0.0000000E+00  0.1923077E-01
    1      -15.304261
    2      -13.449395
    3      -13.050885
    4      -12.938508
    5      -12.513227
    6      -12.439818
    7      -12.070070
    8      -11.832140
    9      -11.522147
   10      -11.441357
   11      -10.963585
   12       -9.870289
   13       -9.145867
   14       -8.480057
   15       -7.629068
   16       -7.352247
   17       -6.855429
   18       -6.633033
   19       -6.564447
   20       -6.174235
   21       -5.710782
   22       -5.278858
   23       -5.015613
   24       -4.598165
   25       -4.405289
   26       -4.004190
   27       -3.815340
   28       -3.532489
   29       -3.416036
   30       -3.343183
   31       -3.255435
   32       -3.091692
   33       -2.892687
   34       -2.673179
   35       -2.637706
   36       -2.534407
   37       -2.362021
   38       -2.335547
   39       -2.225171
   40       -2.118748
   41       -2.004924
   42       -1.930954
   43       -1.847154
   44       -1.807443
   45       -1.648676
   46       -1.590954
   47       -1.409483
   48       -1.326856
   49       -1.322789
   50       -1.145748
   51       -1.034986
   52       -0.915762
   53       -0.526829
   54        0.037735
   55        0.703497
   56        1.107835
   57        1.238972
   58        1.404199
   59        1.521678
   60        1.621653
   61        1.761551
   62        1.856377
   63        1.914912
   64        2.233414
   65        2.309952
   66        2.583056
   67        2.634656
   68        2.687341
 
  0.7692308E-01  0.2500000E+00  0.0000000E+00  0.1923077E-01
    1      -15.251278
    2      -13.372558
    3      -13.006489
    4      -12.919331
    5      -12.436788
    6      -12.379042
    7      -12.030583
    8      -11.733224
    9      -11.471688
   10      -11.399986
   11      -10.919269
   12       -9.838761
   13       -9.141610
   14       -8.538581
   15       -7.642123
   16       -7.304275
   17       -6.841544
   18       -6.641839
   19       -6.493566
   20       -6.090489
   21       -5.662424
   22       -5.422814
   23       -5.099831
   24       -4.680749
   25       -4.596542
   26       -4.071256
   27       -3.958161
   28       -3.671258
   29       -3.566878
   30       -3.413635
   31       -3.351414
   32       -3.264803
   33       -3.025483
   34       -2.984210
   35       -2.764253
   36       -2.649317
   37       -2.616565
   38       -2.490897
   39       -2.446659
   40       -2.265375
   41       -2.213082
   42       -2.124331
   43       -1.981667
   44       -1.856290
   45       -1.795105
   46       -1.717191
   47       -1.598114
   48       -1.384655
   49       -1.305356
   50       -1.088550
   51       -0.996575
   52       -0.878040
   53       -0.502819
   54        0.071961
   55        0.867517
   56        1.095866
   57        1.544342
   58        1.621149
   59        1.814305
   60        1.860315
   61        1.993224
   62        2.075896
   63        2.266828
   64        2.462747
   65        2.551871
   66        2.690256
   67        2.800907
   68        2.952416
 
  0.1538462E+00  0.2500000E+00  0.0000000E+00  0.1923077E-01
    1      -15.095690
    2      -13.176028
    3      -12.850586
    4      -12.782736
    5      -12.258510
    6      -12.208883
    7      -11.887150
    8      -11.535907
    9      -11.322806
   10      -11.260478
   11      -10.778014
   12       -9.778377
   13       -9.151390
   14       -8.604217
   15       -7.601746
   16       -7.272611
   17       -6.857046
   18       -6.619961
   19       -6.463284
   20       -6.127092
   21       -5.923838
   22       -5.614904
   23       -5.211290
   24       -4.866712
   25       -4.789800
   26       -4.350473
   27       -4.310617
   28       -4.255548
   29       -3.942891
   30       -3.868600
   31       -3.739643
   32       -3.576192
   33       -3.412700
   34       -3.295719
   35       -3.085184
   36       -3.018195
   37       -2.927615
   38       -2.880895
   39       -2.771488
   40       -2.604715
   41       -2.561963
   42       -2.459373
   43       -2.286588
   44       -1.959422
   45       -1.867884
   46       -1.827612
   47       -1.669875
   48       -1.452020
   49       -1.286834
   50       -1.081543
   51       -0.904167
   52       -0.815076
   53       -0.376544
   54        0.130673
   55        0.466337
   56        1.098797
   57        1.533893
   58        1.675344
   59        1.826659
   60        2.142795
   61        2.379489
   62        2.476454
   63        2.775488
   64        2.846386
   65        2.933718
   66        2.953931
   67        3.098713
   68        3.108826
 
  0.2307692E+00  0.2500000E+00  0.0000000E+00  0.1923077E-01
    1      -14.847746
    2      -12.864682
    3      -12.591083
    4      -12.531296
    5      -11.989145
    6      -11.942388
    7      -11.648495
    8      -11.259923
    9      -11.090779
   10      -11.038576
   11      -10.560675
   12       -9.760335
   13       -9.216905
   14       -8.735400
   15       -7.603012
   16       -7.358828
   17       -7.087152
   18       -6.662100
   19       -6.612991
   20       -6.558974
   21       -5.980918
   22       -5.784021
   23       -5.570345
   24       -5.229062
   25       -5.168577
   26       -4.990656
   27       -4.688039
   28       -4.630029
   29       -4.520774
   30       -4.313216
   31       -4.151534
   32       -3.982924
   33       -3.711080
   34       -3.616010
   35       -3.368040
   36       -3.173604
   37       -3.133316
   38       -3.057166
   39       -2.938983
   40       -2.651865
   41       -2.617257
   42       -2.494386
   43       -2.461854
   44       -1.988187
   45       -1.944125
   46       -1.880375
   47       -1.795544
   48       -1.729834
   49       -1.427262
   50       -1.327807
   51       -1.039413
   52       -0.856767
   53       -0.421944
   54       -0.161593
   55        0.352240
   56        0.905714
   57        1.378634
   58        1.461661
   59        1.562959
   60        1.662920
   61        2.244581
   62        2.405177
   63        2.604150
   64        2.712011
   65        2.762764
   66        3.016532
   67        3.071338
   68        3.214469
 
  0.3076923E+00  0.2500000E+00  0.0000000E+00  0.1923077E-01
    1      -14.530709
    2      -12.448127
    3      -12.250562
    4      -12.172257
    5      -11.662896
    6      -11.600617
    7      -11.336448
    8      -10.947213
    9      -10.815993
   10      -10.774702
   11      -10.355119
   12       -9.929692
   13       -9.285006
   14       -8.934444
   15       -7.873103
   16       -7.671656
   17       -7.424550
   18       -7.076479
   19       -6.926636
   20       -6.745466
   21       -6.297825
   22       -6.153838
   23       -6.088481
   24       -5.881097
   25       -5.623582
   26       -5.343900
   27       -4.938010
   28       -4.900086
   29       -4.499037
   30       -4.377819
   31       -4.299408
   32       -4.193002
   33       -3.975116
   34       -3.762205
   35       -3.364089
   36       -3.292573
   37       -3.060193
   38       -2.967539
   39       -2.881028
   40       -2.827801
   41       -2.741464
   42       -2.532420
   43       -2.431837
   44       -2.279697
   45       -2.162221
   46       -1.996688
   47       -1.919254
   48       -1.841871
   49       -1.713462
   50       -1.499793
   51       -1.294477
   52       -1.043288
   53       -0.620832
   54       -0.482277
   55        0.245234
   56        0.609237
   57        1.040669
   58        1.211711
   59        1.291540
   60        1.342388
   61        2.167258
   62        2.231378
   63        2.346915
   64        2.477365
   65        2.632369
   66        2.743704
   67        2.891299
   68        2.985100
 
  0.3846154E+00  0.2500000E+00  0.0000000E+00  0.1923077E-01
    1      -14.196673
    2      -11.946902
    3      -11.902325
    4      -11.722251
    5      -11.363478
    6      -11.211152
    7      -11.008008
    8      -10.690159
    9      -10.613112
   10      -10.563865
   11      -10.431627
   12      -10.138923
   13       -9.364572
   14       -8.924334
   15       -8.286736
   16       -8.075759
   17       -7.785907
   18       -7.742025
   19       -7.321496
   20       -7.052101
   21       -6.799682
   22       -6.657481
   23       -6.621836
   24       -6.264560
   25       -5.700818
   26       -5.308497
   27       -4.968740
   28       -4.748063
   29       -4.519197
   30       -4.370688
   31       -4.129674
   32       -4.078537
   33       -3.826738
   34       -3.791870
   35       -3.320533
   36       -3.309918
   37       -3.245477
   38       -3.170334
   39       -3.081453
   40       -2.933871
   41       -2.816106
   42       -2.768837
   43       -2.586389
   44       -2.390192
   45       -2.262609
   46       -2.142517
   47       -2.037285
   48       -1.990463
   49       -1.813226
   50       -1.536115
   51       -1.435049
   52       -1.351765
   53       -0.756439
   54       -0.508935
   55        0.120731
   56        0.339981
   57        0.830315
   58        0.952309
   59        1.237289
   60        1.372018
   61        1.843183
   62        1.974843
   63        2.117936
   64        2.240608
   65        2.443085
   66        2.619036
   67        2.662765
   68        2.751925
 
  0.4615385E+00  0.2500000E+00  0.0000000E+00  0.1923077E-01
    1      -13.955973
    2      -11.750199
    3      -11.394405
    4      -11.227246
    5      -11.077448
    6      -10.923392
    7      -10.830276
    8      -10.796943
    9      -10.666019
   10      -10.663709
   11      -10.543084
   12      -10.022870
   13       -9.567595
   14       -8.565553
   15       -8.517655
   16       -8.363079
   17       -8.292056
   18       -7.904557
   19       -7.558555
   20       -7.480222
   21       -7.279835
   22       -7.132310
   23       -7.097217
   24       -6.065002
   25       -5.587747
   26       -5.049750
   27       -4.980997
   28       -4.436548
   29       -4.402183
   30       -4.217071
   31       -4.117895
   32       -4.069405
   33       -3.895206
   34       -3.683247
   35       -3.624525
   36       -3.501753
   37       -3.430489
   38       -3.357512
   39       -3.220565
   40       -2.977111
   41       -2.941767
   42       -2.765546
   43       -2.597583
   44       -2.562085
   45       -2.492587
   46       -2.133543
   47       -2.082758
   48       -1.986673
   49       -1.684207
   50       -1.665626
   51       -1.510885
   52       -1.350001
   53       -0.912532
   54       -0.454140
   55        0.060040
   56        0.211812
   57        0.797360
   58        0.912221
   59        1.456981
   60        1.539197
   61        1.594454
   62        1.762923
   63        1.984050
   64        2.194449
   65        2.312789
   66        2.464890
   67        2.510553
   68        2.571153
 
 -0.4615385E+00  0.2500000E+00  0.0000000E+00  0.1923077E-01
    1      -13.956296
    2      -11.749661
    3      -11.498691
    4      -11.060492
    5      -11.034688
    6      -10.897631
    7      -10.814705
    8      -10.770834
    9      -10.721076
   10      -10.665792
   11      -10.659343
   12      -10.042946
   13       -9.570575
   14       -8.720315
   15       -8.555768
   16       -8.397399
   17       -7.907925
   18       -7.868888
   19       -7.592973
   20       -7.567081
   21       -7.243916
   22       -7.188043
   23       -7.130872
   24       -6.088702
   25       -5.455682
   26       -5.012140
   27       -4.700892
   28       -4.542251
   29       -4.453247
   30       -4.334337
   31       -4.118478
   32       -3.988822
   33       -3.957946
   34       -3.876818
   35       -3.840139
   36       -3.634766
   37       -3.514274
   38       -3.323200
   39       -3.237696
   40       -2.971317
   41       -2.779163
   42       -2.679274
   43       -2.633502
   44       -2.592423
   45       -2.339801
   46       -2.128607
   47       -2.102040
   48       -1.952752
   49       -1.720304
   50       -1.660753
   51       -1.470037
   52       -1.349477
   53       -0.906315
   54       -0.424092
   55        0.045155
   56        0.335831
   57        0.831415
   58        1.107405
   59        1.399218
   60        1.675742
   61        1.770528
   62        1.809003
   63        2.068855
   64        2.260763
   65        2.343588
   66        2.401633
   67        2.472112
   68        2.603289
 
 -0.3846154E+00  0.2500000E+00  0.0000000E+00  0.1923077E-01
    1      -14.197568
    2      -12.065981
    3      -11.872416
    4      -11.449495
    5      -11.434354
    6      -11.208991
    7      -10.935055
    8      -10.888716
    9      -10.653555
   10      -10.592592
   11      -10.414320
   12      -10.145059
   13       -9.382755
   14       -8.705975
   15       -8.454609
   16       -8.309555
   17       -7.691527
   18       -7.403621
   19       -7.293303
   20       -7.110593
   21       -6.831045
   22       -6.772067
   23       -6.626699
   24       -6.224324
   25       -5.543198
   26       -5.040487
   27       -4.911844
   28       -4.796893
   29       -4.478948
   30       -4.375183
   31       -4.272408
   32       -4.204643
   33       -4.050723
   34       -3.864078
   35       -3.688825
   36       -3.486863
   37       -3.370107
   38       -3.208226
   39       -3.112843
   40       -2.932920
   41       -2.790258
   42       -2.644507
   43       -2.450118
   44       -2.361513
   45       -2.213325
   46       -2.123161
   47       -1.951340
   48       -1.905669
   49       -1.781168
   50       -1.530858
   51       -1.431890
   52       -1.332490
   53       -0.710985
   54       -0.351884
   55        0.094190
   56        0.548168
   57        0.984278
   58        1.234127
   59        1.421084
   60        1.809464
   61        1.923102
   62        2.134549
   63        2.234931
   64        2.300931
   65        2.367402
   66        2.466211
   67        2.493413
   68        2.682776
 
 -0.3076923E+00  0.2500000E+00  0.0000000E+00  0.1923077E-01
    1      -14.531978
    2      -12.559885
    3      -12.189309
    4      -11.911090
    5      -11.797260
    6      -11.607906
    7      -11.247961
    8      -11.186255
    9      -10.845092
   10      -10.736086
   11      -10.384751
   12       -9.939000
   13       -9.298358
   14       -8.518902
   15       -8.150909
   16       -7.909609
   17       -7.274625
   18       -6.964683
   19       -6.834595
   20       -6.761827
   21       -6.446032
   22       -6.119261
   23       -5.956111
   24       -5.921984
   25       -5.582454
   26       -5.119756
   27       -4.945495
   28       -4.834918
   29       -4.612823
   30       -4.545774
   31       -4.294598
   32       -4.219225
   33       -4.164897
   34       -3.812484
   35       -3.426716
   36       -3.326623
   37       -3.191876
   38       -3.051767
   39       -2.984006
   40       -2.861437
   41       -2.756292
   42       -2.624189
   43       -2.446708
   44       -2.209427
   45       -2.021753
   46       -1.956890
   47       -1.836796
   48       -1.826880
   49       -1.668712
   50       -1.355710
   51       -1.279324
   52       -1.102087
   53       -0.537957
   54       -0.218939
   55        0.244396
   56        0.700089
   57        1.198055
   58        1.329102
   59        1.676582
   60        1.933807
   61        2.024544
   62        2.275510
   63        2.398026
   64        2.475201
   65        2.573172
   66        2.691231
   67        2.755832
   68        2.838785
 
 -0.2307692E+00  0.2500000E+00  0.0000000E+00  0.1923077E-01
    1      -14.848993
    2      -12.955128
    3      -12.530782
    4      -12.315482
    5      -12.111882
    6      -11.959397
    7      -11.573246
    8      -11.485624
    9      -11.099773
   10      -10.992350
   11      -10.563099
   12       -9.790576
   13       -9.216483
   14       -8.363046
   15       -7.746604
   16       -7.501875
   17       -7.020119
   18       -6.689712
   19       -6.626358
   20       -6.597307
   21       -6.065803
   22       -5.702442
   23       -5.468780
   24       -5.297252
   25       -5.256990
   26       -4.800289
   27       -4.714813
   28       -4.562835
   29       -4.481457
   30       -4.391138
   31       -4.155006
   32       -4.080303
   33       -3.760558
   34       -3.693093
   35       -3.415484
   36       -3.331452
   37       -3.186684
   38       -2.959924
   39       -2.903554
   40       -2.687009
   41       -2.596942
   42       -2.513997
   43       -2.398781
   44       -2.145862
   45       -1.876473
   46       -1.830589
   47       -1.766434
   48       -1.678722
   49       -1.431118
   50       -1.222526
   51       -1.052957
   52       -0.763385
   53       -0.325888
   54       -0.026085
   55        0.387110
   56        0.805945
   57        1.367407
   58        1.538402
   59        1.863314
   60        2.045668
   61        2.269192
   62        2.391773
   63        2.541081
   64        2.712716
   65        2.829201
   66        2.883220
   67        2.953259
   68        3.041050
 
 -0.1538462E+00  0.2500000E+00  0.0000000E+00  0.1923077E-01
    1      -15.096682
    2      -13.238921
    3      -12.805265
    4      -12.630608
    5      -12.346864
    6      -12.224991
    7      -11.834183
    8      -11.706260
    9      -11.323769
   10      -11.224806
   11      -10.765592
   12       -9.808334
   13       -9.150358
   14       -8.342994
   15       -7.507716
   16       -7.426907
   17       -6.859526
   18       -6.643550
   19       -6.515749
   20       -6.415150
   21       -5.758258
   22       -5.652809
   23       -5.182243
   24       -4.975401
   25       -4.796161
   26       -4.252979
   27       -4.223017
   28       -4.123276
   29       -4.029493
   30       -3.896920
   31       -3.709751
   32       -3.668821
   33       -3.451086
   34       -3.311389
   35       -3.111411
   36       -3.047690
   37       -2.925497
   38       -2.868535
   39       -2.812448
   40       -2.649045
   41       -2.475512
   42       -2.361494
   43       -2.152777
   44       -2.022680
   45       -1.899283
   46       -1.763996
   47       -1.631657
   48       -1.555163
   49       -1.225258
   50       -1.103817
   51       -0.909396
   52       -0.736547
   53       -0.193185
   54        0.028282
   55        0.464798
   56        1.020742
   57        1.456767
   58        1.754422
   59        1.886261
   60        2.232328
   61        2.499978
   62        2.596111
   63        2.652373
   64        2.709309
   65        2.823845
   66        2.881229
   67        2.988497
   68        3.123319
 
 -0.7692308E-01  0.2500000E+00  0.0000000E+00  0.1923077E-01
    1      -15.251830
    2      -13.404693
    3      -12.982509
    4      -12.840991
    5      -12.483146