       N       E                     dE             d eps       ncg     rms          rms(c)
DAV:   1     0.504997218905E+03    0.50500E+03   -0.28729E+04  7352   0.790E+02
DAV:   2    -0.612330742394E+02   -0.56623E+03   -0.55176E+03  9744   0.190E+02
DAV:   3    -0.118594355186E+03   -0.57361E+02   -0.56601E+02  8724   0.629E+01
DAV:   4    -0.121289882585E+03   -0.26955E+01   -0.26768E+01 11120   0.146E+01
DAV:   5    -0.121347995568E+03   -0.58113E-01   -0.58051E-01  9928   0.215E+00    0.119E+01
DAV:   6    -0.117039355412E+03    0.43086E+01   -0.13159E+01  8892   0.100E+01    0.636E+00
DAV:   7    -0.116831348153E+03    0.20801E+00   -0.95211E+00  8784   0.739E+00    0.260E+00
DAV:   8    -0.116856594806E+03   -0.25247E-01   -0.11002E+00  8896   0.293E+00    0.140E+00
DAV:   9    -0.116840604520E+03    0.15990E-01   -0.16398E-01  9256   0.141E+00    0.541E-01
DAV:  10    -0.116839711143E+03    0.89338E-03   -0.67405E-02  8808   0.798E-01    0.196E-01
DAV:  11    -0.116834970260E+03    0.47409E-02   -0.10177E-02  8944   0.319E-01    0.106E-01
DAV:  12    -0.116828770828E+03    0.61994E-02   -0.29701E-03  9096   0.153E-01    0.517E-02
DAV:  13    -0.116823877506E+03    0.48933E-02   -0.59220E-04  9008   0.796E-02    0.233E-02
DAV:  14    -0.116821525666E+03    0.23518E-02   -0.18849E-04  9152   0.380E-02    0.138E-02
DAV:  15    -0.116821024124E+03    0.50154E-03   -0.43842E-05  9264   0.206E-02    0.868E-03
DAV:  16    -0.116821003172E+03    0.20952E-04   -0.92594E-05  8160   0.233E-02    0.488E-03
DAV:  17    -0.116821413719E+03   -0.41055E-03   -0.10288E-04  8448   0.207E-02    0.328E-03
DAV:  18    -0.116821697806E+03   -0.28409E-03   -0.10948E-04  7680   0.175E-02    0.164E-03
DAV:  19    -0.116821753568E+03   -0.55762E-04   -0.16272E-05  7368   0.899E-03    0.116E-03
DAV:  20    -0.116821771929E+03   -0.18361E-04   -0.24660E-05  6940   0.936E-03    0.816E-04
DAV:  21    -0.116821788603E+03   -0.16674E-04   -0.15593E-05  7136   0.927E-03    0.572E-04
DAV:  22    -0.116821717760E+03    0.70843E-04   -0.22137E-05  7172   0.107E-02    0.305E-04
DAV:  23    -0.116821674580E+03    0.43180E-04   -0.12084E-05  6856   0.873E-03    0.163E-04
DAV:  24    -0.116821642416E+03    0.32164E-04   -0.10647E-05  6736   0.902E-03    0.667E-05
DAV:  25    -0.116821637532E+03    0.48838E-05   -0.31771E-06  6064   0.602E-03    0.410E-05
DAV:  26    -0.116821630603E+03    0.69290E-05   -0.37469E-06  6376   0.619E-03    0.199E-05
DAV:  27    -0.116821629780E+03    0.82265E-06   -0.14915E-06  5368   0.454E-03
   1 F= -.11682163E+03 E0= -.11680444E+03  d E =-.343864E-01
