<?xml version="1.0" encoding="ISO-8859-1"?>
<modeling>
 <generator>
  <i name="program" type="string">vasp </i>
  <i name="version" type="string">5.4.1  </i>
  <i name="subversion" type="string">24Jun15 (build May 10 2016 14:18:23) complex                          parallel </i>
  <i name="platform" type="string">IFC91_ompi </i>
  <i name="date" type="string">2016 12 12 </i>
  <i name="time" type="string">06:33:35 </i>
 </generator>
 <incar>
  <i type="string" name="PREC">accurate</i>
  <i type="string" name="ALGO"> Fast</i>
  <i type="int" name="ISPIN">     2</i>
  <i type="int" name="IBRION">     2</i>
  <i name="EDIFF">      0.00010000</i>
  <i type="int" name="NSW">     0</i>
  <i type="int" name="ISIF">     3</i>
  <i name="ENCUT">    500.00000000</i>
  <v name="MAGMOM">      6.00000000      0.50000000      0.50000000      6.00000000      0.50000000      0.50000000</v>
  <i type="string" name="LREAL"> Auto</i>
  <i type="int" name="ISMEAR">     1</i>
  <i name="SIGMA">      0.10000000</i>
  <i type="logical" name="LWAVE"> F  </i>
  <i type="logical" name="LCHARG"> F  </i>
  <i type="logical" name="LVTOT"> T  </i>
  <i type="logical" name="LVHAR"> T  </i>
  <i type="logical" name="LAECHG"> F  </i>
  <v type="int" name="KPOINT_BSE">    -1     0     0     0</v>
  <i type="string" name="GGA"> Bo</i>
  <i name="PARAM1">      0.18333333</i>
  <i name="PARAM2">      0.22000000</i>
  <i type="logical" name="LUSE_VDW"> T  </i>
  <i name="AGGAC">      0.00000000</i>
 </incar>
 <kpoints>
  <generation param="Gamma">
   <v type="int" name="divisions">      13       13        1 </v>
   <v name="usershift">      0.00000000       0.00000000       0.00000000 </v>
   <v name="genvec1">      0.07692308       0.00000000       0.00000000 </v>
   <v name="genvec2">      0.00000000       0.07692308       0.00000000 </v>
   <v name="genvec3">      0.00000000       0.00000000       1.00000000 </v>
   <v name="shift">      0.00000000       0.00000000       0.00000000 </v>
  </generation>
  <varray name="kpointlist" >
   <v>       0.00000000       0.00000000       0.00000000 </v>
   <v>       0.07692308      -0.00000000       0.00000000 </v>
   <v>       0.15384615       0.00000000       0.00000000 </v>
   <v>       0.23076923       0.00000000       0.00000000 </v>
   <v>       0.30769231      -0.00000000       0.00000000 </v>
   <v>       0.38461538       0.00000000       0.00000000 </v>
   <v>       0.46153846       0.00000000       0.00000000 </v>
   <v>       0.07692308       0.07692308       0.00000000 </v>
   <v>       0.15384615       0.07692308       0.00000000 </v>
   <v>       0.23076923       0.07692308       0.00000000 </v>
   <v>       0.30769231       0.07692308       0.00000000 </v>
   <v>       0.38461538       0.07692308       0.00000000 </v>
   <v>       0.46153846       0.07692308       0.00000000 </v>
   <v>      -0.46153846       0.07692308       0.00000000 </v>
   <v>      -0.38461538       0.07692308       0.00000000 </v>
   <v>      -0.30769231       0.07692308       0.00000000 </v>
   <v>      -0.23076923       0.07692308       0.00000000 </v>
   <v>      -0.15384615       0.07692308       0.00000000 </v>
   <v>      -0.07692308       0.07692308       0.00000000 </v>
   <v>       0.15384615       0.15384615       0.00000000 </v>
   <v>       0.23076923       0.15384615       0.00000000 </v>
   <v>       0.30769231       0.15384615       0.00000000 </v>
   <v>       0.38461538       0.15384615       0.00000000 </v>
   <v>       0.46153846       0.15384615       0.00000000 </v>
   <v>      -0.46153846       0.15384615       0.00000000 </v>
   <v>      -0.38461538       0.15384615       0.00000000 </v>
   <v>      -0.30769231       0.15384615       0.00000000 </v>
   <v>      -0.23076923       0.15384615       0.00000000 </v>
   <v>      -0.15384615       0.15384615       0.00000000 </v>
   <v>       0.23076923       0.23076923       0.00000000 </v>
   <v>       0.30769231       0.23076923       0.00000000 </v>
   <v>       0.38461538       0.23076923       0.00000000 </v>
   <v>       0.46153846       0.23076923       0.00000000 </v>
   <v>      -0.46153846       0.23076923       0.00000000 </v>
   <v>      -0.38461538       0.23076923       0.00000000 </v>
   <v>      -0.30769231       0.23076923       0.00000000 </v>
   <v>      -0.23076923       0.23076923       0.00000000 </v>
   <v>       0.30769231       0.30769231       0.00000000 </v>
   <v>       0.38461538       0.30769231       0.00000000 </v>
   <v>       0.46153846       0.30769231       0.00000000 </v>
   <v>      -0.46153846       0.30769231       0.00000000 </v>
   <v>      -0.38461538       0.30769231       0.00000000 </v>
   <v>      -0.30769231       0.30769231       0.00000000 </v>
   <v>       0.38461538       0.38461538       0.00000000 </v>
   <v>       0.46153846       0.38461538       0.00000000 </v>
   <v>      -0.46153846       0.38461538       0.00000000 </v>
   <v>      -0.38461538       0.38461538       0.00000000 </v>
   <v>       0.46153846       0.46153846       0.00000000 </v>
   <v>      -0.46153846       0.46153846       0.00000000 </v>
  </varray>
  <varray name="weights" >
   <v>       0.00591716 </v>
   <v>       0.02366864 </v>
   <v>       0.02366864 </v>
   <v>       0.02366864 </v>
   <v>       0.02366864 </v>
   <v>       0.02366864 </v>
   <v>       0.02366864 </v>
   <v>       0.01183432 </v>
   <v>       0.02366864 </v>
   <v>       0.02366864 </v>
   <v>       0.02366864 </v>
   <v>       0.02366864 </v>
   <v>       0.02366864 </v>
   <v>       0.02366864 </v>
   <v>       0.02366864 </v>
   <v>       0.02366864 </v>
   <v>       0.02366864 </v>
   <v>       0.02366864 </v>
   <v>       0.01183432 </v>
   <v>       0.01183432 </v>
   <v>       0.02366864 </v>
   <v>       0.02366864 </v>
   <v>       0.02366864 </v>
   <v>       0.02366864 </v>
   <v>       0.02366864 </v>
   <v>       0.02366864 </v>
   <v>       0.02366864 </v>
   <v>       0.02366864 </v>
   <v>       0.01183432 </v>
   <v>       0.01183432 </v>
   <v>       0.02366864 </v>
   <v>       0.02366864 </v>
   <v>       0.02366864 </v>
   <v>       0.02366864 </v>
   <v>       0.02366864 </v>
   <v>       0.02366864 </v>
   <v>       0.01183432 </v>
   <v>       0.01183432 </v>
   <v>       0.02366864 </v>
   <v>       0.02366864 </v>
   <v>       0.02366864 </v>
   <v>       0.02366864 </v>
   <v>       0.01183432 </v>
   <v>       0.01183432 </v>
   <v>       0.02366864 </v>
   <v>       0.02366864 </v>
   <v>       0.01183432 </v>
   <v>       0.01183432 </v>
   <v>       0.01183432 </v>
  </varray>
 </kpoints>
 <parameters>
  <separator name="general" >
   <i type="string" name="SYSTEM">unknown system</i>
   <i type="logical" name="LCOMPAT"> F  </i>
  </separator>
  <separator name="electronic" >
   <i type="string" name="PREC">accura</i>
   <i name="ENMAX">    500.00000000</i>
   <i name="ENAUG">    392.42700000</i>
   <i name="EDIFF">      0.00010000</i>
   <i type="int" name="IALGO">    68</i>
   <i type="int" name="IWAVPR">    10</i>
   <i type="int" name="NBANDS">    36</i>
   <i name="NELECT">     48.00000000</i>
   <i type="int" name="TURBO">     0</i>
   <i type="int" name="IRESTART">     0</i>
   <i type="int" name="NREBOOT">     0</i>
   <i type="int" name="NMIN">     0</i>
   <i name="EREF">      0.00000000</i>
   <separator name="electronic smearing" >
    <i type="int" name="ISMEAR">     1</i>
    <i name="SIGMA">      0.10000000</i>
    <i name="KSPACING">      0.50000000</i>
    <i type="logical" name="KGAMMA"> T  </i>
   </separator>
   <separator name="electronic projectors" >
    <i type="logical" name="LREAL"> T  </i>
    <v name="ROPT">     -0.00025000     -0.00025000     -0.00025000     -0.00025000</v>
    <i type="int" name="LMAXPAW">  -100</i>
    <i type="int" name="LMAXMIX">     2</i>
    <i type="logical" name="NLSPLINE"> F  </i>
   </separator>
   <separator name="electronic startup" >
    <i type="int" name="ISTART">     0</i>
    <i type="int" name="ICHARG">     2</i>
    <i type="int" name="INIWAV">     1</i>
   </separator>
   <separator name="electronic spin" >
    <i type="int" name="ISPIN">     2</i>
    <i type="logical" name="LNONCOLLINEAR"> F  </i>
    <v name="MAGMOM">      6.00000000      0.50000000      0.50000000      6.00000000      0.50000000      0.50000000</v>
    <i name="NUPDOWN">     -1.00000000</i>
    <i type="logical" name="LSORBIT"> F  </i>
    <v name="SAXIS">      0.00000000      0.00000000      1.00000000</v>
    <i type="logical" name="LSPIRAL"> F  </i>
    <v name="QSPIRAL">      0.00000000      0.00000000      0.00000000</v>
    <i type="logical" name="LZEROZ"> F  </i>
   </separator>
   <separator name="electronic exchange-correlation" >
    <i type="logical" name="LASPH"> F  </i>
    <i type="logical" name="LMETAGGA"> F  </i>
   </separator>
   <separator name="electronic convergence" >
    <i type="int" name="NELM">    60</i>
    <i type="int" name="NELMDL">     0</i>
    <i type="int" name="NELMIN">     2</i>
    <i name="ENINI">    500.00000000</i>
    <separator name="electronic convergence detail" >
     <i type="logical" name="LDIAG"> T  </i>
     <i type="logical" name="LSUBROT"> F  </i>
     <i name="WEIMIN">      0.00000000</i>
     <i name="EBREAK">      0.00000069</i>
     <i name="DEPER">      0.30000000</i>
     <i type="int" name="NRMM">     4</i>
     <i name="TIME">      0.40000000</i>
    </separator>
   </separator>
   <separator name="electronic mixer" >
    <i name="AMIX">      0.40000000</i>
    <i name="BMIX">      1.00000000</i>
    <i name="AMIN">      0.10000000</i>
    <i name="AMIX_MAG">      1.60000000</i>
    <i name="BMIX_MAG">      1.00000000</i>
    <separator name="electronic mixer details" >
     <i type="int" name="IMIX">     4</i>
     <i type="logical" name="MIXFIRST"> F  </i>
     <i type="int" name="MAXMIX">   -45</i>
     <i name="WC">    100.00000000</i>
     <i type="int" name="INIMIX">     1</i>
     <i type="int" name="MIXPRE">     1</i>
     <i type="int" name="MREMOVE">     5</i>
    </separator>
   </separator>
   <separator name="electronic dipolcorrection" >
    <i type="logical" name="LDIPOL"> F  </i>
    <i type="logical" name="LMONO"> F  </i>
    <i type="int" name="IDIPOL">     0</i>
    <i name="EPSILON">      1.00000000</i>
    <v name="DIPOL">   -100.00000000   -100.00000000   -100.00000000</v>
    <i name="EFIELD">      0.00000000</i>
   </separator>
  </separator>
  <separator name="grids" >
   <i type="int" name="NGX">    24</i>
   <i type="int" name="NGY">    24</i>
   <i type="int" name="NGZ">   180</i>
   <i type="int" name="NGXF">    48</i>
   <i type="int" name="NGYF">    48</i>
   <i type="int" name="NGZF">   360</i>
   <i type="logical" name="ADDGRID"> F  </i>
  </separator>
  <separator name="ionic" >
   <i type="int" name="NSW">     0</i>
   <i type="int" name="IBRION">    -1</i>
   <i type="int" name="ISIF">     3</i>
   <i name="PSTRESS">      0.00000000</i>
   <i name="EDIFFG">      0.00100000</i>
   <i type="int" name="NFREE">     1</i>
   <i name="POTIM">      0.50000000</i>
   <i name="SMASS">     -3.00000000</i>
   <i name="SCALEE">      1.00000000</i>
  </separator>
  <separator name="ionic md" >
   <i name="TEBEG">      0.00010000</i>
   <i name="TEEND">      0.00010000</i>
   <i type="int" name="NBLOCK">     1</i>
   <i type="int" name="KBLOCK">     1</i>
   <i type="int" name="NPACO">   256</i>
   <i name="APACO">     16.00000000</i>
  </separator>
  <separator name="symmetry" >
   <i type="int" name="ISYM">     2</i>
   <i name="SYMPREC">      0.00001000</i>
  </separator>
  <separator name="dos" >
   <i type="logical" name="LORBIT"> F  </i>
   <v name="RWIGS">     -1.00000000     -1.00000000     -1.00000000     -1.00000000</v>
   <i type="int" name="NEDOS">   301</i>
   <i name="EMIN">     10.00000000</i>
   <i name="EMAX">    -10.00000000</i>
   <i name="EFERMI">      0.00000000</i>
  </separator>
  <separator name="writing" >
   <i type="int" name="NWRITE">     2</i>
   <i type="logical" name="LWAVE"> F  </i>
   <i type="logical" name="LCHARG"> F  </i>
   <i type="logical" name="LPARD"> F  </i>
   <i type="logical" name="LVTOT"> F  </i>
   <i type="logical" name="LVHAR"> T  </i>
   <i type="logical" name="LELF"> F  </i>
   <i type="logical" name="LOPTICS"> F  </i>
   <v name="STM">      0.00000000      0.00000000      0.00000000      0.00000000      0.00000000      0.00000000      0.00000000</v>
  </separator>
  <separator name="performance" >
   <i type="int" name="NPAR">     4</i>
   <i type="int" name="NSIM">     4</i>
   <i type="int" name="NBLK">    -1</i>
   <i type="logical" name="LPLANE"> T  </i>
   <i type="logical" name="LSCALAPACK"> T  </i>
   <i type="logical" name="LSCAAWARE"> F  </i>
   <i type="logical" name="LSCALU"> F  </i>
   <i type="logical" name="LASYNC"> F  </i>
   <i type="logical" name="LORBITALREAL"> F  </i>
  </separator>
  <separator name="miscellaneous" >
   <i type="int" name="IDIOT">     3</i>
   <i type="logical" name="LMUSIC"> F  </i>
   <v name="POMASS">     95.94000000     32.06600000     95.94000000     32.06600000</v>
   <v name="DARWINR">      0.00000000      0.00000000      0.00000000      0.00000000</v>
   <v name="DARWINV">      1.00000000      1.00000000      1.00000000      1.00000000</v>
   <i type="logical" name="LCORR"> T  </i>
  </separator>
  <i type="logical" name="GGA_COMPAT"> T  </i>
  <i type="logical" name="LBERRY"> F  </i>
  <i type="int" name="ICORELEVEL">     0</i>
  <i type="logical" name="LDAU"> F  </i>
  <i type="int" name="I_CONSTRAINED_M">     0</i>
  <separator name="electronic exchange-correlation" >
   <i type="string" name="GGA">BO</i>
   <i type="int" name="VOSKOWN">     0</i>
   <i type="logical" name="LHFCALC"> F  </i>
   <i type="string" name="PRECFOCK"></i>
   <i type="logical" name="LSYMGRAD"> F  </i>
   <i type="logical" name="LHFONE"> F  </i>
   <i type="logical" name="LRHFCALC"> F  </i>
   <i type="logical" name="LTHOMAS"> F  </i>
   <i type="logical" name="LMODELHF"> F  </i>
   <i name="ENCUT4O">     -1.00000000</i>
   <i type="int" name="EXXOEP">     0</i>
   <i type="int" name="FOURORBIT">     0</i>
   <i name="AEXX">      0.00000000</i>
   <i name="HFALPHA">      0.00000000</i>
   <i name="MCALPHA">      0.00000000</i>
   <i name="ALDAX">      1.00000000</i>
   <i name="AGGAX">      1.00000000</i>
   <i name="ALDAC">      1.00000000</i>
   <i name="AGGAC">      0.00000000</i>
   <i type="int" name="NKREDX">     1</i>
   <i type="int" name="NKREDY">     1</i>
   <i type="int" name="NKREDZ">     1</i>
   <i type="logical" name="SHIFTRED"> F  </i>
   <i type="logical" name="ODDONLY"> F  </i>
   <i type="logical" name="EVENONLY"> F  </i>
   <i type="int" name="LMAXFOCK">     0</i>
   <i type="int" name="NMAXFOCKAE">     0</i>
   <i type="logical" name="LFOCKAEDFT"> F  </i>
   <i name="HFSCREEN">      0.00000000</i>
   <i name="HFSCREENC">      0.00000000</i>
   <i type="int" name="NBANDSGWLOW">     0</i>
  </separator>
  <separator name="vdW DFT" >
   <i type="logical" name="LUSE_VDW"> T  </i>
   <i name="Zab_VDW">     -0.84910000</i>
   <i name="PARAM1">      0.18333333</i>
   <i name="PARAM2">      0.22000000</i>
   <i name="PARAM3">      0.00000000</i>
  </separator>
  <separator name="model GW" >
   <i type="int" name="MODEL_GW">     0</i>
   <i name="MODEL_EPS0">     20.39722663</i>
   <i name="MODEL_ALPHA">      1.00000000</i>
  </separator>
  <separator name="linear response parameters" >
   <i type="logical" name="LEPSILON"> F  </i>
   <i type="logical" name="LRPA"> F  </i>
   <i type="logical" name="LNABLA"> F  </i>
   <i type="logical" name="LVEL"> F  </i>
   <i type="int" name="KINTER">     0</i>
   <i name="CSHIFT">      0.10000000</i>
   <i name="OMEGAMAX">     -1.00000000</i>
   <i name="DEG_THRESHOLD">      0.00200000</i>
  </separator>
  <separator name="orbital magnetization" >
   <i type="logical" name="NUCIND"> F  </i>
   <v name="MAGPOS">      0.00000000      0.00000000      0.00000000</v>
   <i type="logical" name="LNICSALL"> T  </i>
   <i type="logical" name="ORBITALMAG"> F  </i>
   <i type="logical" name="LMAGBLOCH"> F  </i>
   <i type="logical" name="LCHIMAG"> F  </i>
   <i type="logical" name="LGAUGE"> T  </i>
   <i type="int" name="MAGATOM">     0</i>
   <v name="MAGDIPOL">      0.00000000      0.00000000      0.00000000</v>
   <v name="AVECCONST">      0.00000000      0.00000000      0.00000000</v>
  </separator>
  <separator name="response functions" >
   <i type="logical" name="LADDER"> F  </i>
   <i type="logical" name="LFXC"> F  </i>
   <i type="logical" name="LHARTREE"> T  </i>
   <i type="int" name="IBSE">     0</i>
   <v type="int" name="KPOINT">    -1     0     0     0</v>
   <i type="logical" name="LTCTE"> F  </i>
   <i type="logical" name="LTETE"> F  </i>
   <i type="logical" name="LTRIPLET"> F  </i>
   <i type="logical" name="LFXCEPS"> F  </i>
   <i type="logical" name="LFXHEG"> F  </i>
   <i type="int" name="NATURALO">     0</i>
   <i type="logical" name="L2ORDER"> F  </i>
   <i type="logical" name="LUSEW"> F  </i>
   <i name="ENCUTGW">     -2.00000000</i>
   <i name="ENCUTGWSOFT">     -2.00000000</i>
   <i name="ENCUTLF">     -1.00000000</i>
   <i type="int" name="LMAXMP2">    -1</i>
   <i name="SCISSOR">      0.00000000</i>
   <i type="int" name="NOMEGA">     0</i>
   <i type="int" name="NOMEGAR">     0</i>
   <i type="int" name="NBANDSGW">    -1</i>
   <i type="int" name="NBANDSO">    -1</i>
   <i type="int" name="NBANDSV">    -1</i>
   <i type="int" name="NELM">     1</i>
   <i type="int" name="NELMHF">     1</i>
   <i type="int" name="DIM">     3</i>
   <i type="int" name="ANTIRES">     0</i>
   <i name="OMEGAMAX">    -30.00000000</i>
   <i name="OMEGAMIN">    -30.00000000</i>
   <i name="OMEGATL">   -200.00000000</i>
   <i type="int" name="OMEGAGRID">     0</i>
   <i name="CSHIFT">     -0.10000000</i>
   <i type="logical" name="SELFENERGY"> F  </i>
   <i type="logical" name="LSPECTRAL"> F  </i>
   <i type="logical" name="LSPECTRALGW"> F  </i>
   <i type="logical" name="LSINGLES"> F  </i>
   <i type="logical" name="LFERMIGW"> F  </i>
   <i type="logical" name="ODDONLYGW"> F  </i>
   <i type="logical" name="EVENONLYGW"> F  </i>
   <i type="int" name="NKREDLFX">     1</i>
   <i type="int" name="NKREDLFY">     1</i>
   <i type="int" name="NKREDLFZ">     1</i>
   <i type="int" name="MAXMEM">  1800</i>
   <i type="int" name="TELESCOPE">     0</i>
   <i type="int" name="TAUPAR">     1</i>
   <i type="int" name="OMEGAPAR">    -1</i>
   <i name="LAMBDA">      1.00000000</i>
  </separator>
  <separator name="External order field" >
   <i name="OFIELD_KAPPA">      0.00000000</i>
   <v name="OFIELD_K">      0.00000000      0.00000000      0.00000000</v>
   <i name="OFIELD_Q6_NEAR">      0.00000000</i>
   <i name="OFIELD_Q6_FAR">      0.00000000</i>
   <i name="OFIELD_A">      0.00000000</i>
  </separator>
 </parameters>
 <atominfo>
  <atoms>       6 </atoms>
  <types>       4 </types>
  <array name="atoms" >
   <dimension dim="1">ion</dimension>
   <field type="string">element</field>
   <field type="int">atomtype</field>
   <set>
    <rc><c>Mo</c><c>   1</c></rc>
    <rc><c>S </c><c>   2</c></rc>
    <rc><c>S </c><c>   2</c></rc>
    <rc><c>Mo</c><c>   3</c></rc>
    <rc><c>S </c><c>   4</c></rc>
    <rc><c>S </c><c>   4</c></rc>
   </set>
  </array>
  <array name="atomtypes" >
   <dimension dim="1">type</dimension>
   <field type="int">atomspertype</field>
   <field type="string">element</field>
   <field>mass</field>
   <field>valence</field>
   <field type="string">pseudopotential</field>
   <set>
    <rc><c>   1</c><c>Mo</c><c>     95.94000000</c><c>     12.00000000</c><c> PAW_PBE Mo_pv 08Apr2002                </c></rc>
    <rc><c>   2</c><c>S </c><c>     32.06600000</c><c>      6.00000000</c><c>  PAW_PBE S 17Jan2003                   </c></rc>
    <rc><c>   1</c><c>Mo</c><c>     95.94000000</c><c>     12.00000000</c><c> PAW_PBE Mo_pv 08Apr2002                </c></rc>
    <rc><c>   2</c><c>S </c><c>     32.06600000</c><c>      6.00000000</c><c>  PAW_PBE S 17Jan2003                   </c></rc>
   </set>
  </array>
 </atominfo>
 <structure name="initialpos" >
  <crystal>
   <varray name="basis" >
    <v>       3.19031700       0.00000000       0.00000000 </v>
    <v>      -1.59515800       2.76289700       0.00000000 </v>
    <v>       0.00000000       0.00000000      23.14049200 </v>
   </varray>
   <i name="volume">    203.97226633 </i>
   <varray name="rec_basis" >
    <v>       0.31344848       0.18096941       0.00000000 </v>
    <v>       0.00000000       0.36193894       0.00000000 </v>
    <v>       0.00000000       0.00000000       0.04321429 </v>
   </varray>
  </crystal>
  <varray name="positions" >
   <v>       0.66666700       0.33333300       0.06785900 </v>
   <v>       0.33333300       0.66666700       0.00000000 </v>
   <v>       0.33333300       0.66666700       0.13571500 </v>
   <v>       0.95238100       0.04761900       0.32241200 </v>
   <v>       0.61904700       0.38095300       0.25455400 </v>
   <v>       0.61904700       0.38095300       0.39026800 </v>
  </varray>
 </structure>
 <calculation>
  <scstep>
   <time name="dav">   64.35   64.40</time>
   <time name="total">   84.02   84.11</time>
   <energy>
    <i name="alphaZ">    104.15310261 </i>
    <i name="ewald">   9731.35783534 </i>
    <i name="hartreedc"> -13140.79769592 </i>
    <i name="XCdc">    128.64121266 </i>
    <i name="pawpsdc">   2252.92270536 </i>
    <i name="pawaedc">  -2205.68654582 </i>
    <i name="eentropy">     -0.00020319 </i>
    <i name="bandstr">   -158.89514761 </i>
    <i name="atom">   3688.31848598 </i>
    <i name="e_fr_energy">    400.01374942 </i>
    <i name="e_wo_entrp">    400.01395260 </i>
    <i name="e_0_energy">    400.01381715 </i>
   </energy>
  </scstep>
  <scstep>
   <time name="dav">   69.58   69.64</time>
   <time name="total">   69.59   69.65</time>
   <energy>
    <i name="e_fr_energy">     -1.57040114 </i>
    <i name="e_wo_entrp">     -1.57039016 </i>
    <i name="e_0_energy">     -1.57039748 </i>
   </energy>
  </scstep>
  <scstep>
   <time name="dav">   71.25   71.44</time>
   <time name="total">   71.25   71.46</time>
   <energy>
    <i name="e_fr_energy">    -32.94568935 </i>
    <i name="e_wo_entrp">    -32.94674184 </i>
    <i name="e_0_energy">    -32.94604018 </i>
   </energy>
  </scstep>
  <scstep>
   <time name="dav">   68.21   68.27</time>
   <time name="total">   68.22   68.29</time>
   <energy>
    <i name="e_fr_energy">    -33.83082017 </i>
    <i name="e_wo_entrp">    -33.83182244 </i>
    <i name="e_0_energy">    -33.83115426 </i>
   </energy>
  </scstep>
  <scstep>
   <time name="dav">   71.49   71.56</time>
   <time name="total">   76.91   76.98</time>
   <energy>
    <i name="e_fr_energy">    -33.85845497 </i>
    <i name="e_wo_entrp">    -33.85944626 </i>
    <i name="e_0_energy">    -33.85878540 </i>
   </energy>
  </scstep>
  <scstep>
   <time name="diag">   13.06   13.07</time>
   <time name="diis">   48.54   48.58</time>
   <time name="orth">    0.45    0.45</time>
   <time name="total">   86.52   86.59</time>
   <energy>
    <i name="e_fr_energy">    -30.08370813 </i>
    <i name="e_wo_entrp">    -30.08516231 </i>
    <i name="e_0_energy">    -30.08419286 </i>
   </energy>
  </scstep>
  <scstep>
   <time name="diag">   13.07   13.08</time>
   <time name="diis">   47.67   47.71</time>
   <time name="orth">    0.45    0.45</time>
   <time name="total">   85.60   85.68</time>
   <energy>
    <i name="e_fr_energy">    -32.73369906 </i>
    <i name="e_wo_entrp">    -32.73353611 </i>
    <i name="e_0_energy">    -32.73364474 </i>
   </energy>
  </scstep>
  <scstep>
   <time name="diag">   13.43   13.44</time>
   <time name="diis">   51.14   51.31</time>
   <time name="orth">    0.46    0.48</time>
   <time name="total">   89.67   89.88</time>
   <energy>
    <i name="e_fr_energy">    -34.36555606 </i>
    <i name="e_wo_entrp">    -34.36618647 </i>
    <i name="e_0_energy">    -34.36576620 </i>
   </energy>
  </scstep>
  <scstep>
   <time name="diag">   13.34   13.36</time>
   <time name="diis">   48.76   48.80</time>
   <time name="orth">    0.45    0.45</time>
   <time name="total">   87.24   87.34</time>
   <energy>
    <i name="e_fr_energy">    -37.31072522 </i>
    <i name="e_wo_entrp">    -37.31075715 </i>
    <i name="e_0_energy">    -37.31073586 </i>
   </energy>
  </scstep>
  <scstep>
   <time name="diag">   13.34   13.35</time>
   <time name="diis">   44.37   44.41</time>
   <time name="orth">    0.45    0.45</time>
   <time name="total">   82.54   82.61</time>
   <energy>
    <i name="e_fr_energy">    -39.19061683 </i>
    <i name="e_wo_entrp">    -39.19064431 </i>
    <i name="e_0_energy">    -39.19062599 </i>
   </energy>
  </scstep>
  <scstep>
   <time name="diag">   13.34   13.35</time>
   <time name="diis">   50.58   50.62</time>
   <time name="orth">    0.46    0.46</time>
   <time name="total">   88.98   89.06</time>
   <energy>
    <i name="e_fr_energy">    -39.39094109 </i>
    <i name="e_wo_entrp">    -39.39099729 </i>
    <i name="e_0_energy">    -39.39095982 </i>
   </energy>
  </scstep>
  <scstep>
   <time name="diag">   13.20   13.22</time>
   <time name="diis">   49.65   49.69</time>
   <time name="orth">    0.45    0.45</time>
   <time name="total">   87.76   87.84</time>
   <energy>
    <i name="e_fr_energy">    -39.40561628 </i>
    <i name="e_wo_entrp">    -39.40567004 </i>
    <i name="e_0_energy">    -39.40563420 </i>
   </energy>
  </scstep>
  <scstep>
   <time name="diag">   13.45   13.46</time>
   <time name="diis">   51.43   51.47</time>
   <time name="orth">    0.45    0.46</time>
   <time name="total">   89.83   89.91</time>
   <energy>
    <i name="e_fr_energy">    -39.40808961 </i>
    <i name="e_wo_entrp">    -39.40814386 </i>
    <i name="e_0_energy">    -39.40810769 </i>
   </energy>
  </scstep>
  <scstep>
   <time name="diag">   13.53   13.54</time>
   <time name="diis">   49.48   49.52</time>
   <time name="orth">    0.45    0.45</time>
   <time name="total">   87.90   87.97</time>
   <energy>
    <i name="e_fr_energy">    -39.41007200 </i>
    <i name="e_wo_entrp">    -39.41012587 </i>
    <i name="e_0_energy">    -39.41008996 </i>
   </energy>
  </scstep>
  <scstep>
   <time name="diag">   13.41   13.42</time>
   <time name="diis">   38.40   38.43</time>
   <time name="orth">    0.45    0.45</time>
   <time name="total">   76.63   76.70</time>
   <energy>
    <i name="e_fr_energy">    -39.40949441 </i>
    <i name="e_wo_entrp">    -39.40954827 </i>
    <i name="e_0_energy">    -39.40951236 </i>
   </energy>
  </scstep>
  <scstep>
   <time name="diag">   13.29   13.30</time>
   <time name="diis">   33.86   33.89</time>
   <time name="orth">    0.45    0.45</time>
   <time name="total">   71.96   72.02</time>
   <energy>
    <i name="e_fr_energy">    -39.40985285 </i>
    <i name="e_wo_entrp">    -39.40990668 </i>
    <i name="e_0_energy">    -39.40987079 </i>
   </energy>
  </scstep>
  <scstep>
   <time name="diag">   13.20   13.21</time>
   <time name="diis">   33.28   33.31</time>
   <time name="orth">    0.46    0.46</time>
   <time name="total">   71.50   71.56</time>
   <energy>
    <i name="e_fr_energy">    -39.41018804 </i>
    <i name="e_wo_entrp">    -39.41024187 </i>
    <i name="e_0_energy">    -39.41020598 </i>
   </energy>
  </scstep>
  <scstep>
   <time name="diag">   13.42   13.43</time>
   <time name="diis">   32.78   32.81</time>
   <time name="orth">    0.45    0.45</time>
   <time name="total">   71.31   71.37</time>
   <energy>
    <i name="e_fr_energy">    -39.41059196 </i>
    <i name="e_wo_entrp">    -39.41064579 </i>
    <i name="e_0_energy">    -39.41060990 </i>
   </energy>
  </scstep>
  <scstep>
   <time name="diag">   13.31   13.33</time>
   <time name="diis">   32.44   32.47</time>
   <time name="orth">    0.45    0.45</time>
   <time name="total">   70.69   70.74</time>
   <energy>
    <i name="e_fr_energy">    -39.41092140 </i>
    <i name="e_wo_entrp">    -39.41097525 </i>
    <i name="e_0_energy">    -39.41093935 </i>
   </energy>
  </scstep>
  <scstep>
   <time name="diag">   13.46   13.48</time>
   <time name="diis">   32.52   32.55</time>
   <time name="orth">    0.46    0.46</time>
   <time name="total">   71.02   71.08</time>
   <energy>
    <i name="e_fr_energy">    -39.41117375 </i>
    <i name="e_wo_entrp">    -39.41122761 </i>
    <i name="e_0_energy">    -39.41119170 </i>
   </energy>
  </scstep>
  <scstep>
   <time name="diag">   13.21   13.22</time>
   <time name="diis">   31.64   31.67</time>
   <time name="orth">    0.45    0.45</time>
   <time name="total">   64.10   64.16</time>
   <energy>
    <i name="alphaZ">    104.15310261 </i>
    <i name="ewald">   9731.35783534 </i>
    <i name="hartreedc"> -13124.57502945 </i>
    <i name="XCdc">    122.81039128 </i>
    <i name="pawpsdc">   2400.32558304 </i>
    <i name="pawaedc">  -2362.48729277 </i>
    <i name="eentropy">      0.00005387 </i>
    <i name="bandstr">   -599.31435782 </i>
    <i name="atom">   3688.31848598 </i>
    <i name="e_fr_energy">    -39.41122791 </i>
    <i name="e_wo_entrp">    -39.41128178 </i>
    <i name="e_0_energy">    -39.41124587 </i>
   </energy>
  </scstep>
  <structure>
   <crystal>
    <varray name="basis" >
     <v>       3.19031700       0.00000000       0.00000000 </v>
     <v>      -1.59515800       2.76289700       0.00000000 </v>
     <v>       0.00000000       0.00000000      23.14049200 </v>
    </varray>
    <i name="volume">    203.97226633 </i>
    <varray name="rec_basis" >
     <v>       0.31344848       0.18096941       0.00000000 </v>
     <v>       0.00000000       0.36193894       0.00000000 </v>
     <v>       0.00000000       0.00000000       0.04321429 </v>
    </varray>
   </crystal>
   <varray name="positions" >
    <v>       0.66666700       0.33333300       0.06785900 </v>
    <v>       0.33333300       0.66666700       0.00000000 </v>
    <v>       0.33333300       0.66666700       0.13571500 </v>
    <v>       0.95238100       0.04761900       0.32241200 </v>
    <v>       0.61904700       0.38095300       0.25455400 </v>
    <v>       0.61904700       0.38095300       0.39026800 </v>
   </varray>
  </structure>
  <varray name="forces" >
   <v>      -0.01576042       0.00909929      -0.06341130 </v>
   <v>       0.00483891      -0.00279375      -0.04874499 </v>
   <v>      -0.07554723       0.04361724      -0.14821756 </v>
   <v>       0.00893746      -0.00516005       0.01473944 </v>
   <v>       0.07616016      -0.04397111       0.17453932 </v>
   <v>       0.00137113      -0.00079162       0.07109509 </v>
  </varray>
  <varray name="stress" >
   <v>       6.32484844      -0.74039403       2.16986553 </v>
   <v>      -0.74039403       5.46992029      -1.25277323 </v>
   <v>       2.16986570      -1.25277332       8.39682768 </v>
  </varray>
  <energy>
   <i name="e_fr_energy">    -39.41122791 </i>
   <i name="e_wo_entrp">    -39.41124587 </i>
   <i name="e_0_energy">      0.00005387 </i>
  </energy>
  <time name="totalsc"> 1784.37 1786.45</time>
  <eigenvalues>
   <array>
    <dimension dim="1">band</dimension>
    <dimension dim="2">kpoint</dimension>
    <dimension dim="3">spin</dimension>
    <field>eigene</field>
    <field>occ</field>
    <set>
     <set comment="spin 1">
      <set comment="kpoint 1">
       <r>  -35.0247    1.0000 </r>
       <r>  -34.9407    1.0000 </r>
       <r>  -34.8341    1.0000 </r>
       <r>  -34.8334    1.0000 </r>
       <r>  -34.7491    1.0000 </r>
       <r>  -34.7485    1.0000 </r>
       <r>  -14.1279    1.0000 </r>
       <r>  -13.8555    1.0000 </r>
       <r>  -12.8664    1.0000 </r>
       <r>  -12.4972    1.0000 </r>
       <r>   -5.9709    1.0000 </r>
       <r>   -5.2075    1.0000 </r>
       <r>   -2.6679    1.0000 </r>
       <r>   -2.6657    1.0000 </r>
       <r>   -2.5806    1.0000 </r>
       <r>   -2.5806    1.0000 </r>
       <r>   -2.4343    1.0000 </r>
       <r>   -1.5817    1.0000 </r>
       <r>   -1.5756    1.0000 </r>
       <r>   -1.4903    1.0000 </r>
       <r>   -1.4861    1.0000 </r>
       <r>   -1.1545    1.0000 </r>
       <r>   -0.2469    1.0000 </r>
       <r>    0.6381    0.9908 </r>
       <r>    2.5707   -0.0000 </r>
       <r>    2.6343   -0.0000 </r>
       <r>    2.7134   -0.0000 </r>
       <r>    2.7265   -0.0000 </r>
       <r>    2.8386   -0.0000 </r>
       <r>    2.8431   -0.0000 </r>
       <r>    2.9169   -0.0000 </r>
       <r>    2.9701   -0.0000 </r>
       <r>    5.3304    0.0000 </r>
       <r>    5.4296    0.0000 </r>
       <r>    6.4461    0.0000 </r>
       <r>    6.5597    0.0000 </r>
      </set>
      <set comment="kpoint 2">
       <r>  -35.0206    1.0000 </r>
       <r>  -34.9366    1.0000 </r>
       <r>  -34.8549    1.0000 </r>
       <r>  -34.8388    1.0000 </r>
       <r>  -34.7702    1.0000 </r>
       <r>  -34.7535    1.0000 </r>
       <r>  -14.0413    1.0000 </r>
       <r>  -13.7695    1.0000 </r>
       <r>  -12.8256    1.0000 </r>
       <r>  -12.4654    1.0000 </r>
       <r>   -5.8744    1.0000 </r>
       <r>   -5.1115    1.0000 </r>
       <r>   -2.8554    1.0000 </r>
       <r>   -2.7689    1.0000 </r>
       <r>   -2.6676    1.0000 </r>
       <r>   -2.5767    1.0000 </r>
       <r>   -2.4897    1.0000 </r>
       <r>   -1.9412    1.0000 </r>
       <r>   -1.7188    1.0000 </r>
       <r>   -1.6245    1.0000 </r>
       <r>   -1.4083    1.0000 </r>
       <r>   -0.9099    1.0000 </r>
       <r>   -0.2651    1.0000 </r>
       <r>    0.4804    1.0019 </r>
       <r>    2.5369   -0.0000 </r>
       <r>    2.5951   -0.0000 </r>
       <r>    2.6350   -0.0000 </r>
       <r>    2.6617   -0.0000 </r>
       <r>    2.7563   -0.0000 </r>
       <r>    2.7971   -0.0000 </r>
       <r>    2.8604   -0.0000 </r>
       <r>    2.9360   -0.0000 </r>
       <r>    5.4689    0.0000 </r>
       <r>    5.5643    0.0000 </r>
       <r>    6.7893    0.0000 </r>
       <r>    6.9333    0.0000 </r>
      </set>
      <set comment="kpoint 3">
       <r>  -35.0092    1.0000 </r>
       <r>  -34.9252    1.0000 </r>
       <r>  -34.9134    1.0000 </r>
       <r>  -34.8522    1.0000 </r>
       <r>  -34.8287    1.0000 </r>
       <r>  -34.7669    1.0000 </r>
       <r>  -13.7926    1.0000 </r>
       <r>  -13.5236    1.0000 </r>
       <r>  -12.7086    1.0000 </r>
       <r>  -12.3748    1.0000 </r>
       <r>   -5.6208    1.0000 </r>
       <r>   -4.8690    1.0000 </r>
       <r>   -3.3149    1.0000 </r>
       <r>   -3.2277    1.0000 </r>
       <r>   -3.1076    1.0000 </r>
       <r>   -2.5405    1.0000 </r>
       <r>   -2.3271    1.0000 </r>
       <r>   -2.2363    1.0000 </r>
       <r>   -2.0535    1.0000 </r>
       <r>   -1.9575    1.0000 </r>
       <r>   -1.3596    1.0000 </r>
       <r>   -0.8176    1.0000 </r>
       <r>   -0.3894    1.0000 </r>
       <r>    0.0289    1.0000 </r>
       <r>    2.1753   -0.0000 </r>
       <r>    2.3913   -0.0000 </r>
       <r>    2.4295   -0.0000 </r>
       <r>    2.5134   -0.0000 </r>
       <r>    2.6388   -0.0000 </r>
       <r>    2.7830   -0.0000 </r>
       <r>    3.1165   -0.0000 </r>
       <r>    3.2720   -0.0000 </r>
       <r>    5.8216    0.0000 </r>
       <r>    5.9113    0.0000 </r>
       <r>    7.3878    0.0000 </r>
       <r>    7.8194    0.0000 </r>
      </set>
      <set comment="kpoint 4">
       <r>  -34.9949    1.0000 </r>
       <r>  -34.9931    1.0000 </r>
       <r>  -34.9112    1.0000 </r>
       <r>  -34.9082    1.0000 </r>
       <r>  -34.8710    1.0000 </r>
       <r>  -34.7858    1.0000 </r>
       <r>  -13.4155    1.0000 </r>
       <r>  -13.1545    1.0000 </r>
       <r>  -12.5315    1.0000 </r>
       <r>  -12.2401    1.0000 </r>
       <r>   -5.3481    1.0000 </r>
       <r>   -4.6945    1.0000 </r>
       <r>   -3.8157    1.0000 </r>
       <r>   -3.7005    1.0000 </r>
       <r>   -3.5445    1.0000 </r>
       <r>   -3.1599    1.0000 </r>
       <r>   -2.4590    1.0000 </r>
       <r>   -2.3532    1.0000 </r>
       <r>   -1.9602    1.0000 </r>
       <r>   -1.8622    1.0000 </r>
       <r>   -1.5559    1.0000 </r>
       <r>   -1.0086    1.0000 </r>
       <r>   -0.7150    1.0000 </r>
       <r>   -0.5112    1.0000 </r>
       <r>    1.9248   -0.0000 </r>
       <r>    2.1951   -0.0000 </r>
       <r>    2.3356   -0.0000 </r>
       <r>    2.3929   -0.0000 </r>
       <r>    2.6982   -0.0000 </r>
       <r>    3.1008   -0.0000 </r>
       <r>    3.4741    0.0000 </r>
       <r>    3.6725    0.0000 </r>
       <r>    6.3320    0.0000 </r>
       <r>    6.4209    0.0000 </r>
       <r>    7.9101    0.0000 </r>
       <r>    8.4766    0.0000 </r>
      </set>
      <set comment="kpoint 5">
       <r>  -35.0803    1.0000 </r>
       <r>  -34.9957    1.0000 </r>
       <r>  -34.9759    1.0000 </r>
       <r>  -34.8919    1.0000 </r>
       <r>  -34.8910    1.0000 </r>
       <r>  -34.8057    1.0000 </r>
       <r>  -12.9698    1.0000 </r>
       <r>  -12.7263    1.0000 </r>
       <r>  -12.3238    1.0000 </r>
       <r>  -12.0880    1.0000 </r>
       <r>   -5.3222    1.0000 </r>
       <r>   -4.9440    1.0000 </r>
       <r>   -4.2578    1.0000 </r>
       <r>   -3.9906    1.0000 </r>
       <r>   -3.8418    1.0000 </r>
       <r>   -3.5842    1.0000 </r>
       <r>   -2.8151    1.0000 </r>
       <r>   -2.7068    1.0000 </r>
       <r>   -1.8544    1.0000 </r>
       <r>   -1.5788    1.0000 </r>
       <r>   -1.4629    1.0000 </r>
       <r>   -1.2949    1.0000 </r>
       <r>   -1.0178    1.0000 </r>
       <r>   -0.8358    1.0000 </r>
       <r>    1.9964   -0.0000 </r>
       <r>    2.0505   -0.0000 </r>
       <r>    2.2131   -0.0000 </r>
       <r>    2.4340   -0.0000 </r>
       <r>    3.0999   -0.0000 </r>
       <r>    3.5167    0.0000 </r>
       <r>    3.7504    0.0000 </r>
       <r>    4.0005    0.0000 </r>
       <r>    6.9514    0.0000 </r>
       <r>    7.0225    0.0000 </r>
       <r>    7.7184    0.0000 </r>
       <r>    8.1796    0.0000 </r>
      </set>
      <set comment="kpoint 6">
       <r>  -35.1501    1.0000 </r>
       <r>  -35.0655    1.0000 </r>
       <r>  -34.9616    1.0000 </r>
       <r>  -34.9074    1.0000 </r>
       <r>  -34.8777    1.0000 </r>
       <r>  -34.8221    1.0000 </r>
       <r>  -12.5486    1.0000 </r>
       <r>  -12.3344    1.0000 </r>
       <r>  -12.1291    1.0000 </r>
       <r>  -11.9554    1.0000 </r>
       <r>   -5.5720    1.0000 </r>
       <r>   -5.3552    1.0000 </r>
       <r>   -4.6505    1.0000 </r>
       <r>   -4.3669    1.0000 </r>
       <r>   -4.0560    1.0000 </r>
       <r>   -3.7024    1.0000 </r>
       <r>   -3.0761    1.0000 </r>
       <r>   -2.9660    1.0000 </r>
       <r>   -2.0799    1.0000 </r>
       <r>   -1.5236    1.0000 </r>
       <r>   -1.2842    1.0000 </r>
       <r>   -1.1322    1.0000 </r>
       <r>   -0.9754    1.0000 </r>
       <r>   -0.7750    1.0000 </r>
       <r>    2.0335   -0.0000 </r>
       <r>    2.1542   -0.0000 </r>
       <r>    2.2548   -0.0000 </r>
       <r>    2.5827   -0.0000 </r>
       <r>    3.4768    0.0000 </r>
       <r>    3.8589    0.0000 </r>
       <r>    3.9154    0.0000 </r>
       <r>    4.2102    0.0000 </r>
       <r>    6.7681    0.0000 </r>
       <r>    7.1307    0.0000 </r>
       <r>    7.5358    0.0000 </r>
       <r>    8.0075    0.0000 </r>
      </set>
      <set comment="kpoint 7">
       <r>  -35.1892    1.0000 </r>
       <r>  -35.1045    1.0000 </r>
       <r>  -34.9536    1.0000 </r>
       <r>  -34.9167    1.0000 </r>
       <r>  -34.8696    1.0000 </r>
       <r>  -34.8313    1.0000 </r>
       <r>  -12.2798    1.0000 </r>
       <r>  -12.0976    1.0000 </r>
       <r>  -12.0031    1.0000 </r>
       <r>  -11.8796    1.0000 </r>
       <r>   -5.7980    1.0000 </r>
       <r>   -5.6180    1.0000 </r>
       <r>   -4.8886    1.0000 </r>
       <r>   -4.6281    1.0000 </r>
       <r>   -4.1802    1.0000 </r>
       <r>   -3.8224    1.0000 </r>
       <r>   -3.2127    1.0000 </r>
       <r>   -3.1016    1.0000 </r>
       <r>   -2.1895    1.0000 </r>
       <r>   -1.6334    1.0000 </r>
       <r>   -1.1350    1.0000 </r>
       <r>   -0.9563    1.0000 </r>
       <r>   -0.7559    1.0000 </r>
       <r>   -0.5679    1.0000 </r>
       <r>    2.0782   -0.0000 </r>
       <r>    2.1732   -0.0000 </r>
       <r>    2.5094   -0.0000 </r>
       <r>    2.6993   -0.0000 </r>
       <r>    3.6666    0.0000 </r>
       <r>    3.9835    0.0000 </r>
       <r>    4.0318    0.0000 </r>
       <r>    4.3059    0.0000 </r>
       <r>    6.0773    0.0000 </r>
       <r>    6.5940    0.0000 </r>
       <r>    7.7121    0.0000 </r>
       <r>    8.0709    0.0000 </r>
      </set>
      <set comment="kpoint 8">
       <r>  -35.0128    1.0000 </r>
       <r>  -34.9288    1.0000 </r>
       <r>  -34.8937    1.0000 </r>
       <r>  -34.8490    1.0000 </r>
       <r>  -34.8093    1.0000 </r>
       <r>  -34.7634    1.0000 </r>
       <r>  -13.8739    1.0000 </r>
       <r>  -13.6033    1.0000 </r>
       <r>  -12.7470    1.0000 </r>
       <r>  -12.4037    1.0000 </r>
       <r>   -5.6982    1.0000 </r>
       <r>   -4.9389    1.0000 </r>
       <r>   -3.1706    1.0000 </r>
       <r>   -3.0895    1.0000 </r>
       <r>   -2.9674    1.0000 </r>
       <r>   -2.4121    1.0000 </r>
       <r>   -2.3325    1.0000 </r>
       <r>   -2.3236    1.0000 </r>
       <r>   -2.0321    1.0000 </r>
       <r>   -1.9384    1.0000 </r>
       <r>   -1.2764    1.0000 </r>
       <r>   -0.7677    1.0000 </r>
       <r>   -0.3359    1.0000 </r>
       <r>    0.1883    1.0000 </r>
       <r>    2.2588   -0.0000 </r>
       <r>    2.3939   -0.0000 </r>
       <r>    2.4706   -0.0000 </r>
       <r>    2.5487   -0.0000 </r>
       <r>    2.6392   -0.0000 </r>
       <r>    2.7450   -0.0000 </r>
       <r>    3.0621   -0.0000 </r>
       <r>    3.2006   -0.0000 </r>
       <r>    5.7111    0.0000 </r>
       <r>    5.8032    0.0000 </r>
       <r>    7.3322    0.0000 </r>
       <r>    7.5715    0.0000 </r>
      </set>
      <set comment="kpoint 9">
       <r>  -34.9991    1.0000 </r>
       <r>  -34.9613    1.0000 </r>
       <r>  -34.9151    1.0000 </r>
       <r>  -34.8769    1.0000 </r>
       <r>  -34.8675    1.0000 </r>
       <r>  -34.7820    1.0000 </r>
       <r>  -13.5609    1.0000 </r>
       <r>  -13.2951    1.0000 </r>
       <r>  -12.5995    1.0000 </r>
       <r>  -12.2900    1.0000 </r>
       <r>   -5.4222    1.0000 </r>
       <r>   -4.7027    1.0000 </r>
       <r>   -3.6226    1.0000 </r>
       <r>   -3.5428    1.0000 </r>
       <r>   -3.3516    1.0000 </r>
       <r>   -2.8638    1.0000 </r>
       <r>   -2.5111    1.0000 </r>
       <r>   -2.4113    1.0000 </r>
       <r>   -2.1321    1.0000 </r>
       <r>   -2.0370    1.0000 </r>
       <r>   -1.2629    1.0000 </r>
       <r>   -0.8049    1.0000 </r>
       <r>   -0.5603    1.0000 </r>
       <r>   -0.3170    1.0000 </r>
       <r>    1.9196   -0.0000 </r>
       <r>    2.2175   -0.0000 </r>
       <r>    2.3360   -0.0000 </r>
       <r>    2.4256   -0.0000 </r>
       <r>    2.5052   -0.0000 </r>
       <r>    2.8409   -0.0000 </r>
       <r>    3.4854    0.0000 </r>
       <r>    3.6068    0.0000 </r>
       <r>    6.1416    0.0000 </r>
       <r>    6.2343    0.0000 </r>
       <r>    7.7435    0.0000 </r>
       <r>    8.4963    0.0000 </r>
      </set>
      <set comment="kpoint 10">
       <r>  -35.0418    1.0000 </r>
       <r>  -34.9824    1.0000 </r>
       <r>  -34.9573    1.0000 </r>
       <r>  -34.8984    1.0000 </r>
       <r>  -34.8899    1.0000 </r>
       <r>  -34.8044    1.0000 </r>
       <r>  -13.1478    1.0000 </r>
       <r>  -12.8941    1.0000 </r>
       <r>  -12.4053    1.0000 </r>
       <r>  -12.1442    1.0000 </r>
       <r>   -5.2531    1.0000 </r>
       <r>   -4.7421    1.0000 </r>
       <r>   -4.0300    1.0000 </r>
       <r>   -3.8500    1.0000 </r>
       <r>   -3.6905    1.0000 </r>
       <r>   -3.4582    1.0000 </r>
       <r>   -2.9052    1.0000 </r>
       <r>   -2.7578    1.0000 </r>
       <r>   -1.8647    1.0000 </r>
       <r>   -1.7622    1.0000 </r>
       <r>   -1.4730    1.0000 </r>
       <r>   -1.0508    1.0000 </r>
       <r>   -0.8716    1.0000 </r>
       <r>   -0.7396    1.0000 </r>
       <r>    1.7986   -0.0000 </r>
       <r>    2.0793   -0.0000 </r>
       <r>    2.2958   -0.0000 </r>
       <r>    2.4072   -0.0000 </r>
       <r>    2.7400   -0.0000 </r>
       <r>    3.1351   -0.0000 </r>
       <r>    3.8568    0.0000 </r>
       <r>    3.9646    0.0000 </r>
       <r>    6.7295    0.0000 </r>
       <r>    6.8104    0.0000 </r>
       <r>    8.2455    0.0000 </r>
       <r>    8.3666    0.0000 </r>
      </set>
      <set comment="kpoint 11">
       <r>  -35.1165    1.0000 </r>
       <r>  -35.0320    1.0000 </r>
       <r>  -34.9667    1.0000 </r>
       <r>  -34.9109    1.0000 </r>
       <r>  -34.8827    1.0000 </r>
       <r>  -34.8254    1.0000 </r>
       <r>  -12.7094    1.0000 </r>
       <r>  -12.4792    1.0000 </r>
       <r>  -12.1999    1.0000 </r>
       <r>  -11.9982    1.0000 </r>
       <r>   -5.3877    1.0000 </r>
       <r>   -5.1085    1.0000 </r>
       <r>   -4.4557    1.0000 </r>
       <r>   -4.2098    1.0000 </r>
       <r>   -3.9565    1.0000 </r>
       <r>   -3.6351    1.0000 </r>
       <r>   -3.1275    1.0000 </r>
       <r>   -2.9740    1.0000 </r>
       <r>   -1.8409    1.0000 </r>
       <r>   -1.6945    1.0000 </r>
       <r>   -1.5744    1.0000 </r>
       <r>   -1.3293    1.0000 </r>
       <r>   -0.8937    1.0000 </r>
       <r>   -0.7859    1.0000 </r>
       <r>    1.9013   -0.0000 </r>
       <r>    2.1071   -0.0000 </r>
       <r>    2.3187   -0.0000 </r>
       <r>    2.5072   -0.0000 </r>
       <r>    3.1417   -0.0000 </r>
       <r>    3.4813    0.0000 </r>
       <r>    4.0941    0.0000 </r>
       <r>    4.1655    0.0000 </r>
       <r>    7.2926    0.0000 </r>
       <r>    7.3736    0.0000 </r>
       <r>    7.4296    0.0000 </r>
       <r>    8.0671    0.0000 </r>
      </set>
      <set comment="kpoint 12">
       <r>  -35.1689    1.0000 </r>
       <r>  -35.0844    1.0000 </r>
       <r>  -34.9555    1.0000 </r>
       <r>  -34.9257    1.0000 </r>
       <r>  -34.8717    1.0000 </r>
       <r>  -34.8402    1.0000 </r>
       <r>  -12.3550    1.0000 </r>
       <r>  -12.1591    1.0000 </r>
       <r>  -12.0328    1.0000 </r>
       <r>  -11.8915    1.0000 </r>
       <r>   -5.6349    1.0000 </r>
       <r>   -5.4408    1.0000 </r>
       <r>   -4.8184    1.0000 </r>
       <r>   -4.5970    1.0000 </r>
       <r>   -4.1136    1.0000 </r>
       <r>   -3.7500    1.0000 </r>
       <r>   -3.2182    1.0000 </r>
       <r>   -3.0986    1.0000 </r>
       <r>   -2.0648    1.0000 </r>
       <r>   -1.6206    1.0000 </r>
       <r>   -1.5759    1.0000 </r>
       <r>   -1.3774    1.0000 </r>
       <r>   -0.6876    1.0000 </r>
       <r>   -0.5570    1.0000 </r>
       <r>    2.0710   -0.0000 </r>
       <r>    2.1714   -0.0000 </r>
       <r>    2.4609   -0.0000 </r>
       <r>    2.6582   -0.0000 </r>
       <r>    3.5060    0.0000 </r>
       <r>    3.7508    0.0000 </r>
       <r>    4.1395    0.0000 </r>
       <r>    4.2129    0.0000 </r>
       <r>    6.4522    0.0000 </r>
       <r>    6.9763    0.0000 </r>
       <r>    7.9484    0.0000 </r>
       <r>    8.3337    0.0000 </r>
      </set>
      <set comment="kpoint 13">
       <r>  -35.1878    1.0000 </r>
       <r>  -35.1031    1.0000 </r>
       <r>  -34.9515    1.0000 </r>
       <r>  -34.9310    1.0000 </r>
       <r>  -34.8677    1.0000 </r>
       <r>  -34.8455    1.0000 </r>
       <r>  -12.2125    1.0000 </r>
       <r>  -12.0407    1.0000 </r>
       <r>  -11.9641    1.0000 </r>
       <r>  -11.8543    1.0000 </r>
       <r>   -5.7481    1.0000 </r>
       <r>   -5.5695    1.0000 </r>
       <r>   -4.9552    1.0000 </r>
       <r>   -4.7416    1.0000 </r>
       <r>   -4.1878    1.0000 </r>
       <r>   -3.8238    1.0000 </r>
       <r>   -3.2367    1.0000 </r>
       <r>   -3.1375    1.0000 </r>
       <r>   -2.1527    1.0000 </r>
       <r>   -1.6669    1.0000 </r>
       <r>   -1.5392    1.0000 </r>
       <r>   -1.3291    1.0000 </r>
       <r>   -0.5667    1.0000 </r>
       <r>   -0.4080    1.0000 </r>
       <r>    2.1121   -0.0000 </r>
       <r>    2.1829   -0.0000 </r>
       <r>    2.5993   -0.0000 </r>
       <r>    2.7534   -0.0000 </r>
       <r>    3.7056    0.0000 </r>
       <r>    3.8495    0.0000 </r>
       <r>    4.0587    0.0000 </r>
       <r>    4.2061    0.0000 </r>
       <r>    6.0729    0.0000 </r>
       <r>    6.6316    0.0000 </r>
       <r>    8.0866    0.0000 </r>
       <r>    8.4986    0.0000 </r>
      </set>
      <set comment="kpoint 14">
       <r>  -35.1690    1.0000 </r>
       <r>  -35.0843    1.0000 </r>
       <r>  -34.9555    1.0000 </r>
       <r>  -34.9256    1.0000 </r>
       <r>  -34.8716    1.0000 </r>
       <r>  -34.8403    1.0000 </r>
       <r>  -12.3510    1.0000 </r>
       <r>  -12.1601    1.0000 </r>
       <r>  -12.0327    1.0000 </r>
       <r>  -11.8945    1.0000 </r>
       <r>   -5.6352    1.0000 </r>
       <r>   -5.4433    1.0000 </r>
       <r>   -4.8166    1.0000 </r>
       <r>   -4.5981    1.0000 </r>
       <r>   -4.1145    1.0000 </r>
       <r>   -3.7512    1.0000 </r>
       <r>   -3.2163    1.0000 </r>
       <r>   -3.0951    1.0000 </r>
       <r>   -2.0528    1.0000 </r>
       <r>   -1.6053    1.0000 </r>
       <r>   -1.5666    1.0000 </r>
       <r>   -1.4226    1.0000 </r>
       <r>   -0.6959    1.0000 </r>
       <r>   -0.5487    1.0000 </r>
       <r>    2.0646   -0.0000 </r>
       <r>    2.1850   -0.0000 </r>
       <r>    2.4629   -0.0000 </r>
       <r>    2.6540   -0.0000 </r>
       <r>    3.5597    0.0000 </r>
       <r>    3.7117    0.0000 </r>
       <r>    4.1039    0.0000 </r>
       <r>    4.2262    0.0000 </r>
       <r>    6.4601    0.0000 </r>
       <r>    6.9723    0.0000 </r>
       <r>    7.9877    0.0000 </r>
       <r>    8.3379    0.0000 </r>
      </set>
      <set comment="kpoint 15">
       <r>  -35.1166    1.0000 </r>
       <r>  -35.0319    1.0000 </r>
       <r>  -34.9667    1.0000 </r>
       <r>  -34.9107    1.0000 </r>
       <r>  -34.8827    1.0000 </r>
       <r>  -34.8255    1.0000 </r>
       <r>  -12.7052    1.0000 </r>
       <r>  -12.4807    1.0000 </r>
       <r>  -12.1985    1.0000 </r>
       <r>  -12.0019    1.0000 </r>
       <r>   -5.3887    1.0000 </r>
       <r>   -5.1116    1.0000 </r>
       <r>   -4.4525    1.0000 </r>
       <r>   -4.2121    1.0000 </r>
       <r>   -3.9566    1.0000 </r>
       <r>   -3.6393    1.0000 </r>
       <r>   -3.1215    1.0000 </r>
       <r>   -2.9690    1.0000 </r>
       <r>   -1.8031    1.0000 </r>
       <r>   -1.7091    1.0000 </r>
       <r>   -1.5785    1.0000 </r>
       <r>   -1.3595    1.0000 </r>
       <r>   -0.9059    1.0000 </r>
       <r>   -0.7776    1.0000 </r>
       <r>    1.9086   -0.0000 </r>
       <r>    2.1154   -0.0000 </r>
       <r>    2.3114   -0.0000 </r>
       <r>    2.5039   -0.0000 </r>
       <r>    3.1856   -0.0000 </r>
       <r>    3.4404   -0.0000 </r>
       <r>    4.0810    0.0000 </r>
       <r>    4.1729    0.0000 </r>
       <r>    7.2948    0.0000 </r>
       <r>    7.3671    0.0000 </r>
       <r>    7.4407    0.0000 </r>
       <r>    8.0885    0.0000 </r>
      </set>
      <set comment="kpoint 16">
       <r>  -35.0420    1.0000 </r>
       <r>  -34.9824    1.0000 </r>
       <r>  -34.9572    1.0000 </r>
       <r>  -34.8984    1.0000 </r>
       <r>  -34.8896    1.0000 </r>
       <r>  -34.8046    1.0000 </r>
       <r>  -13.1447    1.0000 </r>
       <r>  -12.8954    1.0000 </r>
       <r>  -12.4035    1.0000 </r>
       <r>  -12.1473    1.0000 </r>
       <r>   -5.2542    1.0000 </r>
       <r>   -4.7427    1.0000 </r>
       <r>   -4.0266    1.0000 </r>
       <r>   -3.8582    1.0000 </r>
       <r>   -3.6856    1.0000 </r>
       <r>   -3.4644    1.0000 </r>
       <r>   -2.8957    1.0000 </r>
       <r>   -2.7574    1.0000 </r>
       <r>   -1.8600    1.0000 </r>
       <r>   -1.7532    1.0000 </r>
       <r>   -1.4754    1.0000 </r>
       <r>   -1.0637    1.0000 </r>
       <r>   -0.8865    1.0000 </r>
       <r>   -0.7407    1.0000 </r>
       <r>    1.8129   -0.0000 </r>
       <r>    2.0783   -0.0000 </r>
       <r>    2.2859   -0.0000 </r>
       <r>    2.4061   -0.0000 </r>
       <r>    2.7689   -0.0000 </r>
       <r>    3.1104   -0.0000 </r>
       <r>    3.8577    0.0000 </r>
       <r>    3.9683    0.0000 </r>
       <r>    6.7289    0.0000 </r>
       <r>    6.8105    0.0000 </r>
       <r>    8.2406    0.0000 </r>
       <r>    8.3644    0.0000 </r>
      </set>
      <set comment="kpoint 17">
       <r>  -34.9991    1.0000 </r>
       <r>  -34.9617    1.0000 </r>
       <r>  -34.9151    1.0000 </r>
       <r>  -34.8766    1.0000 </r>
       <r>  -34.8672    1.0000 </r>
       <r>  -34.7822    1.0000 </r>
       <r>  -13.5588    1.0000 </r>
       <r>  -13.2960    1.0000 </r>
       <r>  -12.5980    1.0000 </r>
       <r>  -12.2922    1.0000 </r>
       <r>   -5.4216    1.0000 </r>
       <r>   -4.7033    1.0000 </r>
       <r>   -3.6295    1.0000 </r>
       <r>   -3.5391    1.0000 </r>
       <r>   -3.3545    1.0000 </r>
       <r>   -2.8622    1.0000 </r>
       <r>   -2.5031    1.0000 </r>
       <r>   -2.4144    1.0000 </r>
       <r>   -2.1293    1.0000 </r>
       <r>   -2.0374    1.0000 </r>
       <r>   -1.2445    1.0000 </r>
       <r>   -0.8166    1.0000 </r>
       <r>   -0.5601    1.0000 </r>
       <r>   -0.3516    1.0000 </r>
       <r>    1.9399   -0.0000 </r>
       <r>    2.2251   -0.0000 </r>
       <r>    2.3413   -0.0000 </r>
       <r>    2.4059   -0.0000 </r>
       <r>    2.5200   -0.0000 </r>
       <r>    2.8331   -0.0000 </r>
       <r>    3.4930    0.0000 </r>
       <r>    3.6040    0.0000 </r>
       <r>    6.1415    0.0000 </r>
       <r>    6.2338    0.0000 </r>
       <r>    7.7431    0.0000 </r>
       <r>    8.4883    0.0000 </r>
      </set>
      <set comment="kpoint 18">
       <r>  -35.0128    1.0000 </r>
       <r>  -34.9288    1.0000 </r>
       <r>  -34.8942    1.0000 </r>
       <r>  -34.8485    1.0000 </r>
       <r>  -34.8089    1.0000 </r>
       <r>  -34.7638    1.0000 </r>
       <r>  -13.8728    1.0000 </r>
       <r>  -13.6038    1.0000 </r>
       <r>  -12.7460    1.0000 </r>
       <r>  -12.4050    1.0000 </r>
       <r>   -5.6972    1.0000 </r>
       <r>   -4.9400    1.0000 </r>
       <r>   -3.1752    1.0000 </r>
       <r>   -3.0865    1.0000 </r>
       <r>   -2.9715    1.0000 </r>
       <r>   -2.4100    1.0000 </r>
       <r>   -2.3360    1.0000 </r>
       <r>   -2.3196    1.0000 </r>
       <r>   -2.0289    1.0000 </r>
       <r>   -1.9387    1.0000 </r>
       <r>   -1.2506    1.0000 </r>
       <r>   -0.7834    1.0000 </r>
       <r>   -0.3321    1.0000 </r>
       <r>    0.1401    1.0000 </r>
       <r>    2.3058   -0.0000 </r>
       <r>    2.4020   -0.0000 </r>
       <r>    2.4869   -0.0000 </r>
       <r>    2.5504   -0.0000 </r>
       <r>    2.6153   -0.0000 </r>
       <r>    2.7372   -0.0000 </r>
       <r>    3.0743   -0.0000 </r>
       <r>    3.1845   -0.0000 </r>
       <r>    5.7142    0.0000 </r>
       <r>    5.8044    0.0000 </r>
       <r>    7.2588    0.0000 </r>
       <r>    7.5835    0.0000 </r>
      </set>
      <set comment="kpoint 19">
       <r>  -35.0206    1.0000 </r>
       <r>  -34.9366    1.0000 </r>
       <r>  -34.8554    1.0000 </r>
       <r>  -34.8383    1.0000 </r>
       <r>  -34.7698    1.0000 </r>
       <r>  -34.7539    1.0000 </r>
       <r>  -14.0409    1.0000 </r>
       <r>  -13.7697    1.0000 </r>
       <r>  -12.8253    1.0000 </r>
       <r>  -12.4659    1.0000 </r>
       <r>   -5.8740    1.0000 </r>
       <r>   -5.1119    1.0000 </r>
       <r>   -2.8571    1.0000 </r>
       <r>   -2.7692    1.0000 </r>
       <r>   -2.6677    1.0000 </r>
       <r>   -2.5760    1.0000 </r>
       <r>   -2.4901    1.0000 </r>
       <r>   -1.9469    1.0000 </r>
       <r>   -1.7152    1.0000 </r>
       <r>   -1.6263    1.0000 </r>
       <r>   -1.3857    1.0000 </r>
       <r>   -0.9225    1.0000 </r>
       <r>   -0.2639    1.0000 </r>
       <r>    0.4570    1.0007 </r>
       <r>    2.5417   -0.0000 </r>
       <r>    2.6085   -0.0000 </r>
       <r>    2.6720   -0.0000 </r>
       <r>    2.6790   -0.0000 </r>
       <r>    2.7540   -0.0000 </r>
       <r>    2.7952   -0.0000 </r>
       <r>    2.8449   -0.0000 </r>
       <r>    2.9031   -0.0000 </r>
       <r>    5.4693    0.0000 </r>
       <r>    5.5648    0.0000 </r>
       <r>    6.7868    0.0000 </r>
       <r>    6.9373    0.0000 </r>
      </set>
      <set comment="kpoint 20">
       <r>  -35.0234    1.0000 </r>
       <r>  -34.9848    1.0000 </r>
       <r>  -34.9391    1.0000 </r>
       <r>  -34.9008    1.0000 </r>
       <r>  -34.8939    1.0000 </r>
       <r>  -34.8083    1.0000 </r>
       <r>  -13.2103    1.0000 </r>
       <r>  -12.9534    1.0000 </r>
       <r>  -12.4335    1.0000 </r>
       <r>  -12.1636    1.0000 </r>
       <r>   -5.2249    1.0000 </r>
       <r>   -4.6461    1.0000 </r>
       <r>   -3.9079    1.0000 </r>
       <r>   -3.7649    1.0000 </r>
       <r>   -3.5897    1.0000 </r>
       <r>   -3.3347    1.0000 </r>
       <r>   -3.1245    1.0000 </r>
       <r>   -2.8805    1.0000 </r>
       <r>   -2.0145    1.0000 </r>
       <r>   -1.9146    1.0000 </r>
       <r>   -1.2153    1.0000 </r>
       <r>   -0.8928    1.0000 </r>
       <r>   -0.7763    1.0000 </r>
       <r>   -0.7057    1.0000 </r>
       <r>    1.7049   -0.0000 </r>
       <r>    2.0374   -0.0000 </r>
       <r>    2.3300   -0.0000 </r>
       <r>    2.3687   -0.0000 </r>
       <r>    2.5362   -0.0000 </r>
       <r>    2.9377   -0.0000 </r>
       <r>    3.9323    0.0000 </r>
       <r>    3.9991    0.0000 </r>
       <r>    6.6565    0.0000 </r>
       <r>    6.7414    0.0000 </r>
       <r>    8.2871    0.0000 </r>
       <r>    8.7414    0.0000 </r>
      </set>
      <set comment="kpoint 21">
       <r>  -35.0863    1.0000 </r>
       <r>  -35.0020    1.0000 </r>
       <r>  -34.9696    1.0000 </r>
       <r>  -34.9242    1.0000 </r>
       <r>  -34.8857    1.0000 </r>
       <r>  -34.8386    1.0000 </r>
       <r>  -12.7987    1.0000 </r>
       <r>  -12.5604    1.0000 </r>
       <r>  -12.2369    1.0000 </r>
       <r>  -12.0197    1.0000 </r>
       <r>   -5.2244    1.0000 </r>
       <r>   -4.8686    1.0000 </r>
       <r>   -4.2140    1.0000 </r>
       <r>   -4.0982    1.0000 </r>
       <r>   -3.8751    1.0000 </r>
       <r>   -3.6299    1.0000 </r>
       <r>   -3.3575    1.0000 </r>
       <r>   -3.0127    1.0000 </r>
       <r>   -2.1532    1.0000 </r>
       <r>   -2.0386    1.0000 </r>
       <r>   -1.4188    1.0000 </r>
       <r>   -1.1393    1.0000 </r>
       <r>   -0.8681    1.0000 </r>
       <r>   -0.7841    1.0000 </r>
       <r>    1.7137   -0.0000 </r>
       <r>    2.1153   -0.0000 </r>
       <r>    2.3933   -0.0000 </r>
       <r>    2.4540   -0.0000 </r>
       <r>    2.7645   -0.0000 </r>
       <r>    3.1319   -0.0000 </r>
       <r>    4.2236    0.0000 </r>
       <r>    4.2599    0.0000 </r>
       <r>    7.2947    0.0000 </r>
       <r>    7.3694    0.0000 </r>
       <r>    8.0614    0.0000 </r>
       <r>    8.4730    0.0000 </r>
      </set>
      <set comment="kpoint 22">
       <r>  -35.1371    1.0000 </r>
       <r>  -35.0526    1.0000 </r>
       <r>  -34.9569    1.0000 </r>
       <r>  -34.9502    1.0000 </r>
       <r>  -34.8736    1.0000 </r>
       <r>  -34.8640    1.0000 </r>
       <r>  -12.4139    1.0000 </r>
       <r>  -12.2068    1.0000 </r>
       <r>  -12.0500    1.0000 </r>
       <r>  -11.8935    1.0000 </r>
       <r>   -5.3776    1.0000 </r>
       <r>   -5.1378    1.0000 </r>
       <r>   -4.7281    1.0000 </r>
       <r>   -4.6078    1.0000 </r>
       <r>   -3.9907    1.0000 </r>
       <r>   -3.6370    1.0000 </r>
       <r>   -3.3461    1.0000 </r>
       <r>   -3.0616    1.0000 </r>
       <r>   -2.3416    1.0000 </r>
       <r>   -2.1207    1.0000 </r>
       <r>   -1.7501    1.0000 </r>
       <r>   -1.4587    1.0000 </r>
       <r>   -0.7014    1.0000 </r>
       <r>   -0.5981    1.0000 </r>
       <r>    1.9339   -0.0000 </r>
       <r>    2.2732   -0.0000 </r>
       <r>    2.4859   -0.0000 </r>
       <r>    2.6036   -0.0000 </r>
       <r>    3.0760   -0.0000 </r>
       <r>    3.3816   -0.0000 </r>
       <r>    4.2785    0.0000 </r>
       <r>    4.3971    0.0000 </r>
       <r>    7.0732    0.0000 </r>
       <r>    7.5270    0.0000 </r>
       <r>    8.0580    0.0000 </r>
       <r>    8.3449    0.0000 </r>
      </set>
      <set comment="kpoint 23">
       <r>  -35.1653    1.0000 </r>
       <r>  -35.0807    1.0000 </r>
       <r>  -34.9650    1.0000 </r>
       <r>  -34.9498    1.0000 </r>
       <r>  -34.8801    1.0000 </r>
       <r>  -34.8653    1.0000 </r>
       <r>  -12.1687    1.0000 </r>
       <r>  -11.9999    1.0000 </r>
       <r>  -11.9262    1.0000 </r>
       <r>  -11.8227    1.0000 </r>
       <r>   -5.4970    1.0000 </r>
       <r>   -5.3040    1.0000 </r>
       <r>   -5.0333    1.0000 </r>
       <r>   -4.9024    1.0000 </r>
       <r>   -4.1254    1.0000 </r>
       <r>   -3.7475    1.0000 </r>
       <r>   -3.2647    1.0000 </r>
       <r>   -3.0785    1.0000 </r>
       <r>   -2.3858    1.0000 </r>
       <r>   -2.1149    1.0000 </r>
       <r>   -1.9808    1.0000 </r>
       <r>   -1.6805    1.0000 </r>
       <r>   -0.4817    1.0000 </r>
       <r>   -0.3464    1.0000 </r>
       <r>    2.0254   -0.0000 </r>
       <r>    2.1361   -0.0000 </r>
       <r>    2.7093   -0.0000 </r>
       <r>    2.8989   -0.0000 </r>
       <r>    3.2936   -0.0000 </r>
       <r>    3.5705    0.0000 </r>
       <r>    4.1967    0.0000 </r>
       <r>    4.4308    0.0000 </r>
       <r>    6.4062    0.0000 </r>
       <r>    7.0109    0.0000 </r>
       <r>    8.7141    0.0000 </r>
       <r>    8.8757    0.0000 </r>
      </set>
      <set comment="kpoint 24">
       <r>  -35.1654    1.0000 </r>
       <r>  -35.0807    1.0000 </r>
       <r>  -34.9649    1.0000 </r>
       <r>  -34.9498    1.0000 </r>
       <r>  -34.8801    1.0000 </r>
       <r>  -34.8654    1.0000 </r>
       <r>  -12.1627    1.0000 </r>
       <r>  -12.0007    1.0000 </r>
       <r>  -11.9276    1.0000 </r>
       <r>  -11.8263    1.0000 </r>
       <r>   -5.4978    1.0000 </r>
       <r>   -5.3077    1.0000 </r>
       <r>   -5.0327    1.0000 </r>
       <r>   -4.9017    1.0000 </r>
       <r>   -4.1247    1.0000 </r>
       <r>   -3.7469    1.0000 </r>
       <r>   -3.2645    1.0000 </r>
       <r>   -3.0751    1.0000 </r>
       <r>   -2.3599    1.0000 </r>
       <r>   -2.1111    1.0000 </r>
       <r>   -2.0135    1.0000 </r>
       <r>   -1.6856    1.0000 </r>
       <r>   -0.4820    1.0000 </r>
       <r>   -0.3440    1.0000 </r>
       <r>    2.0213   -0.0000 </r>
       <r>    2.1401   -0.0000 </r>
       <r>    2.7105   -0.0000 </r>
       <r>    2.8991   -0.0000 </r>
       <r>    3.3328   -0.0000 </r>
       <r>    3.5301    0.0000 </r>
       <r>    4.1888    0.0000 </r>
       <r>    4.4332    0.0000 </r>
       <r>    6.4132    0.0000 </r>
       <r>    7.0120    0.0000 </r>
       <r>    8.7576    0.0000 </r>
       <r>    8.8616    0.0000 </r>
      </set>
      <set comment="kpoint 25">
       <r>  -35.1373    1.0000 </r>
       <r>  -35.0525    1.0000 </r>
       <r>  -34.9569    1.0000 </r>
       <r>  -34.9499    1.0000 </r>
       <r>  -34.8734    1.0000 </r>
       <r>  -34.8644    1.0000 </r>
       <r>  -12.4038    1.0000 </r>
       <r>  -12.2098    1.0000 </r>
       <r>  -12.0487    1.0000 </r>
       <r>  -11.9014    1.0000 </r>
       <r>   -5.3801    1.0000 </r>
       <r>   -5.1446    1.0000 </r>
       <r>   -4.7284    1.0000 </r>
       <r>   -4.6091    1.0000 </r>
       <r>   -3.9843    1.0000 </r>
       <r>   -3.6340    1.0000 </r>
       <r>   -3.3441    1.0000 </r>
       <r>   -3.0553    1.0000 </r>
       <r>   -2.3097    1.0000 </r>
       <r>   -2.1268    1.0000 </r>
       <r>   -1.7920    1.0000 </r>
       <r>   -1.4665    1.0000 </r>
       <r>   -0.7070    1.0000 </r>
       <r>   -0.5873    1.0000 </r>
       <r>    1.9294   -0.0000 </r>
       <r>    2.2863   -0.0000 </r>
       <r>    2.4900   -0.0000 </r>
       <r>    2.5931   -0.0000 </r>
       <r>    3.1413   -0.0000 </r>
       <r>    3.3126   -0.0000 </r>
       <r>    4.2587    0.0000 </r>
       <r>    4.4133    0.0000 </r>
       <r>    7.0786    0.0000 </r>
       <r>    7.5328    0.0000 </r>
       <r>    8.0658    0.0000 </r>
       <r>    8.3850    0.0000 </r>
      </set>
      <set comment="kpoint 26">
       <r>  -35.0867    1.0000 </r>
       <r>  -35.0017    1.0000 </r>
       <r>  -34.9696    1.0000 </r>
       <r>  -34.9238    1.0000 </r>
       <r>  -34.8855    1.0000 </r>
       <r>  -34.8389    1.0000 </r>
       <r>  -12.7903    1.0000 </r>
       <r>  -12.5636    1.0000 </r>
       <r>  -12.2335    1.0000 </r>
       <r>  -12.0274    1.0000 </r>
       <r>   -5.2288    1.0000 </r>
       <r>   -4.8722    1.0000 </r>
       <r>   -4.2160    1.0000 </r>
       <r>   -4.1146    1.0000 </r>
       <r>   -3.8441    1.0000 </r>
       <r>   -3.6316    1.0000 </r>
       <r>   -3.3573    1.0000 </r>
       <r>   -3.0097    1.0000 </r>
       <r>   -2.1573    1.0000 </r>
       <r>   -2.0245    1.0000 </r>
       <r>   -1.4324    1.0000 </r>
       <r>   -1.1594    1.0000 </r>
       <r>   -0.8925    1.0000 </r>
       <r>   -0.7612    1.0000 </r>
       <r>    1.7207   -0.0000 </r>
       <r>    2.1180   -0.0000 </r>
       <r>    2.3868   -0.0000 </r>
       <r>    2.4498   -0.0000 </r>
       <r>    2.7983   -0.0000 </r>
       <r>    3.1038   -0.0000 </r>
       <r>    4.1985    0.0000 </r>
       <r>    4.2878    0.0000 </r>
       <r>    7.2934    0.0000 </r>
       <r>    7.3688    0.0000 </r>
       <r>    8.0108    0.0000 </r>
       <r>    8.6066    0.0000 </r>
      </set>
      <set comment="kpoint 27">
       <r>  -35.0240    1.0000 </r>
       <r>  -34.9848    1.0000 </r>
       <r>  -34.9389    1.0000 </r>
       <r>  -34.9006    1.0000 </r>
       <r>  -34.8934    1.0000 </r>
       <r>  -34.8087    1.0000 </r>
       <r>  -13.2045    1.0000 </r>
       <r>  -12.9558    1.0000 </r>
       <r>  -12.4299    1.0000 </r>
       <r>  -12.1696    1.0000 </r>
       <r>   -5.2276    1.0000 </r>
       <r>   -4.6444    1.0000 </r>
       <r>   -3.8974    1.0000 </r>
       <r>   -3.7976    1.0000 </r>
       <r>   -3.5728    1.0000 </r>
       <r>   -3.3350    1.0000 </r>
       <r>   -3.1142    1.0000 </r>
       <r>   -2.8833    1.0000 </r>
       <r>   -2.0152    1.0000 </r>
       <r>   -1.9073    1.0000 </r>
       <r>   -1.1792    1.0000 </r>
       <r>   -0.9131    1.0000 </r>
       <r>   -0.8220    1.0000 </r>
       <r>   -0.7145    1.0000 </r>
       <r>    1.7205   -0.0000 </r>
       <r>    2.0367   -0.0000 </r>
       <r>    2.3254   -0.0000 </r>
       <r>    2.3708   -0.0000 </r>
       <r>    2.5494   -0.0000 </r>
       <r>    2.9363   -0.0000 </r>
       <r>    3.9200    0.0000 </r>
       <r>    4.0149    0.0000 </r>
       <r>    6.6571    0.0000 </r>
       <r>    6.7393    0.0000 </r>
       <r>    8.2906    0.0000 </r>
       <r>    8.7282    0.0000 </r>
      </set>
      <set comment="kpoint 28">
       <r>  -34.9991    1.0000 </r>
       <r>  -34.9619    1.0000 </r>
       <r>  -34.9152    1.0000 </r>
       <r>  -34.8763    1.0000 </r>
       <r>  -34.8669    1.0000 </r>
       <r>  -34.7824    1.0000 </r>
       <r>  -13.5574    1.0000 </r>
       <r>  -13.2966    1.0000 </r>
       <r>  -12.5969    1.0000 </r>
       <r>  -12.2939    1.0000 </r>
       <r>   -5.4214    1.0000 </r>
       <r>   -4.7033    1.0000 </r>
       <r>   -3.6244    1.0000 </r>
       <r>   -3.5468    1.0000 </r>
       <r>   -3.3527    1.0000 </r>
       <r>   -2.8692    1.0000 </r>
       <r>   -2.5054    1.0000 </r>
       <r>   -2.4064    1.0000 </r>
       <r>   -2.1300    1.0000 </r>
       <r>   -2.0368    1.0000 </r>
       <r>   -1.2016    1.0000 </r>
       <r>   -0.8404    1.0000 </r>
       <r>   -0.5544    1.0000 </r>
       <r>   -0.3988    1.0000 </r>
       <r>    1.9557   -0.0000 </r>
       <r>    2.2286   -0.0000 </r>
       <r>    2.3371   -0.0000 </r>
       <r>    2.4251   -0.0000 </r>
       <r>    2.5139   -0.0000 </r>
       <r>    2.8359   -0.0000 </r>
       <r>    3.4877    0.0000 </r>
       <r>    3.6054    0.0000 </r>
       <r>    6.1438    0.0000 </r>
       <r>    6.2319    0.0000 </r>
       <r>    7.7434    0.0000 </r>
       <r>    8.4769    0.0000 </r>
      </set>
      <set comment="kpoint 29">
       <r>  -35.0092    1.0000 </r>
       <r>  -34.9252    1.0000 </r>
       <r>  -34.9139    1.0000 </r>
       <r>  -34.8517    1.0000 </r>
       <r>  -34.8283    1.0000 </r>
       <r>  -34.7673    1.0000 </r>
       <r>  -13.7909    1.0000 </r>
       <r>  -13.5243    1.0000 </r>
       <r>  -12.7071    1.0000 </r>
       <r>  -12.3767    1.0000 </r>
       <r>   -5.6197    1.0000 </r>
       <r>   -4.8702    1.0000 </r>
       <r>   -3.3152    1.0000 </r>
       <r>   -3.2301    1.0000 </r>
       <r>   -3.1089    1.0000 </r>
       <r>   -2.5470    1.0000 </r>
       <r>   -2.3253    1.0000 </r>
       <r>   -2.2362    1.0000 </r>
       <r>   -2.0520    1.0000 </r>
       <r>   -1.9579    1.0000 </r>
       <r>   -1.3023    1.0000 </r>
       <r>   -0.8504    1.0000 </r>
       <r>   -0.3825    1.0000 </r>
       <r>   -0.0403    1.0000 </r>
       <r>    2.2225   -0.0000 </r>
       <r>    2.3985   -0.0000 </r>
       <r>    2.4455   -0.0000 </r>
       <r>    2.5270   -0.0000 </r>
       <r>    2.6313   -0.0000 </r>
       <r>    2.7613   -0.0000 </r>
       <r>    3.1281   -0.0000 </r>
       <r>    3.2552   -0.0000 </r>
       <r>    5.8233    0.0000 </r>
       <r>    5.9096    0.0000 </r>
       <r>    7.3862    0.0000 </r>
       <r>    7.8189    0.0000 </r>
      </set>
      <set comment="kpoint 30">
       <r>  -35.1188    1.0000 </r>
       <r>  -35.0345    1.0000 </r>
       <r>  -34.9659    1.0000 </r>
       <r>  -34.9574    1.0000 </r>
       <r>  -34.8813    1.0000 </r>
       <r>  -34.8724    1.0000 </r>
       <r>  -12.4361    1.0000 </r>
       <r>  -12.2248    1.0000 </r>
       <r>  -12.0554    1.0000 </r>
       <r>  -11.8930    1.0000 </r>
       <r>   -5.2461    1.0000 </r>
       <r>   -4.9704    1.0000 </r>
       <r>   -4.6741    1.0000 </r>
       <r>   -4.6178    1.0000 </r>
       <r>   -3.8928    1.0000 </r>
       <r>   -3.5868    1.0000 </r>
       <r>   -3.3641    1.0000 </r>
       <r>   -3.0154    1.0000 </r>
       <r>   -2.6611    1.0000 </r>
       <r>   -2.5713    1.0000 </r>
       <r>   -1.6149    1.0000 </r>
       <r>   -1.4114    1.0000 </r>
       <r>   -0.7311    1.0000 </r>
       <r>   -0.6279    1.0000 </r>
       <r>    1.8599   -0.0000 </r>
       <r>    2.3150   -0.0000 </r>
       <r>    2.4897   -0.0000 </r>
       <r>    2.5902   -0.0000 </r>
       <r>    2.8862   -0.0000 </r>
       <r>    3.1838   -0.0000 </r>
       <r>    4.4019    0.0000 </r>
       <r>    4.4789    0.0000 </r>
       <r>    7.5871    0.0000 </r>
       <r>    7.7390    0.0000 </r>
       <r>    8.0476    0.0000 </r>
       <r>    8.1567    0.0000 </r>
      </set>
      <set comment="kpoint 31">
       <r>  -35.1357    1.0000 </r>
       <r>  -35.0513    1.0000 </r>
       <r>  -35.0014    1.0000 </r>
       <r>  -34.9488    1.0000 </r>
       <r>  -34.9161    1.0000 </r>
       <r>  -34.8646    1.0000 </r>
       <r>  -12.1494    1.0000 </r>
       <r>  -11.9794    1.0000 </r>
       <r>  -11.9028    1.0000 </r>
       <r>  -11.8002    1.0000 </r>
       <r>   -5.2414    1.0000 </r>
       <r>   -5.0845    1.0000 </r>
       <r>   -5.0261    1.0000 </r>
       <r>   -4.9515    1.0000 </r>
       <r>   -3.9476    1.0000 </r>
       <r>   -3.6267    1.0000 </r>
       <r>   -3.2831    1.0000 </r>
       <r>   -3.1087    1.0000 </r>
       <r>   -2.9569    1.0000 </r>
       <r>   -2.8143    1.0000 </r>
       <r>   -1.9334    1.0000 </r>
       <r>   -1.7257    1.0000 </r>
       <r>   -0.4617    1.0000 </r>
       <r>   -0.3561    1.0000 </r>
       <r>    1.8933   -0.0000 </r>
       <r>    2.0598   -0.0000 </r>
       <r>    2.7500   -0.0000 </r>
       <r>    2.9842   -0.0000 </r>
       <r>    3.0225   -0.0000 </r>
       <r>    3.3061   -0.0000 </r>
       <r>    4.4824    0.0000 </r>
       <r>    4.6234    0.0000 </r>
       <r>    6.9272    0.0000 </r>
       <r>    7.4171    0.0000 </r>
       <r>    8.2613    0.0000 </r>
       <r>    8.6143    0.0000 </r>
      </set>
      <set comment="kpoint 32">
       <r>  -35.1403    1.0000 </r>
       <r>  -35.0556    1.0000 </r>
       <r>  -35.0157    1.0000 </r>
       <r>  -34.9457    1.0000 </r>
       <r>  -34.9306    1.0000 </r>
       <r>  -34.8616    1.0000 </r>
       <r>  -12.0288    1.0000 </r>
       <r>  -11.8950    1.0000 </r>
       <r>  -11.8423    1.0000 </r>
       <r>  -11.7696    1.0000 </r>
       <r>   -5.3062    1.0000 </r>
       <r>   -5.2113    1.0000 </r>
       <r>   -5.0517    1.0000 </r>
       <r>   -4.9605    1.0000 </r>
       <r>   -4.0839    1.0000 </r>
       <r>   -3.7198    1.0000 </r>
       <r>   -3.2748    1.0000 </r>
       <r>   -3.1445    1.0000 </r>
       <r>   -2.9085    1.0000 </r>
       <r>   -2.8412    1.0000 </r>
       <r>   -2.1267    1.0000 </r>
       <r>   -1.8693    1.0000 </r>
       <r>   -0.2933    1.0000 </r>
       <r>   -0.1727    1.0000 </r>
       <r>    1.7925   -0.0000 </r>
       <r>    1.8767   -0.0000 </r>
       <r>    2.9182   -0.0000 </r>
       <r>    3.0371   -0.0000 </r>
       <r>    3.2047   -0.0000 </r>
       <r>    3.4013   -0.0000 </r>
       <r>    4.5013    0.0000 </r>
       <r>    4.6703    0.0000 </r>
       <r>    6.6127    0.0000 </r>
       <r>    7.2313    0.0000 </r>
       <r>    8.1178    0.0000 </r>
       <r>    8.8793    0.0000 </r>
      </set>
      <set comment="kpoint 33">
       <r>  -35.1361    1.0000 </r>
       <r>  -35.0511    1.0000 </r>
       <r>  -35.0010    1.0000 </r>
       <r>  -34.9488    1.0000 </r>
       <r>  -34.9162    1.0000 </r>
       <r>  -34.8647    1.0000 </r>
       <r>  -12.1317    1.0000 </r>
       <r>  -11.9821    1.0000 </r>
       <r>  -11.9065    1.0000 </r>
       <r>  -11.8110    1.0000 </r>
       <r>   -5.2468    1.0000 </r>
       <r>   -5.0896    1.0000 </r>
       <r>   -5.0304    1.0000 </r>
       <r>   -4.9528    1.0000 </r>
       <r>   -3.9357    1.0000 </r>
       <r>   -3.6063    1.0000 </r>
       <r>   -3.2738    1.0000 </r>
       <r>   -3.1247    1.0000 </r>
       <r>   -2.9189    1.0000 </r>
       <r>   -2.8435    1.0000 </r>
       <r>   -1.9956    1.0000 </r>
       <r>   -1.6931    1.0000 </r>
       <r>   -0.4619    1.0000 </r>
       <r>   -0.3507    1.0000 </r>
       <r>    1.8886   -0.0000 </r>
       <r>    2.0607   -0.0000 </r>
       <r>    2.7638   -0.0000 </r>
       <r>    2.9498   -0.0000 </r>
       <r>    3.0809   -0.0000 </r>
       <r>    3.2594   -0.0000 </r>
       <r>    4.4772    0.0000 </r>
       <r>    4.6206    0.0000 </r>
       <r>    6.9606    0.0000 </r>
       <r>    7.4584    0.0000 </r>
       <r>    8.2525    0.0000 </r>
       <r>    8.6728    0.0000 </r>
      </set>
      <set comment="kpoint 34">
       <r>  -35.1194    1.0000 </r>
       <r>  -35.0342    1.0000 </r>
       <r>  -34.9653    1.0000 </r>
       <r>  -34.9574    1.0000 </r>
       <r>  -34.8809    1.0000 </r>
       <r>  -34.8731    1.0000 </r>
       <r>  -12.4184    1.0000 </r>
       <r>  -12.2303    1.0000 </r>
       <r>  -12.0523    1.0000 </r>
       <r>  -11.9073    1.0000 </r>
       <r>   -5.2518    1.0000 </r>
       <r>   -4.9795    1.0000 </r>
       <r>   -4.6880    1.0000 </r>
       <r>   -4.6228    1.0000 </r>
       <r>   -3.8126    1.0000 </r>
       <r>   -3.6083    1.0000 </r>
       <r>   -3.3671    1.0000 </r>
       <r>   -3.0254    1.0000 </r>
       <r>   -2.6830    1.0000 </r>
       <r>   -2.5516    1.0000 </r>
       <r>   -1.6492    1.0000 </r>
       <r>   -1.4071    1.0000 </r>
       <r>   -0.7398    1.0000 </r>
       <r>   -0.6132    1.0000 </r>
       <r>    1.8527   -0.0000 </r>
       <r>    2.3167   -0.0000 </r>
       <r>    2.4963   -0.0000 </r>
       <r>    2.5847   -0.0000 </r>
       <r>    2.9122   -0.0000 </r>
       <r>    3.1502   -0.0000 </r>
       <r>    4.4000    0.0000 </r>
       <r>    4.4827    0.0000 </r>
       <r>    7.5818    0.0000 </r>
       <r>    7.7744    0.0000 </r>
       <r>    8.0293    0.0000 </r>
       <r>    8.2966    0.0000 </r>
      </set>
      <set comment="kpoint 35">
       <r>  -35.0869    1.0000 </r>
       <r>  -35.0016    1.0000 </r>
       <r>  -34.9696    1.0000 </r>
       <r>  -34.9236    1.0000 </r>
       <r>  -34.8855    1.0000 </r>
       <r>  -34.8391    1.0000 </r>
       <r>  -12.7857    1.0000 </r>
       <r>  -12.5654    1.0000 </r>
       <r>  -12.2314    1.0000 </r>
       <r>  -12.0319    1.0000 </r>
       <r>   -5.2319    1.0000 </r>
       <r>   -4.8746    1.0000 </r>
       <r>   -4.2109    1.0000 </r>
       <r>   -4.1364    1.0000 </r>
       <r>   -3.7695    1.0000 </r>
       <r>   -3.6647    1.0000 </r>
       <r>   -3.3682    1.0000 </r>
       <r>   -3.0271    1.0000 </r>
       <r>   -2.1588    1.0000 </r>
       <r>   -2.0246    1.0000 </r>
       <r>   -1.3684    1.0000 </r>
       <r>   -1.2108    1.0000 </r>
       <r>   -0.8932    1.0000 </r>
       <r>   -0.7720    1.0000 </r>
       <r>    1.7136   -0.0000 </r>
       <r>    2.1146   -0.0000 </r>
       <r>    2.3885   -0.0000 </r>
       <r>    2.4647   -0.0000 </r>
       <r>    2.7731   -0.0000 </r>
       <r>    3.1329   -0.0000 </r>
       <r>    4.1967    0.0000 </r>
       <r>    4.2868    0.0000 </r>
       <r>    7.2930    0.0000 </r>
       <r>    7.3674    0.0000 </r>
       <r>    8.0204    0.0000 </r>
       <r>    8.5879    0.0000 </r>
      </set>
      <set comment="kpoint 36">
       <r>  -35.0424    1.0000 </r>
       <r>  -34.9824    1.0000 </r>
       <r>  -34.9570    1.0000 </r>
       <r>  -34.8982    1.0000 </r>
       <r>  -34.8893    1.0000 </r>
       <r>  -34.8049    1.0000 </r>
       <r>  -13.1395    1.0000 </r>
       <r>  -12.8977    1.0000 </r>
       <r>  -12.4003    1.0000 </r>
       <r>  -12.1529    1.0000 </r>
       <r>   -5.2581    1.0000 </r>
       <r>   -4.7431    1.0000 </r>
       <r>   -3.9882    1.0000 </r>
       <r>   -3.8892    1.0000 </r>
       <r>   -3.6860    1.0000 </r>
       <r>   -3.4725    1.0000 </r>
       <r>   -2.9011    1.0000 </r>
       <r>   -2.7531    1.0000 </r>
       <r>   -1.8637    1.0000 </r>
       <r>   -1.7525    1.0000 </r>
       <r>   -1.3759    1.0000 </r>
       <r>   -1.1408    1.0000 </r>
       <r>   -0.8815    1.0000 </r>
       <r>   -0.7896    1.0000 </r>
       <r>    1.8128   -0.0000 </r>
       <r>    2.0886   -0.0000 </r>
       <r>    2.2842   -0.0000 </r>
       <r>    2.4252   -0.0000 </r>
       <r>    2.7518   -0.0000 </r>
       <r>    3.1395   -0.0000 </r>
       <r>    3.8378    0.0000 </r>
       <r>    3.9803    0.0000 </r>
       <r>    6.7325    0.0000 </r>
       <r>    6.8044    0.0000 </r>
       <r>    8.2371    0.0000 </r>
       <r>    8.3376    0.0000 </r>
      </set>
      <set comment="kpoint 37">
       <r>  -34.9955    1.0000 </r>
       <r>  -34.9930    1.0000 </r>
       <r>  -34.9123    1.0000 </r>
       <r>  -34.9067    1.0000 </r>
       <r>  -34.8705    1.0000 </r>
       <r>  -34.7862    1.0000 </r>
       <r>  -13.4109    1.0000 </r>
       <r>  -13.1566    1.0000 </r>
       <r>  -12.5282    1.0000 </r>
[...]
       <r>    -2.2572     2.1460    18.4298 </r>
       <r>    -2.0952     2.3455    18.8096 </r>
       <r>    -1.9333     3.8662    19.4357 </r>
       <r>    -1.7713     2.9807    19.9184 </r>
       <r>    -1.6094     3.2625    20.4467 </r>
       <r>    -1.4475     2.8950    20.9155 </r>
       <r>    -1.2855     2.6070    21.3377 </r>
       <r>    -1.1236     1.7284    21.6176 </r>
       <r>    -0.9616     1.2930    21.8270 </r>
       <r>    -0.7997     3.3183    22.3643 </r>
       <r>    -0.6378     3.4379    22.9211 </r>
       <r>    -0.4758     2.3602    23.3033 </r>
       <r>    -0.3139     2.2452    23.6669 </r>
       <r>    -0.1519     1.0723    23.8405 </r>
       <r>     0.0100     0.4075    23.9065 </r>
       <r>     0.1719     0.2441    23.9461 </r>
       <r>     0.3339     0.0741    23.9581 </r>
       <r>     0.4958     0.1527    23.9828 </r>
       <r>     0.6577     0.0969    23.9985 </r>
       <r>     0.8197     0.0100    24.0001 </r>
       <r>     0.9816    -0.0005    24.0000 </r>
       <r>     1.1436    -0.0000    24.0000 </r>
       <r>     1.3055    -0.0000    24.0000 </r>
       <r>     1.4674    -0.0048    23.9992 </r>
       <r>     1.6294     0.0730    24.0110 </r>
       <r>     1.7913     1.2230    24.2091 </r>
       <r>     1.9533     2.3919    24.5965 </r>
       <r>     2.1152     3.8529    25.2204 </r>
       <r>     2.2771     3.9448    25.8592 </r>
       <r>     2.4391     4.5393    26.5943 </r>
       <r>     2.6010     4.8409    27.3782 </r>
       <r>     2.7630     3.8756    28.0059 </r>
       <r>     2.9249     3.2133    28.5262 </r>
       <r>     3.0868     2.3461    28.9061 </r>
       <r>     3.2488     2.9248    29.3798 </r>
       <r>     3.4107     1.6396    29.6453 </r>
       <r>     3.5727     2.5158    30.0527 </r>
       <r>     3.7346     1.3925    30.2782 </r>
       <r>     3.8965     1.4237    30.5087 </r>
       <r>     4.0585     1.9560    30.8255 </r>
       <r>     4.2204     2.3317    31.2031 </r>
       <r>     4.3824     2.2776    31.5719 </r>
       <r>     4.5443     1.4506    31.8068 </r>
       <r>     4.7062     0.9444    31.9598 </r>
       <r>     4.8682     0.2593    32.0018 </r>
       <r>     5.0301    -0.0109    32.0000 </r>
       <r>     5.1920    -0.0014    31.9998 </r>
       <r>     5.3540     0.0187    32.0028 </r>
       <r>     5.5159     0.2715    32.0468 </r>
       <r>     5.6779     0.2650    32.0897 </r>
       <r>     5.8398     0.5055    32.1716 </r>
       <r>     6.0017     0.3305    32.2251 </r>
       <r>     6.1637     0.6017    32.3225 </r>
       <r>     6.3256     0.7834    32.4494 </r>
       <r>     6.4876     0.9632    32.6054 </r>
       <r>     6.6495     0.8746    32.7470 </r>
       <r>     6.8114     1.4855    32.9876 </r>
       <r>     6.9734     1.6643    33.2571 </r>
       <r>     7.1353     1.3596    33.4773 </r>
       <r>     7.2973     1.0444    33.6464 </r>
       <r>     7.4592     2.4817    34.0483 </r>
       <r>     7.6211     1.2370    34.2486 </r>
       <r>     7.7831     1.0335    34.4160 </r>
       <r>     7.9450     0.8570    34.5547 </r>
       <r>     8.1070     2.2911    34.9258 </r>
       <r>     8.2689     1.7191    35.2041 </r>
       <r>     8.4308     1.9322    35.5170 </r>
       <r>     8.5928     1.1329    35.7005 </r>
       <r>     8.7547     0.9442    35.8534 </r>
       <r>     8.9167     0.6901    35.9652 </r>
       <r>     9.0786     0.2229    36.0013 </r>
       <r>     9.2405    -0.0077    36.0000 </r>
       <r>     9.4025    -0.0001    36.0000 </r>
       <r>     9.5644    -0.0000    36.0000 </r>
       <r>     9.7264    -0.0000    36.0000 </r>
       <r>     9.8883     0.0000    36.0000 </r>
       <r>    10.0502     0.0000    36.0000 </r>
       <r>    10.2122     0.0000    36.0000 </r>
       <r>    10.3741     0.0000    36.0000 </r>
       <r>    10.5360     0.0000    36.0000 </r>
       <r>    10.6980     0.0000    36.0000 </r>
       <r>    10.8599     0.0000    36.0000 </r>
       <r>    11.0219     0.0000    36.0000 </r>
       <r>    11.1838     0.0000    36.0000 </r>
      </set>
      <set comment="spin 2">
       <r>   -37.3980     0.0000     0.0000 </r>
       <r>   -37.2361     0.0000     0.0000 </r>
       <r>   -37.0741     0.0000     0.0000 </r>
       <r>   -36.9122     0.0000     0.0000 </r>
       <r>   -36.7502     0.0000     0.0000 </r>
       <r>   -36.5883     0.0000     0.0000 </r>
       <r>   -36.4264     0.0000     0.0000 </r>
       <r>   -36.2644     0.0000     0.0000 </r>
       <r>   -36.1025    -0.0000    -0.0000 </r>
       <r>   -35.9405    -0.0000    -0.0000 </r>
       <r>   -35.7786    -0.0000    -0.0000 </r>
       <r>   -35.6167    -0.0000    -0.0000 </r>
       <r>   -35.4547    -0.0005    -0.0001 </r>
       <r>   -35.2928    -0.1105    -0.0180 </r>
       <r>   -35.1308     2.3701     0.3658 </r>
       <r>   -34.9689    12.0270     2.3135 </r>
       <r>   -34.8070    20.1744     5.5805 </r>
       <r>   -34.6450     2.7243     6.0217 </r>
       <r>   -34.4831    -0.1335     6.0001 </r>
       <r>   -34.3211    -0.0004     6.0000 </r>
       <r>   -34.1592    -0.0000     6.0000 </r>
       <r>   -33.9973    -0.0000     6.0000 </r>
       <r>   -33.8353     0.0000     6.0000 </r>
       <r>   -33.6734     0.0000     6.0000 </r>
       <r>   -33.5114     0.0000     6.0000 </r>
       <r>   -33.3495     0.0000     6.0000 </r>
       <r>   -33.1876     0.0000     6.0000 </r>
       <r>   -33.0256     0.0000     6.0000 </r>
       <r>   -32.8637     0.0000     6.0000 </r>
       <r>   -32.7018     0.0000     6.0000 </r>
       <r>   -32.5398     0.0000     6.0000 </r>
       <r>   -32.3779     0.0000     6.0000 </r>
       <r>   -32.2159     0.0000     6.0000 </r>
       <r>   -32.0540     0.0000     6.0000 </r>
       <r>   -31.8921     0.0000     6.0000 </r>
       <r>   -31.7301     0.0000     6.0000 </r>
       <r>   -31.5682     0.0000     6.0000 </r>
       <r>   -31.4062     0.0000     6.0000 </r>
       <r>   -31.2443     0.0000     6.0000 </r>
       <r>   -31.0824     0.0000     6.0000 </r>
       <r>   -30.9204     0.0000     6.0000 </r>
       <r>   -30.7585     0.0000     6.0000 </r>
       <r>   -30.5965     0.0000     6.0000 </r>
       <r>   -30.4346     0.0000     6.0000 </r>
       <r>   -30.2727     0.0000     6.0000 </r>
       <r>   -30.1107     0.0000     6.0000 </r>
       <r>   -29.9488     0.0000     6.0000 </r>
       <r>   -29.7868     0.0000     6.0000 </r>
       <r>   -29.6249     0.0000     6.0000 </r>
       <r>   -29.4630     0.0000     6.0000 </r>
       <r>   -29.3010     0.0000     6.0000 </r>
       <r>   -29.1391     0.0000     6.0000 </r>
       <r>   -28.9771     0.0000     6.0000 </r>
       <r>   -28.8152     0.0000     6.0000 </r>
       <r>   -28.6533     0.0000     6.0000 </r>
       <r>   -28.4913     0.0000     6.0000 </r>
       <r>   -28.3294     0.0000     6.0000 </r>
       <r>   -28.1675     0.0000     6.0000 </r>
       <r>   -28.0055     0.0000     6.0000 </r>
       <r>   -27.8436     0.0000     6.0000 </r>
       <r>   -27.6816     0.0000     6.0000 </r>
       <r>   -27.5197     0.0000     6.0000 </r>
       <r>   -27.3578     0.0000     6.0000 </r>
       <r>   -27.1958     0.0000     6.0000 </r>
       <r>   -27.0339     0.0000     6.0000 </r>
       <r>   -26.8719     0.0000     6.0000 </r>
       <r>   -26.7100     0.0000     6.0000 </r>
       <r>   -26.5481     0.0000     6.0000 </r>
       <r>   -26.3861     0.0000     6.0000 </r>
       <r>   -26.2242     0.0000     6.0000 </r>
       <r>   -26.0622     0.0000     6.0000 </r>
       <r>   -25.9003     0.0000     6.0000 </r>
       <r>   -25.7384     0.0000     6.0000 </r>
       <r>   -25.5764     0.0000     6.0000 </r>
       <r>   -25.4145     0.0000     6.0000 </r>
       <r>   -25.2525     0.0000     6.0000 </r>
       <r>   -25.0906     0.0000     6.0000 </r>
       <r>   -24.9287     0.0000     6.0000 </r>
       <r>   -24.7667     0.0000     6.0000 </r>
       <r>   -24.6048     0.0000     6.0000 </r>
       <r>   -24.4428     0.0000     6.0000 </r>
       <r>   -24.2809     0.0000     6.0000 </r>
       <r>   -24.1190     0.0000     6.0000 </r>
       <r>   -23.9570     0.0000     6.0000 </r>
       <r>   -23.7951     0.0000     6.0000 </r>
       <r>   -23.6331     0.0000     6.0000 </r>
       <r>   -23.4712     0.0000     6.0000 </r>
       <r>   -23.3093     0.0000     6.0000 </r>
       <r>   -23.1473     0.0000     6.0000 </r>
       <r>   -22.9854     0.0000     6.0000 </r>
       <r>   -22.8235     0.0000     6.0000 </r>
       <r>   -22.6615     0.0000     6.0000 </r>
       <r>   -22.4996     0.0000     6.0000 </r>
       <r>   -22.3376     0.0000     6.0000 </r>
       <r>   -22.1757     0.0000     6.0000 </r>
       <r>   -22.0138     0.0000     6.0000 </r>
       <r>   -21.8518     0.0000     6.0000 </r>
       <r>   -21.6899     0.0000     6.0000 </r>
       <r>   -21.5279     0.0000     6.0000 </r>
       <r>   -21.3660     0.0000     6.0000 </r>
       <r>   -21.2041     0.0000     6.0000 </r>
       <r>   -21.0421     0.0000     6.0000 </r>
       <r>   -20.8802     0.0000     6.0000 </r>
       <r>   -20.7182     0.0000     6.0000 </r>
       <r>   -20.5563     0.0000     6.0000 </r>
       <r>   -20.3944     0.0000     6.0000 </r>
       <r>   -20.2324     0.0000     6.0000 </r>
       <r>   -20.0705     0.0000     6.0000 </r>
       <r>   -19.9085     0.0000     6.0000 </r>
       <r>   -19.7466     0.0000     6.0000 </r>
       <r>   -19.5847     0.0000     6.0000 </r>
       <r>   -19.4227     0.0000     6.0000 </r>
       <r>   -19.2608     0.0000     6.0000 </r>
       <r>   -19.0988     0.0000     6.0000 </r>
       <r>   -18.9369     0.0000     6.0000 </r>
       <r>   -18.7750     0.0000     6.0000 </r>
       <r>   -18.6130     0.0000     6.0000 </r>
       <r>   -18.4511     0.0000     6.0000 </r>
       <r>   -18.2892     0.0000     6.0000 </r>
       <r>   -18.1272     0.0000     6.0000 </r>
       <r>   -17.9653     0.0000     6.0000 </r>
       <r>   -17.8033     0.0000     6.0000 </r>
       <r>   -17.6414     0.0000     6.0000 </r>
       <r>   -17.4795     0.0000     6.0000 </r>
       <r>   -17.3175     0.0000     6.0000 </r>
       <r>   -17.1556     0.0000     6.0000 </r>
       <r>   -16.9936     0.0000     6.0000 </r>
       <r>   -16.8317     0.0000     6.0000 </r>
       <r>   -16.6698     0.0000     6.0000 </r>
       <r>   -16.5078     0.0000     6.0000 </r>
       <r>   -16.3459     0.0000     6.0000 </r>
       <r>   -16.1839     0.0000     6.0000 </r>
       <r>   -16.0220     0.0000     6.0000 </r>
       <r>   -15.8601     0.0000     6.0000 </r>
       <r>   -15.6981     0.0000     6.0000 </r>
       <r>   -15.5362     0.0000     6.0000 </r>
       <r>   -15.3742     0.0000     6.0000 </r>
       <r>   -15.2123     0.0000     6.0000 </r>
       <r>   -15.0504    -0.0000     6.0000 </r>
       <r>   -14.8884    -0.0000     6.0000 </r>
       <r>   -14.7265    -0.0000     6.0000 </r>
       <r>   -14.5645    -0.0000     6.0000 </r>
       <r>   -14.4026    -0.0000     6.0000 </r>
       <r>   -14.2407    -0.0030     5.9995 </r>
       <r>   -14.0787     0.0781     6.0122 </r>
       <r>   -13.9168     0.2139     6.0468 </r>
       <r>   -13.7549     0.5310     6.1328 </r>
       <r>   -13.5929     0.3723     6.1931 </r>
       <r>   -13.4310     0.7204     6.3097 </r>
       <r>   -13.2690     0.4476     6.3822 </r>
       <r>   -13.1071     0.8734     6.5237 </r>
       <r>   -12.9452     0.4442     6.5956 </r>
       <r>   -12.7832     1.1195     6.7769 </r>
       <r>   -12.6213     1.3967     7.0031 </r>
       <r>   -12.4593     1.7922     7.2933 </r>
       <r>   -12.2974     2.7816     7.7437 </r>
       <r>   -12.1355     3.8080     8.3604 </r>
       <r>   -11.9735     4.6908     9.1200 </r>
       <r>   -11.8116     4.5675     9.8597 </r>
       <r>   -11.6496     0.9064    10.0065 </r>
       <r>   -11.4877    -0.0397    10.0000 </r>
       <r>   -11.3258    -0.0002    10.0000 </r>
       <r>   -11.1638    -0.0000    10.0000 </r>
       <r>   -11.0019    -0.0000    10.0000 </r>
       <r>   -10.8399     0.0000    10.0000 </r>
       <r>   -10.6780     0.0000    10.0000 </r>
       <r>   -10.5161     0.0000    10.0000 </r>
       <r>   -10.3541     0.0000    10.0000 </r>
       <r>   -10.1922     0.0000    10.0000 </r>
       <r>   -10.0302     0.0000    10.0000 </r>
       <r>    -9.8683     0.0000    10.0000 </r>
       <r>    -9.7064     0.0000    10.0000 </r>
       <r>    -9.5444     0.0000    10.0000 </r>
       <r>    -9.3825     0.0000    10.0000 </r>
       <r>    -9.2205     0.0000    10.0000 </r>
       <r>    -9.0586     0.0000    10.0000 </r>
       <r>    -8.8967     0.0000    10.0000 </r>
       <r>    -8.7347     0.0000    10.0000 </r>
       <r>    -8.5728     0.0000    10.0000 </r>
       <r>    -8.4109     0.0000    10.0000 </r>
       <r>    -8.2489     0.0000    10.0000 </r>
       <r>    -8.0870     0.0000    10.0000 </r>
       <r>    -7.9250     0.0000    10.0000 </r>
       <r>    -7.7631     0.0000    10.0000 </r>
       <r>    -7.6012     0.0000    10.0000 </r>
       <r>    -7.4392     0.0000    10.0000 </r>
       <r>    -7.2773     0.0000    10.0000 </r>
       <r>    -7.1153     0.0000    10.0000 </r>
       <r>    -6.9534     0.0000    10.0000 </r>
       <r>    -6.7915    -0.0000    10.0000 </r>
       <r>    -6.6295    -0.0000    10.0000 </r>
       <r>    -6.4676    -0.0000    10.0000 </r>
       <r>    -6.3056    -0.0000    10.0000 </r>
       <r>    -6.1437    -0.0007     9.9999 </r>
       <r>    -5.9818     0.0059    10.0008 </r>
       <r>    -5.8198     0.2736    10.0452 </r>
       <r>    -5.6579     0.8353    10.1804 </r>
       <r>    -5.4959     1.3715    10.4025 </r>
       <r>    -5.3340     2.6372    10.8296 </r>
       <r>    -5.1721     3.1293    11.3363 </r>
       <r>    -5.0101     2.4130    11.7271 </r>
       <r>    -4.8482     2.8432    12.1875 </r>
       <r>    -4.6862     2.5775    12.6049 </r>
       <r>    -4.5243     2.2372    12.9672 </r>
       <r>    -4.3624     0.4871    13.0461 </r>
       <r>    -4.2004     0.9638    13.2022 </r>
       <r>    -4.0385     2.0757    13.5383 </r>
       <r>    -3.8766     3.0526    14.0327 </r>
       <r>    -3.7146     3.6780    14.6283 </r>
       <r>    -3.5527     3.5381    15.2012 </r>
       <r>    -3.3907     1.5210    15.4476 </r>
       <r>    -3.2288     3.1436    15.9566 </r>
       <r>    -3.0669     4.1591    16.6302 </r>
       <r>    -2.9049     3.4648    17.1912 </r>
       <r>    -2.7430     2.6684    17.6234 </r>
       <r>    -2.5810     1.1206    17.8048 </r>
       <r>    -2.4191     1.7132    18.0823 </r>
       <r>    -2.2572     2.1460    18.4298 </r>
       <r>    -2.0952     2.3460    18.8097 </r>
       <r>    -1.9333     3.8662    19.4358 </r>
       <r>    -1.7713     2.9806    19.9185 </r>
       <r>    -1.6094     3.2627    20.4468 </r>
       <r>    -1.4475     2.8950    20.9156 </r>
       <r>    -1.2855     2.6067    21.3378 </r>
       <r>    -1.1236     1.7284    21.6177 </r>
       <r>    -0.9616     1.2929    21.8270 </r>
       <r>    -0.7997     3.3188    22.3645 </r>
       <r>    -0.6378     3.4374    22.9211 </r>
       <r>    -0.4758     2.3601    23.3033 </r>
       <r>    -0.3139     2.2454    23.6669 </r>
       <r>    -0.1519     1.0720    23.8405 </r>
       <r>     0.0100     0.4075    23.9065 </r>
       <r>     0.1719     0.2441    23.9461 </r>
       <r>     0.3339     0.0741    23.9581 </r>
       <r>     0.4958     0.1527    23.9828 </r>
       <r>     0.6577     0.0968    23.9985 </r>
       <r>     0.8197     0.0100    24.0001 </r>
       <r>     0.9816    -0.0005    24.0000 </r>
       <r>     1.1436    -0.0000    24.0000 </r>
       <r>     1.3055    -0.0000    24.0000 </r>
       <r>     1.4674    -0.0048    23.9992 </r>
       <r>     1.6294     0.0730    24.0111 </r>
       <r>     1.7913     1.2232    24.2091 </r>
       <r>     1.9533     2.3921    24.5965 </r>
       <r>     2.1152     3.8530    25.2205 </r>
       <r>     2.2771     3.9449    25.8593 </r>
       <r>     2.4391     4.5397    26.5945 </r>
       <r>     2.6010     4.8406    27.3783 </r>
       <r>     2.7630     3.8757    28.0060 </r>
       <r>     2.9249     3.2132    28.5263 </r>
       <r>     3.0868     2.3462    28.9063 </r>
       <r>     3.2488     2.9245    29.3799 </r>
       <r>     3.4107     1.6395    29.6454 </r>
       <r>     3.5727     2.5159    30.0528 </r>
       <r>     3.7346     1.3923    30.2782 </r>
       <r>     3.8965     1.4237    30.5088 </r>
       <r>     4.0585     1.9561    30.8256 </r>
       <r>     4.2204     2.3321    31.2032 </r>
       <r>     4.3824     2.2772    31.5720 </r>
       <r>     4.5443     1.4505    31.8069 </r>
       <r>     4.7062     0.9443    31.9598 </r>
       <r>     4.8682     0.2591    32.0018 </r>
       <r>     5.0301    -0.0109    32.0000 </r>
       <r>     5.1920    -0.0012    31.9998 </r>
       <r>     5.3540     0.0141    32.0021 </r>
       <r>     5.5159     0.2407    32.0411 </r>
       <r>     5.6779     0.2860    32.0874 </r>
       <r>     5.8398     0.4632    32.1624 </r>
       <r>     6.0017     0.3826    32.2244 </r>
       <r>     6.1637     0.5305    32.3103 </r>
       <r>     6.3256     0.8175    32.4427 </r>
       <r>     6.4876     0.9772    32.6009 </r>
       <r>     6.6495     0.8314    32.7356 </r>
       <r>     6.8114     1.4150    32.9647 </r>
       <r>     6.9734     1.5921    33.2225 </r>
       <r>     7.1353     1.4996    33.4654 </r>
       <r>     7.2973     1.1030    33.6440 </r>
       <r>     7.4592     2.4595    34.0423 </r>
       <r>     7.6211     1.2183    34.2396 </r>
       <r>     7.7831     1.0944    34.4168 </r>
       <r>     7.9450     0.8400    34.5528 </r>
       <r>     8.1070     2.0665    34.8875 </r>
       <r>     8.2689     1.6109    35.1483 </r>
       <r>     8.4308     2.1438    35.4955 </r>
       <r>     8.5928     0.9138    35.6435 </r>
       <r>     8.7547     0.9319    35.7944 </r>
       <r>     8.9167     0.9224    35.9438 </r>
       <r>     9.0786     0.3631    36.0026 </r>
       <r>     9.2405    -0.0158    36.0000 </r>
       <r>     9.4025    -0.0000    36.0000 </r>
       <r>     9.5644    -0.0000    36.0000 </r>
       <r>     9.7264     0.0000    36.0000 </r>
       <r>     9.8883     0.0000    36.0000 </r>
       <r>    10.0502     0.0000    36.0000 </r>
       <r>    10.2122     0.0000    36.0000 </r>
       <r>    10.3741     0.0000    36.0000 </r>
       <r>    10.5360     0.0000    36.0000 </r>
       <r>    10.6980     0.0000    36.0000 </r>
       <r>    10.8599     0.0000    36.0000 </r>
       <r>    11.0219     0.0000    36.0000 </r>
       <r>    11.1838     0.0000    36.0000 </r>
      </set>
     </set>
    </array>
   </total>
  </dos>
 </calculation>
 <structure name="finalpos" >
  <crystal>
   <varray name="basis" >
    <v>       3.19031700       0.00000000       0.00000000 </v>
    <v>      -1.59515800       2.76289700       0.00000000 </v>
    <v>       0.00000000       0.00000000      23.14049200 </v>
   </varray>
   <i name="volume">    203.97226633 </i>
   <varray name="rec_basis" >
    <v>       0.31344848       0.18096941       0.00000000 </v>
    <v>       0.00000000       0.36193894       0.00000000 </v>
    <v>       0.00000000       0.00000000       0.04321429 </v>
   </varray>
  </crystal>
  <varray name="positions" >
   <v>       0.66666700       0.33333300       0.06785900 </v>
   <v>       0.33333300       0.66666700       0.00000000 </v>
   <v>       0.33333300       0.66666700       0.13571500 </v>
   <v>       0.95238100       0.04761900       0.32241200 </v>
   <v>       0.61904700       0.38095300       0.25455400 </v>
   <v>       0.61904700       0.38095300       0.39026800 </v>
  </varray>
 </structure>
</modeling>
