  24  24   0   0
  0.4176334E+02  0.3540400E-09  0.1044544E-08  0.2750143E-08  0.5000000E-15
  1.000000000000000E-004
  CAR 
 unknown system                          
      4.21345101    -16.30546248  301      0.08339398      1.00000000
    -16.305  0.0000E+00  0.0000E+00
    -16.237  0.0000E+00  0.0000E+00
    -16.169  0.0000E+00  0.0000E+00
    -16.100  0.0000E+00  0.0000E+00
    -16.032  0.0000E+00  0.0000E+00
    -15.963  0.0000E+00  0.0000E+00
    -15.895  0.1249E-15  0.8540E-17
    -15.827  0.1687E-12  0.1154E-13
    -15.758  0.1542E-09  0.1056E-10
    -15.690  0.5669E-07  0.3888E-08
    -15.621  0.8474E-05  0.5835E-06
    -15.553  0.5236E-03  0.3640E-04
    -15.485  0.1371E-01  0.9745E-03
    -15.416  0.1574E+00  0.1174E-01
    -15.348  0.8219E+00  0.6796E-01
    -15.280  0.2017E+01  0.2059E+00
    -15.211  0.2483E+01  0.3758E+00
    -15.143  0.2098E+01  0.5193E+00
    -15.074  0.1925E+01  0.6510E+00
    -15.006  0.1332E+01  0.7421E+00
    -14.938  0.8073E+00  0.7973E+00
    -14.869  0.1316E+01  0.8873E+00
    -14.801  0.1646E+01  0.9999E+00
    -14.732  0.9094E+00  0.1062E+01
    -14.664  0.3331E+00  0.1085E+01
    -14.596  0.7013E+00  0.1133E+01
    -14.527  0.1538E+01  0.1238E+01
    -14.459  0.1458E+01  0.1338E+01
    -14.390  0.5952E+00  0.1378E+01
    -14.322  0.2570E+00  0.1396E+01
    -14.254  0.7874E+00  0.1450E+01
    -14.185  0.1598E+01  0.1559E+01
    -14.117  0.1422E+01  0.1656E+01
    -14.048  0.8758E+00  0.1716E+01
    -13.980  0.1298E+01  0.1805E+01
    -13.912  0.1659E+01  0.1919E+01
    -13.843  0.9420E+00  0.1983E+01
    -13.775  0.2250E+00  0.1998E+01
    -13.706  0.2380E-01  0.2000E+01
    -13.638  0.2436E-01  0.2002E+01
    -13.570  0.1822E+00  0.2014E+01
    -13.501  0.7257E+00  0.2064E+01
    -13.433  0.1563E+01  0.2171E+01
    -13.364  0.2008E+01  0.2308E+01
    -13.296  0.1956E+01  0.2442E+01
    -13.228  0.1884E+01  0.2571E+01
    -13.159  0.1950E+01  0.2704E+01
    -13.091  0.2422E+01  0.2870E+01
    -13.022  0.3374E+01  0.3101E+01
    -12.954  0.4366E+01  0.3399E+01
    -12.886  0.4921E+01  0.3736E+01
    -12.817  0.4723E+01  0.4059E+01
    -12.749  0.3566E+01  0.4303E+01
    -12.680  0.2527E+01  0.4476E+01
    -12.612  0.3304E+01  0.4702E+01
    -12.544  0.5427E+01  0.5073E+01
    -12.475  0.6529E+01  0.5519E+01
    -12.407  0.6336E+01  0.5953E+01
    -12.338  0.5812E+01  0.6350E+01
    -12.270  0.5587E+01  0.6732E+01
    -12.202  0.5949E+01  0.7139E+01
    -12.133  0.5965E+01  0.7547E+01
    -12.065  0.6071E+01  0.7962E+01
    -11.996  0.7230E+01  0.8457E+01
    -11.928  0.8402E+01  0.9031E+01
    -11.860  0.8077E+01  0.9584E+01
    -11.791  0.7104E+01  0.1007E+02
    -11.723  0.6717E+01  0.1053E+02
    -11.655  0.6736E+01  0.1099E+02
    -11.586  0.7240E+01  0.1149E+02
    -11.518  0.8354E+01  0.1206E+02
    -11.449  0.9704E+01  0.1272E+02
    -11.381  0.9684E+01  0.1338E+02
    -11.313  0.8757E+01  0.1398E+02
    -11.244  0.8398E+01  0.1456E+02
    -11.176  0.7959E+01  0.1510E+02
    -11.107  0.7520E+01  0.1561E+02
    -11.039  0.8139E+01  0.1617E+02
    -10.971  0.9065E+01  0.1679E+02
    -10.902  0.9748E+01  0.1746E+02
    -10.834  0.1046E+02  0.1817E+02
    -10.765  0.1122E+02  0.1894E+02
    -10.697  0.1081E+02  0.1968E+02
    -10.629  0.9882E+01  0.2036E+02
    -10.560  0.8427E+01  0.2093E+02
    -10.492  0.5707E+01  0.2132E+02
    -10.423  0.3882E+01  0.2159E+02
    -10.355  0.3339E+01  0.2182E+02
    -10.287  0.2087E+01  0.2196E+02
    -10.218  0.1173E+01  0.2204E+02
    -10.150  0.1716E+01  0.2216E+02
    -10.081  0.2542E+01  0.2233E+02
    -10.013  0.3018E+01  0.2254E+02
     -9.945  0.3674E+01  0.2279E+02
     -9.876  0.4702E+01  0.2311E+02
     -9.808  0.5441E+01  0.2348E+02
     -9.739  0.4633E+01  0.2380E+02
     -9.671  0.2605E+01  0.2398E+02
     -9.603  0.1694E+01  0.2409E+02
     -9.534  0.1798E+01  0.2422E+02
     -9.466  0.1510E+01  0.2432E+02
     -9.397  0.1879E+01  0.2445E+02
     -9.329  0.3127E+01  0.2466E+02
     -9.261  0.4188E+01  0.2495E+02
     -9.192  0.5087E+01  0.2530E+02
     -9.124  0.5192E+01  0.2565E+02
     -9.055  0.3595E+01  0.2590E+02
     -8.987  0.1842E+01  0.2602E+02
     -8.919  0.1606E+01  0.2613E+02
     -8.850  0.1975E+01  0.2627E+02
     -8.782  0.2417E+01  0.2643E+02
     -8.713  0.3477E+01  0.2667E+02
     -8.645  0.4378E+01  0.2697E+02
     -8.577  0.4711E+01  0.2729E+02
     -8.508  0.4691E+01  0.2761E+02
     -8.440  0.4540E+01  0.2792E+02
     -8.371  0.5054E+01  0.2827E+02
     -8.303  0.5326E+01  0.2863E+02
     -8.235  0.4017E+01  0.2891E+02
     -8.166  0.2586E+01  0.2909E+02
     -8.098  0.2566E+01  0.2926E+02
     -8.030  0.3038E+01  0.2947E+02
     -7.961  0.3311E+01  0.2970E+02
     -7.893  0.4055E+01  0.2997E+02
     -7.824  0.4855E+01  0.3031E+02
     -7.756  0.5689E+01  0.3069E+02
     -7.688  0.6464E+01  0.3114E+02
     -7.619  0.7149E+01  0.3163E+02
     -7.551  0.8112E+01  0.3218E+02
     -7.482  0.7874E+01  0.3272E+02
     -7.414  0.7091E+01  0.3320E+02
     -7.346  0.7228E+01  0.3370E+02
     -7.277  0.7625E+01  0.3422E+02
     -7.209  0.7309E+01  0.3472E+02
     -7.140  0.6848E+01  0.3519E+02
     -7.072  0.6575E+01  0.3564E+02
     -7.004  0.5585E+01  0.3602E+02
     -6.935  0.5499E+01  0.3640E+02
     -6.867  0.7436E+01  0.3690E+02
     -6.798  0.9259E+01  0.3754E+02
     -6.730  0.9869E+01  0.3821E+02
     -6.662  0.1114E+02  0.3897E+02
     -6.593  0.1170E+02  0.3978E+02
     -6.525  0.8963E+01  0.4039E+02
     -6.456  0.5956E+01  0.4080E+02
     -6.388  0.4651E+01  0.4111E+02
     -6.320  0.4378E+01  0.4141E+02
     -6.251  0.5145E+01  0.4177E+02
     -6.183  0.6175E+01  0.4219E+02
     -6.114  0.6672E+01  0.4264E+02
     -6.046  0.6382E+01  0.4308E+02
     -5.978  0.5698E+01  0.4347E+02
     -5.909  0.5024E+01  0.4381E+02
     -5.841  0.4294E+01  0.4411E+02
     -5.772  0.4600E+01  0.4442E+02
     -5.704  0.6075E+01  0.4484E+02
     -5.636  0.7272E+01  0.4533E+02
     -5.567  0.7378E+01  0.4584E+02
     -5.499  0.6613E+01  0.4629E+02
     -5.430  0.5472E+01  0.4667E+02
     -5.362  0.5136E+01  0.4702E+02
     -5.294  0.6142E+01  0.4744E+02
     -5.225  0.6781E+01  0.4790E+02
     -5.157  0.6409E+01  0.4834E+02
     -5.088  0.5735E+01  0.4873E+02
     -5.020  0.6615E+01  0.4918E+02
     -4.952  0.9426E+01  0.4983E+02
     -4.883  0.1052E+02  0.5055E+02
     -4.815  0.9302E+01  0.5118E+02
     -4.746  0.8601E+01  0.5177E+02
     -4.678  0.8881E+01  0.5238E+02
     -4.610  0.9220E+01  0.5301E+02
     -4.541  0.9675E+01  0.5367E+02
     -4.473  0.1065E+02  0.5440E+02
     -4.404  0.1112E+02  0.5516E+02
     -4.336  0.1091E+02  0.5591E+02
     -4.268  0.1128E+02  0.5668E+02
     -4.199  0.1229E+02  0.5752E+02
     -4.131  0.1314E+02  0.5842E+02
     -4.063  0.1335E+02  0.5933E+02
     -3.994  0.1311E+02  0.6023E+02
     -3.926  0.1250E+02  0.6108E+02
     -3.857  0.1167E+02  0.6188E+02
     -3.789  0.1141E+02  0.6266E+02
     -3.721  0.1175E+02  0.6347E+02
     -3.652  0.1173E+02  0.6427E+02
     -3.584  0.1102E+02  0.6502E+02
     -3.515  0.1049E+02  0.6574E+02
     -3.447  0.1147E+02  0.6652E+02
     -3.379  0.1422E+02  0.6750E+02
     -3.310  0.1595E+02  0.6859E+02
     -3.242  0.1581E+02  0.6967E+02
     -3.173  0.1547E+02  0.7073E+02
     -3.105  0.1513E+02  0.7176E+02
     -3.037  0.1616E+02  0.7287E+02
     -2.968  0.1775E+02  0.7408E+02
     -2.900  0.1741E+02  0.7527E+02
     -2.831  0.1569E+02  0.7635E+02
     -2.763  0.1510E+02  0.7738E+02
     -2.695  0.1637E+02  0.7850E+02
     -2.626  0.1768E+02  0.7971E+02
     -2.558  0.1739E+02  0.8090E+02
     -2.489  0.1679E+02  0.8205E+02
     -2.421  0.1601E+02  0.8314E+02
     -2.353  0.1407E+02  0.8410E+02
     -2.284  0.1196E+02  0.8492E+02
     -2.216  0.1180E+02  0.8573E+02
     -2.147  0.1390E+02  0.8668E+02
     -2.079  0.1597E+02  0.8777E+02
     -2.011  0.1729E+02  0.8895E+02
     -1.942  0.1884E+02  0.9024E+02
     -1.874  0.1940E+02  0.9157E+02
     -1.805  0.1838E+02  0.9283E+02
     -1.737  0.1686E+02  0.9398E+02
     -1.669  0.1558E+02  0.9505E+02
     -1.600  0.1296E+02  0.9593E+02
     -1.532  0.1038E+02  0.9664E+02
     -1.463  0.1067E+02  0.9737E+02
     -1.395  0.1296E+02  0.9826E+02
     -1.327  0.1435E+02  0.9924E+02
     -1.258  0.1253E+02  0.1001E+03
     -1.190  0.8916E+01  0.1007E+03
     -1.121  0.7323E+01  0.1012E+03
     -1.053  0.8060E+01  0.1018E+03
     -0.985  0.8633E+01  0.1023E+03
     -0.916  0.8788E+01  0.1029E+03
     -0.848  0.8634E+01  0.1035E+03
     -0.779  0.7231E+01  0.1040E+03
     -0.711  0.5386E+01  0.1044E+03
     -0.643  0.3703E+01  0.1047E+03
     -0.574  0.3689E+01  0.1049E+03
     -0.506  0.5485E+01  0.1053E+03
     -0.438  0.6828E+01  0.1058E+03
     -0.369  0.6526E+01  0.1062E+03
     -0.301  0.5107E+01  0.1065E+03
     -0.232  0.3378E+01  0.1068E+03
     -0.164  0.2409E+01  0.1069E+03
     -0.096  0.2417E+01  0.1071E+03
     -0.027  0.3427E+01  0.1073E+03
      0.041  0.5453E+01  0.1077E+03
      0.110  0.6766E+01  0.1082E+03
      0.178  0.5819E+01  0.1086E+03
      0.246  0.4541E+01  0.1089E+03
      0.315  0.4526E+01  0.1092E+03
      0.383  0.4699E+01  0.1095E+03
      0.452  0.4304E+01  0.1098E+03
      0.520  0.3431E+01  0.1100E+03
      0.588  0.2487E+01  0.1102E+03
      0.657  0.2428E+01  0.1104E+03
      0.725  0.2925E+01  0.1106E+03
      0.794  0.3894E+01  0.1108E+03
      0.862  0.5651E+01  0.1112E+03
      0.930  0.6696E+01  0.1117E+03
      0.999  0.6444E+01  0.1121E+03
      1.067  0.6674E+01  0.1126E+03
      1.136  0.7162E+01  0.1131E+03
      1.204  0.6661E+01  0.1135E+03
      1.272  0.6187E+01  0.1140E+03
      1.341  0.6898E+01  0.1144E+03
      1.409  0.8818E+01  0.1150E+03
      1.478  0.1012E+02  0.1157E+03
      1.546  0.1069E+02  0.1165E+03
      1.614  0.1128E+02  0.1172E+03
      1.683  0.1065E+02  0.1180E+03
      1.751  0.9783E+01  0.1186E+03
      1.820  0.1090E+02  0.1194E+03
      1.888  0.1152E+02  0.1202E+03
      1.956  0.1002E+02  0.1208E+03
      2.025  0.9568E+01  0.1215E+03
      2.093  0.1061E+02  0.1222E+03
      2.162  0.1151E+02  0.1230E+03
      2.230  0.1304E+02  0.1239E+03
      2.298  0.1493E+02  0.1249E+03
      2.367  0.1554E+02  0.1260E+03
      2.435  0.1543E+02  0.1270E+03
      2.504  0.1527E+02  0.1281E+03
      2.572  0.1537E+02  0.1291E+03
      2.640  0.1562E+02  0.1302E+03
      2.709  0.1585E+02  0.1313E+03
      2.777  0.1538E+02  0.1323E+03
      2.846  0.1340E+02  0.1333E+03
      2.914  0.1067E+02  0.1340E+03
      2.982  0.8698E+01  0.1346E+03
      3.051  0.7735E+01  0.1351E+03
      3.119  0.6278E+01  0.1355E+03
      3.188  0.4050E+01  0.1358E+03
      3.256  0.1918E+01  0.1360E+03
      3.324  0.5762E+00  0.1360E+03
      3.393  0.9488E-01  0.1360E+03
      3.461  0.7699E-02  0.1360E+03
      3.529  0.2851E-03  0.1360E+03
      3.598  0.4563E-05  0.1360E+03
      3.666  0.3048E-07  0.1360E+03
      3.735  0.8322E-10  0.1360E+03
      3.803  0.9165E-13  0.1360E+03
      3.871  0.0000E+00  0.1360E+03
      3.940  0.0000E+00  0.1360E+03
      4.008  0.0000E+00  0.1360E+03
      4.077  0.0000E+00  0.1360E+03
      4.145  0.0000E+00  0.1360E+03
      4.213  0.0000E+00  0.1360E+03
