   24   24    1    1
  0.4176334E+02  0.3540400E-09  0.1044544E-08  0.2750143E-08  0.5000000E-15
  1.000000000000000E-004
  CAR 
 unknown system                          
    108     54     68
 
  0.0000000E+00  0.0000000E+00  0.0000000E+00  0.9615385E-02
    1      -15.305462
    2      -13.504665
    3      -12.990273
    4      -12.765078
    5      -12.615921
    6      -12.446343
    7      -12.073004
    8      -11.996117
    9      -11.519406
   10      -11.396256
   11      -10.954730
   12       -9.917185
   13       -9.093527
   14       -7.998311
   15       -7.793383
   16       -7.530906
   17       -6.882226
   18       -6.763268
   19       -6.454676
   20       -6.287535
   21       -5.787593
   22       -5.404562
   23       -4.994843
   24       -4.692340
   25       -4.491700
   26       -3.814476
   27       -3.659799
   28       -3.576468
   29       -3.419094
   30       -3.300733
   31       -3.036766
   32       -3.018716
   33       -2.870910
   34       -2.807670
   35       -2.731092
   36       -2.441995
   37       -2.384056
   38       -2.358381
   39       -2.178226
   40       -2.068358
   41       -1.959955
   42       -1.841597
   43       -1.762595
   44       -1.693321
   45       -1.614673
   46       -1.603640
   47       -1.547631
   48       -1.395685
   49       -1.342642
   50       -1.174100
   51       -1.059596
   52       -0.920586
   53       -0.583730
   54       -0.054860
   55        0.732264
   56        1.078042
   57        1.203695
   58        1.356991
   59        1.499766
   60        1.616739
   61        1.745352
   62        1.935033
   63        1.997114
   64        2.050252
   65        2.182144
   66        2.467781
   67        2.587183
   68        2.682290
 
  0.7692308E-01 -0.1387779E-16  0.0000000E+00  0.1923077E-01
    1      -15.252678
    2      -13.443314
    3      -12.936940
    4      -12.712909
    5      -12.558486
    6      -12.390731
    7      -12.013241
    8      -11.939810
    9      -11.469575
   10      -11.347329
   11      -10.906352
   12       -9.891521
   13       -9.093916
   14       -8.034934
   15       -7.756625
   16       -7.502299
   17       -6.855906
   18       -6.738678
   19       -6.448957
   20       -6.297575
   21       -5.753909
   22       -5.409907
   23       -5.153083
   24       -4.744775
   25       -4.652234
   26       -3.922956
   27       -3.783604
   28       -3.685483
   29       -3.558777
   30       -3.386026
   31       -3.305047
   32       -3.221468
   33       -3.100378
   34       -2.983285
   35       -2.734195
   36       -2.705943
   37       -2.590702
   38       -2.439142
   39       -2.368293
   40       -2.224891
   41       -2.154580
   42       -2.040363
   43       -1.930460
   44       -1.904479
   45       -1.805691
   46       -1.680743
   47       -1.543157
   48       -1.472429
   49       -1.277822
   50       -1.160144
   51       -1.023233
   52       -0.885538
   53       -0.497185
   54       -0.031918
   55        0.904206
   56        1.121850
   57        1.457311
   58        1.594511
   59        1.801515
   60        1.872447
   61        2.038680
   62        2.167138
   63        2.253266
   64        2.305508
   65        2.344426
   66        2.626397
   67        2.650876
   68        2.804841
 
  0.1538462E+00 -0.2775558E-16  0.0000000E+00  0.1923077E-01
    1      -15.097143
    2      -13.260331
    3      -12.779188
    4      -12.557126
    5      -12.389461
    6      -12.225961
    7      -11.840230
    8      -11.771857
    9      -11.324553
   10      -11.205372
   11      -10.767545
   12       -9.829073
   13       -9.117599
   14       -8.131222
   15       -7.714603
   16       -7.444340
   17       -6.823054
   18       -6.689227
   19       -6.462056
   20       -6.429256
   21       -5.780518
   22       -5.677757
   23       -5.288085
   24       -4.911281
   25       -4.810892
   26       -4.246929
   27       -4.176671
   28       -4.053546
   29       -4.008667
   30       -3.932770
   31       -3.683298
   32       -3.657400
   33       -3.484716
   34       -3.340946
   35       -3.140084
   36       -3.038062
   37       -2.941827
   38       -2.919753
   39       -2.749614
   40       -2.665493
   41       -2.415545
   42       -2.331532
   43       -2.124963
   44       -2.025222
   45       -1.909601
   46       -1.739133
   47       -1.632386
   48       -1.565177
   49       -1.253868
   50       -1.121368
   51       -0.927048
   52       -0.744305
   53       -0.195387
   54        0.037760
   55        0.458754
   56        1.030895
   57        1.496767
   58        1.797693
   59        1.994917
   60        2.285493
   61        2.462304
   62        2.579415
   63        2.641528
   64        2.676249
   65        2.712326
   66        2.809201
   67        2.977914
   68        3.079235
 
  0.2307692E+00 -0.4163336E-16  0.0000000E+00  0.1923077E-01
    1      -14.849058
    2      -12.959297
    3      -12.525803
    4      -12.300818
    5      -12.120205
    6      -11.959399
    7      -11.573880
    8      -11.498611
    9      -11.100734
   10      -10.988561
   11      -10.564452
   12       -9.794274
   13       -9.209847
   14       -8.322690
   15       -7.787913
   16       -7.515616
   17       -6.998764
   18       -6.692982
   19       -6.629933
   20       -6.594045
   21       -6.069978
   22       -5.700332
   23       -5.477236
   24       -5.301770
   25       -5.246402
   26       -4.782596
   27       -4.717197
   28       -4.568559
   29       -4.478742
   30       -4.393108
   31       -4.157537
   32       -4.075734
   33       -3.765281
   34       -3.699057
   35       -3.434683
   36       -3.330128
   37       -3.196887
   38       -2.961322
   39       -2.893852
   40       -2.678375
   41       -2.597599
   42       -2.507412
   43       -2.394683
   44       -2.145257
   45       -1.881490
   46       -1.829732
   47       -1.760979
   48       -1.669381
   49       -1.437118
   50       -1.227677
   51       -1.056586
   52       -0.763629
   53       -0.329006
   54       -0.025729
   55        0.390319
   56        0.808628
   57        1.386216
   58        1.544887
   59        1.901839
   60        2.069819
   61        2.291699
   62        2.386844
   63        2.542491
   64        2.680569
   65        2.807060
   66        2.867132
   67        2.938732
   68        3.028105
 
  0.3076923E+00 -0.5551115E-16  0.0000000E+00  0.1923077E-01
    1      -14.531755
    2      -12.547537
    3      -12.201934
    4      -11.952462
    5      -11.775959
    6      -11.608210
    7      -11.251718
    8      -11.150192
    9      -10.836946
   10      -10.744287
   11      -10.378582
   12       -9.937320
   13       -9.309756
   14       -8.617657
   15       -8.048297
   16       -7.889267
   17       -7.297537
   18       -6.960071
   19       -6.863774
   20       -6.750865
   21       -6.440305
   22       -6.126219
   23       -5.957554
   24       -5.917209
   25       -5.613678
   26       -5.177724
   27       -4.941412
   28       -4.747801
   29       -4.664590
   30       -4.512236
   31       -4.291782
   32       -4.200340
   33       -4.154362
   34       -3.834971
   35       -3.364613
   36       -3.321858
   37       -3.185855
   38       -3.055809
   39       -2.992518
   40       -2.830427
   41       -2.766286
   42       -2.606346
   43       -2.453040
   44       -2.210496
   45       -2.055731
   46       -1.976462
   47       -1.848941
   48       -1.835838
   49       -1.675371
   50       -1.357334
   51       -1.277659
   52       -1.074595
   53       -0.547524
   54       -0.220271
   55        0.258566
   56        0.671944
   57        1.141811
   58        1.300454
   59        1.635856
   60        1.818468
   61        2.014886
   62        2.247102
   63        2.393533
   64        2.430914
   65        2.586790
   66        2.680678
   67        2.793437
   68        2.888806
 
  0.3846154E+00 -0.8326673E-16  0.0000000E+00  0.1923077E-01
    1      -14.197238
    2      -12.039504
    3      -11.887050
    4      -11.533272
    5      -11.404513
    6      -11.211510
    7      -10.969448
    8      -10.813746
    9      -10.616879
   10      -10.589564
   11      -10.418820
   12      -10.153034
   13       -9.388698
   14       -8.794118
   15       -8.341074
   16       -8.307964
   17       -7.706990
   18       -7.422623
   19       -7.378639
   20       -7.096613
   21       -6.800980
   22       -6.722837
   23       -6.622183
   24       -6.225972
   25       -5.632962
   26       -5.180150
   27       -4.934209
   28       -4.605717
   29       -4.492821
   30       -4.435891
   31       -4.199982
   32       -4.156695
   33       -4.038112
   34       -3.886005
   35       -3.622250
   36       -3.527990
   37       -3.239065
   38       -3.196821
   39       -3.112992
   40       -2.877888
   41       -2.790187
   42       -2.681812
   43       -2.445020
   44       -2.400689
   45       -2.245648
   46       -2.111880
   47       -1.996569
   48       -1.961351
   49       -1.804428
   50       -1.490561
   51       -1.421517
   52       -1.340145
   53       -0.725683
   54       -0.358609
   55        0.119964
   56        0.491149
   57        0.931135
   58        1.184074
   59        1.436142
   60        1.735816
   61        1.761714
   62        2.092006
   63        2.149971
   64        2.287675
   65        2.324457
   66        2.364314
   67        2.509275
   68        2.773666
 
  0.4615385E+00 -0.8326673E-16  0.0000000E+00  0.1923077E-01
    1      -13.956110
    2      -11.752411
    3      -11.464977
    4      -11.110950
    5      -11.054357
    6      -10.911124
    7      -10.832312
    8      -10.803792
    9      -10.693568
   10      -10.650856
   11      -10.597210
   12      -10.029370
   13       -9.569558
   14       -8.652110
   15       -8.588894
   16       -8.403483
   17       -8.042671
   18       -7.881756
   19       -7.566119
   20       -7.534237
   21       -7.249991
   22       -7.150147
   23       -7.110920
   24       -6.052787
   25       -5.482482
   26       -5.101339
   27       -4.879108
   28       -4.471354
   29       -4.409904
   30       -4.254225
   31       -4.123353
   32       -4.030951
   33       -3.904843
   34       -3.798325
   35       -3.754903
   36       -3.576601
   37       -3.483805
   38       -3.336971
   39       -3.218695
   40       -3.011779
   41       -2.960301
   42       -2.690649
   43       -2.662894
   44       -2.602932
   45       -2.318226
   46       -2.148715
   47       -2.077999
   48       -1.890329
   49       -1.687622
   50       -1.621746
   51       -1.490152
   52       -1.380573
   53       -0.928785
   54       -0.431452
   55        0.043351
   56        0.329610
   57        0.843252
   58        1.138425
   59        1.411998
   60        1.617006
   61        1.668379
   62        1.872703
   63        2.020989
   64        2.154528
   65        2.238755
   66        2.347409
   67        2.442626
   68        2.560025
 
  0.0000000E+00  0.2500000E+00  0.0000000E+00  0.1923077E-01
    1      -15.304241
    2      -13.449326
    3      -13.050939
    4      -12.938439
    5      -12.513330
    6      -12.439773
    7      -12.070237
    8      -11.832075
    9      -11.522207
   10      -11.441289
   11      -10.963516
   12       -9.870526
   13       -9.145953
   14       -8.479988
   15       -7.629131
   16       -7.352184
   17       -6.855521
   18       -6.632965
   19       -6.564383
   20       -6.174344
   21       -5.710714
   22       -5.278972
   23       -5.015683
   24       -4.598100
   25       -4.405292
   26       -4.004130
   27       -3.815358
   28       -3.532491
   29       -3.416067
   30       -3.343162
   31       -3.255419
   32       -3.091623
   33       -2.892730
   34       -2.673110
   35       -2.637760
   36       -2.534456
   37       -2.361967
   38       -2.335490
   39       -2.225331
   40       -2.118706
   41       -2.005011
   42       -1.930903
   43       -1.847090
   44       -1.807563
   45       -1.648797
   46       -1.590887
   47       -1.409472
   48       -1.326794
   49       -1.322776
   50       -1.145748
   51       -1.034990
   52       -0.915778
   53       -0.526844
   54        0.037656
   55        0.703407
   56        1.107664
   57        1.239028
   58        1.404226
   59        1.521502
   60        1.621521
   61        1.761584
   62        1.856415
   63        1.914866
   64        2.233350
   65        2.309976
   66        2.583058
   67        2.634528
   68        2.687383
 
  0.7692308E-01  0.2500000E+00  0.0000000E+00  0.1923077E-01
    1      -15.251243
    2      -13.372489
    3      -13.006878
    4      -12.919278
    5      -12.438349
    6      -12.379173
    7      -12.028045
    8      -11.733103
    9      -11.470729
   10      -11.399908
   11      -10.919200
   12       -9.834842
   13       -9.164851
   14       -8.538499
   15       -7.594158
   16       -7.302572
   17       -6.845110
   18       -6.641834
   19       -6.495090
   20       -6.178601
   21       -5.662674
   22       -5.354922
   23       -4.984930
   24       -4.764793
   25       -4.639213
   26       -4.075220
   27       -3.932691
   28       -3.686110
   29       -3.581976
   30       -3.434495
   31       -3.346115
   32       -3.273867
   33       -2.997803
   34       -2.966070
   35       -2.784402
   36       -2.702309
   37       -2.645923
   38       -2.491595
   39       -2.450527
   40       -2.272721
   41       -2.148241
   42       -2.074501
   43       -1.977797
   44       -1.884911
   45       -1.807226
   46       -1.715691
   47       -1.652211
   48       -1.329981
   49       -1.271504
   50       -1.073139
   51       -0.983996
   52       -0.856336
   53       -0.494590
   54        0.054512
   55        0.896745
   56        1.089201
   57        1.471702
   58        1.615203
   59        1.813678
   60        1.852978
   61        1.987586
   62        2.115827
   63        2.263928
   64        2.430886
   65        2.554643
   66        2.690084
   67        2.763835
   68        2.944068
 
  0.1538462E+00  0.2500000E+00  0.0000000E+00  0.1923077E-01
    1      -15.095638
    2      -13.175960
    3      -12.851443
    4      -12.782709
    5      -12.260979
    6      -12.209400
    7      -11.882188
    8      -11.535746
    9      -11.320588
   10      -11.260382
   11      -10.777946
   12       -9.768887
   13       -9.196595
   14       -8.604127
   15       -7.494464
   16       -7.269261
   17       -6.886211
   18       -6.620095
   19       -6.469683
   20       -6.340547
   21       -5.721183
   22       -5.613254
   23       -5.119119
   24       -4.983632
   25       -4.801924
   26       -4.346016
   27       -4.263332
   28       -4.182701
   29       -4.059519
   30       -3.935348
   31       -3.772922
   32       -3.600905
   33       -3.391302
   34       -3.222202
   35       -3.092723
   36       -3.038091
   37       -2.925750
   38       -2.831366
   39       -2.786358
   40       -2.641043
   41       -2.559073
   42       -2.377041
   43       -2.286514
   44       -2.016867
   45       -1.929011
   46       -1.854320
   47       -1.692878
   48       -1.447469
   49       -1.202021
   50       -1.073628
   51       -0.887261
   52       -0.718766
   53       -0.267638
   54        0.065719
   55        0.466804
   56        1.026475
   57        1.445731
   58        1.659145
   59        1.850341
   60        2.145530
   61        2.385762
   62        2.484701
   63        2.727015
   64        2.810932
   65        2.891289
   66        3.046617
   67        3.098173
   68        3.134374
 
  0.2307692E+00  0.2500000E+00  0.0000000E+00  0.1923077E-01
    1      -14.847662
    2      -12.864616
    3      -12.592687
    4      -12.531298
    5      -11.991446
    6      -11.942586
    7      -11.643072
    8      -11.259728
    9      -11.086485
   10      -11.038438
   11      -10.560607
   12       -9.747222
   13       -9.272768
   14       -8.735315
   15       -7.403297
   16       -7.351614
   17       -7.243026
   18       -6.661778
   19       -6.619070
   20       -6.584245
   21       -5.979181
   22       -5.784745
   23       -5.493680
   24       -5.288489
   25       -5.170708
   26       -4.990836
   27       -4.667755
   28       -4.624250
   29       -4.519464
   30       -4.323773
   31       -4.179442
   32       -3.986114
   33       -3.716745
   34       -3.640574
   35       -3.360683
   36       -3.177030
   37       -3.130218
   38       -3.057260
   39       -2.889971
   40       -2.698447
   41       -2.556663
   42       -2.496425
   43       -2.486908
   44       -2.085987
   45       -1.971409
   46       -1.906065
   47       -1.811484
   48       -1.724914
   49       -1.368344
   50       -1.244117
   51       -1.020379
   52       -0.828214
   53       -0.333405
   54       -0.092062
   55        0.344514
   56        0.863592
   57        1.223414
   58        1.424117
   59        1.559800
   60        1.657319
   61        2.242954
   62        2.397961
   63        2.586387
   64        2.743138
   65        2.838488
   66        2.998268
   67        3.097463
   68        3.161381
 
  0.3076923E+00  0.2500000E+00  0.0000000E+00  0.1923077E-01
    1      -14.530656
    2      -12.448071
    3      -12.253270
    4      -12.172260
    5      -11.661135
    6      -11.599918
    7      -11.336658
    8      -10.946979
    9      -10.806943
   10      -10.774449
   11      -10.355051
   12       -9.929616
   13       -9.320446
   14       -8.934399
   15       -7.818512
   16       -7.671501
   17       -7.439772
   18       -7.076006
   19       -6.926792
   20       -6.712155
   21       -6.363060
   22       -6.154623
   23       -6.047842
   24       -5.880417
   25       -5.660444
   26       -5.344345
   27       -4.943747
   28       -4.900954
   29       -4.452126
   30       -4.373400
   31       -4.293713
   32       -4.149872
   33       -3.976380
   34       -3.844445
   35       -3.393681
   36       -3.300574
   37       -3.045501
   38       -2.965929
   39       -2.945356
   40       -2.824030
   41       -2.685853
   42       -2.539818
   43       -2.417321
   44       -2.271918
   45       -2.208627
   46       -2.041634
   47       -1.923089
   48       -1.842783
   49       -1.711442
   50       -1.427696
   51       -1.288018
   52       -1.005580
   53       -0.629214
   54       -0.360863
   55        0.265614
   56        0.606945
   57        0.952546
   58        1.177114
   59        1.274015
   60        1.354400
   61        2.198179
   62        2.207086
   63        2.338370
   64        2.465549
   65        2.628462
   66        2.720239
   67        2.858716
   68        3.006036
 
  0.3846154E+00  0.2500000E+00  0.0000000E+00  0.1923077E-01
    1      -14.196622
    2      -11.947107
    3      -11.905250
    4      -11.722221
    5      -11.354101
    6      -11.211163
    7      -11.020972
    8      -10.689848
    9      -10.595711
   10      -10.563697
   11      -10.431592
   12      -10.147198
   13       -9.375462
   14       -8.924338
   15       -8.291824
   16       -8.075552
   17       -7.774136
   18       -7.741275
   19       -7.321481
   20       -7.052097
   21       -6.784741
   22       -6.657608
   23       -6.621429
   24       -6.256909
   25       -5.726877
   26       -5.308691
   27       -4.966742
   28       -4.747525
   29       -4.515225
   30       -4.363470
   31       -4.087643
   32       -4.069760
   33       -3.838021
   34       -3.818343
   35       -3.409610
   36       -3.317415
   37       -3.255295
   38       -3.144144
   39       -3.086737
   40       -2.939709
   41       -2.832827
   42       -2.681486
   43       -2.596559
   44       -2.438477
   45       -2.259244
   46       -2.136035
   47       -2.034285
   48       -2.003135
   49       -1.814981
   50       -1.494634
   51       -1.426064
   52       -1.341896
   53       -0.764779
   54       -0.458152
   55        0.111092
   56        0.357764
   57        0.825000
   58        0.970400
   59        1.233282
   60        1.374395
   61        1.855742
   62        1.976306
   63        2.106207
   64        2.230622
   65        2.386239
   66        2.605874
   67        2.691498
   68        2.716932
 
  0.4615385E+00  0.2500000E+00  0.0000000E+00  0.1923077E-01
    1      -13.955943
    2      -11.750883
    3      -11.394328
    4      -11.227185
    5      -11.074483
    6      -10.923330
    7      -10.830900
    8      -10.801689
    9      -10.664515
   10      -10.662034
   11      -10.543018
   12      -10.021824
   13       -9.567773
   14       -8.573491
   15       -8.517511
   16       -8.363005
   17       -8.292019
   18       -7.902349
   19       -7.556286
   20       -7.480161
   21       -7.279723
   22       -7.130409
   23       -7.096654
   24       -6.058287
   25       -5.580503
   26       -5.066583
   27       -4.981214
   28       -4.435674
   29       -4.398035
   30       -4.217321
   31       -4.113105
   32       -4.079092
   33       -3.894334
   34       -3.679891
   35       -3.624754
   36       -3.504126
   37       -3.435898
   38       -3.348215
   39       -3.220237
   40       -3.003668
   41       -2.946708
   42       -2.747829
   43       -2.598448
   44       -2.564862
   45       -2.506730
   46       -2.130427
   47       -2.082742
   48       -1.974638
   49       -1.669339
   50       -1.657716
   51       -1.510514
   52       -1.357352
   53       -0.920406
   54       -0.450345
   55        0.054537
   56        0.230451
   57        0.793677
   58        0.945534
   59        1.455566
   60        1.537813
   61        1.599623
   62        1.761761
   63        1.989017
   64        2.178420
   65        2.292008
   66        2.459766
   67        2.506372
   68        2.581361
 
 -0.4615385E+00  0.2500000E+00  0.0000000E+00  0.1923077E-01
    1      -13.956257
    2      -11.749137
    3      -11.498624
    4      -11.063887
    5      -11.034609
    6      -10.897515
    7      -10.809234
    8      -10.770779
    9      -10.721103
   10      -10.665797
   11      -10.662447
   12      -10.044256
   13       -9.570824
   14       -8.720222
   15       -8.548379
   16       -8.397320
   17       -7.907912
   18       -7.869632
   19       -7.596275
   20       -7.567022
   21       -7.243905
   22       -7.188217
   23       -7.133885
   24       -6.095058
   25       -5.465672
   26       -4.989057
   27       -4.700316
   28       -4.542793
   29       -4.461445
   30       -4.334510
   31       -4.116291
   32       -3.983718
   33       -3.961831
   34       -3.879590
   35       -3.841907
   36       -3.634690
   37       -3.515900
   38       -3.321106
   39       -3.214268
   40       -2.983382
   41       -2.776911
   42       -2.678427
   43       -2.629474
   44       -2.580508
   45       -2.339595
   46       -2.134226
   47       -2.099938
   48       -1.969410
   49       -1.734024
   50       -1.662345
   51       -1.469461
   52       -1.343669
   53       -0.901100
   54       -0.423734
   55        0.043092
   56        0.315428
   57        0.834002
   58        1.074545
   59        1.398370
   60        1.678212
   61        1.761756
   62        1.813964
   63        2.059915
   64        2.276781
   65        2.370332
   66        2.403682
   67        2.505589
   68        2.590971
 
 -0.3846154E+00  0.2500000E+00  0.0000000E+00  0.1923077E-01
    1      -14.197569
    2      -12.065904
    3      -11.868567
    4      -11.450358
    5      -11.441530
    6      -11.208929
    7      -10.922827
    8      -10.885059
    9      -10.676043
   10      -10.592523
   11      -10.414230
   12      -10.137512
   13       -9.372960
   14       -8.705724
   15       -8.454826
   16       -8.304622
   17       -7.704571
   18       -7.403524
   19       -7.293074
   20       -7.102360
   21       -6.855414
   22       -6.772111
   23       -6.626901
   24       -6.230900
   25       -5.505268
   26       -5.037819
   27       -4.919057
   28       -4.793156
   29       -4.522180
   30       -4.379691
   31       -4.280156
   32       -4.208367
   33       -4.051790
   34       -3.853074
   35       -3.688311
   36       -3.395376
   37       -3.364285
   38       -3.191032
   39       -3.093117
   40       -3.007007
   41       -2.778083
   42       -2.647782
   43       -2.451585
   44       -2.343154
   45       -2.210127
   46       -2.134924
   47       -1.951597
   48       -1.902176
   49       -1.778350
   50       -1.572006
   51       -1.436403
   52       -1.333740
   53       -0.718873
   54       -0.379487
   55        0.098811
   56        0.496885
   57        1.022764
   58        1.197987
   59        1.415237
   60        1.809998
   61        1.931787
   62        2.099706
   63        2.207060
   64        2.305057
   65        2.425089
   66        2.493363
   67        2.599930
   68        2.647163
 
 -0.3076923E+00  0.2500000E+00  0.0000000E+00  0.1923077E-01
    1      -14.532000
    2      -12.559814
    3      -12.185492
    4      -11.911010
    5      -11.800866
    6      -11.607974
    7      -11.247765
    8      -11.186125
    9      -10.854495
   10      -10.736014
   11      -10.384684
   12       -9.939916
   13       -9.262597
   14       -8.518735
   15       -8.150983
   16       -7.950514
   17       -7.286897
   18       -6.964112
   19       -6.835402
   20       -6.755796
   21       -6.442319
   22       -6.118840
   23       -5.962095
   24       -5.927618
   25       -5.521064
   26       -5.116772
   27       -4.952727
   28       -4.828585
   29       -4.648236
   30       -4.598084
   31       -4.292656
   32       -4.216496
   33       -4.165451
   34       -3.762660
   35       -3.428831
   36       -3.314777
   37       -3.167215
   38       -3.046432
   39       -2.976732
   40       -2.830503
   41       -2.784647
   42       -2.618099
   43       -2.455460
   44       -2.188520
   45       -1.993482
   46       -1.969849
   47       -1.828058
   48       -1.822724
   49       -1.671843
   50       -1.412989
   51       -1.288894
   52       -1.142563
   53       -0.557510
   54       -0.305726
   55        0.250002
   56        0.674861
   57        1.283853
   58        1.388636
   59        1.674304
   60        1.928870
   61        2.026287
   62        2.278321
   63        2.370229
   64        2.406848
   65        2.626060
   66        2.700716
   67        2.800508
   68        2.909360
 
 -0.2307692E+00  0.2500000E+00  0.0000000E+00  0.1923077E-01
    1      -14.849020
    2      -12.955059
    3      -12.528748
    4      -12.315390
    5      -12.111462
    6      -11.959492
    7      -11.576906
    8      -11.486299
    9      -11.103928
   10      -10.992285
   11      -10.563033
   12       -9.801305
   13       -9.161798
   14       -8.362990
   15       -7.746255
   16       -7.645272
   17       -6.945762
   18       -6.653651
   19       -6.611227
   20       -6.581282
   21       -6.096649
   22       -5.703352
   23       -5.537788
   24       -5.297544
   25       -5.196524
   26       -4.800567
   27       -4.720441
   28       -4.561188
   29       -4.481211
   30       -4.402620
   31       -4.149717
   32       -4.028912
   33       -3.756243
   34       -3.712967
   35       -3.415131
   36       -3.326628
   37       -3.210306
   38       -2.965108
   39       -2.896266
   40       -2.705601
   41       -2.553131
   42       -2.515882
   43       -2.395740
   44       -2.069917
   45       -1.875206
   46       -1.807218
   47       -1.744249
   48       -1.695613
   49       -1.447235
   50       -1.335828
   51       -1.066256
   52       -0.792490
   53       -0.401320
   54       -0.100417
   55        0.392877
   56        0.869731
   57        1.528618
   58        1.563910
   59        1.859676
   60        2.035173
   61        2.267580
   62        2.417390
   63        2.537098
   64        2.694113
   65        2.751292
   66        2.865065
   67        2.951511
   68        3.036020
 
 -0.1538462E+00  0.2500000E+00  0.0000000E+00  0.1923077E-01
    1      -15.096711
    2      -13.238852
    3      -12.804363
    4      -12.630520
    5      -12.345198
    6      -12.225042
    7      -11.838169
    8      -11.706538
    9      -11.325984
   10      -11.224744
   11      -10.765524
   12       -9.816605
   13       -9.105866
   14       -8.342949
   15       -7.561085
   16       -7.500730
   17       -6.826978
   18       -6.625176
   19       -6.514460
   20       -6.227484
   21       -5.921030
   22       -5.654379
   23       -5.296658
   24       -4.860756
   25       -4.779952
   26       -4.284228
   27       -4.236470
   28       -4.124702
   29       -3.944563
   30       -3.891641
   31       -3.696051
   32       -3.611217
   33       -3.492853
   34       -3.380106
   35       -3.108604
   36       -2.982665
   37       -2.940806
   38       -2.869231
   39       -2.841122
   40       -2.620725
   41       -2.468417
   42       -2.413929
   43       -2.154241
   44       -1.987067
   45       -1.888648
   46       -1.728554
   47       -1.604601
   48       -1.542025
   49       -1.321375
   50       -1.136946
   51       -0.921282
   52       -0.781660
   53       -0.329543
   54        0.111607
   55        0.460243
   56        1.060745
   57        1.589199
   58        1.750262
   59        1.856820
   60        2.228547
   61        2.489397
   62        2.560814
   63        2.730535
   64        2.752681
   65        2.793030
   66        2.848652
   67        2.989382
   68        3.142337
 
 -0.7692308E-01  0.2500000E+00  0.0000000E+00  0.1923077E-01
    1      -15.251822
    2      -13.404624
    3      -12.982204
    4      -12.840911
    5      -12.481939