       N       E                     dE             d eps       ncg     rms          rms(c)
DAV:   1     0.503620850201E+03    0.50362E+03   -0.28747E+04  7376   0.790E+02
DAV:   2    -0.611708493810E+02   -0.56479E+03   -0.55010E+03  9752   0.190E+02
DAV:   3    -0.118582411275E+03   -0.57412E+02   -0.56642E+02  8800   0.629E+01
DAV:   4    -0.121287531679E+03   -0.27051E+01   -0.26883E+01 11064   0.146E+01
DAV:   5    -0.121347925085E+03   -0.60393E-01   -0.60331E-01  9960   0.218E+00    0.119E+01
DAV:   6    -0.117039354405E+03    0.43086E+01   -0.13172E+01  8916   0.100E+01    0.636E+00
DAV:   7    -0.116831418098E+03    0.20794E+00   -0.95272E+00  8768   0.740E+00    0.260E+00
DAV:   8    -0.116856667290E+03   -0.25249E-01   -0.10987E+00  8976   0.292E+00    0.140E+00
DAV:   9    -0.116840637456E+03    0.16030E-01   -0.16347E-01  9240   0.141E+00    0.540E-01
DAV:  10    -0.116839765165E+03    0.87229E-03   -0.67353E-02  8816   0.798E-01    0.195E-01
DAV:  11    -0.116835023709E+03    0.47415E-02   -0.10152E-02  8912   0.318E-01    0.106E-01
DAV:  12    -0.116828826294E+03    0.61974E-02   -0.29801E-03  9088   0.153E-01    0.517E-02
DAV:  13    -0.116823935762E+03    0.48905E-02   -0.59274E-04  8984   0.797E-02    0.233E-02
DAV:  14    -0.116821578984E+03    0.23568E-02   -0.18973E-04  9160   0.381E-02    0.138E-02
DAV:  15    -0.116821082144E+03    0.49684E-03   -0.43845E-05  9240   0.207E-02    0.868E-03
DAV:  16    -0.116821062806E+03    0.19338E-04   -0.93017E-05  8160   0.234E-02    0.488E-03
DAV:  17    -0.116821471502E+03   -0.40870E-03   -0.10217E-04  8432   0.207E-02    0.329E-03
DAV:  18    -0.116821755616E+03   -0.28411E-03   -0.10939E-04  7704   0.175E-02    0.165E-03
DAV:  19    -0.116821812243E+03   -0.56627E-04   -0.15947E-05  7360   0.884E-03    0.117E-03
DAV:  20    -0.116821829980E+03   -0.17737E-04   -0.24037E-05  6904   0.925E-03    0.820E-04
DAV:  21    -0.116821847491E+03   -0.17511E-04   -0.14881E-05  7056   0.904E-03    0.575E-04
DAV:  22    -0.116821777254E+03    0.70237E-04   -0.21573E-05  7156   0.993E-03    0.308E-04
DAV:  23    -0.116821734160E+03    0.43095E-04   -0.12620E-05  6916   0.862E-03    0.165E-04
DAV:  24    -0.116821700837E+03    0.33323E-04   -0.10396E-05  6672   0.903E-03    0.669E-05
DAV:  25    -0.116821695286E+03    0.55513E-05   -0.44640E-06  6208   0.679E-03    0.411E-05
DAV:  26    -0.116821688341E+03    0.69442E-05   -0.35500E-06  6336   0.628E-03    0.196E-05
DAV:  27    -0.116821687053E+03    0.12883E-05   -0.15368E-06  5296   0.468E-03    0.145E-05
DAV:  28    -0.116821685698E+03    0.13548E-05   -0.14650E-06  5552   0.446E-03    0.873E-06
DAV:  29    -0.116821685104E+03    0.59465E-06   -0.84632E-07  5352   0.369E-03
   1 F= -.11682169E+03 E0= -.11680448E+03  d E =-.344149E-01
