 vasp.5.3.5 31Mar14 (build Oct 29 2014 16:16:03) complex                        
  
 executed on          Linux-UFHPC date 2016.02.09  18:02:53
 running on    8 total cores
 distrk:  each k-point on    8 cores,    1 groups
 distr:  one band on NCORES_PER_BAND=   2 cores,    4 groups


--------------------------------------------------------------------------------------------------------


 INCAR:
 POTCAR:    PAW_PBE P 17Jan2003                   
 POTCAR:   PAW_PBE Si 05Jan2001                   

 ----------------------------------------------------------------------------- 
|                                                                             |
|  ADVICE TO THIS USER RUNNING 'VASP/VAMP'   (HEAR YOUR MASTER'S VOICE ...):  |
|                                                                             |
|      You have switched on vdW-DFT.                                          |
|      This routine was written and supplied by Jiri Klimes.                  |
|      We recommed that you carefully read and cite the following             |
|      publication                                                            |
|      J. Klimes, D.R. Bowler, A. Michelides                                  |
|        J. Phys.: Cond Matt. 22 022201 (2010)                                |
|      J. Klimes, D.R. Bowler, A. Michelides                                  |
|        Phys. Rev. B. 83, 195131 (2011)                                      |
|      and references therein.                                                |
|                                                                             |
 ----------------------------------------------------------------------------- 

 POTCAR:    PAW_PBE P 17Jan2003                   
   VRHFIN =P : s2p3                                                             
   LEXCH  = PE                                                                  
   EATOM  =   176.0430 eV,   12.9388 Ry                                         
                                                                                
   TITEL  = PAW_PBE P 17Jan2003                                                 
   LULTRA =        F    use ultrasoft PP ?                                      
   IUNSCR =        1    unscreen: 0-lin 1-nonlin 2-no                           
   RPACOR =    1.500    partial core radius                                     
   POMASS =   30.974; ZVAL   =    5.000    mass and valenz                      
   RCORE  =    1.900    outmost cutoff radius                                   
   RWIGS  =    2.330; RWIGS  =    1.233    wigner-seitz radius (au A)           
   ENMAX  =  270.000; ENMIN  =  191.280 eV                                      
   ICORE  =        2    local potential                                         
   LCOR   =        T    correct aug charges                                     
   LPAW   =        T    paw PP                                                  
   EAUG   =  342.924                                                            
   DEXC   =    -.002                                                            
   RMAX   =    2.887    core radius for proj-oper                               
   RAUG   =    1.300    factor for augmentation sphere                          
   RDEP   =    1.931    radius for radial grids                                 
   QCUT   =   -4.330; QGAM   =    8.659    optimization parameters              
                                                                                
   Description                                                                  
     l     E      TYP  RCUT    TYP  RCUT                                        
     0   .000     23  1.900                                                     
     0   .000     23  1.900                                                     
     1   .000     23  1.900                                                     
     1   .000     23  1.900                                                     
     2   .000     23  1.900                                                     
  local pseudopotential read in
  partial core-charges read in
  atomic valenz-charges read in
  non local Contribution for L=           0  read in
    real space projection operators read in
  non local Contribution for L=           0  read in
    real space projection operators read in
  non local Contribution for L=           1  read in
    real space projection operators read in
  non local Contribution for L=           1  read in
    real space projection operators read in
    PAW grid and wavefunctions read in
 
   number of l-projection  operators is LMAX  =           4
   number of lm-projection operators is LMMAX =           8
 
 POTCAR:   PAW_PBE Si 05Jan2001                   
   VRHFIN =Si: s2p2                                                             
   LEXCH  = PE                                                                  
   EATOM  =   103.0669 eV,    7.5752 Ry                                         
                                                                                
   TITEL  = PAW_PBE Si 05Jan2001                                                
   LULTRA =        F    use ultrasoft PP ?                                      
   IUNSCR =        1    unscreen: 0-lin 1-nonlin 2-no                           
   RPACOR =    1.500    partial core radius                                     
   POMASS =   28.085; ZVAL   =    4.000    mass and valenz                      
   RCORE  =    1.900    outmost cutoff radius                                   
   RWIGS  =    2.480; RWIGS  =    1.312    wigner-seitz radius (au A)           
   ENMAX  =  245.345; ENMIN  =  184.009 eV                                      
   ICORE  =        2    local potential                                         
   LCOR   =        T    correct aug charges                                     
   LPAW   =        T    paw PP                                                  
   EAUG   =  322.069                                                            
   DEXC   =    -.007                                                            
   RMAX   =    2.944    core radius for proj-oper                               
   RAUG   =    1.300    factor for augmentation sphere                          
   RDEP   =    1.993    radius for radial grids                                 
   QCUT   =   -4.246; QGAM   =    8.493    optimization parameters              
                                                                                
   Description                                                                  
     l     E      TYP  RCUT    TYP  RCUT                                        
     0   .000     23  1.900                                                     
     0   .000     23  1.900                                                     
     1   .000     23  1.900                                                     
     1   .000     23  1.900                                                     
     2   .000      7  1.900                                                     
  local pseudopotential read in
  partial core-charges read in
  atomic valenz-charges read in
  non local Contribution for L=           0  read in
    real space projection operators read in
  non local Contribution for L=           0  read in
    real space projection operators read in
  non local Contribution for L=           1  read in
    real space projection operators read in
  non local Contribution for L=           1  read in
    real space projection operators read in
    PAW grid and wavefunctions read in
 
   number of l-projection  operators is LMAX  =           4
   number of lm-projection operators is LMMAX =           8
 
 Optimization of the real space projectors (new method)

 maximal supplied QI-value         = 19.84
 optimisation between [QCUT,QGAM] = [  8.73, 17.66] = [ 21.34, 87.33] Ry 
 Optimized for a Real-space Cutoff    1.50 Angstroem

   l    n(q)    QCUT    max X(q) W(low)/X(q) W(high)/X(q)  e(spline) 
   0      8     8.731     6.651    0.16E-04    0.15E-04    0.77E-08
   0      8     8.731    90.285    0.16E-03    0.90E-04    0.16E-06
   1      7     8.731     4.328    0.47E-04    0.36E-04    0.45E-07
   1      7     8.731    54.583    0.13E-03    0.39E-03    0.20E-06
 Optimization of the real space projectors (new method)

 maximal supplied QI-value         = 19.84
 optimisation between [QCUT,QGAM] = [  8.73, 17.66] = [ 21.34, 87.33] Ry 
 Optimized for a Real-space Cutoff    1.46 Angstroem

   l    n(q)    QCUT    max X(q) W(low)/X(q) W(high)/X(q)  e(spline) 
   0      8     8.731     8.708    0.16E-04    0.11E-04    0.68E-08
   0      8     8.731   106.241    0.24E-03    0.77E-04    0.13E-06
   1      7     8.731     5.901    0.34E-04    0.38E-04    0.36E-07
   1      7     8.731    73.241    0.12E-03    0.39E-03    0.15E-06

 ----------------------------------------------------------------------------- 
|                                                                             |
|  ADVICE TO THIS USER RUNNING 'VASP/VAMP'   (HEAR YOUR MASTER'S VOICE ...):  |
|                                                                             |
|      You enforced a specific xc-type in the INCAR file,                     |
|      a different type was found on the POTCAR file                          |
|          I HOPE YOU KNOW, WHAT YOU ARE  DOING                               |
|                                                                             |
 ----------------------------------------------------------------------------- 

  PAW_PBE P 17Jan2003                   :
 energy of atom  1       EATOM= -176.0430
 kinetic energy error for atom=    0.0040 (will be added to EATOM!!)
 PAW_PBE Si 05Jan2001                   :
 energy of atom  2       EATOM= -103.0669
 kinetic energy error for atom=    0.0021 (will be added to EATOM!!)
 
 
 POSCAR: Si12                                    
  positions in direct lattice
  No initial velocities read in
 exchange correlation table for  LEXCH =       42
   RHO(1)=    0.500       N(1)  =     2000
   RHO(2)=  100.500       N(2)  =     4000
 


--------------------------------------------------------------------------------------------------------


 ion  position               nearest neighbor table
   1  0.114  0.228  0.233-  15 2.28  21 2.29  21 2.29
   2  0.514  0.528  0.515-  16 2.28  22 2.29  22 2.29
   3  0.458  0.916  0.209-  21 2.28  13 2.30  13 2.30
   4  0.858  0.216  0.491-  22 2.28  14 2.30  14 2.30
   5  0.311  0.622  0.084-  17 2.28  23 2.30  23 2.30
   6  0.311  0.622  0.366-  18 2.28
   7  0.999  0.998  0.086-  19 2.29  19 2.29  13 2.32
   8  0.999  0.998  0.368-  24 1.67  20 2.29  20 2.29  14 2.85  24 3.01
   9  0.655  0.310  0.060-  19 2.28  17 2.29  17 2.29
  10  0.655  0.310  0.342-  20 2.28  18 2.29  18 2.29
  11  0.770  0.539  0.207-  15 2.29  15 2.29  23 2.32
  12  0.170  0.839  0.489-  16 2.29  16 2.29  24 2.32
  13  0.940  0.879  0.158-   3 2.30   3 2.30   7 2.32  23 2.35
  14  0.340  0.179  0.440-  20 1.72   4 2.30   4 2.30  24 2.35   8 2.85  18 2.94  20 3.04
  15  0.205  0.410  0.186-   1 2.28  11 2.29  11 2.29  17 2.37
  16  0.605  0.710  0.468-   2 2.28  12 2.29  12 2.29
  17  0.202  0.404  0.100-   5 2.28   9 2.29   9 2.29  15 2.37
  18  0.202  0.404  0.382-   6 2.28  10 2.29  10 2.29  22 2.76  14 2.94
  19  0.564  0.128  0.108-   9 2.28   7 2.29   7 2.29  21 2.37
  20  0.564  0.128  0.390-  14 1.72  24 2.10  10 2.28   8 2.29   8 2.29  14 3.04
  21  0.567  0.134  0.194-   3 2.28   1 2.29   1 2.29  19 2.37
  22  0.967  0.434  0.476-   4 2.28   2 2.29   2 2.29  18 2.76
  23  0.829  0.658  0.136-   5 2.30   5 2.30  11 2.32  13 2.35
  24  0.229  0.958  0.418-   8 1.67  20 2.10  12 2.32  14 2.35   8 3.01
 
  LATTYP: Found a base centered orthorhombic cell.
 ALAT       =     3.5404000000
 B/A-ratio  =     5.8153587165
 C/A-ratio  =     7.7678875268
  
  Lattice vectors:
  
 A1 = (   1.7702000000,  10.2943480000,   0.0000000000)
 A2 = (   1.7702000000, -10.2943480000,   0.0000000000)
 A3 = (   0.0000000000,   0.0000000000, -27.5014290000)


Analysis of symmetry for initial positions (statically):
=====================================================================
 Subroutine PRICEL returns:
 Original cell was already a primitive cell.
 

 Routine SETGRP: Setting up the symmetry group for a 
 base centered orthorhombic supercell.


 Subroutine GETGRP returns: Found  1 space group operations
 (whereof  1 operations were pure point group operations)
 out of a pool of  8 trial point group operations.


The static configuration has the point symmetry C_1 .


Analysis of symmetry for dynamics (positions and initial velocities):
=====================================================================
 Subroutine PRICEL returns:
 Original cell was already a primitive cell.
 

 Routine SETGRP: Setting up the symmetry group for a 
 base centered orthorhombic supercell.


 Subroutine GETGRP returns: Found  1 space group operations
 (whereof  1 operations were pure point group operations)
 out of a pool of  8 trial point group operations.


The dynamic configuration has the point symmetry C_1 .
 
 
 KPOINTS: pymatgen generated KPOINTS with grid den

Automatic generation of k-mesh.
Space group operators:
 irot       det(A)        alpha          n_x          n_y          n_z        tau_x        tau_y        tau_z
    1     1.000000     0.000000     1.000000     0.000000     0.000000     0.000000     0.000000     0.000000
 
 Subroutine IBZKPT returns following result:
 ===========================================
 
 Found     54 irreducible k-points:
 
 Following reciprocal coordinates:
            Coordinates               Weight
  0.000000  0.000000  0.000000      1.000000
  0.076923 -0.000000  0.000000      2.000000
  0.153846 -0.000000  0.000000      2.000000
  0.230769 -0.000000  0.000000      2.000000
  0.307692 -0.000000  0.000000      2.000000
  0.384615 -0.000000  0.000000      2.000000
  0.461538 -0.000000  0.000000      2.000000
  0.000000  0.250000  0.000000      2.000000
  0.076923  0.250000  0.000000      2.000000
  0.153846  0.250000  0.000000      2.000000
  0.230769  0.250000  0.000000      2.000000
  0.307692  0.250000  0.000000      2.000000
  0.384615  0.250000  0.000000      2.000000
  0.461538  0.250000  0.000000      2.000000
 -0.461538  0.250000  0.000000      2.000000
 -0.384615  0.250000  0.000000      2.000000
 -0.307692  0.250000  0.000000      2.000000
 -0.230769  0.250000  0.000000      2.000000
 -0.153846  0.250000  0.000000      2.000000
 -0.076923  0.250000  0.000000      2.000000
  0.000000  0.500000  0.000000      1.000000
  0.076923  0.500000  0.000000      2.000000
  0.153846  0.500000  0.000000      2.000000
  0.230769  0.500000  0.000000      2.000000
  0.307692  0.500000  0.000000      2.000000
  0.384615  0.500000  0.000000      2.000000
  0.461538  0.500000  0.000000      2.000000
  0.000000  0.000000  0.500000      1.000000
  0.076923 -0.000000  0.500000      2.000000
  0.153846 -0.000000  0.500000      2.000000
  0.230769 -0.000000  0.500000      2.000000
  0.307692 -0.000000  0.500000      2.000000
  0.384615 -0.000000  0.500000      2.000000
  0.461538 -0.000000  0.500000      2.000000
  0.000000  0.250000  0.500000      2.000000
  0.076923  0.250000  0.500000      2.000000
  0.153846  0.250000  0.500000      2.000000
  0.230769  0.250000  0.500000      2.000000
  0.307692  0.250000  0.500000      2.000000
  0.384615  0.250000  0.500000      2.000000
  0.461538  0.250000  0.500000      2.000000
 -0.461538  0.250000  0.500000      2.000000
 -0.384615  0.250000  0.500000      2.000000
 -0.307692  0.250000  0.500000      2.000000
 -0.230769  0.250000  0.500000      2.000000
 -0.153846  0.250000  0.500000      2.000000
 -0.076923  0.250000  0.500000      2.000000
  0.000000  0.500000  0.500000      1.000000
  0.076923  0.500000  0.500000      2.000000
  0.153846  0.500000  0.500000      2.000000
  0.230769  0.500000  0.500000      2.000000
  0.307692  0.500000  0.500000      2.000000
  0.384615  0.500000  0.500000      2.000000
  0.461538  0.500000  0.500000      2.000000
 
 Following cartesian coordinates:
            Coordinates               Weight
  0.000000  0.000000  0.000000      1.000000
  0.021727  0.003736  0.000000      2.000000
  0.043454  0.007472  0.000000      2.000000
  0.065182  0.011209  0.000000      2.000000
  0.086909  0.014945  0.000000      2.000000
  0.108636  0.018681  0.000000      2.000000
  0.130363  0.022417  0.000000      2.000000
  0.000000  0.024285  0.000000      2.000000
  0.021727  0.028021  0.000000      2.000000
  0.043454  0.031758  0.000000      2.000000
  0.065182  0.035494  0.000000      2.000000
  0.086909  0.039230  0.000000      2.000000
  0.108636  0.042966  0.000000      2.000000
  0.130363  0.046702  0.000000      2.000000
 -0.130363  0.001868  0.000000      2.000000
 -0.108636  0.005604  0.000000      2.000000
 -0.086909  0.009340  0.000000      2.000000
 -0.065182  0.013077  0.000000      2.000000
 -0.043454  0.016813  0.000000      2.000000
 -0.021727  0.020549  0.000000      2.000000
  0.000000  0.048570  0.000000      1.000000
  0.021727  0.052307  0.000000      2.000000
  0.043454  0.056043  0.000000      2.000000
  0.065182  0.059779  0.000000      2.000000
  0.086909  0.063515  0.000000      2.000000
  0.108636  0.067251  0.000000      2.000000
  0.130363  0.070987  0.000000      2.000000
  0.000000  0.000000  0.018181      1.000000
  0.021727  0.003736  0.018181      2.000000
  0.043454  0.007472  0.018181      2.000000
  0.065182  0.011209  0.018181      2.000000
  0.086909  0.014945  0.018181      2.000000
  0.108636  0.018681  0.018181      2.000000
  0.130363  0.022417  0.018181      2.000000
  0.000000  0.024285  0.018181      2.000000
  0.021727  0.028021  0.018181      2.000000
  0.043454  0.031758  0.018181      2.000000
  0.065182  0.035494  0.018181      2.000000
  0.086909  0.039230  0.018181      2.000000
  0.108636  0.042966  0.018181      2.000000
  0.130363  0.046702  0.018181      2.000000
 -0.130363  0.001868  0.018181      2.000000
 -0.108636  0.005604  0.018181      2.000000
 -0.086909  0.009340  0.018181      2.000000
 -0.065182  0.013077  0.018181      2.000000
 -0.043454  0.016813  0.018181      2.000000
 -0.021727  0.020549  0.018181      2.000000
  0.000000  0.048570  0.018181      1.000000
  0.021727  0.052307  0.018181      2.000000
  0.043454  0.056043  0.018181      2.000000
  0.065182  0.059779  0.018181      2.000000
  0.086909  0.063515  0.018181      2.000000
  0.108636  0.067251  0.018181      2.000000
  0.130363  0.070987  0.018181      2.000000
 


--------------------------------------------------------------------------------------------------------




 Dimension of arrays:
   k-points           NKPTS =     54   k-points in BZ     NKDIM =     54   number of bands    NBANDS=     68
   number of dos      NEDOS =    301   number of ions     NIONS =     24
   non local maximal  LDIM  =      4   non local SUM 2l+1 LMDIM =      8
   total plane-waves  NPLWV = 192000
   max r-space proj   IRMAX =   2772   max aug-charges    IRDMAX=   6603
   dimension x,y,z NGX =    20 NGY =   60 NGZ =  160
   dimension x,y,z NGXF=    40 NGYF=  120 NGZF=  320
   support grid    NGXF=    40 NGYF=  120 NGZF=  320
   ions per type =              12  12
 NGX,Y,Z   is equivalent  to a cutoff of   9.39,  9.55,  9.67 a.u.
 NGXF,Y,Z  is equivalent  to a cutoff of  18.78, 19.10, 19.34 a.u.


 I would recommend the setting:
   dimension x,y,z NGX =    20 NGY =   59 NGZ =  155
 SYSTEM =  unknown system                          
 POSCAR =  Si12                                    

 Startparameter for this run:
   NWRITE =      2    write-flag & timer
   PREC   = accura    normal or accurate (medium, high low for compatibility)
   ISTART =      0    job   : 0-new  1-cont  2-samecut
   ICHARG =      2    charge: 1-file 2-atom 10-const
   ISPIN  =      1    spin polarized calculation?
   LNONCOLLINEAR =      F non collinear calculations
   LSORBIT =      F    spin-orbit coupling
   INIWAV =      1    electr: 0-lowe 1-rand  2-diag
   LASPH  =      F    aspherical Exc in radial PAW
   METAGGA=      F    non-selfconsistent MetaGGA calc.

 Electronic Relaxation 1
   ENCUT  =  300.0 eV  22.05 Ry    4.70 a.u.   5.00 14.75 38.84*2*pi/ulx,y,z
   ENINI  =  300.0     initial cutoff
   ENAUG  =  342.9 eV  augmentation charge cutoff
   NELM   =     60;   NELMIN=  2; NELMDL= -5     # of ELM steps 
   EDIFF  = 0.1E-05   stopping-criterion for ELM
   LREAL  =      T    real-space projection
   NLSPLINE    = F    spline interpolate recip. space projectors
   LCOMPAT=      F    compatible to vasp.4.4
   GGA_COMPAT  = T    GGA compatible to vasp.4.4-vasp.4.6
   LMAXPAW     = -100 max onsite density
   LMAXMIX     =    2 max onsite mixed and CHGCAR
   VOSKOWN=      0    Vosko Wilk Nusair interpolation
   ROPT   =   -0.00025  -0.00025
 Ionic relaxation
   EDIFFG = 0.1E-04   stopping-criterion for IOM
   NSW    =      0    number of steps for IOM
   NBLOCK =      1;   KBLOCK =      1    inner block; outer block 
   IBRION =     -1    ionic relax: 0-MD 1-quasi-New 2-CG
   NFREE  =      1    steps in history (QN), initial steepest desc. (CG)
   ISIF   =      3    stress and relaxation
   IWAVPR =     10    prediction:  0-non 1-charg 2-wave 3-comb
   ISYM   =      2    0-nonsym 1-usesym 2-fastsym
   LCORR  =      T    Harris-Foulkes like correction to forces

   POTIM  = 0.5000    time-step for ionic-motion
   TEIN   =    0.0    initial temperature
   TEBEG  =    0.0;   TEEND  =   0.0 temperature during run
   SMASS  =  -3.00    Nose mass-parameter (am)
   estimated Nose-frequenzy (Omega)   =  0.10E-29 period in steps =****** mass=  -0.286E-27a.u.
   SCALEE = 1.0000    scale energy and forces
   NPACO  =    256;   APACO  = 16.0  distance and # of slots for P.C.
   PSTRESS=    0.0 pullay stress

  Mass of Ions in am
   POMASS =  30.97 28.09
  Ionic Valenz
   ZVAL   =   5.00  4.00
  Atomic Wigner-Seitz radii
   RWIGS  =  -1.00 -1.00
  virtual crystal weights 
   VCA    =   1.00  1.00
   NELECT =     108.0000    total number of electrons
   NUPDOWN=      -1.0000    fix difference up-down

 DOS related values:
   EMIN   =  10.00;   EMAX   =-10.00  energy-range for DOS
   EFERMI =   0.00
   ISMEAR =     0;   SIGMA  =   0.10  broadening in eV -4-tet -1-fermi 0-gaus

 Electronic relaxation 2 (details)
   IALGO  =     38    algorithm
   LDIAG  =      T    sub-space diagonalisation (order eigenvalues)
   LSUBROT=      F    optimize rotation matrix (better conditioning)
   TURBO    =      0    0=normal 1=particle mesh
   IRESTART =      0    0=no restart 2=restart with 2 vectors
   NREBOOT  =      0    no. of reboots
   NMIN     =      0    reboot dimension
   EREF     =   0.00    reference energy to select bands
   IMIX   =      4    mixing-type and parameters
     AMIX     =   0.40;   BMIX     =  1.00
     AMIX_MAG =   1.60;   BMIX_MAG =  1.00
     AMIN     =   0.10
     WC   =   100.;   INIMIX=   1;  MIXPRE=   1;  MAXMIX= -45

 Intra band minimization:
   WEIMIN = 0.0000     energy-eigenvalue tresh-hold
   EBREAK =  0.37E-08  absolut break condition
   DEPER  =   0.30     relativ break condition  

   TIME   =   0.40     timestep for ELM

  volume/ion in A,a.u.               =      41.76       281.83
  Fermi-wavevector in a.u.,A,eV,Ry     =   0.779018  1.472130  8.256946  0.606868
  Thomas-Fermi vector in A             =   1.882034
 
 Write flags
   LWAVE  =      F    write WAVECAR
   LCHARG =      F    write CHGCAR
   LVTOT  =      F    write LOCPOT, total local potential
   LVHAR  =      F    write LOCPOT, Hartree potential only
   LELF   =      F    write electronic localiz. function (ELF)
   LORBIT =      0    0 simple, 1 ext, 2 COOP (PROOUT)


 Dipole corrections
   LMONO  =      F    monopole corrections only (constant potential shift)
   LDIPOL =      F    correct potential (dipole corrections)
   IDIPOL =      0    1-x, 2-y, 3-z, 4-all directions 
   EPSILON=  1.0000000 bulk dielectric constant

 Exchange correlation treatment:
   GGA     =    BO    GGA type
   LEXCH   =    42    internal setting for exchange type
   VOSKOWN=      0    Vosko Wilk Nusair interpolation
   LHFCALC =     F    Hartree Fock is set to
   LHFONE  =     F    Hartree Fock one center treatment
   AEXX    =    0.0000 exact exchange contribution

 vdW DFT:
   LUSE_VDW   =     T    switch on vdW DFT
   Zab_VDW    =-.8491    correlation parameter
   PARAM1     =0.1833
   PARAM2     =0.2200
   PARAM3     =0.0000

 Linear response parameters
   LEPSILON=     F    determine dielectric tensor
   LRPA    =     F    only Hartree local field effects (RPA)
   LNABLA  =     F    use nabla operator in PAW spheres
   LVEL    =     F    velocity operator in full k-point grid
   LINTERFAST=   F  fast interpolation
   KINTER  =     0    interpolate to denser k-point grid
   CSHIFT  =0.1000    complex shift for real part using Kramers Kronig
   OMEGAMAX=  -1.0    maximum frequency
   DEG_THRESHOLD= 0.2000000E-02 threshold for treating states as degnerate
   RTIME   =    0.100 relaxation time in fs

 Orbital magnetization related:
   ORBITALMAG=     F  switch on orbital magnetization
   LCHIMAG   =     F  perturbation theory with respect to B field
   DQ        =  0.001000  dq finite difference perturbation B field



--------------------------------------------------------------------------------------------------------


 Static calculation
 charge density and potential will be updated during run
 non-spin polarized calculation
 Variant of blocked Davidson
 Davidson routine will perform the subspace rotation
 perform sub-space diagonalisation
    after iterative eigenvector-optimisation
 modified Broyden-mixing scheme, WC =      100.0
 initial mixing is a Kerker type mixing with AMIX =  0.4000 and BMIX =      1.0000
 Hartree-type preconditioning will be used
 using additional bands           14
 real space projection scheme for non local part
 use partial core corrections
 calculate Harris-corrections to forces 
   (improved forces if not selfconsistent)
 use gradient corrections 
 use of overlap-Matrix (Vanderbilt PP)
 Gauss-broadening in eV      SIGMA  =   0.10


--------------------------------------------------------------------------------------------------------


  energy-cutoff  :      300.00
  volume of cell :     1002.32
      direct lattice vectors                 reciprocal lattice vectors
     3.540400000  0.000000000  0.000000000     0.282453960  0.048570342  0.000000000
    -1.770200000 10.294348000  0.000000000     0.000000000  0.097140683  0.000000000
     0.000000000  0.000000000 27.501429000     0.000000000  0.000000000  0.036361747

  length of vectors
     3.540400000 10.445439617 27.501429000     0.286599577  0.097140683  0.036361747


 
 k-points in units of 2pi/SCALE and weight: pymatgen generated KPOINTS with grid den
   0.00000000  0.00000000  0.00000000       0.010
   0.02172723  0.00373618  0.00000000       0.019
   0.04345446  0.00747236  0.00000000       0.019
   0.06518168  0.01120854  0.00000000       0.019
   0.08690891  0.01494472  0.00000000       0.019
   0.10863614  0.01868090  0.00000000       0.019
   0.13036337  0.02241708  0.00000000       0.019
   0.00000000  0.02428517  0.00000000       0.019
   0.02172723  0.02802135  0.00000000       0.019
   0.04345446  0.03175753  0.00000000       0.019
   0.06518168  0.03549371  0.00000000       0.019
   0.08690891  0.03922989  0.00000000       0.019
   0.10863614  0.04296607  0.00000000       0.019
   0.13036337  0.04670225  0.00000000       0.019
  -0.13036337  0.00186809  0.00000000       0.019
  -0.10863614  0.00560427  0.00000000       0.019
  -0.08690891  0.00934045  0.00000000       0.019
  -0.06518168  0.01307663  0.00000000       0.019
  -0.04345446  0.01681281  0.00000000       0.019
  -0.02172723  0.02054899  0.00000000       0.019
   0.00000000  0.04857034  0.00000000       0.010
   0.02172723  0.05230652  0.00000000       0.019
   0.04345446  0.05604270  0.00000000       0.019
   0.06518168  0.05977888  0.00000000       0.019
   0.08690891  0.06351506  0.00000000       0.019
   0.10863614  0.06725124  0.00000000       0.019
   0.13036337  0.07098742  0.00000000       0.019
   0.00000000  0.00000000  0.01818087       0.010
   0.02172723  0.00373618  0.01818087       0.019
   0.04345446  0.00747236  0.01818087       0.019
   0.06518168  0.01120854  0.01818087       0.019
   0.08690891  0.01494472  0.01818087       0.019
   0.10863614  0.01868090  0.01818087       0.019
   0.13036337  0.02241708  0.01818087       0.019
   0.00000000  0.02428517  0.01818087       0.019
   0.02172723  0.02802135  0.01818087       0.019
   0.04345446  0.03175753  0.01818087       0.019
   0.06518168  0.03549371  0.01818087       0.019
   0.08690891  0.03922989  0.01818087       0.019
   0.10863614  0.04296607  0.01818087       0.019
   0.13036337  0.04670225  0.01818087       0.019
  -0.13036337  0.00186809  0.01818087       0.019
  -0.10863614  0.00560427  0.01818087       0.019
  -0.08690891  0.00934045  0.01818087       0.019
  -0.06518168  0.01307663  0.01818087       0.019
  -0.04345446  0.01681281  0.01818087       0.019
  -0.02172723  0.02054899  0.01818087       0.019
   0.00000000  0.04857034  0.01818087       0.010
   0.02172723  0.05230652  0.01818087       0.019
   0.04345446  0.05604270  0.01818087       0.019
   0.06518168  0.05977888  0.01818087       0.019
   0.08690891  0.06351506  0.01818087       0.019
   0.10863614  0.06725124  0.01818087       0.019
   0.13036337  0.07098742  0.01818087       0.019
 
 k-points in reciprocal lattice and weights: pymatgen generated KPOINTS with grid den
   0.00000000  0.00000000  0.00000000       0.010
   0.07692308 -0.00000000  0.00000000       0.019
   0.15384615 -0.00000000  0.00000000       0.019
   0.23076923 -0.00000000  0.00000000       0.019
   0.30769231 -0.00000000  0.00000000       0.019
   0.38461538 -0.00000000  0.00000000       0.019
   0.46153846 -0.00000000  0.00000000       0.019
   0.00000000  0.25000000  0.00000000       0.019
   0.07692308  0.25000000  0.00000000       0.019
   0.15384615  0.25000000  0.00000000       0.019
   0.23076923  0.25000000  0.00000000       0.019
   0.30769231  0.25000000  0.00000000       0.019
   0.38461538  0.25000000  0.00000000       0.019
   0.46153846  0.25000000  0.00000000       0.019
  -0.46153846  0.25000000  0.00000000       0.019
  -0.38461538  0.25000000  0.00000000       0.019
  -0.30769231  0.25000000  0.00000000       0.019
  -0.23076923  0.25000000  0.00000000       0.019
  -0.15384615  0.25000000  0.00000000       0.019
  -0.07692308  0.25000000  0.00000000       0.019
   0.00000000  0.50000000  0.00000000       0.010
   0.07692308  0.50000000  0.00000000       0.019
   0.15384615  0.50000000  0.00000000       0.019
   0.23076923  0.50000000  0.00000000       0.019
   0.30769231  0.50000000  0.00000000       0.019
   0.38461538  0.50000000  0.00000000       0.019
   0.46153846  0.50000000  0.00000000       0.019
   0.00000000  0.00000000  0.50000000       0.010
   0.07692308 -0.00000000  0.50000000       0.019
   0.15384615 -0.00000000  0.50000000       0.019
   0.23076923 -0.00000000  0.50000000       0.019
   0.30769231 -0.00000000  0.50000000       0.019
   0.38461538 -0.00000000  0.50000000       0.019
   0.46153846 -0.00000000  0.50000000       0.019
   0.00000000  0.25000000  0.50000000       0.019
   0.07692308  0.25000000  0.50000000       0.019
   0.15384615  0.25000000  0.50000000       0.019
   0.23076923  0.25000000  0.50000000       0.019
   0.30769231  0.25000000  0.50000000       0.019
   0.38461538  0.25000000  0.50000000       0.019
   0.46153846  0.25000000  0.50000000       0.019
  -0.46153846  0.25000000  0.50000000       0.019
  -0.38461538  0.25000000  0.50000000       0.019
  -0.30769231  0.25000000  0.50000000       0.019
  -0.23076923  0.25000000  0.50000000       0.019
  -0.15384615  0.25000000  0.50000000       0.019
  -0.07692308  0.25000000  0.50000000       0.019
   0.00000000  0.50000000  0.50000000       0.010
   0.07692308  0.50000000  0.50000000       0.019
   0.15384615  0.50000000  0.50000000       0.019
   0.23076923  0.50000000  0.50000000       0.019
   0.30769231  0.50000000  0.50000000       0.019
   0.38461538  0.50000000  0.50000000       0.019
   0.46153846  0.50000000  0.50000000       0.019
 
 position of ions in fractional coordinates (direct lattice) 
   0.11402300  0.22804500  0.23316207
   0.51402300  0.52804500  0.51499159
   0.45808900  0.91617900  0.20939482
   0.85808900  0.21617900  0.49122434
   0.31085400  0.62170900  0.08414979
   0.31085400  0.62170900  0.36597930
   0.99923000  0.99846000  0.08631254
   0.99923000  0.99846000  0.36814206
   0.65492700  0.30985400  0.06041748
   0.65492700  0.30985400  0.34224700
   0.76973800  0.53947500  0.20725292
   0.16973800  0.83947500  0.48908244
   0.93971600  0.87943300  0.15783749
   0.33971600  0.17943300  0.43966701
   0.20515200  0.41030300  0.18578822
   0.60515200  0.71030300  0.46761774
   0.20184900  0.40369900  0.09969156
   0.20184900  0.40369900  0.38152107
   0.56380500  0.12761000  0.10779021
   0.56380500  0.12761000  0.38961973
   0.56710600  0.13421200  0.19387616
   0.96710600  0.43421200  0.47570568
   0.82923400  0.65846800  0.13571444
   0.22923400  0.95846800  0.41754396
 
 position of ions in cartesian coordinates  (Angst):
   0.00000177  2.34757459  6.41229012
   0.88510177  5.43587899 14.16300462
  -0.00000177  9.43146546  5.75865686
   2.65529823  2.22542186 13.50937136
  -0.00000177  6.40008880  2.31423934
  -0.00000177  6.40008880 10.06495384
   1.77020000 10.27849470  2.37371832
   1.77020000 10.27849470 10.12443282
   1.77020000  3.18974491  1.66156717
   1.77020000  3.18974491  9.41228167
   1.77020177  5.55354339  5.69975143
  -0.88509823  8.64184779 13.45046593
   1.77019823  9.05318934  4.34075665
   0.88509823  1.84714574 12.09147115
   0.00000177  4.22380187  5.10944151
   0.88510177  7.31210627 12.86015601
  -0.00000177  4.15581799  2.74166024
  -0.00000177  4.15581799 10.49237474
   1.77020000  1.31366175  2.96438477
   1.77020000  1.31366175 10.71509927
   1.77020000  1.38162503  5.33187152
   2.65530000  4.46992943 13.08258602
   1.77020000  6.77849874  3.73234107
  -0.88510000  9.86680314 11.48305557
 


--------------------------------------------------------------------------------------------------------


 k-point  1 :   0.0000 0.0000 0.0000  plane waves:   11717
 k-point  2 :   0.0769-0.0000 0.0000  plane waves:   11762
 k-point  3 :   0.1538-0.0000 0.0000  plane waves:   11805
 k-point  4 :   0.2308-0.0000 0.0000  plane waves:   11824
 k-point  5 :   0.3077-0.0000 0.0000  plane waves:   11875
 k-point  6 :   0.3846-0.0000 0.0000  plane waves:   11864
 k-point  7 :   0.4615-0.0000 0.0000  plane waves:   11883
 k-point  8 :   0.0000 0.2500 0.0000  plane waves:   11683
 k-point  9 :   0.0769 0.2500 0.0000  plane waves:   11756
 k-point 10 :   0.1538 0.2500 0.0000  plane waves:   11807
 k-point 11 :   0.2308 0.2500 0.0000  plane waves:   11853
 k-point 12 :   0.3077 0.2500 0.0000  plane waves:   11866
 k-point 13 :   0.3846 0.2500 0.0000  plane waves:   11889
 k-point 14 :   0.4615 0.2500 0.0000  plane waves:   11885
 k-point 15 :  -0.4615 0.2500 0.0000  plane waves:   11886
 k-point 16 :  -0.3846 0.2500 0.0000  plane waves:   11867
 k-point 17 :  -0.3077 0.2500 0.0000  plane waves:   11849
 k-point 18 :  -0.2308 0.2500 0.0000  plane waves:   11827
 k-point 19 :  -0.1538 0.2500 0.0000  plane waves:   11801
 k-point 20 :  -0.0769 0.2500 0.0000  plane waves:   11757
 k-point 21 :   0.0000 0.5000 0.0000  plane waves:   11710
 k-point 22 :   0.0769 0.5000 0.0000  plane waves:   11762
 k-point 23 :   0.1538 0.5000 0.0000  plane waves:   11782
 k-point 24 :   0.2308 0.5000 0.0000  plane waves:   11841
 k-point 25 :   0.3077 0.5000 0.0000  plane waves:   11876
 k-point 26 :   0.3846 0.5000 0.0000  plane waves:   11889
 k-point 27 :   0.4615 0.5000 0.0000  plane waves:   11881
 k-point 28 :   0.0000 0.0000 0.5000  plane waves:   11698
 k-point 29 :   0.0769-0.0000 0.5000  plane waves:   11752
 k-point 30 :   0.1538-0.0000 0.5000  plane waves:   11800
 k-point 31 :   0.2308-0.0000 0.5000  plane waves:   11834
 k-point 32 :   0.3077-0.0000 0.5000  plane waves:   11850
 k-point 33 :   0.3846-0.0000 0.5000  plane waves:   11888
 k-point 34 :   0.4615-0.0000 0.5000  plane waves:   11896
 k-point 35 :   0.0000 0.2500 0.5000  plane waves:   11714
 k-point 36 :   0.0769 0.2500 0.5000  plane waves:   11754
 k-point 37 :   0.1538 0.2500 0.5000  plane waves:   11802
 k-point 38 :   0.2308 0.2500 0.5000  plane waves:   11840
 k-point 39 :   0.3077 0.2500 0.5000  plane waves:   11858
 k-point 40 :   0.3846 0.2500 0.5000  plane waves:   11896
 k-point 41 :   0.4615 0.2500 0.5000  plane waves:   11886
 k-point 42 :  -0.4615 0.2500 0.5000  plane waves:   11852
 k-point 43 :  -0.3846 0.2500 0.5000  plane waves:   11838
 k-point 44 :  -0.3077 0.2500 0.5000  plane waves:   11842
 k-point 45 :  -0.2308 0.2500 0.5000  plane waves:   11840
 k-point 46 :  -0.1538 0.2500 0.5000  plane waves:   11804
 k-point 47 :  -0.0769 0.2500 0.5000  plane waves:   11748
 k-point 48 :   0.0000 0.5000 0.5000  plane waves:   11724
 k-point 49 :   0.0769 0.5000 0.5000  plane waves:   11748
 k-point 50 :   0.1538 0.5000 0.5000  plane waves:   11814
 k-point 51 :   0.2308 0.5000 0.5000  plane waves:   11832
 k-point 52 :   0.3077 0.5000 0.5000  plane waves:   11868
 k-point 53 :   0.3846 0.5000 0.5000  plane waves:   11892
 k-point 54 :   0.4615 0.5000 0.5000  plane waves:   11878

 maximum and minimum number of plane-waves per node :      5964     5832

 maximum number of plane-waves:     11896
 maximum index in each direction: 
   IXMAX=    5   IYMAX=   14   IZMAX=   38
   IXMIN=   -5   IYMIN=  -15   IZMIN=  -39

 WARNING: aliasing errors must be expected set NGX to  22 to avoid them
 NGY is ok and might be reduce to  60
 NGZ is ok and might be reduce to 156
 aliasing errors are usually negligible using standard VASP settings
 and one can safely disregard these warnings

 real space projection operators:
  total allocation   :       3793.25 KBytes
  max/ min on nodes  :       1899.38       1893.88


 parallel 3D FFT for wavefunctions:
    minimum data exchange during FFTs selected (reduces bandwidth)
 parallel 3D FFT for charge:
    minimum data exchange during FFTs selected (reduces bandwidth)


 total amount of memory used by VASP on root node   146493. kBytes
========================================================================

   base      :      30000. kBytes
   nonlr-proj:       3452. kBytes
   fftplans  :       9347. kBytes
   grid      :      14649. kBytes
   one-center:         36. kBytes
   wavefun   :      89009. kBytes
 
     INWAV:  cpu time    0.00: real time    0.00
 Broyden mixing: mesh for mixing (old mesh)
   NGX =  9   NGY = 29   NGZ = 77
  (NGX  = 40   NGY  =120   NGZ  =320)
  gives a total of  20097 points

 initial charge density was supplied:
 charge density of overlapping atoms calculated
 number of electron     108.0000000 magnetization 
 keeping initial charge density in first step


--------------------------------------------------------------------------------------------------------


 Maximum index for non-local projection operator         1333
 Maximum index for augmentation-charges          822 (set IRDMAX)


--------------------------------------------------------------------------------------------------------


 First call to EWALD:  gamma=   0.177
 Maximum number of real-space cells 7x 3x 1
 Maximum number of reciprocal cells 1x 3x 7

 FEWALD executed in parallel
    FEWALD:  cpu time    0.00: real time    0.00


----------------------------------------- Iteration    1(   1)  ---------------------------------------


vdW kernel read from vdw_kernel.bindat
  0.0000  0.2424  0.5071  0.7962  1.1119  1.4567  1.8333  2.2446  2.6937  3.1842
  3.7199  4.3049  4.9438  5.6415  6.4036  7.2358  8.1446  9.1372 10.2212 11.4050
 12.6979 14.1099 15.6519 17.3360 19.1751 21.1837 23.3773 25.7729 28.3892 31.2465
 34.3669 37.7748 41.4965 45.5611 50.0000
 
    POTLOK:  cpu time   14.62: real time   14.62
    SETDIJ:  cpu time    0.01: real time    0.01
     EDDAV:  cpu time   74.03: real time   74.06
       DOS:  cpu time    0.01: real time    0.01
    --------------------------------------------
      LOOP:  cpu time   88.67: real time   88.71

 eigenvalue-minimisations  :  7376
 total energy-change (2. order) : 0.5036209E+03  (-0.2874657E+04)
 number of electron     108.0000000 magnetization 
 augmentation part      108.0000000 magnetization 

 Free energy of the ion-electron system (eV)
  ---------------------------------------------------
  alpha Z        PSCENC =        36.80884744
  Ewald energy   TEWEN  =     11986.34426120
  -Hartree energ DENC   =    -15013.19895246
  -exchange      EXHF   =         0.00000000
  -V(xc)+E(xc)   XCENC  =       -87.25352252
  PAW double counting   =      1056.43050070     -732.41190547
  entropy T*S    EENTRO =        -0.04417461
  eigenvalues    EBANDS =       -97.09546451
  atomic energy  EATOM  =      3354.04126044
  ---------------------------------------------------
  free energy    TOTEN  =       503.62085020 eV

  energy without entropy =      503.66502482  energy(sigma->0) =      503.64293751


--------------------------------------------------------------------------------------------------------




----------------------------------------- Iteration    1(   2)  ---------------------------------------


     EDDAV:  cpu time   91.61: real time   91.63
       DOS:  cpu time    0.01: real time    0.01
    --------------------------------------------
      LOOP:  cpu time   91.63: real time   91.65

 eigenvalue-minimisations  :  9752
 total energy-change (2. order) :-0.5647917E+03  (-0.5501039E+03)
 number of electron     108.0000000 magnetization 
 augmentation part      108.0000000 magnetization 

 Free energy of the ion-electron system (eV)
  ---------------------------------------------------
  alpha Z        PSCENC =        36.80884744
  Ewald energy   TEWEN  =     11986.34426120
  -Hartree energ DENC   =    -15013.19895246
  -exchange      EXHF   =         0.00000000
  -V(xc)+E(xc)   XCENC  =       -87.25352252
  PAW double counting   =      1056.43050070     -732.41190547
  entropy T*S    EENTRO =        -0.02113220
  eigenvalues    EBANDS =      -661.91020651
  atomic energy  EATOM  =      3354.04126044
  ---------------------------------------------------
  free energy    TOTEN  =       -61.17084938 eV

  energy without entropy =      -61.14971718  energy(sigma->0) =      -61.16028328


--------------------------------------------------------------------------------------------------------




----------------------------------------- Iteration    1(   3)  ---------------------------------------


     EDDAV:  cpu time   73.71: real time   73.73
       DOS:  cpu time    0.01: real time    0.01
    --------------------------------------------
      LOOP:  cpu time   73.72: real time   73.74

 eigenvalue-minimisations  :  8800
 total energy-change (2. order) :-0.5741156E+02  (-0.5664158E+02)
 number of electron     108.0000000 magnetization 
 augmentation part      108.0000000 magnetization 

 Free energy of the ion-electron system (eV)
  ---------------------------------------------------
  alpha Z        PSCENC =        36.80884744
  Ewald energy   TEWEN  =     11986.34426120
  -Hartree energ DENC   =    -15013.19895246
  -exchange      EXHF   =         0.00000000
  -V(xc)+E(xc)   XCENC  =       -87.25352252
  PAW double counting   =      1056.43050070     -732.41190547
  entropy T*S    EENTRO =        -0.03146884
  eigenvalues    EBANDS =      -719.31143176
  atomic energy  EATOM  =      3354.04126044
  ---------------------------------------------------
  free energy    TOTEN  =      -118.58241127 eV

  energy without entropy =     -118.55094243  energy(sigma->0) =     -118.56667685


--------------------------------------------------------------------------------------------------------




----------------------------------------- Iteration    1(   4)  ---------------------------------------


     EDDAV:  cpu time   83.58: real time   83.59
       DOS:  cpu time    0.01: real time    0.01
    --------------------------------------------
      LOOP:  cpu time   83.59: real time   83.61

 eigenvalue-minimisations  : 11064
 total energy-change (2. order) :-0.2705120E+01  (-0.2688335E+01)
 number of electron     108.0000000 magnetization 
 augmentation part      108.0000000 magnetization 

 Free energy of the ion-electron system (eV)
  ---------------------------------------------------
  alpha Z        PSCENC =        36.80884744
  Ewald energy   TEWEN  =     11986.34426120
  -Hartree energ DENC   =    -15013.19895246
  -exchange      EXHF   =         0.00000000
  -V(xc)+E(xc)   XCENC  =       -87.25352252
  PAW double counting   =      1056.43050070     -732.41190547
  entropy T*S    EENTRO =        -0.03422128
  eigenvalues    EBANDS =      -722.01379972
  atomic energy  EATOM  =      3354.04126044
  ---------------------------------------------------
  free energy    TOTEN  =      -121.28753168 eV

  energy without entropy =     -121.25331040  energy(sigma->0) =     -121.27042104


--------------------------------------------------------------------------------------------------------




----------------------------------------- Iteration    1(   5)  ---------------------------------------


     EDDAV:  cpu time   76.95: real time   76.97
       DOS:  cpu time    0.01: real time    0.01
    CHARGE:  cpu time    3.52: real time    3.52
    MIXING:  cpu time    0.01: real time    0.01
    --------------------------------------------
      LOOP:  cpu time   80.50: real time   80.52

 eigenvalue-minimisations  :  9960
 total energy-change (2. order) :-0.6039341E-01  (-0.6033123E-01)
 number of electron     107.9999995 magnetization 
 augmentation part       -9.6602113 magnetization 

 Broyden mixing:
  rms(total) = 0.11888E+01    rms(broyden)= 0.11886E+01
  rms(prec ) = 0.12891E+01
  weight for this iteration     100.00

 Free energy of the ion-electron system (eV)
  ---------------------------------------------------
  alpha Z        PSCENC =        36.80884744
  Ewald energy   TEWEN  =     11986.34426120
  -Hartree energ DENC   =    -15013.19895246
  -exchange      EXHF   =         0.00000000
  -V(xc)+E(xc)   XCENC  =       -87.25352252
  PAW double counting   =      1056.43050070     -732.41190547
  entropy T*S    EENTRO =        -0.03427943
  eigenvalues    EBANDS =      -722.07413498
  atomic energy  EATOM  =      3354.04126044
  ---------------------------------------------------
  free energy    TOTEN  =      -121.34792509 eV

  energy without entropy =     -121.31364566  energy(sigma->0) =     -121.33078537


--------------------------------------------------------------------------------------------------------




----------------------------------------- Iteration    1(   6)  ---------------------------------------


    POTLOK:  cpu time   12.47: real time   12.48
    SETDIJ:  cpu time    0.01: real time    0.02
     EDDAV:  cpu time   70.49: real time   70.50
       DOS:  cpu time    0.01: real time    0.01
    CHARGE:  cpu time    3.97: real time    3.97
    MIXING:  cpu time    0.01: real time    0.01
    --------------------------------------------
      LOOP:  cpu time   86.97: real time   86.99

 eigenvalue-minimisations  :  8916
 total energy-change (2. order) : 0.4308571E+01  (-0.1317199E+01)
 number of electron     107.9999995 magnetization 
 augmentation part       -9.4962651 magnetization 

 Broyden mixing:
  rms(total) = 0.63560E+00    rms(broyden)= 0.63558E+00
  rms(prec ) = 0.67653E+00
  weight for this iteration     100.00

 eigenvalues of (default mixing * dielectric matrix)
  average eigenvalue GAMMA=   1.7338
  1.7338

 Free energy of the ion-electron system (eV)
  ---------------------------------------------------
  alpha Z        PSCENC =        36.80884744
  Ewald energy   TEWEN  =     11986.34426120
  -Hartree energ DENC   =    -15067.37395742
  -exchange      EXHF   =         0.00000000
  -V(xc)+E(xc)   XCENC  =       -83.92938462
  PAW double counting   =      1125.20146815     -803.18636712
  entropy T*S    EENTRO =        -0.02940530
  eigenvalues    EBANDS =      -664.91607719
  atomic energy  EATOM  =      3354.04126044
  ---------------------------------------------------
  free energy    TOTEN  =      -117.03935441 eV

  energy without entropy =     -117.00994911  energy(sigma->0) =     -117.02465176


--------------------------------------------------------------------------------------------------------




----------------------------------------- Iteration    1(   7)  ---------------------------------------


    POTLOK:  cpu time   12.39: real time   12.39
    SETDIJ:  cpu time    0.02: real time    0.02
     EDDAV:  cpu time   69.75: real time   69.76
       DOS:  cpu time    0.01: real time    0.01
    CHARGE:  cpu time    3.49: real time    3.50
    MIXING:  cpu time    0.01: real time    0.01
    --------------------------------------------
      LOOP:  cpu time   85.67: real time   85.69

 eigenvalue-minimisations  :  8768
 total energy-change (2. order) : 0.2079363E+00  (-0.9527243E+00)
 number of electron     107.9999996 magnetization 
 augmentation part       -9.3984340 magnetization 

 Broyden mixing:
  rms(total) = 0.26015E+00    rms(broyden)= 0.26010E+00
  rms(prec ) = 0.27997E+00
  weight for this iteration     100.00

 eigenvalues of (default mixing * dielectric matrix)
  average eigenvalue GAMMA=   1.3071
  0.7987  1.8154

 Free energy of the ion-electron system (eV)
  ---------------------------------------------------
  alpha Z        PSCENC =        36.80884744
  Ewald energy   TEWEN  =     11986.34426120
  -Hartree energ DENC   =    -15090.27434390
  -exchange      EXHF   =         0.00000000
  -V(xc)+E(xc)   XCENC  =       -80.99502746
  PAW double counting   =      1174.78654921     -854.17469538
  entropy T*S    EENTRO =        -0.03545239
  eigenvalues    EBANDS =      -643.33281726
  atomic energy  EATOM  =      3354.04126044
  ---------------------------------------------------
  free energy    TOTEN  =      -116.83141810 eV

  energy without entropy =     -116.79596570  energy(sigma->0) =     -116.81369190


--------------------------------------------------------------------------------------------------------




----------------------------------------- Iteration    1(   8)  ---------------------------------------


    POTLOK:  cpu time   12.88: real time   12.88
    SETDIJ:  cpu time    0.02: real time    0.02
     EDDAV:  cpu time   70.35: real time   70.36
       DOS:  cpu time    0.01: real time    0.01
    CHARGE:  cpu time    3.86: real time    3.86
    MIXING:  cpu time    0.01: real time    0.01
    --------------------------------------------
      LOOP:  cpu time   87.13: real time   87.15

 eigenvalue-minimisations  :  8976
 total energy-change (2. order) :-0.2524919E-01  (-0.1098727E+00)
 number of electron     107.9999995 magnetization 
 augmentation part       -9.3827268 magnetization 

 Broyden mixing:
  rms(total) = 0.13975E+00    rms(broyden)= 0.13974E+00
  rms(prec ) = 0.14792E+00
  weight for this iteration     100.00

 eigenvalues of (default mixing * dielectric matrix)
  average eigenvalue GAMMA=   1.4413
  2.0951  1.4099  0.8189

 Free energy of the ion-electron system (eV)
  ---------------------------------------------------
  alpha Z        PSCENC =        36.80884744
  Ewald energy   TEWEN  =     11986.34426120
  -Hartree energ DENC   =    -15100.53212459
  -exchange      EXHF   =         0.00000000
  -V(xc)+E(xc)   XCENC  =       -80.06691117
  PAW double counting   =      1185.13769947     -864.84086292
  entropy T*S    EENTRO =        -0.03430974
  eigenvalues    EBANDS =      -633.71452742
  atomic energy  EATOM  =      3354.04126044
  ---------------------------------------------------
  free energy    TOTEN  =      -116.85666729 eV

  energy without entropy =     -116.82235755  energy(sigma->0) =     -116.83951242


--------------------------------------------------------------------------------------------------------




----------------------------------------- Iteration    1(   9)  ---------------------------------------


    POTLOK:  cpu time   12.31: real time   12.31
    SETDIJ:  cpu time    0.02: real time    0.02
     EDDAV:  cpu time   72.49: real time   72.51
       DOS:  cpu time    0.01: real time    0.01
    CHARGE:  cpu time    3.10: real time    3.10
    MIXING:  cpu time    0.01: real time    0.01
    --------------------------------------------
      LOOP:  cpu time   87.95: real time   87.96

 eigenvalue-minimisations  :  9240
 total energy-change (2. order) : 0.1602983E-01  (-0.1634742E-01)
 number of electron     107.9999996 magnetization 
 augmentation part       -9.3845812 magnetization 

 Broyden mixing:
  rms(total) = 0.54045E-01    rms(broyden)= 0.54042E-01
  rms(prec ) = 0.58687E-01
  weight for this iteration     100.00

 eigenvalues of (default mixing * dielectric matrix)
  average eigenvalue GAMMA=   1.4462
  2.5161  1.5118  0.9608  0.7962

 Free energy of the ion-electron system (eV)
  ---------------------------------------------------
  alpha Z        PSCENC =        36.80884744
  Ewald energy   TEWEN  =     11986.34426120
  -Hartree energ DENC   =    -15108.87429496
  -exchange      EXHF   =         0.00000000
  -V(xc)+E(xc)   XCENC  =       -79.50389325
  PAW double counting   =      1187.18098259     -866.95818018
  entropy T*S    EENTRO =        -0.03490142
  eigenvalues    EBANDS =      -625.84471933
  atomic energy  EATOM  =      3354.04126044
  ---------------------------------------------------
  free energy    TOTEN  =      -116.84063746 eV

  energy without entropy =     -116.80573604  energy(sigma->0) =     -116.82318675


--------------------------------------------------------------------------------------------------------




----------------------------------------- Iteration    1(  10)  ---------------------------------------


    POTLOK:  cpu time   13.06: real time   13.07
    SETDIJ:  cpu time    0.01: real time    0.01
     EDDAV:  cpu time   70.92: real time   70.94
       DOS:  cpu time    0.01: real time    0.01
    CHARGE:  cpu time    3.55: real time    3.55
    MIXING:  cpu time    0.01: real time    0.01
    --------------------------------------------
      LOOP:  cpu time   87.58: real time   87.60

 eigenvalue-minimisations  :  8816
 total energy-change (2. order) : 0.8722905E-03  (-0.6735333E-02)
 number of electron     107.9999995 magnetization 
 augmentation part       -9.3857491 magnetization 

 Broyden mixing:
  rms(total) = 0.19538E-01    rms(broyden)= 0.19534E-01
  rms(prec ) = 0.22161E-01
  weight for this iteration     100.00

 eigenvalues of (default mixing * dielectric matrix)
  average eigenvalue GAMMA=   1.3387
  2.5789  1.2388  1.2388  0.8184  0.8184

 Free energy of the ion-electron system (eV)
  ---------------------------------------------------
  alpha Z        PSCENC =        36.80884744
  Ewald energy   TEWEN  =     11986.34426120
  -Hartree energ DENC   =    -15110.75073025
  -exchange      EXHF   =         0.00000000
  -V(xc)+E(xc)   XCENC  =       -79.24870918
  PAW double counting   =      1187.05644009     -866.84034237
  entropy T*S    EENTRO =        -0.03445549
  eigenvalues    EBANDS =      -624.21633705
  atomic energy  EATOM  =      3354.04126044
  ---------------------------------------------------
  free energy    TOTEN  =      -116.83976516 eV

  energy without entropy =     -116.80530968  energy(sigma->0) =     -116.82253742


--------------------------------------------------------------------------------------------------------




----------------------------------------- Iteration    1(  11)  ---------------------------------------


    POTLOK:  cpu time   12.46: real time   12.46
    SETDIJ:  cpu time    0.02: real time    0.02
     EDDAV:  cpu time   71.69: real time   71.70
       DOS:  cpu time    0.01: real time    0.01
    CHARGE:  cpu time    3.24: real time    3.24
    MIXING:  cpu time    0.01: real time    0.01
    --------------------------------------------
      LOOP:  cpu time   87.42: real time   87.44

 eigenvalue-minimisations  :  8912
 total energy-change (2. order) : 0.4741456E-02  (-0.1015209E-02)
 number of electron     107.9999995 magnetization 
 augmentation part       -9.3853538 magnetization 

 Broyden mixing:
  rms(total) = 0.10579E-01    rms(broyden)= 0.10579E-01
  rms(prec ) = 0.12015E-01
  weight for this iteration     100.00

 eigenvalues of (default mixing * dielectric matrix)
  average eigenvalue GAMMA=   1.3652
  2.6124  1.5014  1.5014  1.0390  0.7994  0.7379

 Free energy of the ion-electron system (eV)
  ---------------------------------------------------
  alpha Z        PSCENC =        36.80884744
  Ewald energy   TEWEN  =     11986.34426120
  -Hartree energ DENC   =    -15112.19895791
  -exchange      EXHF   =         0.00000000
  -V(xc)+E(xc)   XCENC  =       -79.19155126
  PAW double counting   =      1186.69293038     -866.46815006
  entropy T*S    EENTRO =        -0.03447297
  eigenvalues    EBANDS =      -622.82919098
  atomic energy  EATOM  =      3354.04126044
  ---------------------------------------------------
  free energy    TOTEN  =      -116.83502371 eV

  energy without entropy =     -116.80055074  energy(sigma->0) =     -116.81778722


--------------------------------------------------------------------------------------------------------




----------------------------------------- Iteration    1(  12)  ---------------------------------------


    POTLOK:  cpu time   12.92: real time   12.92
    SETDIJ:  cpu time    0.01: real time    0.01
     EDDAV:  cpu time   72.71: real time   72.73
       DOS:  cpu time    0.01: real time    0.01
    CHARGE:  cpu time    3.55: real time    3.55
    MIXING:  cpu time    0.01: real time    0.01
    --------------------------------------------
      LOOP:  cpu time   89.22: real time   89.24

 eigenvalue-minimisations  :  9088
 total energy-change (2. order) : 0.6197415E-02  (-0.2980072E-03)
 number of electron     107.9999995 magnetization 
 augmentation part       -9.3853894 magnetization 

 Broyden mixing:
  rms(total) = 0.51742E-02    rms(broyden)= 0.51734E-02
  rms(prec ) = 0.64382E-02
  weight for this iteration     100.00

 eigenvalues of (default mixing * dielectric matrix)
  average eigenvalue GAMMA=   1.3820
  2.6708  1.9485  1.2724  1.2724  0.7341  0.8879  0.8879

 Free energy of the ion-electron system (eV)
  ---------------------------------------------------
  alpha Z        PSCENC =        36.80884744
  Ewald energy   TEWEN  =     11986.34426120
  -Hartree energ DENC   =    -15113.44396468
  -exchange      EXHF   =         0.00000000
  -V(xc)+E(xc)   XCENC  =       -79.17436650
  PAW double counting   =      1185.80584547     -865.55800530
  entropy T*S    EENTRO =        -0.03444124
  eigenvalues    EBANDS =      -621.61826313
  atomic energy  EATOM  =      3354.04126044
  ---------------------------------------------------
  free energy    TOTEN  =      -116.82882629 eV

  energy without entropy =     -116.79438505  energy(sigma->0) =     -116.81160567


--------------------------------------------------------------------------------------------------------




----------------------------------------- Iteration    1(  13)  ---------------------------------------


    POTLOK:  cpu time   12.55: real time   12.55
    SETDIJ:  cpu time    0.01: real time    0.02
     EDDAV:  cpu time   72.62: real time   72.64
       DOS:  cpu time    0.01: real time    0.01
    CHARGE:  cpu time    3.82: real time    3.82
    MIXING:  cpu time    0.01: real time    0.01
    --------------------------------------------
      LOOP:  cpu time   89.03: real time   89.05

 eigenvalue-minimisations  :  8984
 total energy-change (2. order) : 0.4890532E-02  (-0.5927433E-04)
 number of electron     107.9999995 magnetization 
 augmentation part       -9.3859391 magnetization 

 Broyden mixing:
  rms(total) = 0.23317E-02    rms(broyden)= 0.23314E-02
  rms(prec ) = 0.35842E-02
  weight for this iteration     100.00

 eigenvalues of (default mixing * dielectric matrix)
  average eigenvalue GAMMA=   1.4053
  2.7253  2.2972  1.3302  1.1887  1.1887  0.7461  0.8831  0.8831

 Free energy of the ion-electron system (eV)
  ---------------------------------------------------
  alpha Z        PSCENC =        36.80884744
  Ewald energy   TEWEN  =     11986.34426120
  -Hartree energ DENC   =    -15114.36421733
  -exchange      EXHF   =         0.00000000
  -V(xc)+E(xc)   XCENC  =       -79.17059383
  PAW double counting   =      1185.04454950     -864.77682594
  entropy T*S    EENTRO =        -0.03443459
  eigenvalues    EBANDS =      -620.71678265
  atomic energy  EATOM  =      3354.04126044
  ---------------------------------------------------
  free energy    TOTEN  =      -116.82393576 eV

  energy without entropy =     -116.78950117  energy(sigma->0) =     -116.80671847


--------------------------------------------------------------------------------------------------------




----------------------------------------- Iteration    1(  14)  ---------------------------------------


    POTLOK:  cpu time   12.28: real time   12.29
    SETDIJ:  cpu time    0.02: real time    0.02
     EDDAV:  cpu time   71.89: real time   71.90
       DOS:  cpu time    0.01: real time    0.01
    CHARGE:  cpu time    3.11: real time    3.11
    MIXING:  cpu time    0.01: real time    0.01
    --------------------------------------------
      LOOP:  cpu time   87.33: real time   87.34

 eigenvalue-minimisations  :  9160
 total energy-change (2. order) : 0.2356778E-02  (-0.1897298E-04)
 number of electron     107.9999995 magnetization 
 augmentation part       -9.3856284 magnetization 

 Broyden mixing:
  rms(total) = 0.13840E-02    rms(broyden)= 0.13839E-02
  rms(prec ) = 0.23456E-02
  weight for this iteration     100.00

 eigenvalues of (default mixing * dielectric matrix)
  average eigenvalue GAMMA=   1.4023
  2.8020  2.3905  1.4459  1.2037  1.2037  1.1245  0.7529  0.8486  0.8486

 Free energy of the ion-electron system (eV)
  ---------------------------------------------------
  alpha Z        PSCENC =        36.80884744
  Ewald energy   TEWEN  =     11986.34426120
  -Hartree energ DENC   =    -15115.33073231
  -exchange      EXHF   =         0.00000000
  -V(xc)+E(xc)   XCENC  =       -79.16490655
  PAW double counting   =      1184.72130703     -864.44551028
  entropy T*S    EENTRO =        -0.03442036
  eigenvalues    EBANDS =      -619.76168561
  atomic energy  EATOM  =      3354.04126044
  ---------------------------------------------------
  free energy    TOTEN  =      -116.82157898 eV

  energy without entropy =     -116.78715863  energy(sigma->0) =     -116.80436881


--------------------------------------------------------------------------------------------------------




----------------------------------------- Iteration    1(  15)  ---------------------------------------


    POTLOK:  cpu time   13.19: real time   13.19
    SETDIJ:  cpu time    0.01: real time    0.01
     EDDAV:  cpu time   72.61: real time   72.62
       DOS:  cpu time    0.01: real time    0.01
    CHARGE:  cpu time    3.50: real time    3.50
    MIXING:  cpu time    0.01: real time    0.01
    --------------------------------------------
      LOOP:  cpu time   89.33: real time   89.35

 eigenvalue-minimisations  :  9240
 total energy-change (2. order) : 0.4968401E-03  (-0.4384537E-05)
 number of electron     107.9999995 magnetization 
 augmentation part       -9.3854935 magnetization 

 Broyden mixing:
  rms(total) = 0.86848E-03    rms(broyden)= 0.86844E-03
  rms(prec ) = 0.16318E-02
  weight for this iteration     100.00

 eigenvalues of (default mixing * dielectric matrix)
  average eigenvalue GAMMA=   1.4961
  3.1783  2.6243  1.9278  1.3625  1.1894  1.1894  1.0450  0.7530  0.8456  0.8456

 Free energy of the ion-electron system (eV)
  ---------------------------------------------------
  alpha Z        PSCENC =        36.80884744
  Ewald energy   TEWEN  =     11986.34426120
  -Hartree energ DENC   =    -15115.93144070
  -exchange      EXHF   =         0.00000000
  -V(xc)+E(xc)   XCENC  =       -79.16080667
  PAW double counting   =      1184.65030359     -864.37295993
  entropy T*S    EENTRO =        -0.03441586
  eigenvalues    EBANDS =      -619.16613166
  atomic energy  EATOM  =      3354.04126044
  ---------------------------------------------------
  free energy    TOTEN  =      -116.82108214 eV

  energy without entropy =     -116.78666629  energy(sigma->0) =     -116.80387422


--------------------------------------------------------------------------------------------------------




----------------------------------------- Iteration    1(  16)  ---------------------------------------


    POTLOK:  cpu time   12.65: real time   12.65
    SETDIJ:  cpu time    0.02: real time    0.02
     EDDAV:  cpu time   66.37: real time   66.39
       DOS:  cpu time    0.01: real time    0.01
    CHARGE:  cpu time    3.12: real time    3.12
    MIXING:  cpu time    0.01: real time    0.01
    --------------------------------------------
      LOOP:  cpu time   82.18: real time   82.20

 eigenvalue-minimisations  :  8160
 total energy-change (2. order) : 0.1933795E-04  (-0.9301679E-05)
 number of electron     107.9999995 magnetization 
 augmentation part       -9.3853101 magnetization 

 Broyden mixing:
  rms(total) = 0.48830E-03    rms(broyden)= 0.48827E-03
  rms(prec ) = 0.84689E-03
  weight for this iteration     100.00

 eigenvalues of (default mixing * dielectric matrix)
  average eigenvalue GAMMA=   1.5707
  3.9943  2.7057  2.1459  1.4394  1.1937  1.1937  1.0878  1.0878  0.7513  0.8392
  0.8392

 Free energy of the ion-electron system (eV)
  ---------------------------------------------------
  alpha Z        PSCENC =        36.80884744
  Ewald energy   TEWEN  =     11986.34426120
  -Hartree energ DENC   =    -15116.91573599
  -exchange      EXHF   =         0.00000000
  -V(xc)+E(xc)   XCENC  =       -79.15535890
  PAW double counting   =      1184.60733253     -864.32907156
  entropy T*S    EENTRO =        -0.03441306
  eigenvalues    EBANDS =      -618.18818492
  atomic energy  EATOM  =      3354.04126044
  ---------------------------------------------------
  free energy    TOTEN  =      -116.82106281 eV

  energy without entropy =     -116.78664975  energy(sigma->0) =     -116.80385628


--------------------------------------------------------------------------------------------------------




----------------------------------------- Iteration    1(  17)  ---------------------------------------


    POTLOK:  cpu time   13.21: real time   13.22
    SETDIJ:  cpu time    0.01: real time    0.01
     EDDAV:  cpu time   69.79: real time   69.80
       DOS:  cpu time    0.01: real time    0.01
    CHARGE:  cpu time    3.59: real time    3.59
    MIXING:  cpu time    0.01: real time    0.01
    --------------------------------------------
      LOOP:  cpu time   86.64: real time   86.66

 eigenvalue-minimisations  :  8432
 total energy-change (2. order) :-0.4086960E-03  (-0.1021659E-04)
 number of electron     107.9999995 magnetization 
 augmentation part       -9.3852474 magnetization 

 Broyden mixing:
  rms(total) = 0.32904E-03    rms(broyden)= 0.32902E-03
  rms(prec ) = 0.52812E-03
  weight for this iteration     100.00

 eigenvalues of (default mixing * dielectric matrix)
  average eigenvalue GAMMA=   1.6952
  5.0260  2.7310  2.3796  1.8358  1.5129  1.1871  1.1871  1.0255  1.0255  0.7530
  0.8396  0.8396

 Free energy of the ion-electron system (eV)
  ---------------------------------------------------
  alpha Z        PSCENC =        36.80884744
  Ewald energy   TEWEN  =     11986.34426120
  -Hartree energ DENC   =    -15117.37274903
  -exchange      EXHF   =         0.00000000
  -V(xc)+E(xc)   XCENC  =       -79.15301070
  PAW double counting   =      1184.61906996     -864.34107879
  entropy T*S    EENTRO =        -0.03441184
  eigenvalues    EBANDS =      -617.73366018
  atomic energy  EATOM  =      3354.04126044
  ---------------------------------------------------
  free energy    TOTEN  =      -116.82147150 eV

  energy without entropy =     -116.78705966  energy(sigma->0) =     -116.80426558


--------------------------------------------------------------------------------------------------------




----------------------------------------- Iteration    1(  18)  ---------------------------------------


    POTLOK:  cpu time   12.26: real time   12.27
    SETDIJ:  cpu time    0.02: real time    0.02
     EDDAV:  cpu time   62.23: real time   62.24
       DOS:  cpu time    0.01: real time    0.01
    CHARGE:  cpu time    3.50: real time    3.50
    MIXING:  cpu time    0.01: real time    0.01
    --------------------------------------------
      LOOP:  cpu time   78.03: real time   78.05

 eigenvalue-minimisations  :  7704
 total energy-change (2. order) :-0.2841142E-03  (-0.1093869E-04)
 number of electron     107.9999995 magnetization 
 augmentation part       -9.3852328 magnetization 

 Broyden mixing:
  rms(total) = 0.16498E-03    rms(broyden)= 0.16496E-03
  rms(prec ) = 0.29930E-03
  weight for this iteration     100.00

 eigenvalues of (default mixing * dielectric matrix)
  average eigenvalue GAMMA=   1.7443
  5.9551  2.8631  2.4913  1.9109  1.1871  1.1871  1.2080  1.2080  1.1400  1.0925
  0.7535  0.8396  0.8396

 Free energy of the ion-electron system (eV)
  ---------------------------------------------------
  alpha Z        PSCENC =        36.80884744
  Ewald energy   TEWEN  =     11986.34426120
  -Hartree energ DENC   =    -15117.67511292
  -exchange      EXHF   =         0.00000000
  -V(xc)+E(xc)   XCENC  =       -79.15148095
  PAW double counting   =      1184.64378987     -864.36627795
  entropy T*S    EENTRO =        -0.03441560
  eigenvalues    EBANDS =      -617.43262715
  atomic energy  EATOM  =      3354.04126044
  ---------------------------------------------------
  free energy    TOTEN  =      -116.82175562 eV

  energy without entropy =     -116.78734001  energy(sigma->0) =     -116.80454781


--------------------------------------------------------------------------------------------------------




----------------------------------------- Iteration    1(  19)  ---------------------------------------


    POTLOK:  cpu time   12.09: real time   12.09
    SETDIJ:  cpu time    0.02: real time    0.02
     EDDAV:  cpu time   60.09: real time   60.10
       DOS:  cpu time    0.01: real time    0.01
    CHARGE:  cpu time    3.50: real time    3.50
    MIXING:  cpu time    0.01: real time    0.01
    --------------------------------------------
      LOOP:  cpu time   75.72: real time   75.74

 eigenvalue-minimisations  :  7360
 total energy-change (2. order) :-0.5662738E-04  (-0.1594722E-05)
 number of electron     107.9999995 magnetization 
 augmentation part       -9.3852265 magnetization 

 Broyden mixing:
  rms(total) = 0.11657E-03    rms(broyden)= 0.11657E-03
  rms(prec ) = 0.21380E-03
  weight for this iteration     100.00

 eigenvalues of (default mixing * dielectric matrix)
  average eigenvalue GAMMA=   1.7956
  6.3843  2.9198  2.6355  2.1655  1.4722  1.4722  1.1969  1.1969  1.1518  1.1518
  0.7536  0.8379  0.8379  0.9625

 Free energy of the ion-electron system (eV)
  ---------------------------------------------------
  alpha Z        PSCENC =        36.80884744
  Ewald energy   TEWEN  =     11986.34426120
  -Hartree energ DENC   =    -15117.79901174
  -exchange      EXHF   =         0.00000000
  -V(xc)+E(xc)   XCENC  =       -79.15114995
  PAW double counting   =      1184.64801118     -864.37056348
  entropy T*S    EENTRO =        -0.03441556
  eigenvalues    EBANDS =      -617.30905177
  atomic energy  EATOM  =      3354.04126044
  ---------------------------------------------------
  free energy    TOTEN  =      -116.82181224 eV

  energy without entropy =     -116.78739668  energy(sigma->0) =     -116.80460446


--------------------------------------------------------------------------------------------------------




----------------------------------------- Iteration    1(  20)  ---------------------------------------


    POTLOK:  cpu time   12.32: real time   12.32
    SETDIJ:  cpu time    0.02: real time    0.02
     EDDAV:  cpu time   57.28: real time   57.29
       DOS:  cpu time    0.01: real time    0.01
    CHARGE:  cpu time    3.85: real time    3.85
    MIXING:  cpu time    0.01: real time    0.01
    --------------------------------------------
      LOOP:  cpu time   73.49: real time   73.54

 eigenvalue-minimisations  :  6904
 total energy-change (2. order) :-0.1773674E-04  (-0.2403703E-05)
 number of electron     107.9999995 magnetization 
 augmentation part       -9.3852251 magnetization 

 Broyden mixing:
  rms(total) = 0.81951E-04    rms(broyden)= 0.81947E-04
  rms(prec ) = 0.13631E-03
  weight for this iteration     100.00

 eigenvalues of (default mixing * dielectric matrix)
  average eigenvalue GAMMA=   1.8128
  6.7060  3.2092  2.6836  2.1725  1.7597  1.3129  1.3129  1.2321  1.2321  1.1020
  1.1020  0.7537  0.8387  0.8387  0.9354

 Free energy of the ion-electron system (eV)
  ---------------------------------------------------
  alpha Z        PSCENC =        36.80884744
  Ewald energy   TEWEN  =     11986.34426120
  -Hartree energ DENC   =    -15117.88983690
  -exchange      EXHF   =         0.00000000
  -V(xc)+E(xc)   XCENC  =       -79.15094940
  PAW double counting   =      1184.64539921     -864.36785402
  entropy T*S    EENTRO =        -0.03441522
  eigenvalues    EBANDS =      -617.21854273
  atomic energy  EATOM  =      3354.04126044
  ---------------------------------------------------
  free energy    TOTEN  =      -116.82182998 eV

  energy without entropy =     -116.78741476  energy(sigma->0) =     -116.80462237


--------------------------------------------------------------------------------------------------------




----------------------------------------- Iteration    1(  21)  ---------------------------------------


    POTLOK:  cpu time   12.30: real time   12.30
    SETDIJ:  cpu time    0.02: real time    0.02
     EDDAV:  cpu time   60.82: real time   60.83
       DOS:  cpu time    0.01: real time    0.01
    CHARGE:  cpu time    3.86: real time    3.86
    MIXING:  cpu time    0.01: real time    0.02
    --------------------------------------------
      LOOP:  cpu time   77.02: real time   77.04

 eigenvalue-minimisations  :  7056
 total energy-change (2. order) :-0.1751091E-04  (-0.1488112E-05)
 number of electron     107.9999995 magnetization 
 augmentation part       -9.3852228 magnetization 

 Broyden mixing:
  rms(total) = 0.57452E-04    rms(broyden)= 0.57448E-04
  rms(prec ) = 0.88722E-04
  weight for this iteration     100.00

 eigenvalues of (default mixing * dielectric matrix)
  average eigenvalue GAMMA=   1.9110
  7.1029  4.0065  2.7827  2.5337  1.9970  1.3626  1.3626  1.4780  1.1919  1.1919
  1.0965  1.0965  0.7537  0.8395  0.8395  0.9408

 Free energy of the ion-electron system (eV)
  ---------------------------------------------------
  alpha Z        PSCENC =        36.80884744
  Ewald energy   TEWEN  =     11986.34426120
  -Hartree energ DENC   =    -15117.91401554
  -exchange      EXHF   =         0.00000000
  -V(xc)+E(xc)   XCENC  =       -79.15102142
  PAW double counting   =      1184.64617745     -864.36866195
  entropy T*S    EENTRO =        -0.03441513
  eigenvalues    EBANDS =      -617.19427999
  atomic energy  EATOM  =      3354.04126044
  ---------------------------------------------------
  free energy    TOTEN  =      -116.82184749 eV

  energy without entropy =     -116.78743236  energy(sigma->0) =     -116.80463993


--------------------------------------------------------------------------------------------------------




----------------------------------------- Iteration    1(  22)  ---------------------------------------


    POTLOK:  cpu time   12.04: real time   12.05
    SETDIJ:  cpu time    0.02: real time    0.02
     EDDAV:  cpu time   59.60: real time   59.61
       DOS:  cpu time    0.01: real time    0.01
    CHARGE:  cpu time    3.87: real time    3.87
    MIXING:  cpu time    0.02: real time    0.02
    --------------------------------------------
      LOOP:  cpu time   75.56: real time   75.58

 eigenvalue-minimisations  :  7156
 total energy-change (2. order) : 0.7023698E-04  (-0.2157306E-05)
 number of electron     107.9999995 magnetization 
 augmentation part       -9.3852229 magnetization 

 Broyden mixing:
  rms(total) = 0.30797E-04    rms(broyden)= 0.30795E-04
  rms(prec ) = 0.41451E-04
  weight for this iteration     100.00

 eigenvalues of (default mixing * dielectric matrix)
  average eigenvalue GAMMA=   1.9965
  7.4657  5.4869  2.8914  2.5810  1.8740  1.8740  1.3252  1.3252  1.2097  1.2097
  1.1597  1.1597  0.7536  0.8386  0.8386  1.0123  0.9359

 Free energy of the ion-electron system (eV)
  ---------------------------------------------------
  alpha Z        PSCENC =        36.80884744
  Ewald energy   TEWEN  =     11986.34426120
  -Hartree energ DENC   =    -15117.94126038
  -exchange      EXHF   =         0.00000000
  -V(xc)+E(xc)   XCENC  =       -79.15111398
  PAW double counting   =      1184.64171891     -864.36410988
  entropy T*S    EENTRO =        -0.03441474
  eigenvalues    EBANDS =      -617.16696627
  atomic energy  EATOM  =      3354.04126044
  ---------------------------------------------------
  free energy    TOTEN  =      -116.82177725 eV

  energy without entropy =     -116.78736252  energy(sigma->0) =     -116.80456989


--------------------------------------------------------------------------------------------------------




----------------------------------------- Iteration    1(  23)  ---------------------------------------


    POTLOK:  cpu time   12.06: real time   12.06
    SETDIJ:  cpu time    0.02: real time    0.02
     EDDAV:  cpu time   58.09: real time   58.10
       DOS:  cpu time    0.01: real time    0.01
    CHARGE:  cpu time    3.92: real time    3.92
    MIXING:  cpu time    0.02: real time    0.02
    --------------------------------------------
      LOOP:  cpu time   74.12: real time   74.14

 eigenvalue-minimisations  :  6916
 total energy-change (2. order) : 0.4309450E-04  (-0.1261999E-05)
 number of electron     107.9999995 magnetization 
 augmentation part       -9.3852236 magnetization 

 Broyden mixing:
  rms(total) = 0.16477E-04    rms(broyden)= 0.16474E-04
  rms(prec ) = 0.20742E-04
  weight for this iteration     100.00

 eigenvalues of (default mixing * dielectric matrix)
  average eigenvalue GAMMA=   2.0967
  8.3116  6.4829  3.0252  2.6814  2.2334  1.3633  1.3633  1.5271  1.3610  1.3610
  1.1835  1.1835  0.7536  0.8391  0.8391  1.1368  1.1368  0.9577

 Free energy of the ion-electron system (eV)
  ---------------------------------------------------
  alpha Z        PSCENC =        36.80884744
  Ewald energy   TEWEN  =     11986.34426120
  -Hartree energ DENC   =    -15117.94376368
  -exchange      EXHF   =         0.00000000
  -V(xc)+E(xc)   XCENC  =       -79.15113772
  PAW double counting   =      1184.64122353     -864.36360746
  entropy T*S    EENTRO =        -0.03441488
  eigenvalues    EBANDS =      -617.16440304
  atomic energy  EATOM  =      3354.04126044
  ---------------------------------------------------
  free energy    TOTEN  =      -116.82173416 eV

  energy without entropy =     -116.78731928  energy(sigma->0) =     -116.80452672


[...]
     31      -4.1609      2.00000
     32      -3.9680      2.00000
     33      -3.7105      2.00000
     34      -3.6165      2.00000
     35      -3.3694      2.00000
     36      -3.1977      2.00000
     37      -3.1361      2.00000
     38      -3.0285      2.00000
     39      -2.9220      2.00000
     40      -2.6544      2.00000
     41      -2.6105      2.00000
     42      -2.5045      2.00000
     43      -2.4582      2.00000
     44      -1.9955      2.00000
     45      -1.9516      2.00000
     46      -1.8884      2.00000
     47      -1.8022      2.00000
     48      -1.7270      2.00000
     49      -1.4216      2.00000
     50      -1.3243      2.00000
     51      -1.0377      2.00000
     52      -0.8612      2.00000
     53      -0.4170      2.00000
     54      -0.1613      1.99946
     55       0.3485      0.00018
     56       0.9086      0.00000
     57       1.3615      0.00000
     58       1.4476      0.00000
     59       1.5540      0.00000
     60       1.6450      0.00000
     61       2.2486      0.00000
     62       2.3979      0.00000
     63       2.6077      0.00000
     64       2.7133      0.00000
     65       2.7633      0.00000
     66       3.0285      0.00000
     67       3.0749      0.00000
     68       3.2126      0.00000

 k-point    52 :       0.3077    0.5000    0.5000
  band No.  band energies     occupation 
      1     -14.5309      2.00000
      2     -12.4736      2.00000
      3     -12.2415      2.00000
      4     -12.1279      2.00000
      5     -11.6861      2.00000
      6     -11.6034      2.00000
      7     -11.3171      2.00000
      8     -10.9808      2.00000
      9     -10.8239      2.00000
     10     -10.7723      2.00000
     11     -10.3580      2.00000
     12      -9.9313      2.00000
     13      -9.2735      2.00000
     14      -8.8864      2.00000
     15      -7.8992      2.00000
     16      -7.7393      2.00000
     17      -7.3999      2.00000
     18      -7.0291      2.00000
     19      -6.9318      2.00000
     20      -6.7520      2.00000
     21      -6.3197      2.00000
     22      -6.1498      2.00000
     23      -6.0609      2.00000
     24      -5.8884      2.00000
     25      -5.6055      2.00000
     26      -5.3216      2.00000
     27      -4.9344      2.00000
     28      -4.8619      2.00000
     29      -4.5344      2.00000
     30      -4.4332      2.00000
     31      -4.2947      2.00000
     32      -4.1966      2.00000
     33      -4.0444      2.00000
     34      -3.7517      2.00000
     35      -3.3336      2.00000
     36      -3.2060      2.00000
     37      -3.0851      2.00000
     38      -3.0369      2.00000
     39      -2.9066      2.00000
     40      -2.8544      2.00000
     41      -2.7335      2.00000
     42      -2.5355      2.00000
     43      -2.4549      2.00000
     44      -2.2384      2.00000
     45      -2.1452      2.00000
     46      -1.9821      2.00000
     47      -1.9085      2.00000
     48      -1.8384      2.00000
     49      -1.7081      2.00000
     50      -1.5060      2.00000
     51      -1.2932      2.00000
     52      -1.0650      2.00000
     53      -0.6070      2.00000
     54      -0.4826      2.00000
     55       0.2515      0.01745
     56       0.6066      0.00000
     57       1.0995      0.00000
     58       1.2528      0.00000
     59       1.3494      0.00000
     60       1.4103      0.00000
     61       2.1641      0.00000
     62       2.2400      0.00000
     63       2.3264      0.00000
     64       2.4832      0.00000
     65       2.5661      0.00000
     66       2.7515      0.00000
     67       2.8701      0.00000
     68       3.0152      0.00000

 k-point    53 :       0.3846    0.5000    0.5000
  band No.  band energies     occupation 
      1     -14.1970      2.00000
      2     -11.9978      2.00000
      3     -11.8911      2.00000
      4     -11.6310      2.00000
      5     -11.3966      2.00000
      6     -11.2116      2.00000
      7     -10.9685      2.00000
      8     -10.7375      2.00000
      9     -10.6450      2.00000
     10     -10.5809      2.00000
     11     -10.4251      2.00000
     12     -10.1328      2.00000
     13      -9.3585      2.00000
     14      -8.8705      2.00000
     15      -8.2891      2.00000
     16      -8.2136      2.00000
     17      -7.7712      2.00000
     18      -7.5789      2.00000
     19      -7.3479      2.00000
     20      -7.0652      2.00000
     21      -6.8340      2.00000
     22      -6.6824      2.00000
     23      -6.6206      2.00000
     24      -6.2571      2.00000
     25      -5.6229      2.00000
     26      -5.2647      2.00000
     27      -4.9562      2.00000
     28      -4.6413      2.00000
     29      -4.5328      2.00000
     30      -4.4325      2.00000
     31      -4.1984      2.00000
     32      -4.0961      2.00000
     33      -4.0024      2.00000
     34      -3.8010      2.00000
     35      -3.4968      2.00000
     36      -3.2342      2.00000
     37      -3.2040      2.00000
     38      -3.1429      2.00000
     39      -3.0846      2.00000
     40      -2.9226      2.00000
     41      -2.8439      2.00000
     42      -2.7619      2.00000
     43      -2.4959      2.00000
     44      -2.3548      2.00000
     45      -2.2685      2.00000
     46      -2.1406      2.00000
     47      -2.0410      2.00000
     48      -1.9586      2.00000
     49      -1.8109      2.00000
     50      -1.5991      2.00000
     51      -1.4307      2.00000
     52      -1.3549      2.00000
     53      -0.7435      2.00000
     54      -0.5044      2.00000
     55       0.1430      0.39960
     56       0.3456      0.00021
     57       0.9033      0.00000
     58       1.0171      0.00000
     59       1.3071      0.00000
     60       1.5576      0.00000
     61       1.8297      0.00000
     62       2.0507      0.00000
     63       2.1214      0.00000
     64       2.2329      0.00000
     65       2.3590      0.00000
     66       2.5130      0.00000
     67       2.6725      0.00000
     68       2.7576      0.00000

 k-point    54 :       0.4615    0.5000    0.5000
  band No.  band energies     occupation 
      1     -13.9561      2.00000
      2     -11.7476      2.00000
      3     -11.4536      2.00000
      4     -11.1329      2.00000
      5     -11.0823      2.00000
      6     -10.9138      2.00000
      7     -10.8139      2.00000
      8     -10.7812      2.00000
      9     -10.6872      2.00000
     10     -10.6775      2.00000
     11     -10.5838      2.00000
     12     -10.0364      2.00000
     13      -9.5695      2.00000
     14      -8.6286      2.00000
     15      -8.5283      2.00000
     16      -8.4039      2.00000
     17      -8.0827      2.00000
     18      -7.8995      2.00000
     19      -7.5835      2.00000
     20      -7.5238      2.00000
     21      -7.2549      2.00000
     22      -7.1506      2.00000
     23      -7.1225      2.00000
     24      -6.1029      2.00000
     25      -5.5660      2.00000
     26      -4.9484      2.00000
     27      -4.9048      2.00000
     28      -4.4687      2.00000
     29      -4.4383      2.00000
     30      -4.2624      2.00000
     31      -4.1180      2.00000
     32      -4.0190      2.00000
     33      -3.9126      2.00000
     34      -3.7597      2.00000
     35      -3.7317      2.00000
     36      -3.5636      2.00000
     37      -3.4743      2.00000
     38      -3.2765      2.00000
     39      -3.2219      2.00000
     40      -2.9986      2.00000
     41      -2.8979      2.00000
     42      -2.7570      2.00000
     43      -2.6447      2.00000
     44      -2.4830      2.00000
     45      -2.3348      2.00000
     46      -2.1671      2.00000
     47      -2.0889      2.00000
     48      -1.9964      2.00000
     49      -1.7921      2.00000
     50      -1.6798      2.00000
     51      -1.4907      2.00000
     52      -1.3266      2.00000
     53      -0.8733      2.00000
     54      -0.4543      2.00000
     55       0.0660      1.19476
     56       0.1710      0.21532
     57       0.7610      0.00000
     58       0.9397      0.00000
     59       1.3889      0.00000
     60       1.6026      0.00000
     61       1.6651      0.00000
     62       1.8769      0.00000
     63       2.0489      0.00000
     64       2.0948      0.00000
     65       2.3822      0.00000
     66       2.4881      0.00000
     67       2.5080      0.00000
     68       2.5889      0.00000


--------------------------------------------------------------------------------------------------------


 soft charge-density along one line, spin component           1
         0         1         2         3         4         5         6         7         8         9
 total charge-density along one line
 
 pseudopotential strength for first ion, spin component:           1
 29.769   0.008  -0.000  -0.023  -0.000  -0.000  -0.001  -0.000
  0.008   0.009  -0.000  -0.000   0.000   0.000   0.000  -0.000
 -0.000  -0.000   6.547  -0.001   0.000  -0.003   0.000  -0.000
 -0.023  -0.000  -0.001   6.542  -0.000   0.000  -0.002   0.000
 -0.000   0.000   0.000  -0.000   6.548  -0.000   0.000  -0.003
 -0.000   0.000  -0.003   0.000  -0.000   0.015  -0.000   0.000
 -0.001   0.000   0.000  -0.002   0.000  -0.000   0.015   0.000
 -0.000  -0.000  -0.000   0.000  -0.003   0.000   0.000   0.015
 total augmentation occupancy for first ion, spin component:           1
  1.814  -0.355   0.006   0.254   0.001   0.005   0.114  -0.001
 -0.355   1.290   0.025   0.856   0.001   0.003  -0.433   0.000
  0.006   0.025   1.142   0.010   0.000  -0.503   0.015  -0.000
  0.254   0.856   0.010   1.290   0.001   0.015  -0.419  -0.000
  0.001   0.001   0.000   0.001   1.144  -0.000  -0.000  -0.527
  0.005   0.003  -0.503   0.015  -0.000   0.291  -0.016   0.000
  0.114  -0.433   0.015  -0.419  -0.000  -0.016   0.227   0.000
 -0.001   0.000  -0.000  -0.000  -0.527   0.000   0.000   0.325


------------------------ aborting loop because EDIFF is reached ----------------------------------------


    CHARGE:  cpu time    3.54: real time    3.54
    FORLOC:  cpu time    0.06: real time    0.06
    FORNL :  cpu time   17.82: real time   17.82
    STRESS:  cpu time   52.78: real time   52.79
    FORCOR:  cpu time   12.86: real time   12.86
    FORHAR:  cpu time    0.13: real time    0.13
    MIXING:  cpu time    0.02: real time    0.02
    OFIELD:  cpu time    0.00: real time    0.00

  FORCE on cell =-STRESS in cart. coord.  units (eV):
  Direction    XX          YY          ZZ          XY          YZ          ZX
  --------------------------------------------------------------------------------------
  Alpha Z    36.80885    36.80885    36.80885
  Ewald   14443.22145 13945.94124-16402.82579    -3.01026   -32.42860    11.13605
  Hartree 14950.26097 14593.52122-14425.83436     4.12137   -10.02675     4.09852
  E(xc)    -358.96152  -358.65547  -357.96351     0.17034    -0.14663     0.07074
  Local  -30944.64614-30107.49381 29240.53119    -4.49580    38.75743   -15.36186
  n-local  1164.42390  1162.49567  1171.58026    -5.56709    -0.80125    -0.01622
  augment  -202.18461  -203.66179  -206.00685    -0.06898    -0.14397    -0.05218
  Kinetic   931.59626   943.80510   986.08516     3.71899     1.33778     0.33295
  Fock        0.00000     0.00000     0.00000     0.00000     0.00000     0.00000
  -------------------------------------------------------------------------------------
  Total      20.51916    12.76101    42.37496    -5.13142    -3.45200     0.20800
  in kB      32.79924    20.39808    67.73504    -8.20242    -5.51792     0.33249
  external pressure =       40.31 kB  Pullay stress =        0.00 kB


 VOLUME and BASIS-vectors are now :
 -----------------------------------------------------------------------------
  energy-cutoff  :      300.00
  volume of cell :     1002.32
      direct lattice vectors                 reciprocal lattice vectors
     3.540400000  0.000000000  0.000000000     0.282453960  0.048570342  0.000000000
    -1.770200000 10.294348000  0.000000000     0.000000000  0.097140683  0.000000000
     0.000000000  0.000000000 27.501429000     0.000000000  0.000000000  0.036361747

  length of vectors
     3.540400000 10.445439617 27.501429000     0.286599577  0.097140683  0.036361747


 FORCES acting on ions
    electron-ion (+dipol)            ewald-force                    non-local-force                 convergence-correction
 -----------------------------------------------------------------------------------------------
   0.620E-01 0.424E+01 0.312E+02   -.155E-01 -.412E+01 -.266E+02   -.466E-01 -.150E+00 -.458E+01   0.141E-07 -.648E-06 -.443E-05
   -.490E+00 -.159E+02 -.557E+03   0.414E+00 0.164E+02 0.561E+03   0.149E+00 -.431E+00 -.396E+01   0.329E-06 0.343E-05 0.817E-05
   -.112E-01 0.662E+02 0.505E+02   0.921E-02 -.677E+02 -.463E+02   0.126E-02 0.154E+01 -.416E+01   0.269E-07 0.208E-05 -.401E-05
   -.225E+01 0.349E+02 -.558E+03   0.111E+01 -.365E+02 0.563E+03   0.117E+01 0.139E+01 -.350E+01   0.820E-07 -.220E-06 0.725E-05
   -.551E-03 -.571E+02 0.526E+03   0.909E-04 0.587E+02 -.530E+03   -.172E-03 -.154E+01 0.428E+01   0.312E-07 -.271E-06 -.218E-05
   0.647E+00 -.673E+02 -.871E+02   -.784E+00 0.701E+02 0.833E+02   0.790E+00 -.265E+01 0.480E+01   0.153E-06 0.622E-06 -.152E-05
   0.131E-02 0.541E+02 0.526E+03   -.517E-05 -.560E+02 -.531E+03   0.103E-02 0.191E+01 0.416E+01   0.184E-07 0.196E-05 -.212E-05
   0.374E+02 0.909E+02 -.537E+01   -.374E+02 -.921E+02 0.490E+01   -.110E+02 0.498E+01 -.172E+02   -.269E-05 -.217E-05 -.983E-05
   0.248E-03 0.152E+01 0.572E+03   -.828E-04 -.172E+01 -.577E+03   0.136E-02 0.203E+00 0.477E+01   0.224E-07 -.180E-05 -.495E-05
   -.113E+01 -.397E+02 -.123E+02   0.125E+01 0.392E+02 0.911E+01   0.572E+00 0.109E+01 0.219E+01   0.312E-06 0.809E-06 -.555E-05
   -.339E-02 -.650E+02 0.560E+02   -.102E-03 0.670E+02 -.518E+02   0.365E-02 -.194E+01 -.405E+01   0.274E-07 -.149E-05 -.329E-05
   -.337E+00 -.188E+02 -.510E+03   0.122E-01 0.209E+02 0.513E+03   0.111E+00 -.201E+01 -.410E+01   -.221E-07 -.191E-05 0.396E-05
   0.318E-02 0.320E+02 0.209E+03   -.527E-03 -.341E+02 -.209E+03   0.282E-03 0.213E+01 0.343E+00   -.107E-07 0.164E-05 -.324E-05
   0.255E+02 -.183E+02 -.332E+03   -.219E+02 0.164E+02 0.325E+03   -.130E+02 0.808E+01 0.236E+02   -.395E-06 0.256E-05 0.156E-05
   -.933E-03 -.138E+02 0.138E+03   -.309E-03 0.141E+02 -.140E+03   -.756E-03 -.285E+00 0.254E+01   -.765E-08 -.342E-05 -.351E-05
   -.206E+01 -.330E+01 -.288E+03   0.169E+01 0.295E+01 0.289E+03   -.321E-01 -.165E+00 -.162E+01   0.102E-06 0.327E-06 -.154E-06
   -.630E-03 -.557E+01 0.346E+03   0.655E-04 0.604E+01 -.343E+03   0.514E-03 -.471E+00 -.253E+01   -.146E-07 -.300E-05 -.339E-05
   -.139E+01 -.507E+02 -.138E+03   0.817E+00 0.533E+02 0.136E+03   -.767E-01 -.132E+01 0.172E+01   -.597E-07 0.294E-05 -.234E-05
   0.242E-02 0.964E+01 0.336E+03   0.355E-04 -.988E+01 -.333E+03   -.280E-02 0.225E+00 -.253E+01   -.191E-08 0.223E-05 -.253E-05
   -.371E+02 0.132E+02 -.982E+02   0.335E+02 -.115E+02 0.103E+03   0.136E+02 -.425E+01 -.213E+02   0.138E-05 0.204E-05 -.557E-05
   -.329E-01 0.105E+02 0.129E+03   0.291E-02 -.109E+02 -.131E+03   0.315E-01 0.370E+00 0.251E+01   -.736E-08 0.139E-05 -.309E-05
   0.356E+01 -.237E+02 -.328E+03   -.259E+01 0.230E+02 0.327E+03   -.265E+00 0.305E+00 0.817E-01   -.168E-06 0.232E-05 0.326E-06
   0.266E-02 -.310E+02 0.253E+03   -.138E-03 0.331E+02 -.253E+03   -.138E-03 -.210E+01 -.387E+00   -.228E-07 0.342E-07 -.365E-05
   -.269E+02 0.102E+03 -.262E+03   0.239E+02 -.966E+02 0.257E+03   0.125E+02 -.134E+02 0.238E+02   0.958E-06 -.610E-05 0.174E-05
 -----------------------------------------------------------------------------------------------
   -.461E+01 0.846E+01 -.487E+01   -.178E-13 -.426E-13 -.284E-12   0.462E+01 -.846E+01 0.488E+01   0.559E-07 0.337E-05 -.423E-04
 
 
 POSITION                                       TOTAL-FORCE (eV/Angst)
 -----------------------------------------------------------------------------------
      0.00000      2.34757      6.41229        -0.000456     -0.026253      0.020484
      0.88510      5.43588     14.16300         0.072783      0.051862     -0.012937
     -0.00000      9.43147      5.75866        -0.000993     -0.015777      0.077981
      2.65530      2.22542     13.50937         0.032165     -0.241495      0.658555
     -0.00000      6.40009      2.31424        -0.000939     -0.004306      0.004044
     -0.00000      6.40009     10.06495         0.652895      0.198256      0.971017
      1.77020     10.27849      2.37372         0.002022      0.000008      0.002197
      1.77020     10.27849     10.12443       -10.976015      3.850926    -17.661363
      1.77020      3.18974      1.66157         0.001220     -0.000217      0.011494
      1.77020      3.18974      9.41228         0.691101      0.558292     -0.998199
      1.77020      5.55354      5.69975        -0.000155      0.005952      0.097929
     -0.88510      8.64185     13.45047        -0.213959      0.019232     -0.291925
      1.77020      9.05319      4.34076         0.002626     -0.002733      0.012759
      0.88510      1.84715     12.09147        -9.366560      6.156146     16.809351
      0.00000      4.22380      5.10944        -0.002304      0.023207      0.061546
      0.88510      7.31211     12.86016        -0.406531     -0.509397     -1.259266
     -0.00000      4.15582      2.74166        -0.000356     -0.001246     -0.021006
     -0.00000      4.15582     10.49237        -0.653866      1.280813      0.416238
      1.77020      1.31366      2.96438        -0.000647     -0.007529     -0.023490
      1.77020      1.31366     10.71510         9.983440     -2.644590    -16.466250
      1.77020      1.38163      5.33187         0.001226     -0.024206      0.004603
      2.65530      4.46993     13.08259         0.702572     -0.369445     -0.799761
      1.77020      6.77850      3.73234         0.002077      0.002750      0.000306
     -0.88510      9.86680     11.48306         9.478653     -8.300249     18.385692
 -----------------------------------------------------------------------------------
    total drift:                                0.007333      0.000611      0.005111


--------------------------------------------------------------------------------------------------------



  FREE ENERGIE OF THE ION-ELECTRON SYSTEM (eV)
  ---------------------------------------------------
  free  energy   TOTEN  =      -116.82168510 eV

  energy  without entropy=     -116.78727021  energy(sigma->0) =     -116.80447765
 


--------------------------------------------------------------------------------------------------------


    POTLOK:  cpu time   12.25: real time   12.25


--------------------------------------------------------------------------------------------------------


     LOOP+:  cpu time 2428.26: real time 2428.89
    4ORBIT:  cpu time    0.00: real time    0.00

 total amount of memory used by VASP on root node   146493. kBytes
========================================================================

   base      :      30000. kBytes
   nonlr-proj:       3452. kBytes
   fftplans  :       9347. kBytes
   grid      :      14649. kBytes
   one-center:         36. kBytes
   wavefun   :      89009. kBytes
 
  
  
 General timing and accounting informations for this job:
 ========================================================
  
                  Total CPU time used (sec):     2442.639
                            User time (sec):     2417.676
                          System time (sec):       24.962
                         Elapsed time (sec):     2444.345
  
                   Maximum memory used (kb):      335208.
                   Average memory used (kb):           0.
  
                          Minor page faults:      8375222
                          Major page faults:            9
                 Voluntary context switches:         1727
